<event>
 7    1  0.2499014E-009  0.1423797E+03  0.7561462E-02  0.1210162E+00
         -3   -1    0    0    0  501 -0.00000000000E+00  0.00000000000E+00  0.61075792125E+03  0.61075792125E+03  0.00000000000E+00 0.  1.
          3   -1    0    0  501    0  0.00000000000E+00 -0.00000000000E+00 -0.39305745997E+02  0.39305745997E+02  0.00000000000E+00 0. -1.
         25    2    1    2    0    0  0.41475216458E+02  0.98752841578E+02  0.35687191115E+03  0.39303563933E+03  0.12508851074E+03 0.  0.
          5    1    3    3  502    0 -0.95139825925E+01  0.10004539037E+03  0.15498377179E+03  0.18476211169E+03  0.41800000000E+01 0. -1.
         -5    1    3    3    0  502  0.50989199050E+02 -0.12925487902E+01  0.20188813936E+03  0.20827352765E+03  0.41800000000E+01 0. -1.
        -11    1    1    2    0    0 -0.46251324242E+02 -0.11078589635E+03  0.21228433346E+03  0.24387976147E+03  0.00000000000E+00 0.  1.
         11    1    1    2    0    0  0.47761077847E+01  0.12033054776E+02  0.22959306478E+01  0.13148266439E+02  0.00000000000E+00 0. -1.
</event>
<event>
 7    1  0.2499014E-009  0.8621368E+02  0.7561462E-02  0.1312289E+00
          4   -1    0    0  501    0  0.00000000000E+00  0.00000000000E+00  0.74304699355E+03  0.74304699355E+03  0.00000000000E+00 0.  1.
         -4   -1    0    0    0  501 -0.00000000000E+00 -0.00000000000E+00 -0.17086922233E+02  0.17086922233E+02  0.00000000000E+00 0. -1.
         25    2    1    2    0    0  0.26406565154E+02 -0.70283464792E+01  0.30382480419E+03  0.32970304721E+03  0.12509149996E+03 0.  0.
          5    1    3    3  502    0 -0.25285517912E+02  0.19299728607E+02  0.15610831244E+02  0.35679229146E+02  0.41800000000E+01 0. -1.
         -5    1    3    3    0  502  0.51692083066E+02 -0.26328075086E+02  0.28821397294E+03  0.29402381806E+03  0.41800000000E+01 0. -1.
        -11    1    1    2    0    0  0.25785096813E+02  0.14304324868E+02  0.11025118225E+03  0.11412628144E+03  0.00000000000E+00 0. -1.
         11    1    1    2    0    0 -0.52191661967E+02 -0.72759783884E+01  0.31188408488E+03  0.31630458713E+03  0.00000000000E+00 0.  1.
</event>
<event>
 7    1  0.2499014E-009  0.9455181E+02  0.7561462E-02  0.1292189E+00
         -1   -1    0    0    0  501 -0.00000000000E+00  0.00000000000E+00  0.93243051493E+01  0.93243051493E+01  0.00000000000E+00 0.  1.
          1   -1    0    0  501    0  0.00000000000E+00 -0.00000000000E+00 -0.16964604819E+04  0.16964604819E+04  0.00000000000E+00 0. -1.
         25    2    1    2    0    0 -0.99060031170E+01 -0.53415543538E+02 -0.11702488505E+04  0.11781682000E+04  0.12508631486E+03 0.  0.
          5    1    3    3  502    0 -0.17063563307E+02  0.97478022711E+01 -0.91049248593E+03  0.91071412868E+03  0.41800000000E+01 0. -1.
         -5    1    3    3    0  502  0.71575601896E+01 -0.63163345809E+02 -0.25975636455E+03  0.26745407128E+03  0.41800000000E+01 0. -1.
        -11    1    1    2    0    0 -0.88731756674E+01 -0.24030933833E+02 -0.10394132189E+03  0.10705147090E+03  0.00000000000E+00 0.  1.
         11    1    1    2    0    0  0.18779178784E+02  0.77446477371E+02 -0.41294600442E+03  0.42056511622E+03  0.00000000000E+00 0. -1.
</event>
<event>
 7    1  0.2499014E-009  0.1730522E+03  0.7561462E-02  0.1174702E+00
          2   -1    0    0  501    0  0.00000000000E+00  0.00000000000E+00  0.40684453504E+03  0.40684453504E+03  0.00000000000E+00 0. -1.
         -2   -1    0    0    0  501 -0.00000000000E+00 -0.00000000000E+00 -0.77572960051E+02  0.77572960051E+02  0.00000000000E+00 0.  1.
         25    2    1    2    0    0 -0.12630701989E+03  0.61291341912E+02  0.18658045824E+03  0.26489649820E+03  0.12509114875E+03 0.  0.
          5    1    3    3  502    0 -0.81213016414E+02  0.93810335288E+02  0.89864359352E+02  0.15326124273E+03  0.41800000000E+01 0. -1.
         -5    1    3    3    0  502 -0.45094003477E+02 -0.32518993376E+02  0.96716098887E+02  0.11163525547E+03  0.41800000000E+01 0. -1.
        -11    1    1    2    0    0  0.98438006124E+02  0.47357823208E+00  0.75131612475E+02  0.12383466606E+03  0.00000000000E+00 0. -1.
         11    1    1    2    0    0  0.27869013767E+02 -0.61764920144E+02  0.67559504271E+02  0.95686330822E+02  0.00000000000E+00 0.  1.
</event>
<event>
 7    1  0.2499014E-009  0.1047289E+03  0.7561462E-02  0.1270655E+00
          1   -1    0    0  501    0  0.00000000000E+00  0.00000000000E+00  0.35362539809E+03  0.35362539809E+03  0.00000000000E+00 0. -1.
         -1   -1    0    0    0  501 -0.00000000000E+00 -0.00000000000E+00 -0.34578602477E+02  0.34578602477E+02  0.00000000000E+00 0.  1.
         25    2    1    2    0    0  0.12912993780E+01  0.53633425926E+00  0.22319626036E+03  0.25586378005E+03  0.12509095968E+03 0.  0.
          5    1    3    3  502    0 -0.48142622024E+02  0.39029989125E+02  0.11802318297E+03  0.13337164700E+03  0.41800000000E+01 0. -1.
         -5    1    3    3    0  502  0.49433921402E+02 -0.38493654865E+02  0.10517307739E+03  0.12249213305E+03  0.41800000000E+01 0. -1.
        -11    1    1    2    0    0 -0.71870890353E+00 -0.42537172167E+02  0.73078095175E+02  0.84559656769E+02  0.00000000000E+00 0.  1.
         11    1    1    2    0    0 -0.57259047449E+00  0.42000837908E+02  0.22772440075E+02  0.47780563745E+02  0.00000000000E+00 0. -1.
</event>
<event>
 7    1  0.2499014E-009  0.1727300E+03  0.7561462E-02  0.1175030E+00
          2   -1    0    0  501    0  0.00000000000E+00  0.00000000000E+00  0.61595586649E+03  0.61595586649E+03  0.00000000000E+00 0. -1.
         -2   -1    0    0    0  501 -0.00000000000E+00 -0.00000000000E+00 -0.55847101907E+02  0.55847101907E+02  0.00000000000E+00 0.  1.
         25    2    1    2    0    0  0.10815203715E+03  0.10197717782E+03  0.33090312116E+03  0.38371883491E+03  0.12508821183E+03 0.  0.
          5    1    3    3  502    0  0.12726425555E+03  0.88018781761E+02  0.32340853004E+03  0.35854434368E+03  0.41800000000E+01 0.  1.
         -5    1    3    3    0  502 -0.19112218400E+02  0.13958396061E+02  0.74945911189E+01  0.25174491233E+02  0.41800000000E+01 0.  1.
        -11    1    1    2    0    0 -0.11987424659E+03 -0.90223576610E+02  0.22585907616E+03  0.27115023706E+03  0.00000000000E+00 0. -1.
         11    1    1    2    0    0  0.11722209445E+02 -0.11753601212E+02  0.33465672627E+01  0.16933896426E+02  0.00000000000E+00 0.  1.
</event>
<event>
 7    1  0.2499014E-009  0.8231538E+02  0.7561462E-02  0.1322606E+00
         -2   -1    0    0    0  501 -0.00000000000E+00  0.00000000000E+00  0.14930097909E+02  0.14930097909E+02  0.00000000000E+00 0.  1.
          2   -1    0    0  501    0  0.00000000000E+00 -0.00000000000E+00 -0.13864700209E+04  0.13864700209E+04  0.00000000000E+00 0. -1.
         25    2    1    2    0    0  0.37556167323E+02 -0.20826368857E+01 -0.11685612114E+04  0.11758386636E+04  0.12508579026E+03 0.  0.
          5    1    3    3  502    0 -0.18272004027E+02  0.13719266283E+02 -0.92990725835E+03  0.93019732634E+03  0.41800000000E+01 0.  1.
         -5    1    3    3    0  502  0.55828171351E+02 -0.15801903169E+02 -0.23865395308E+03  0.24564133728E+03  0.41800000000E+01 0.  1.
        -11    1    1    2    0    0  0.18883831634E+02  0.16390877510E+02 -0.15902369210E+02  0.29633516653E+02  0.00000000000E+00 0.  1.
         11    1    1    2    0    0 -0.56439998958E+02 -0.14308240624E+02 -0.18707634239E+03  0.19592793857E+03  0.00000000000E+00 0. -1.
</event>
<event>
 7    1  0.2499014E-009  0.1735857E+03  0.7561462E-02  0.1174159E+00
          2   -1    0    0  501    0  0.00000000000E+00  0.00000000000E+00  0.84854107095E+03  0.84854107095E+03  0.00000000000E+00 0.  1.
         -2   -1    0    0    0  501 -0.00000000000E+00 -0.00000000000E+00 -0.36617963563E+02  0.36617963563E+02  0.00000000000E+00 0. -1.
         25    2    1    2    0    0  0.10475435088E+03 -0.89344646996E+02  0.40513290096E+03  0.44579805897E+03  0.12508917604E+03 0.  0.
          5    1    3    3  502    0  0.12475676063E+03 -0.44403444767E+02  0.24911268949E+03  0.28215336201E+03  0.41800000000E+01 0. -1.
         -5    1    3    3    0  502 -0.20002409752E+02 -0.44941202229E+02  0.15602021147E+03  0.16364469696E+03  0.41800000000E+01 0. -1.
        -11    1    1    2    0    0 -0.88761302124E+02  0.10861534008E+03  0.32949008565E+03  0.35810553947E+03  0.00000000000E+00 0.  1.
         11    1    1    2    0    0 -0.15993048756E+02 -0.19270693083E+02  0.77300120774E+02  0.81255436077E+02  0.00000000000E+00 0. -1.
</event>
<event>
 7    1  0.2499014E-009  0.1463988E+03  0.7561462E-02  0.1204969E+00
          1   -1    0    0  501    0  0.00000000000E+00  0.00000000000E+00  0.14310095716E+03  0.14310095716E+03  0.00000000000E+00 0. -1.
         -1   -1    0    0    0  501 -0.00000000000E+00 -0.00000000000E+00 -0.75758613728E+03  0.75758613728E+03  0.00000000000E+00 0.  1.
         25    2    1    2    0    0 -0.93227196395E+02 -0.63256661896E+02 -0.70934466366E+03  0.72904855545E+03  0.12509687813E+03 0.  0.
          5    1    3    3  502    0 -0.57583016589E+02 -0.89605482185E+02 -0.62139908995E+03  0.63047541398E+03  0.41800000000E+01 0. -1.
         -5    1    3    3    0  502 -0.35644179806E+02  0.26348820290E+02 -0.87945573707E+02  0.98573141470E+02  0.41800000000E+01 0. -1.
        -11    1    1    2    0    0  0.46524718995E+02 -0.16410026604E+02  0.44575548056E+02  0.66489231723E+02  0.00000000000E+00 0. -1.
         11    1    1    2    0    0  0.46702477400E+02  0.79666688500E+02  0.50283935477E+02  0.10514930727E+03  0.00000000000E+00 0.  1.
</event>
<event>
 7    1  0.2499014E-009  0.2295600E+03  0.7561462E-02  0.1126950E+00
          1   -1    0    0  501    0  0.00000000000E+00  0.00000000000E+00  0.26770226148E+03  0.26770226148E+03  0.00000000000E+00 0. -1.
         -1   -1    0    0    0  501 -0.00000000000E+00 -0.00000000000E+00 -0.22078993067E+03  0.22078993067E+03  0.00000000000E+00 0.  1.
         25    2    1    2    0    0  0.28692152032E+02 -0.20888605112E+03 -0.49704794220E+02  0.25015125746E+03  0.12509381719E+03 0.  0.
          5    1    3    3  502    0 -0.46041479428E+02 -0.78681937037E+02 -0.40036885742E+02  0.99654852685E+02  0.41800000000E+01 0.  1.
         -5    1    3    3    0  502  0.74733631460E+02 -0.13020411408E+03 -0.96679084773E+01  0.15049640477E+03  0.41800000000E+01 0.  1.
        -11    1    1    2    0    0  0.13571071526E+02  0.99290642490E+02  0.39351119873E+02  0.10766297555E+03  0.00000000000E+00 0. -1.
         11    1    1    2    0    0 -0.42263223558E+02  0.10959540863E+03  0.57266005164E+02  0.13067795914E+03  0.00000000000E+00 0.  1.
</event>
<event>
 7    1  0.2499014E-009  0.2078133E+03  0.7561462E-02  0.1143309E+00
         -1   -1    0    0    0  501 -0.00000000000E+00  0.00000000000E+00  0.62673873898E+02  0.62673873898E+02  0.00000000000E+00 0.  1.
          1   -1    0    0  501    0  0.00000000000E+00 -0.00000000000E+00 -0.11432664671E+04  0.11432664671E+04  0.00000000000E+00 0. -1.
         25    2    1    2    0    0 -0.12959764103E+03  0.13909600975E+03 -0.92534850335E+03  0.95292210623E+03  0.12508972536E+03 0.  0.
          5    1    3    3  502    0  0.19242744227E+02  0.17236567444E+02 -0.47470597474E+02  0.54206203401E+02  0.41800000000E+01 0.  1.
         -5    1    3    3    0  502 -0.14884038526E+03  0.12185944230E+03 -0.87787790588E+03  0.89871590283E+03  0.41800000000E+01 0.  1.
        -11    1    1    2    0    0  0.64458609435E+02 -0.10581179181E+03 -0.76857393230E+02  0.14580159982E+03  0.00000000000E+00 0. -1.
         11    1    1    2    0    0  0.65139031597E+02 -0.33284217940E+02 -0.78386696591E+02  0.10721663492E+03  0.00000000000E+00 0.  1.
</event>
<event>
 7    1  0.2499014E-009  0.1620267E+03  0.7561462E-02  0.1186427E+00
         -2   -1    0    0    0  501 -0.00000000000E+00  0.00000000000E+00  0.58066884082E+02  0.58066884082E+02  0.00000000000E+00 0.  1.
          2   -1    0    0  501    0  0.00000000000E+00 -0.00000000000E+00 -0.95542855121E+03  0.95542855121E+03  0.00000000000E+00 0. -1.
         25    2    1    2    0    0  0.11947795862E+03 -0.88892106050E+02 -0.14875368016E+03  0.24485740673E+03  0.12510277037E+03 0.  0.
          5    1    3    3  502    0  0.11249149887E+03 -0.92575755498E+02 -0.63235401225E+02  0.15887352263E+03  0.41800000000E+01 0. -1.
         -5    1    3    3    0  502  0.69864597492E+01  0.36836494485E+01 -0.85518278935E+02  0.85983884101E+02  0.41800000000E+01 0. -1.
        -11    1    1    2    0    0 -0.95479656270E+02  0.21551368992E+02 -0.33940505394E+03  0.35323733793E+03  0.00000000000E+00 0.  1.
         11    1    1    2    0    0 -0.23998302347E+02  0.67340737058E+02 -0.40920293303E+03  0.41540069064E+03  0.00000000000E+00 0. -1.
</event>
<event>
 7    1  0.2499014E-009  0.1347888E+03  0.7561462E-02  0.1220518E+00
         -1   -1    0    0    0  501 -0.00000000000E+00  0.00000000000E+00  0.44686932360E+02  0.44686932360E+02  0.00000000000E+00 0.  1.
          1   -1    0    0  501    0  0.00000000000E+00 -0.00000000000E+00 -0.66326179958E+03  0.66326179958E+03  0.00000000000E+00 0. -1.
         25    2    1    2    0    0  0.23985773785E+01 -0.13385126978E+03 -0.28531086521E+03  0.33907340374E+03  0.12508624113E+03 0.  0.
          5    1    3    3  502    0  0.24379599940E+01 -0.94387564555E+02 -0.28405893415E+03  0.29936918088E+03  0.41800000000E+01 0. -1.
         -5    1    3    3    0  502 -0.39382615527E-01 -0.39463705224E+02 -0.12519310588E+01  0.39704222853E+02  0.41800000000E+01 0. -1.
        -11    1    1    2    0    0  0.85840968526E+01  0.77180380865E+02 -0.27915543584E+03  0.28975550947E+03  0.00000000000E+00 0. -1.
         11    1    1    2    0    0 -0.10982674231E+02  0.56670888914E+02 -0.54108566173E+02  0.79119818736E+02  0.00000000000E+00 0.  1.
</event>
<event>
 7    1  0.2499014E-009  0.1073702E+03  0.7561462E-02  0.1265519E+00
          4   -1    0    0  501    0  0.00000000000E+00  0.00000000000E+00  0.10993375696E+02  0.10993375696E+02  0.00000000000E+00 0. -1.
         -4   -1    0    0    0  501 -0.00000000000E+00 -0.00000000000E+00 -0.12738813561E+04  0.12738813561E+04  0.00000000000E+00 0.  1.
         25    2    1    2    0    0 -0.39680546432E+02  0.12709763031E+02 -0.66817730883E+03  0.68106125812E+03  0.12508971753E+03 0.  0.
          5    1    3    3  502    0 -0.67910507368E+02 -0.15918357324E+02 -0.21467626396E+03  0.22576226837E+03  0.41800000000E+01 0.  1.
         -5    1    3    3    0  502  0.28229960936E+02  0.28628120355E+02 -0.45350104487E+03  0.45529898975E+03  0.41800000000E+01 0.  1.
        -11    1    1    2    0    0 -0.13982282876E+02  0.31789659672E+02 -0.20147713173E+03  0.20444833407E+03  0.00000000000E+00 0.  1.
         11    1    1    2    0    0  0.53662829309E+02 -0.44499422703E+02 -0.39323353987E+03  0.39936513963E+03  0.00000000000E+00 0. -1.
</event>
<event>
 7    1  0.2499014E-009  0.8568924E+02  0.7561462E-02  0.1313640E+00
          1   -1    0    0  501    0  0.00000000000E+00  0.00000000000E+00  0.59930025148E+02  0.59930025148E+02  0.00000000000E+00 0. -1.
         -1   -1    0    0    0  501 -0.00000000000E+00 -0.00000000000E+00 -0.20055746034E+03  0.20055746034E+03  0.00000000000E+00 0.  1.
         25    2    1    2    0    0  0.11246450604E+02  0.11165010277E+02 -0.75867557776E+02  0.14715190378E+03  0.12508659544E+03 0.  0.
          5    1    3    3  502    0  0.33265270573E+02  0.58480319204E+02 -0.65077305162E+02  0.93696606169E+02  0.41800000000E+01 0. -1.
         -5    1    3    3    0  502 -0.22018819969E+02 -0.47315308927E+02 -0.10790252614E+02  0.53455297615E+02  0.41800000000E+01 0. -1.
        -11    1    1    2    0    0  0.15878184308E+02  0.85951801267E+01 -0.75867254636E+02  0.77986115330E+02  0.00000000000E+00 0.  1.
         11    1    1    2    0    0 -0.27124634911E+02 -0.19760190404E+02  0.11107377223E+02  0.35349466370E+02  0.00000000000E+00 0. -1.
</event>
<event>
 7    1  0.2499014E-009  0.7580816E+02  0.7561462E-02  0.1341387E+00
         -2   -1    0    0    0  501 -0.00000000000E+00  0.00000000000E+00  0.21886256331E+03  0.21886256331E+03  0.00000000000E+00 0.  1.
          2   -1    0    0  501    0  0.00000000000E+00 -0.00000000000E+00 -0.57874023883E+02  0.57874023883E+02  0.00000000000E+00 0. -1.
         25    2    1    2    0    0  0.26498941587E+02 -0.11261886975E+02  0.81660274068E+02  0.15213571516E+03  0.12509137246E+03 0.  0.
          5    1    3    3  502    0  0.49873740309E+00  0.41460771938E+02 -0.10285134539E+02  0.42924360696E+02  0.41800000000E+01 0. -1.
         -5    1    3    3    0  502  0.26000204184E+02 -0.52722658913E+02  0.91945408607E+02  0.10921135447E+03  0.41800000000E+01 0. -1.
        -11    1    1    2    0    0 -0.11475900456E+02 -0.16113411270E+02 -0.15264696243E+02  0.24986981919E+02  0.00000000000E+00 0. -1.
         11    1    1    2    0    0 -0.15023041131E+02  0.27375298245E+02  0.94592961604E+02  0.99613890115E+02  0.00000000000E+00 0.  1.
</event>
<event>
 7    1  0.2639759E-009  0.1266301E+03  0.7561462E-02  0.1232543E+00
          2   -1    0    0  501    0  0.00000000000E+00  0.00000000000E+00  0.51497952395E+03  0.51497952395E+03  0.00000000000E+00 0. -1.
         -2   -1    0    0    0  501 -0.00000000000E+00 -0.00000000000E+00 -0.31908762845E+02  0.31908762845E+02  0.00000000000E+00 0.  1.
         25    2    1    2    0    0 -0.49725347242E+02 -0.47003403062E+02  0.26992561486E+03  0.30526929619E+03  0.12509026975E+03 0.  0.
          5    1    3    3  502    0 -0.38477387274E+02 -0.88878920319E+02  0.20884186921E+03  0.23024415420E+03  0.41800000000E+01 0.  1.
         -5    1    3    3    0  502 -0.11247959968E+02  0.41875517257E+02  0.61083745644E+02  0.75025141991E+02  0.41800000000E+01 0.  1.
        -11    1    1    2    0    0  0.44900147446E+02 -0.17415689810E+02  0.75235451868E+02  0.89329181738E+02  0.00000000000E+00 0.  1.
         11    1    1    2    0    0  0.48251997960E+01  0.64419092872E+02  0.13790969439E+03  0.15228980887E+03  0.00000000000E+00 0. -1.
</event>
<event>
 7    1  0.2499014E-009  0.1062889E+03  0.7561462E-02  0.1267601E+00
          1   -1    0    0  501    0  0.00000000000E+00  0.00000000000E+00  0.12931772211E+03  0.12931772211E+03  0.00000000000E+00 0. -1.
         -1   -1    0    0    0  501 -0.00000000000E+00 -0.00000000000E+00 -0.11148274598E+03  0.11148274598E+03  0.00000000000E+00 0.  1.
         25    2    1    2    0    0  0.16400677131E+02 -0.98107262196E+01  0.60503005839E+02  0.14026389774E+03  0.12509242477E+03 0.  0.
          5    1    3    3  502    0 -0.43270152106E+02  0.28045411839E+02  0.43179557818E+02  0.67385442062E+02  0.41800000000E+01 0.  1.
         -5    1    3    3    0  502  0.59670829237E+02 -0.37856138059E+02  0.17323448021E+02  0.72878455678E+02  0.41800000000E+01 0.  1.
        -11    1    1    2    0    0  0.32076845109E+02 -0.15211123221E+02 -0.97299851014E+01  0.36809983318E+02  0.00000000000E+00 0. -1.
         11    1    1    2    0    0 -0.48477522240E+02  0.25021849441E+02 -0.32938044602E+02  0.63726587028E+02  0.00000000000E+00 0.  1.
</event>
<event>
 7    1  0.2499014E-009  0.1153357E+03  0.7561462E-02  0.1250996E+00
         -2   -1    0    0    0  501 -0.00000000000E+00  0.00000000000E+00  0.23533628423E+03  0.23533628423E+03  0.00000000000E+00 0.  1.
          2   -1    0    0  501    0  0.00000000000E+00 -0.00000000000E+00 -0.20407588601E+03  0.20407588601E+03  0.00000000000E+00 0. -1.
         25    2    1    2    0    0 -0.77200932914E+02  0.16309845811E+02  0.18542179325E+03  0.23717834228E+03  0.12508528899E+03 0.  0.
          5    1    3    3  502    0 -0.57355876166E+02  0.39788947745E+02  0.25751277860E+02  0.74521524439E+02  0.41800000000E+01 0. -1.
         -5    1    3    3    0  502 -0.19845056748E+02 -0.23479101933E+02  0.15967051540E+03  0.16265681784E+03  0.41800000000E+01 0. -1.
        -11    1    1    2    0    0  0.47037236928E+02  0.42645668436E+02 -0.61959067662E+02  0.88713475638E+02  0.00000000000E+00 0.  1.
         11    1    1    2    0    0  0.30163695986E+02 -0.58955514247E+02 -0.92202327374E+02  0.11352035231E+03  0.00000000000E+00 0. -1.
</event>
<event>
 7    1  0.2499014E-009  0.1134947E+03  0.7561462E-02  0.1254232E+00
          1   -1    0    0  501    0  0.00000000000E+00  0.00000000000E+00  0.35075533788E+02  0.35075533788E+02  0.00000000000E+00 0. -1.
         -1   -1    0    0    0  501 -0.00000000000E+00 -0.00000000000E+00 -0.47736621343E+03  0.47736621343E+03  0.00000000000E+00 0.  1.
         25    2    1    2    0    0  0.48212510318E+02 -0.16670232768E+02 -0.15144962837E+03  0.20294763304E+03  0.12509360099E+03 0.  0.
          5    1    3    3  502    0  0.39016931422E+02  0.46711991982E+02 -0.35944086936E+02  0.70808056873E+02  0.41800000000E+01 0. -1.
         -5    1    3    3    0  502  0.91955788960E+01 -0.63382224750E+02 -0.11550554144E+03  0.13213957616E+03  0.41800000000E+01 0. -1.
        -11    1    1    2    0    0  0.18092673709E+02 -0.19227598579E+02 -0.11809262201E+03  0.12100790372E+03  0.00000000000E+00 0.  1.
         11    1    1    2    0    0 -0.66305184027E+02  0.35897831347E+02 -0.17274842926E+03  0.18848621046E+03  0.00000000000E+00 0. -1.
</event>
<event>
 7    1  0.2499014E-009  0.1038893E+03  0.7561462E-02  0.1272324E+00
         -3   -1    0    0    0  501 -0.00000000000E+00  0.00000000000E+00  0.34252611175E+02  0.34252611175E+02  0.00000000000E+00 0.  1.
          3   -1    0    0  501    0  0.00000000000E+00 -0.00000000000E+00 -0.46846732062E+03  0.46846732062E+03  0.00000000000E+00 0. -1.
         25    2    1    2    0    0 -0.62457766514E+02  0.17211812957E+02 -0.29587877066E+03  0.32769930529E+03  0.12508144810E+03 0.  0.
          5    1    3    3  502    0 -0.61767771427E+02  0.53320886455E+02 -0.27247328596E+03  0.28446008240E+03  0.41800000000E+01 0.  1.
         -5    1    3    3    0  502 -0.68999508682E+00 -0.36109073497E+02 -0.23405484705E+02  0.43239222892E+02  0.41800000000E+01 0.  1.
        -11    1    1    2    0    0  0.69296686496E+02  0.19975798963E+01 -0.13821851222E+03  0.15462981021E+03  0.00000000000E+00 0. -1.
         11    1    1    2    0    0 -0.68389199817E+01 -0.19209392854E+02 -0.11742656820E+00  0.20390816299E+02  0.00000000000E+00 0.  1.
</event>
<event>
 7    1  0.2499014E-009  0.1179555E+03  0.7561462E-02  0.1246508E+00
          2   -1    0    0  501    0  0.00000000000E+00  0.00000000000E+00  0.10924110315E+03  0.10924110315E+03  0.00000000000E+00 0. -1.
         -2   -1    0    0    0  501 -0.00000000000E+00 -0.00000000000E+00 -0.24573148174E+03  0.24573148174E+03  0.00000000000E+00 0.  1.
         25    2    1    2    0    0 -0.86366709359E+02 -0.25723647020E+02 -0.16350667958E+03  0.22472903362E+03  0.12509112592E+03 0.  0.
          5    1    3    3  502    0  0.87953043098E+01 -0.53336731428E+01 -0.11567672602E+03  0.11620835938E+03  0.41800000000E+01 0.  1.
         -5    1    3    3    0  502 -0.95162013669E+02 -0.20389973877E+02 -0.47829953552E+02  0.10852067424E+03  0.41800000000E+01 0.  1.
        -11    1    1    2    0    0  0.26024185821E+02  0.54611683008E+02  0.13806681473E+02  0.62050935705E+02  0.00000000000E+00 0. -1.
         11    1    1    2    0    0  0.60342523538E+02 -0.28888035988E+02  0.13209619506E+02  0.68192615566E+02  0.00000000000E+00 0.  1.
</event>
<event>
 7    1  0.2499014E-009  0.1834736E+03  0.7561462E-02  0.1164483E+00
          1   -1    0    0  501    0  0.00000000000E+00  0.00000000000E+00  0.31283930191E+03  0.31283930191E+03  0.00000000000E+00 0. -1.
         -1   -1    0    0    0  501 -0.00000000000E+00 -0.00000000000E+00 -0.20589374719E+03  0.20589374719E+03  0.00000000000E+00 0.  1.
         25    2    1    2    0    0  0.12881249008E+03  0.11814724146E+03  0.20585990136E+03  0.29761811353E+03  0.12508722656E+03 0.  0.
          5    1    3    3  502    0  0.32530987437E+02  0.40573887517E+02  0.15554837004E+03  0.16406484485E+03  0.41800000000E+01 0.  1.
         -5    1    3    3    0  502  0.96281502645E+02  0.77573353941E+02  0.50311531318E+02  0.13355326869E+03  0.41800000000E+01 0.  1.
        -11    1    1    2    0    0 -0.61868978395E+02 -0.10641987782E+03 -0.35383142418E+02  0.12808172254E+03  0.00000000000E+00 0. -1.
         11    1    1    2    0    0 -0.66943511687E+02 -0.11727363641E+02 -0.63531204224E+02  0.93033213022E+02  0.00000000000E+00 0.  1.
</event>
<event>
 7    1  0.2499014E-009  0.1706085E+03  0.7561462E-02  0.1177215E+00
         -2   -1    0    0    0  501 -0.00000000000E+00  0.00000000000E+00  0.90544041680E+02  0.90544041680E+02  0.00000000000E+00 0.  1.
          2   -1    0    0  501    0  0.00000000000E+00 -0.00000000000E+00 -0.42785888484E+03  0.42785888484E+03  0.00000000000E+00 0. -1.
         25    2    1    2    0    0 -0.11580423211E+03  0.77500114980E+02 -0.23532733682E+03  0.30073791422E+03  0.12508976616E+03 0.  0.
          5    1    3    3  502    0 -0.11234158556E+03  0.10728945083E+03 -0.21010266156E+03  0.26132787624E+03  0.41800000000E+01 0. -1.
         -5    1    3    3    0  502 -0.34626465519E+01 -0.29789335852E+02 -0.25224675253E+02  0.39410037976E+02  0.41800000000E+01 0. -1.
        -11    1    1    2    0    0  0.54699827590E+02 -0.76974593217E+02 -0.12116768913E+03  0.15361890518E+03  0.00000000000E+00 0. -1.
         11    1    1    2    0    0  0.61104404525E+02 -0.52552176303E+00  0.19180182788E+02  0.64046107120E+02  0.00000000000E+00 0.  1.
</event>
<event>
 7    1  0.2499014E-009  0.8362413E+02  0.7561462E-02  0.1319070E+00
          1   -1    0    0  501    0  0.00000000000E+00  0.00000000000E+00  0.30398090008E+02  0.30398090008E+02  0.00000000000E+00 0. -1.
         -1   -1    0    0    0  501 -0.00000000000E+00 -0.00000000000E+00 -0.44663697495E+03  0.44663697495E+03  0.00000000000E+00 0.  1.
         25    2    1    2    0    0 -0.21167080703E+01 -0.19530234299E+02 -0.32066513947E+03  0.34476031553E+03  0.12509049919E+03 0.  0.
          5    1    3    3  502    0 -0.41297901752E+02  0.25594190184E+02 -0.23635812620E+03  0.24133631198E+03  0.41800000000E+01 0.  1.
         -5    1    3    3    0  502  0.39181193681E+02 -0.45124424483E+02 -0.84307013268E+02  0.10342400355E+03  0.41800000000E+01 0.  1.
        -11    1    1    2    0    0 -0.21578456812E+02 -0.73005494835E+01 -0.93700463948E+02  0.96429791897E+02  0.00000000000E+00 0.  1.
         11    1    1    2    0    0  0.23695164882E+02  0.26830783783E+02 -0.18732815304E+01  0.35844957538E+02  0.00000000000E+00 0. -1.
</event>
<event>
 7    1  0.2499014E-009  0.1507545E+03  0.7561462E-02  0.1199549E+00
         -2   -1    0    0    0  501 -0.00000000000E+00  0.00000000000E+00  0.12810562591E+03  0.12810562591E+03  0.00000000000E+00 0.  1.
          2   -1    0    0  501    0  0.00000000000E+00 -0.00000000000E+00 -0.23486457799E+03  0.23486457799E+03  0.00000000000E+00 0. -1.
         25    2    1    2    0    0  0.53010552149E+02 -0.11223770163E+03 -0.11200259793E+03  0.20880542290E+03  0.12509077657E+03 0.  0.
          5    1    3    3  502    0  0.70937550384E+02 -0.12142141741E+03 -0.12173897411E+03  0.18604608805E+03  0.41800000000E+01 0.  1.
         -5    1    3    3    0  502 -0.17926998235E+02  0.91837157872E+01  0.97363761846E+01  0.22759334845E+02  0.41800000000E+01 0.  1.
        -11    1    1    2    0    0 -0.44244082606E+02  0.21681302154E+02 -0.28745715952E+02  0.57043263356E+02  0.00000000000E+00 0. -1.
         11    1    1    2    0    0 -0.87664695430E+01  0.90556399473E+02  0.33989361797E+02  0.97121517642E+02  0.00000000000E+00 0.  1.
</event>
<event>
 7    1  0.2499014E-009  0.1111246E+03  0.7561462E-02  0.1258501E+00
          2   -1    0    0  501    0  0.00000000000E+00  0.00000000000E+00  0.11716081094E+04  0.11716081094E+04  0.00000000000E+00 0.  1.
         -2   -1    0    0    0  501 -0.00000000000E+00 -0.00000000000E+00 -0.12761634597E+02  0.12761634597E+02  0.00000000000E+00 0. -1.
         25    2    1    2    0    0  0.27847529046E+02 -0.10730521704E+02  0.73484399753E+03  0.74601164301E+03  0.12508813625E+03 0.  0.
          5    1    3    3  502    0  0.23686783739E+02 -0.61739423979E+02  0.55624899420E+03  0.56018143146E+03  0.41800000000E+01 0. -1.
         -5    1    3    3    0  502  0.41607453067E+01  0.51008902275E+02  0.17859500332E+03  0.18583021155E+03  0.41800000000E+01 0. -1.
        -11    1    1    2    0    0 -0.57879675246E+02 -0.20415337909E+02  0.31794820818E+03  0.32381770476E+03  0.00000000000E+00 0.  1.
         11    1    1    2    0    0  0.30032146200E+02  0.31145859613E+02  0.10605426913E+03  0.11454039627E+03  0.00000000000E+00 0. -1.
</event>
<event>
 7    1  0.2499014E-009  0.1097411E+03  0.7561462E-02  0.1261050E+00
          1   -1    0    0  501    0  0.00000000000E+00  0.00000000000E+00  0.37378547144E+02  0.37378547144E+02  0.00000000000E+00 0. -1.
         -1   -1    0    0    0  501 -0.00000000000E+00 -0.00000000000E+00 -0.64253519224E+03  0.64253519224E+03  0.00000000000E+00 0.  1.
         25    2    1    2    0    0 -0.45283764996E+02 -0.55356775040E+02 -0.51032838111E+03  0.53028119689E+03  0.12509236302E+03 0.  0.
          5    1    3    3  502    0  0.19086101267E+02  0.75402890755E+01 -0.30905402774E+03  0.30976281198E+03  0.41800000000E+01 0.  1.
         -5    1    3    3    0  502 -0.64369866264E+02 -0.62897064115E+02 -0.20127435337E+03  0.22051838491E+03  0.41800000000E+01 0.  1.
        -11    1    1    2    0    0  0.17070597390E+02  0.73132792425E+02 -0.87831324300E+02  0.11556016680E+03  0.00000000000E+00 0.  1.
         11    1    1    2    0    0  0.28213167607E+02 -0.17776017385E+02 -0.69969396780E+01  0.34072375692E+02  0.00000000000E+00 0. -1.
</event>
<event>
 7    1  0.2499014E-009  0.1021521E+03  0.7561462E-02  0.1275834E+00
          2   -1    0    0  501    0  0.00000000000E+00  0.00000000000E+00  0.22522595130E+03  0.22522595130E+03  0.00000000000E+00 0. -1.
         -2   -1    0    0    0  501 -0.00000000000E+00 -0.00000000000E+00 -0.71480268208E+02  0.71480268208E+02  0.00000000000E+00 0.  1.
         25    2    1    2    0    0  0.20724460060E+02 -0.43870008548E+02  0.35594870136E+02  0.13881151661E+03  0.12509021332E+03 0.  0.
          5    1    3    3  502    0  0.40254984168E+02  0.25276845599E+02  0.45773629208E+02  0.66121707515E+02  0.41800000000E+01 0.  1.
         -5    1    3    3    0  502 -0.19530524108E+02 -0.69146854147E+02 -0.10178759072E+02  0.72689809097E+02  0.41800000000E+01 0.  1.
        -11    1    1    2    0    0 -0.45946962447E+02  0.20812859855E+02  0.11245586679E+03  0.12325023517E+03  0.00000000000E+00 0. -1.
         11    1    1    2    0    0  0.25222502387E+02  0.23057148693E+02  0.56949461685E+01  0.34644467731E+02  0.00000000000E+00 0.  1.
</event>
<event>
 7    1  0.2499014E-009  0.8171849E+02  0.7561462E-02  0.1324244E+00
          1   -1    0    0  501    0  0.00000000000E+00  0.00000000000E+00  0.98797858218E+02  0.98797858218E+02  0.00000000000E+00 0. -1.
         -1   -1    0    0    0  501 -0.00000000000E+00 -0.00000000000E+00 -0.15264050088E+03  0.15264050088E+03  0.00000000000E+00 0.  1.
         25    2    1    2    0    0 -0.26790283402E+02 -0.53174909319E+02 -0.22252297441E+02  0.14031238873E+03  0.12508841443E+03 0.  0.
          5    1    3    3  502    0 -0.70142767822E+01 -0.54176449253E+02 -0.69742880600E+02  0.88689511933E+02  0.41800000000E+01 0. -1.
         -5    1    3    3    0  502 -0.19776006620E+02  0.10015399340E+01  0.47490583159E+02  0.51622876797E+02  0.41800000000E+01 0. -1.
        -11    1    1    2    0    0 -0.15224115602E+02 -0.55499145959E+01  0.17470858339E+02  0.23828683114E+02  0.00000000000E+00 0. -1.
         11    1    1    2    0    0  0.42014399004E+02  0.58724823915E+02 -0.49061203564E+02  0.87297287258E+02  0.00000000000E+00 0.  1.
</event>
<event>
 7    1  0.2499014E-009  0.1014860E+03  0.7561462E-02  0.1277202E+00
          1   -1    0    0  501    0  0.00000000000E+00  0.00000000000E+00  0.25033983204E+02  0.25033983204E+02  0.00000000000E+00 0. -1.
         -1   -1    0    0    0  501 -0.00000000000E+00 -0.00000000000E+00 -0.57087626185E+03  0.57087626185E+03  0.00000000000E+00 0.  1.
         25    2    1    2    0    0 -0.68554667200E+02  0.71121143158E+01 -0.29993525608E+03  0.33220330174E+03  0.12509017259E+03 0.  0.
          5    1    3    3  502    0  0.31176228241E+02  0.13049136516E+02 -0.34140388581E+02  0.48221112633E+02  0.41800000000E+01 0. -1.
         -5    1    3    3    0  502 -0.99730895441E+02 -0.59370221999E+01 -0.26579486750E+03  0.28398218911E+03  0.41800000000E+01 0. -1.
        -11    1    1    2    0    0  0.57745240460E+02 -0.59424081179E+01 -0.24607870674E+03  0.25283305742E+03  0.00000000000E+00 0.  1.
         11    1    1    2    0    0  0.10809426740E+02 -0.11697061979E+01  0.17168418371E+00  0.10873885897E+02  0.00000000000E+00 0. -1.
</event>
<event>
 7    1  0.2499014E-009  0.1329648E+03  0.7561462E-02  0.1223122E+00
         -1   -1    0    0    0  501 -0.00000000000E+00  0.00000000000E+00  0.45098489515E+03  0.45098489515E+03  0.00000000000E+00 0.  1.
          1   -1    0    0  501    0  0.00000000000E+00 -0.00000000000E+00 -0.53438153648E+02  0.53438153648E+02  0.00000000000E+00 0. -1.
         25    2    1    2    0    0  0.68162781838E+02 -0.80356808606E+02  0.27813610518E+03  0.32266173520E+03  0.12509005093E+03 0.  0.
          5    1    3    3  502    0  0.99560546956E+02 -0.54908765156E+02  0.24537041154E+03  0.27046512947E+03  0.41800000000E+01 0. -1.
         -5    1    3    3    0  502 -0.31397765118E+02 -0.25448043450E+02  0.32765693641E+02  0.52196605729E+02  0.41800000000E+01 0. -1.
        -11    1    1    2    0    0 -0.52630570947E+01  0.31343061882E+02  0.92169350164E+02  0.97495007091E+02  0.00000000000E+00 0.  1.
         11    1    1    2    0    0 -0.62899724743E+02  0.49013746724E+02  0.27241286159E+02  0.84266306507E+02  0.00000000000E+00 0. -1.
</event>
<event>
 7    1  0.2499014E-009  0.1926972E+03  0.7561462E-02  0.1156051E+00
          1   -1    0    0  501    0  0.00000000000E+00  0.00000000000E+00  0.75172081950E+03  0.75172081950E+03  0.00000000000E+00 0. -1.
         -1   -1    0    0    0  501 -0.00000000000E+00 -0.00000000000E+00 -0.69366411349E+02  0.69366411349E+02  0.00000000000E+00 0.  1.
         25    2    1    2    0    0 -0.13833657437E+03  0.10325122054E+03  0.17264877817E+03  0.27432061191E+03  0.12508547143E+03 0.  0.
          5    1    3    3  502    0 -0.14935261336E+03  0.11448518460E+03  0.17600558997E+03  0.25769846858E+03  0.41800000000E+01 0.  1.
         -5    1    3    3    0  502  0.11016038991E+02 -0.11233964056E+02 -0.33568117944E+01  0.16622143330E+02  0.41800000000E+01 0.  1.
        -11    1    1    2    0    0  0.18407169635E+02 -0.42780545929E+02  0.52213667281E+02  0.69966177935E+02  0.00000000000E+00 0.  1.
         11    1    1    2    0    0  0.11992940473E+03 -0.60470674609E+02  0.45749196270E+03  0.47680044100E+03  0.00000000000E+00 0. -1.
</event>
<event>
 7    1  0.2499014E-009  0.1987527E+03  0.7561462E-02  0.1150796E+00
         -2   -1    0    0    0  501 -0.00000000000E+00  0.00000000000E+00  0.84449140779E+02  0.84449140779E+02  0.00000000000E+00 0.  1.
          2   -1    0    0  501    0  0.00000000000E+00 -0.00000000000E+00 -0.65832407675E+03  0.65832407675E+03  0.00000000000E+00 0. -1.
         25    2    1    2    0    0 -0.18747827975E+03  0.92224278347E+01 -0.15149511071E+03  0.27171903702E+03  0.12508920000E+03 0.  0.
          5    1    3    3  502    0  0.69869069078E+01 -0.61124179533E+01 -0.51456905382E+02  0.52454399557E+02  0.41800000000E+01 0. -1.
         -5    1    3    3    0  502 -0.19446518665E+03  0.15334845788E+02 -0.10003820532E+03  0.21926463746E+03  0.41800000000E+01 0. -1.
        -11    1    1    2    0    0  0.24828334602E+02  0.13040056396E+02 -0.14920647402E+02  0.31766570303E+02  0.00000000000E+00 0. -1.
         11    1    1    2    0    0  0.16264994514E+03 -0.22262484231E+02 -0.40745917786E+03  0.43928761021E+03  0.00000000000E+00 0.  1.
</event>
<event>
 7    1  0.2499014E-009  0.1252727E+03  0.7561462E-02  0.1234644E+00
         -1   -1    0    0    0  501 -0.00000000000E+00  0.00000000000E+00  0.58144587842E+02  0.58144587842E+02  0.00000000000E+00 0.  1.
          1   -1    0    0  501    0  0.00000000000E+00 -0.00000000000E+00 -0.33301363874E+03  0.33301363874E+03  0.00000000000E+00 0. -1.
         25    2    1    2    0    0  0.68291265405E+02 -0.63217742883E+02 -0.17768571263E+03  0.23638280177E+03  0.12507772205E+03 0.  0.
          5    1    3    3  502    0 -0.22057131387E+02 -0.59893961030E+02 -0.58115946838E+02  0.86421868123E+02  0.41800000000E+01 0.  1.
         -5    1    3    3    0  502  0.90348396792E+02 -0.33237818531E+01 -0.11956976579E+03  0.14996093364E+03  0.41800000000E+01 0.  1.
        -11    1    1    2    0    0 -0.13017796043E+02  0.27054931056E+02  0.75449191388E+01  0.30957359595E+02  0.00000000000E+00 0.  1.
         11    1    1    2    0    0 -0.55273469362E+02  0.36162811827E+02 -0.10472825741E+03  0.12381806522E+03  0.00000000000E+00 0. -1.
</event>
<event>
 7    1  0.2499014E-009  0.1845111E+03  0.7561462E-02  0.1163507E+00
         -2   -1    0    0    0  501 -0.00000000000E+00  0.00000000000E+00  0.36747590076E+02  0.36747590076E+02  0.00000000000E+00 0. -1.
          2   -1    0    0  501    0  0.00000000000E+00 -0.00000000000E+00 -0.13077926972E+04  0.13077926972E+04  0.00000000000E+00 0.  1.
         25    2    1    2    0    0 -0.21277632947E+02  0.15015890268E+03 -0.10146859523E+04  0.10335546780E+04  0.12508899581E+03 0.  0.
          5    1    3    3  502    0  0.15286378254E+02 -0.18214680262E+02 -0.11435290839E+03  0.11687389783E+03  0.41800000000E+01 0. -1.
         -5    1    3    3    0  502 -0.36564011201E+02  0.16837358294E+03 -0.90033304388E+03  0.91668078012E+03  0.41800000000E+01 0. -1.
        -11    1    1    2    0    0 -0.39073666145E-01  0.10481281971E+02 -0.42980938713E+01  0.11328389534E+02  0.00000000000E+00 0.  1.
         11    1    1    2    0    0  0.21316706613E+02 -0.16064018465E+03 -0.25206106098E+03  0.29965721978E+03  0.00000000000E+00 0. -1.
</event>
<event>
 7    1  0.2499014E-009  0.9879205E+02  0.7561462E-02  0.1282857E+00
          1   -1    0    0  501    0  0.00000000000E+00  0.00000000000E+00  0.17614109103E+03  0.17614109103E+03  0.00000000000E+00 0. -1.
         -1   -1    0    0    0  501 -0.00000000000E+00 -0.00000000000E+00 -0.94544136543E+02  0.94544136543E+02  0.00000000000E+00 0.  1.
         25    2    1    2    0    0 -0.83949037344E+01 -0.69448026562E+02  0.44933662629E+02  0.15019369698E+03  0.12508241192E+03 0.  0.
          5    1    3    3  502    0 -0.34510732658E+02 -0.65423343343E+02 -0.22680297154E+02  0.77479499235E+02  0.41800000000E+01 0.  1.
         -5    1    3    3    0  502  0.26115828924E+02 -0.40246832191E+01  0.67613959784E+02  0.72714197740E+02  0.41800000000E+01 0.  1.
        -11    1    1    2    0    0  0.34826395212E+02  0.18705543982E+02 -0.16078752450E+02  0.42676708630E+02  0.00000000000E+00 0.  1.
         11    1    1    2    0    0 -0.26431491478E+02  0.50742482580E+02  0.52742044304E+02  0.77814821965E+02  0.00000000000E+00 0. -1.
</event>
<event>
 7    1  0.2499014E-009  0.1103013E+03  0.7561462E-02  0.1260013E+00
          1   -1    0    0  501    0  0.00000000000E+00  0.00000000000E+00  0.34452241991E+02  0.34452241991E+02  0.00000000000E+00 0. -1.
         -1   -1    0    0    0  501 -0.00000000000E+00 -0.00000000000E+00 -0.54572046653E+03  0.54572046653E+03  0.00000000000E+00 0.  1.
         25    2    1    2    0    0 -0.66963279908E+02 -0.14385107213E+02 -0.18122532952E+03  0.23060948720E+03  0.12508838219E+03 0.  0.
          5    1    3    3  502    0 -0.70039692766E+02  0.39229059949E+02 -0.14469704574E+03  0.16552699222E+03  0.41800000000E+01 0.  1.
         -5    1    3    3    0  502  0.30764128575E+01 -0.53614167162E+02 -0.36528283784E+02  0.65082494980E+02  0.41800000000E+01 0.  1.
        -11    1    1    2    0    0  0.44489947941E+02  0.34415281473E+02 -0.30574751645E+03  0.31087828950E+03  0.00000000000E+00 0.  1.
         11    1    1    2    0    0  0.22473331967E+02 -0.20030174259E+02 -0.24295378568E+02  0.38684931825E+02  0.00000000000E+00 0. -1.
</event>
<event>
 7    1  0.2624903E-009  0.1019367E+03  0.7561462E-02  0.1276275E+00
         -2   -1    0    0    0  501 -0.00000000000E+00  0.00000000000E+00  0.16621730698E+02  0.16621730698E+02  0.00000000000E+00 0.  1.
          2   -1    0    0  501    0  0.00000000000E+00 -0.00000000000E+00 -0.83881362828E+03  0.83881362828E+03  0.00000000000E+00 0. -1.
         25    2    1    2    0    0 -0.10008773551E+02  0.25454196156E+02 -0.59811543204E+03  0.61166806924E+03  0.12509062808E+03 0.  0.
          5    1    3    3  502    0  0.11994557254E+02  0.68375017768E+02 -0.22716944756E+03  0.23757618308E+03  0.41800000000E+01 0. -1.
         -5    1    3    3    0  502 -0.22003330804E+02 -0.42920821612E+02 -0.37094598448E+03  0.37409188616E+03  0.41800000000E+01 0. -1.
        -11    1    1    2    0    0  0.28280963599E+01 -0.55221809048E+02 -0.85310091344E+02  0.10166247099E+03  0.00000000000E+00 0.  1.
         11    1    1    2    0    0  0.71806771907E+01  0.29767612892E+02 -0.13876637420E+03  0.14210481874E+03  0.00000000000E+00 0. -1.
</event>
<event>
 7    1  0.2499014E-009  0.9418504E+02  0.7561462E-02  0.1293022E+00
         -1   -1    0    0    0  501 -0.00000000000E+00  0.00000000000E+00  0.16192423435E+03  0.16192423435E+03  0.00000000000E+00 0.  1.
          1   -1    0    0  501    0  0.00000000000E+00 -0.00000000000E+00 -0.83214311631E+02  0.83214311631E+02  0.00000000000E+00 0. -1.
         25    2    1    2    0    0 -0.95795832768E+01  0.35086195562E+02  0.67509222812E+02  0.14671403346E+03  0.12507878683E+03 0.  0.
          5    1    3    3  502    0 -0.51285046808E+02  0.18787884948E+02  0.82743086339E+02  0.99232209407E+02  0.41800000000E+01 0.  1.
         -5    1    3    3    0  502  0.41705463531E+02  0.16298310615E+02 -0.15233863527E+02  0.47481824051E+02  0.41800000000E+01 0.  1.
        -11    1    1    2    0    0  0.30358029807E+02 -0.53070578993E+02 -0.12182510792E+02  0.62341879163E+02  0.00000000000E+00 0.  1.
         11    1    1    2    0    0 -0.20778446531E+02  0.17984383430E+02  0.23383210699E+02  0.36082633360E+02  0.00000000000E+00 0. -1.
</event>
<event>
 7    1  0.2499014E-009  0.1266960E+03  0.7561462E-02  0.1232442E+00
          2   -1    0    0  501    0  0.00000000000E+00  0.00000000000E+00  0.35571802047E+03  0.35571802047E+03  0.00000000000E+00 0.  1.
         -2   -1    0    0    0  501 -0.00000000000E+00 -0.00000000000E+00 -0.50329559613E+02  0.50329559613E+02  0.00000000000E+00 0. -1.
         25    2    1    2    0    0 -0.75880275559E+02  0.55341333522E+01  0.13503970919E+03  0.19918123429E+03  0.12509595591E+03 0.  0.
          5    1    3    3  502    0 -0.10626777132E+03  0.82039023015E+00  0.70586158142E+02  0.12764556546E+03  0.41800000000E+01 0.  1.
         -5    1    3    3    0  502  0.30387495758E+02  0.47137431221E+01  0.64453551043E+02  0.71535668828E+02  0.41800000000E+01 0.  1.
        -11    1    1    2    0    0  0.57071749600E+02  0.38011230970E+02  0.11578972246E+03  0.13457079218E+03  0.00000000000E+00 0.  1.
         11    1    1    2    0    0  0.18808525959E+02 -0.43545364322E+02  0.54559029210E+02  0.72295553605E+02  0.00000000000E+00 0. -1.
</event>
<event>
 7    1  0.2499014E-009  0.1526755E+03  0.7561462E-02  0.1197223E+00
          1   -1    0    0  501    0  0.00000000000E+00  0.00000000000E+00  0.15717068756E+03  0.15717068756E+03  0.00000000000E+00 0. -1.
         -1   -1    0    0    0  501 -0.00000000000E+00 -0.00000000000E+00 -0.18337581151E+03  0.18337581151E+03  0.00000000000E+00 0.  1.
         25    2    1    2    0    0  0.10466800146E+03 -0.77329685627E+02 -0.20900737984E+02  0.18169958587E+03  0.12507049152E+03 0.  0.
          5    1    3    3  502    0  0.13061269675E+03 -0.66436054532E+02 -0.33763374556E+00  0.14659813195E+03  0.41800000000E+01 0. -1.
         -5    1    3    3    0  502 -0.25944695287E+02 -0.10893631095E+02 -0.20563104238E+02  0.35101453928E+02  0.41800000000E+01 0. -1.
        -11    1    1    2    0    0 -0.36396990963E+02  0.23000542102E+02 -0.45623097386E+02  0.62731434730E+02  0.00000000000E+00 0.  1.
         11    1    1    2    0    0 -0.68271010497E+02  0.54329143524E+02  0.40318711414E+02  0.96115478465E+02  0.00000000000E+00 0. -1.
</event>
<event>
 7    1  0.2499014E-009  0.1115850E+03  0.7561462E-02  0.1257663E+00
         -1   -1    0    0    0  501 -0.00000000000E+00  0.00000000000E+00  0.24253246224E+03  0.24253246224E+03  0.00000000000E+00 0.  1.
          1   -1    0    0  501    0  0.00000000000E+00 -0.00000000000E+00 -0.60596754504E+02  0.60596754504E+02  0.00000000000E+00 0. -1.
         25    2    1    2    0    0  0.50626240220E+02 -0.53636451768E+01  0.81650083398E+02  0.15781847362E+03  0.12509256416E+03 0.  0.
          5    1    3    3  502    0  0.52597456358E+02  0.47098931231E+02  0.14023494786E+02  0.72103623657E+02  0.41800000000E+01 0.  1.
         -5    1    3    3    0  502 -0.19712161377E+01 -0.52462576408E+02  0.67626588612E+02  0.85714849960E+02  0.41800000000E+01 0.  1.
        -11    1    1    2    0    0 -0.74367694655E+02 -0.34632219354E+01  0.52082069310E+02  0.90857525050E+02  0.00000000000E+00 0. -1.
         11    1    1    2    0    0  0.23741454435E+02  0.88268671123E+01  0.48203555030E+02  0.54453218079E+02  0.00000000000E+00 0.  1.
</event>
<event>
 7    1  0.2499014E-009  0.1572033E+03  0.7561462E-02  0.1191891E+00
         -1   -1    0    0    0  501 -0.00000000000E+00  0.00000000000E+00  0.42303707078E+03  0.42303707078E+03  0.00000000000E+00 0.  1.
          1   -1    0    0  501    0  0.00000000000E+00 -0.00000000000E+00 -0.93860426058E+02  0.93860426058E+02  0.00000000000E+00 0. -1.
         25    2    1    2    0    0  0.10733832004E+02 -0.12937803888E+03  0.37230048498E+02  0.18408717216E+03  0.12509243922E+03 0.  0.
          5    1    3    3  502    0  0.51050061574E+02 -0.12043865323E+03  0.50840990291E+02  0.14040604215E+03  0.41800000000E+01 0. -1.
         -5    1    3    3    0  502 -0.40316229570E+02 -0.89393856463E+01 -0.13610941792E+02  0.43681130010E+02  0.41800000000E+01 0. -1.
        -11    1    1    2    0    0  0.19175134082E+02  0.16653631242E+02  0.13448784764E+03  0.13686493475E+03  0.00000000000E+00 0.  1.
         11    1    1    2    0    0 -0.29908966087E+02  0.11272440764E+03  0.15745874859E+03  0.19594538993E+03  0.00000000000E+00 0. -1.
</event>
<event>
 7    1  0.2499014E-009  0.1532975E+03  0.7561462E-02  0.1196479E+00
         -2   -1    0    0    0  501 -0.00000000000E+00  0.00000000000E+00  0.56645703694E+02  0.56645703694E+02  0.00000000000E+00 0. -1.
          2   -1    0    0  501    0  0.00000000000E+00 -0.00000000000E+00 -0.65019370797E+03  0.65019370797E+03  0.00000000000E+00 0.  1.
         25    2    1    2    0    0  0.17833078544E+02  0.12979728845E+03 -0.14442227283E+03  0.23166917931E+03  0.12508981161E+03 0.  0.
          5    1    3    3  502    0  0.57690049680E+02  0.98868453177E+02 -0.50942235690E+02  0.12536226164E+03  0.41800000000E+01 0.  1.
         -5    1    3    3    0  502 -0.39856971137E+02  0.30928835277E+02 -0.93480037143E+02  0.10630691767E+03  0.41800000000E+01 0.  1.
        -11    1    1    2    0    0  0.18861152954E+02 -0.34672159251E+02 -0.23155369094E+03  0.23489362168E+03  0.00000000000E+00 0.  1.
         11    1    1    2    0    0 -0.36694231498E+02 -0.95125129204E+02 -0.21757204051E+03  0.24027661069E+03  0.00000000000E+00 0. -1.
</event>
<event>
 7    1  0.2499014E-009  0.8458755E+02  0.7561462E-02  0.1316515E+00
          1   -1    0    0  501    0  0.00000000000E+00  0.00000000000E+00  0.51659838454E+02  0.51659838454E+02  0.00000000000E+00 0. -1.
         -1   -1    0    0    0  501 -0.00000000000E+00 -0.00000000000E+00 -0.22071338465E+03  0.22071338465E+03  0.00000000000E+00 0.  1.
         25    2    1    2    0    0  0.28737822405E+01  0.40062372353E+02 -0.12610070131E+03  0.18210400084E+03  0.12508888019E+03 0.  0.
          5    1    3    3  502    0  0.17714434483E+02 -0.28272235662E+02  0.44780660048E+01  0.33921172938E+02  0.41800000000E+01 0.  1.
         -5    1    3    3    0  502 -0.14840652242E+02  0.68334608014E+02 -0.13057876732E+03  0.14818282790E+03  0.41800000000E+01 0.  1.
        -11    1    1    2    0    0 -0.88960917341E+01 -0.51665358902E+02 -0.81030425951E+01  0.53048176763E+02  0.00000000000E+00 0. -1.
         11    1    1    2    0    0  0.60223094936E+01  0.11602986549E+02 -0.34849802295E+02  0.37221045505E+02  0.00000000000E+00 0.  1.
</event>
<event>
 7    1  0.2499014E-009  0.1716969E+03  0.7561462E-02  0.1176090E+00
         -1   -1    0    0    0  501 -0.00000000000E+00  0.00000000000E+00  0.23312774127E+03  0.23312774127E+03  0.00000000000E+00 0.  1.
          1   -1    0    0  501    0  0.00000000000E+00 -0.00000000000E+00 -0.14400180886E+03  0.14400180886E+03  0.00000000000E+00 0. -1.
         25    2    1    2    0    0  0.56355215652E+02  0.13707562353E+03  0.40253282813E+02  0.19806866142E+03  0.12508089768E+03 0.  0.
          5    1    3    3  502    0 -0.36995526541E+02  0.30564648629E+02  0.28314450017E+02  0.55875282636E+02  0.41800000000E+01 0.  1.
         -5    1    3    3    0  502  0.93350742194E+02  0.10651097490E+03  0.11938832795E+02  0.14219337878E+03  0.41800000000E+01 0.  1.
        -11    1    1    2    0    0 -0.14359469693E+02 -0.87005146367E+02  0.67563852598E+02  0.11108989172E+03  0.00000000000E+00 0.  1.
         11    1    1    2    0    0 -0.41995745960E+02 -0.50070477160E+02 -0.18691203007E+02  0.67970996988E+02  0.00000000000E+00 0. -1.
</event>
<event>
 7    1  0.2499014E-009  0.2094276E+03  0.7561462E-02  0.1142020E+00
          2   -1    0    0  501    0  0.00000000000E+00  0.00000000000E+00  0.10019294709E+04  0.10019294709E+04  0.00000000000E+00 0. -1.
         -2   -1    0    0    0  501 -0.00000000000E+00 -0.00000000000E+00 -0.74077630021E+02  0.74077630021E+02  0.00000000000E+00 0.  1.
         25    2    1    2    0    0 -0.18154210568E+03  0.48173185734E+02  0.79891381389E+03  0.83017333397E+03  0.12508513280E+03 0.  0.
          5    1    3    3  502    0 -0.54543309708E+02 -0.37129062883E+02  0.34133188181E+03  0.34767580572E+03  0.41800000000E+01 0.  1.
         -5    1    3    3    0  502 -0.12699879597E+03  0.85302248617E+02  0.45758193208E+03  0.48249752825E+03  0.41800000000E+01 0. -1.
        -11    1    1    2    0    0  0.14362968257E+03 -0.71060095559E+01  0.12371602605E+03  0.18969880387E+03  0.00000000000E+00 0. -1.
         11    1    1    2    0    0  0.37912423106E+02 -0.41067176178E+02  0.52220009249E+01  0.56134963068E+02  0.00000000000E+00 0.  1.
</event>
<event>
 7    1  0.2499014E-009  0.1473776E+03  0.7561462E-02  0.1203733E+00
          2   -1    0    0  501    0  0.00000000000E+00  0.00000000000E+00  0.84973905297E+03  0.84973905297E+03  0.00000000000E+00 0. -1.
         -2   -1    0    0    0  501 -0.00000000000E+00 -0.00000000000E+00 -0.62103478061E+02  0.62103478061E+02  0.00000000000E+00 0.  1.
         25    2    1    2    0    0  0.99816310292E+01 -0.12954961491E+03  0.10340300750E+03  0.20789958211E+03  0.12508924254E+03 0.  0.
          5    1    3    3  502    0  0.18443486795E+02 -0.10167279693E+03  0.13144324859E+03  0.16724927455E+03  0.41800000000E+01 0. -1.
         -5    1    3    3    0  502 -0.84618557662E+01 -0.27876817989E+02 -0.28040241089E+02  0.40650307557E+02  0.41800000000E+01 0. -1.
        -11    1    1    2    0    0  0.39981762504E+02  0.88970520887E+02  0.33866260005E+03  0.35242964063E+03  0.00000000000E+00 0.  1.
         11    1    1    2    0    0 -0.49963393533E+02  0.40579094028E+02  0.34556996736E+03  0.35151330829E+03  0.00000000000E+00 0. -1.
</event>
<event>
 7    1  0.3237798E-009  0.1204575E+03  0.7561462E-02  0.1242344E+00
          2   -1    0    0  501    0  0.00000000000E+00  0.00000000000E+00  0.69742037197E+03  0.69742037197E+03  0.00000000000E+00 0. -1.
         -2   -1    0    0    0  501 -0.00000000000E+00 -0.00000000000E+00 -0.25510750308E+02  0.25510750308E+02  0.00000000000E+00 0.  1.
         25    2    1    2    0    0  0.75436365684E+01  0.67776023135E+02  0.27361571498E+03  0.30848529587E+03  0.12508845877E+03 0.  0.
          5    1    3    3  502    0 -0.57976745286E+02  0.42826665389E+02  0.14211169492E+03  0.15940085475E+03  0.41800000000E+01 0.  1.
         -5    1    3    3    0  502  0.65520381855E+02  0.24949357746E+02  0.13150402006E+03  0.14908444111E+03  0.41800000000E+01 0.  1.
        -11    1    1    2    0    0  0.30431166630E+02 -0.16327315394E+02  0.52847629271E+02  0.63130888241E+02  0.00000000000E+00 0.  1.
         11    1    1    2    0    0 -0.37974803198E+02 -0.51448707741E+02  0.34544627742E+03  0.35131493818E+03  0.00000000000E+00 0. -1.
</event>
<event>
 7    1  0.2499014E-009  0.8431196E+02  0.7561462E-02  0.1317242E+00
         -1   -1    0    0    0  501 -0.00000000000E+00  0.00000000000E+00  0.17134950667E+03  0.17134950667E+03  0.00000000000E+00 0.  1.
          1   -1    0    0  501    0  0.00000000000E+00 -0.00000000000E+00 -0.92875123056E+02  0.92875123056E+02  0.00000000000E+00 0. -1.
         25    2    1    2    0    0  0.51703217531E+02  0.11209078918E+02  0.55402556150E+01  0.13592871859E+03  0.12508819270E+03 0.  0.
          5    1    3    3  502    0  0.24216076285E+02 -0.21640033528E+02 -0.53586194861E+02  0.62798583435E+02  0.41800000000E+01 0. -1.
         -5    1    3    3    0  502  0.27487141246E+02  0.32849112445E+02  0.59126450476E+02  0.73130135158E+02  0.41800000000E+01 0. -1.
        -11    1    1    2    0    0 -0.50576498478E+02 -0.39721027635E+02  0.18633915720E+02  0.66954947911E+02  0.00000000000E+00 0. -1.
         11    1    1    2    0    0 -0.11267190524E+01  0.28511948717E+02  0.54300212277E+02  0.61340963221E+02  0.00000000000E+00 0.  1.
</event>
<event>
 7    1  0.2499014E-009  0.1022248E+03  0.7561462E-02  0.1275686E+00
          1   -1    0    0  501    0  0.00000000000E+00  0.00000000000E+00  0.59851395290E+02  0.59851395290E+02  0.00000000000E+00 0. -1.
         -1   -1    0    0    0  501 -0.00000000000E+00 -0.00000000000E+00 -0.29102359065E+03  0.29102359065E+03  0.00000000000E+00 0.  1.
         25    2    1    2    0    0 -0.32297020162E+02 -0.27961191691E+02 -0.19787168956E+03  0.23796676212E+03  0.12510015425E+03 0.  0.
          5    1    3    3  502    0  0.38593751430E+02  0.11729051797E+01 -0.18822100442E+02  0.43157817612E+02  0.41800000000E+01 0. -1.
         -5    1    3    3    0  502 -0.70890771592E+02 -0.29134096871E+02 -0.17904958911E+03  0.19480894451E+03  0.41800000000E+01 0. -1.
        -11    1    1    2    0    0  0.18733494294E+02 -0.26654842036E+02 -0.44875801133E+02  0.55455044313E+02  0.00000000000E+00 0.  1.
         11    1    1    2    0    0  0.13563525868E+02  0.54616033726E+02  0.11575295327E+02  0.57453179511E+02  0.00000000000E+00 0. -1.
</event>
<event>
 7    1  0.2499014E-009  0.1039873E+03  0.7561462E-02  0.1272128E+00
         -1   -1    0    0    0  501 -0.00000000000E+00  0.00000000000E+00  0.53013780550E+03  0.53013780550E+03  0.00000000000E+00 0.  1.
          1   -1    0    0  501    0  0.00000000000E+00 -0.00000000000E+00 -0.23117920455E+02  0.23117920455E+02  0.00000000000E+00 0. -1.
         25    2    1    2    0    0  0.15193446765E+02 -0.12820879806E+00  0.21948985707E+03  0.25309392529E+03  0.12509948202E+03 0.  0.
          5    1    3    3  502    0 -0.17466463250E+02 -0.57179836748E+02  0.97228303201E+02  0.11421657678E+03  0.41800000000E+01 0. -1.
         -5    1    3    3    0  502  0.32659910015E+02  0.57051627950E+02  0.12226155387E+03  0.13887734851E+03  0.41800000000E+01 0. -1.
        -11    1    1    2    0    0 -0.43675106579E+02  0.19390072310E+02  0.12049414091E+03  0.12962379347E+03  0.00000000000E+00 0. -1.
         11    1    1    2    0    0  0.28481659815E+02 -0.19261863512E+02  0.16703588706E+03  0.17053800720E+03  0.00000000000E+00 0.  1.
</event>
<event>
 7    1  0.2499014E-009  0.8481860E+02  0.7561462E-02  0.1315908E+00
         -2   -1    0    0    0  501 -0.00000000000E+00  0.00000000000E+00  0.11663089382E+03  0.11663089382E+03  0.00000000000E+00 0.  1.
          2   -1    0    0  501    0  0.00000000000E+00 -0.00000000000E+00 -0.16487992132E+03  0.16487992132E+03  0.00000000000E+00 0. -1.
         25    2    1    2    0    0  0.15918871304E+02  0.63724247163E+02 -0.82983802875E+02  0.16385157687E+03  0.12508731975E+03 0.  0.
          5    1    3    3  502    0 -0.21290345607E+02 -0.65702934334E+01  0.22324615609E+02  0.31816794841E+02  0.41800000000E+01 0.  1.
         -5    1    3    3    0  502  0.37209216911E+02  0.70294540596E+02 -0.10530841848E+03  0.13203478202E+03  0.41800000000E+01 0.  1.
        -11    1    1    2    0    0 -0.80109073415E+01 -0.90790763281E+01  0.56891075080E+02  0.58165270455E+02  0.00000000000E+00 0.  1.
         11    1    1    2    0    0 -0.79079639623E+01 -0.54645170835E+02 -0.22156299704E+02  0.59493967813E+02  0.00000000000E+00 0. -1.
</event>
<event>
 7    1  0.2499014E-009  0.1076899E+03  0.7561462E-02  0.1264909E+00
         -1   -1    0    0    0  501 -0.00000000000E+00  0.00000000000E+00  0.21825290854E+02  0.21825290854E+02  0.00000000000E+00 0.  1.
          1   -1    0    0  501    0  0.00000000000E+00 -0.00000000000E+00 -0.65425064374E+03  0.65425064374E+03  0.00000000000E+00 0. -1.
         25    2    1    2    0    0 -0.41609034682E+02  0.19330472246E+02 -0.28974542713E+03  0.31891174336E+03  0.12508920250E+03 0.  0.
          5    1    3    3  502    0  0.43467057037E+02  0.79552776097E+01 -0.13221072956E+03  0.13946261470E+03  0.41800000000E+01 0.  1.
         -5    1    3    3    0  502 -0.85076091719E+02  0.11375194637E+02 -0.15753469757E+03  0.17944912865E+03  0.41800000000E+01 0.  1.
        -11    1    1    2    0    0  0.62208473771E+02 -0.15423008972E+02 -0.31968130287E+03  0.32604278679E+03  0.00000000000E+00 0. -1.
         11    1    1    2    0    0 -0.20599439089E+02 -0.39074632741E+01 -0.22998622884E+02  0.31121404444E+02  0.00000000000E+00 0.  1.
</event>
<event>
 7    1  0.2499014E-009  0.1615223E+03  0.7561462E-02  0.1186989E+00
          2   -1    0    0  501    0  0.00000000000E+00  0.00000000000E+00  0.53510279449E+03  0.53510279449E+03  0.00000000000E+00 0. -1.
         -2   -1    0    0    0  501 -0.00000000000E+00 -0.00000000000E+00 -0.65069261855E+02  0.65069261855E+02  0.00000000000E+00 0.  1.
         25    2    1    2    0    0  0.14986575857E+03 -0.79421985217E+01  0.28439936519E+03  0.34504131877E+03  0.12509072159E+03 0.  0.
          5    1    3    3  502    0  0.55056628924E+02  0.31796141642E+02  0.20617469098E+03  0.21579551110E+03  0.41800000000E+01 0.  1.
         -5    1    3    3    0  502  0.94809129651E+02 -0.39738340164E+02  0.78224674214E+02  0.12924580767E+03  0.41800000000E+01 0.  1.
        -11    1    1    2    0    0 -0.91084979051E+02  0.26398723394E+02  0.16471810663E+03  0.19006688469E+03  0.00000000000E+00 0. -1.
         11    1    1    2    0    0 -0.58780779523E+02 -0.18456524872E+02  0.20916060812E+02  0.65063852880E+02  0.00000000000E+00 0.  1.
</event>
<event>
 7    1  0.2499014E-009  0.3088034E+03  0.7561462E-02  0.1080921E+00
         -3   -1    0    0    0  501 -0.00000000000E+00  0.00000000000E+00  0.66627040986E+03  0.66627040986E+03  0.00000000000E+00 0.  1.
          3   -1    0    0  501    0  0.00000000000E+00 -0.00000000000E+00 -0.17002831494E+03  0.17002831494E+03  0.00000000000E+00 0. -1.
         25    2    1    2    0    0  0.66578457854E+02 -0.29313202705E+03  0.12231003904E+03  0.34780099620E+03  0.12508681376E+03 0.  0.
          5    1    3    3  502    0 -0.89852603394E+01 -0.18296936785E+03  0.30765502288E+02  0.18580234930E+03  0.41800000000E+01 0. -1.
         -5    1    3    3    0  502  0.75563718193E+02 -0.11016265920E+03  0.91544536749E+02  0.16199864690E+03  0.41800000000E+01 0. -1.
        -11    1    1    2    0    0 -0.24838312985E+02  0.91657509633E+02  0.19046859479E+03  0.21282933647E+03  0.00000000000E+00 0. -1.
         11    1    1    2    0    0 -0.41740144869E+02  0.20147451741E+03  0.18346346109E+03  0.27566839212E+03  0.00000000000E+00 0.  1.
</event>
<event>
 7    1  0.2499014E-009  0.9662709E+02  0.7561462E-02  0.1287553E+00
          4   -1    0    0  501    0  0.00000000000E+00  0.00000000000E+00  0.11472407453E+03  0.11472407453E+03  0.00000000000E+00 0.  1.
         -4   -1    0    0    0  501 -0.00000000000E+00 -0.00000000000E+00 -0.10929380349E+03  0.10929380349E+03  0.00000000000E+00 0. -1.
         25    2    1    2    0    0 -0.35172874782E+01  0.50034455932E+01 -0.26064165215E+02  0.12792226331E+03  0.12508940387E+03 0.  0.
          5    1    3    3  502    0  0.21580971240E+02 -0.48107922704E+02  0.16333374577E+02  0.55356680461E+02  0.41800000000E+01 0. -1.
         -5    1    3    3    0  502 -0.25098258718E+02  0.53111368298E+02 -0.42397539792E+02  0.72565582844E+02  0.41800000000E+01 0. -1.
        -11    1    1    2    0    0 -0.33222926213E+02 -0.23150125740E+02 -0.55303258298E+01  0.40869006004E+02  0.00000000000E+00 0. -1.
         11    1    1    2    0    0  0.36740213691E+02  0.18146680146E+02  0.37024762083E+02  0.55226608711E+02  0.00000000000E+00 0.  1.
</event>
<event>
 7    1  0.2499014E-009  0.1217668E+03  0.7561462E-02  0.1240211E+00
         -2   -1    0    0    0  501 -0.00000000000E+00  0.00000000000E+00  0.14210074723E+03  0.14210074723E+03  0.00000000000E+00 0.  1.
          2   -1    0    0  501    0  0.00000000000E+00 -0.00000000000E+00 -0.10834667004E+03  0.10834667004E+03  0.00000000000E+00 0. -1.
         25    2    1    2    0    0  0.62101405630E+02 -0.63594612084E+01  0.13232577311E+02  0.14043241026E+03  0.12509649644E+03 0.  0.
          5    1    3    3  502    0  0.98690484332E+02  0.64402807641E+01 -0.81161946001E+00  0.98992020083E+02  0.41800000000E+01 0.  1.
         -5    1    3    3    0  502 -0.36589078702E+02 -0.12799741972E+02  0.14044196771E+02  0.41440390174E+02  0.41800000000E+01 0.  1.
        -11    1    1    2    0    0 -0.82219434564E+02  0.15147567028E+02  0.25689797952E+02  0.87461133800E+02  0.00000000000E+00 0. -1.
         11    1    1    2    0    0  0.20118028934E+02 -0.87881058199E+01 -0.51682980712E+01  0.22553873216E+02  0.00000000000E+00 0.  1.
</event>
<event>
 7    1  0.2499014E-009  0.1030163E+03  0.7561462E-02  0.1274078E+00
         -1   -1    0    0    0  501 -0.00000000000E+00  0.00000000000E+00  0.42491803909E+02  0.42491803909E+02  0.00000000000E+00 0.  1.
          1   -1    0    0  501    0  0.00000000000E+00 -0.00000000000E+00 -0.40050871262E+03  0.40050871262E+03  0.00000000000E+00 0. -1.
         25    2    1    2    0    0 -0.27466328396E+02 -0.47200724041E+02 -0.26518694069E+03  0.29825139236E+03  0.12508985565E+03 0.  0.
          5    1    3    3  502    0 -0.65437639875E+02  0.67413771607E+01 -0.17029712760E+03  0.18260918637E+03  0.41800000000E+01 0.  1.
         -5    1    3    3    0  502  0.37971311479E+02 -0.53942101201E+02 -0.94889813089E+02  0.11564220599E+03  0.41800000000E+01 0.  1.
        -11    1    1    2    0    0  0.35924272077E+02  0.12093159577E+02 -0.10086651779E+03  0.10775366464E+03  0.00000000000E+00 0. -1.
         11    1    1    2    0    0 -0.84579436810E+01  0.35107564463E+02  0.80365497648E+01  0.36995459532E+02  0.00000000000E+00 0.  1.
</event>
<event>
 7    1  0.2499014E-009  0.1322805E+03  0.7561462E-02  0.1224111E+00
          1   -1    0    0  501    0  0.00000000000E+00  0.00000000000E+00  0.10598574324E+03  0.10598574324E+03  0.00000000000E+00 0. -1.
         -1   -1    0    0    0  501 -0.00000000000E+00 -0.00000000000E+00 -0.21425673615E+03  0.21425673615E+03  0.00000000000E+00 0.  1.
         25    2    1    2    0    0 -0.61643395299E+02  0.76160935419E+02 -0.92640644101E+02  0.18393507016E+03  0.12509766116E+03 0.  0.
          5    1    3    3  502    0 -0.58052886226E+02  0.11007742239E+03 -0.71307329147E+02  0.14349001397E+03  0.41800000000E+01 0.  1.
         -5    1    3    3    0  502 -0.35905090736E+01 -0.33916486967E+02 -0.21333314954E+02  0.40445056194E+02  0.41800000000E+01 0.  1.
        -11    1    1    2    0    0  0.57138521420E+02 -0.41227028183E+02 -0.50543635206E+02  0.86712960639E+02  0.00000000000E+00 0.  1.
         11    1    1    2    0    0  0.45048738794E+01 -0.34933907236E+02  0.34913286400E+02  0.49594448587E+02  0.00000000000E+00 0. -1.
</event>
<event>
 7    1  0.2499014E-009  0.9748417E+02  0.7561462E-02  0.1285677E+00
         -4   -1    0    0    0  501 -0.00000000000E+00  0.00000000000E+00  0.73860538754E+03  0.73860538754E+03  0.00000000000E+00 0. -1.
          4   -1    0    0  501    0  0.00000000000E+00 -0.00000000000E+00 -0.30695808732E+02  0.30695808732E+02  0.00000000000E+00 0.  1.
         25    2    1    2    0    0 -0.60754159917E+02  0.47155672780E+02  0.22385357255E+03  0.26771941621E+03  0.12509411837E+03 0.  0.
          5    1    3    3  502    0 -0.54337052563E+02  0.23556074375E+02  0.20428622013E+02  0.62786980486E+02  0.41800000000E+01 0. -1.
         -5    1    3    3    0  502 -0.64171073543E+01  0.23599598405E+02  0.20342495054E+03  0.20493243573E+03  0.41800000000E+01 0. -1.
        -11    1    1    2    0    0  0.80496100749E+02 -0.38536439975E+02  0.46277269192E+03  0.47129952666E+03  0.00000000000E+00 0. -1.
         11    1    1    2    0    0 -0.19741940832E+02 -0.86192328057E+01  0.21283314345E+02  0.30282253408E+02  0.00000000000E+00 0.  1.
</event>
<event>
 7    1  0.2499014E-009  0.5712291E+03  0.7561462E-02  0.9966962E-01
          2   -1    0    0  501    0  0.00000000000E+00  0.00000000000E+00  0.90073399152E+03  0.90073399152E+03  0.00000000000E+00 0. -1.
         -2   -1    0    0    0  501 -0.00000000000E+00 -0.00000000000E+00 -0.38078010413E+03  0.38078010413E+03  0.00000000000E+00 0.  1.
         25    2    1    2    0    0 -0.53970031200E+02  0.56767958345E+03  0.34461194204E+03  0.67792157215E+03  0.12508954251E+03 0.  0.
          5    1    3    3  502    0 -0.59184404458E+02  0.50538859042E+03  0.34584417707E+03  0.61526099200E+03  0.41800000000E+01 0.  1.
         -5    1    3    3    0  502  0.52143732574E+01  0.62290993028E+02 -0.12322350316E+01  0.62660580145E+02  0.41800000000E+01 0.  1.
        -11    1    1    2    0    0  0.55752476908E+02 -0.47608013657E+03  0.17960271184E+03  0.51187671291E+03  0.00000000000E+00 0. -1.
         11    1    1    2    0    0 -0.17824457081E+01 -0.91599446887E+02 -0.42607664918E+01  0.91715810599E+02  0.00000000000E+00 0.  1.
</event>
<event>
 7    1  0.2499014E-009  0.1924788E+03  0.7561462E-02  0.1156244E+00
          2   -1    0    0  501    0  0.00000000000E+00  0.00000000000E+00  0.67402420777E+03  0.67402420777E+03  0.00000000000E+00 0.  1.
         -2   -1    0    0    0  501 -0.00000000000E+00 -0.00000000000E+00 -0.64516667423E+02  0.64516667423E+02  0.00000000000E+00 0. -1.
         25    2    1    2    0    0  0.48229743847E+02  0.15402339078E+03  0.45132152985E+03  0.49536665456E+03  0.12509071125E+03 0.  0.
          5    1    3    3  502    0 -0.27193758575E+02  0.11669387209E+03  0.25988481034E+03  0.28620717554E+03  0.41800000000E+01 0. -1.
         -5    1    3    3    0  502  0.75423502422E+02  0.37329518690E+02  0.19143671951E+03  0.20915947901E+03  0.41800000000E+01 0. -1.
        -11    1    1    2    0    0  0.93710575500E+01 -0.10427289037E+03  0.66561716296E+02  0.12406093044E+03  0.00000000000E+00 0.  1.
         11    1    1    2    0    0 -0.57600801397E+02 -0.49750500409E+02  0.91624294201E+02  0.11911329019E+03  0.00000000000E+00 0. -1.
</event>
<event>
 7    1  0.2499014E-009  0.1182712E+03  0.7561462E-02  0.1245977E+00
         -1   -1    0    0    0  501 -0.00000000000E+00  0.00000000000E+00  0.23189784597E+02  0.23189784597E+02  0.00000000000E+00 0.  1.
          1   -1    0    0  501    0  0.00000000000E+00 -0.00000000000E+00 -0.98996657281E+03  0.98996657281E+03  0.00000000000E+00 0. -1.
         25    2    1    2    0    0 -0.99677324614E+02 -0.29852735808E+02 -0.53062389590E+03  0.55501224272E+03  0.12510042285E+03 0.  0.
          5    1    3    3  502    0  0.13271943400E+01  0.18758523441E+02 -0.86423064329E+01  0.21114106824E+02  0.41800000000E+01 0. -1.
         -5    1    3    3    0  502 -0.10100451895E+03 -0.48611259249E+02 -0.52198158946E+03  0.53389813590E+03  0.41800000000E+01 0. -1.
        -11    1    1    2    0    0  0.31340981971E+02  0.23019283161E+01 -0.24225850527E+02  0.39679312729E+02  0.00000000000E+00 0.  1.
         11    1    1    2    0    0  0.68336342642E+02  0.27550807492E+02 -0.41192704179E+03  0.41846480195E+03  0.00000000000E+00 0. -1.
</event>
<event>
 7    1  0.2649297E-009  0.1323129E+03  0.7561462E-02  0.1224064E+00
         -1   -1    0    0    0  501 -0.00000000000E+00  0.00000000000E+00  0.68260274752E+02  0.68260274752E+02  0.00000000000E+00 0.  1.
          1   -1    0    0  501    0  0.00000000000E+00 -0.00000000000E+00 -0.30240052018E+03  0.30240052018E+03  0.00000000000E+00 0. -1.
         25    2    1    2    0    0  0.61869542925E+02 -0.55760253636E+02 -0.72251554587E+02  0.16674326574E+03  0.12508390505E+03 0.  0.
          5    1    3    3  502    0  0.41056962309E+02 -0.96158527470E+02 -0.50306504096E+02  0.11610492373E+03  0.41800000000E+01 0.  1.
         -5    1    3    3    0  502  0.20812580616E+02  0.40398273835E+02 -0.21945050491E+02  0.50638342012E+02  0.41800000000E+01 0.  1.
        -11    1    1    2    0    0 -0.68113364079E+02  0.10808149099E+02 -0.13384613209E+03  0.15056903244E+03  0.00000000000E+00 0. -1.
         11    1    1    2    0    0  0.62438211544E+01  0.44952104536E+02 -0.28042558748E+02  0.53348496755E+02  0.00000000000E+00 0.  1.
</event>
<event>
 7    1  0.2499014E-009  0.1618346E+03  0.7561462E-02  0.1186641E+00
          1   -1    0    0  501    0  0.00000000000E+00  0.00000000000E+00  0.53316458519E+03  0.53316458519E+03  0.00000000000E+00 0. -1.
         -1   -1    0    0    0  501 -0.00000000000E+00 -0.00000000000E+00 -0.89209802456E+02  0.89209802456E+02  0.00000000000E+00 0.  1.
         25    2    1    2    0    0 -0.76916619870E+02 -0.13314196839E+03  0.38736295536E+03  0.43513322365E+03  0.12509161834E+03 0.  0.
          5    1    3    3  502    0 -0.62104547732E+02 -0.10784483477E+03  0.38589339689E+03  0.40548572034E+03  0.41800000000E+01 0.  1.
         -5    1    3    3    0  502 -0.14812072137E+02 -0.25297133617E+02  0.14695584669E+01  0.29647503307E+02  0.41800000000E+01 0.  1.
        -11    1    1    2    0    0  0.79587909859E+02  0.68977532401E+02  0.60053023786E+01  0.10549027931E+03  0.00000000000E+00 0.  1.
         11    1    1    2    0    0 -0.26712899892E+01  0.64164435991E+02  0.50586524995E+02  0.81750884688E+02  0.00000000000E+00 0. -1.
</event>
<event>
 7    1  0.2499014E-009  0.2003997E+03  0.7561462E-02  0.1149402E+00
          2   -1    0    0  501    0  0.00000000000E+00  0.00000000000E+00  0.19843065857E+03  0.19843065857E+03  0.00000000000E+00 0. -1.
         -2   -1    0    0    0  501 -0.00000000000E+00 -0.00000000000E+00 -0.24264818148E+03  0.24264818148E+03  0.00000000000E+00 0.  1.
         25    2    1    2    0    0 -0.12166202393E+03  0.11822958385E+03  0.63816294623E+02  0.22022152982E+03  0.12508045479E+03 0.  0.
          5    1    3    3  502    0 -0.14194199748E+03  0.71284465956E+02  0.41178292337E+02  0.16414057967E+03  0.41800000000E+01 0. -1.
         -5    1    3    3    0  502  0.20279973550E+02  0.46945117897E+02  0.22638002287E+02  0.56080950144E+02  0.41800000000E+01 0. -1.
        -11    1    1    2    0    0 -0.82480362436E+01 -0.35815179755E+02 -0.88266760159E+01  0.37797717024E+02  0.00000000000E+00 0.  1.
         11    1    1    2    0    0  0.12991006018E+03 -0.82414404098E+02 -0.99207141518E+02  0.18305959321E+03  0.00000000000E+00 0. -1.
</event>
<event>
 7    1  0.2499014E-009  0.1412359E+03  0.7561462E-02  0.1211676E+00
          2   -1    0    0  501    0  0.00000000000E+00  0.00000000000E+00  0.27821482458E+03  0.27821482458E+03  0.00000000000E+00 0. -1.
         -2   -1    0    0    0  501 -0.00000000000E+00 -0.00000000000E+00 -0.93776855882E+02  0.93776855882E+02  0.00000000000E+00 0.  1.
         25    2    1    2    0    0  0.20441897431E+02  0.99955739056E+02  0.28671883945E+02  0.16394834538E+03  0.12509181462E+03 0.  0.
          5    1    3    3  502    0 -0.32840732138E+02  0.92567086869E+02 -0.81193653867E+01  0.98643680755E+02  0.41800000000E+01 0.  1.
         -5    1    3    3    0  502  0.53282629569E+02  0.73886521869E+01  0.36791249331E+02  0.65304664629E+02  0.41800000000E+01 0.  1.
        -11    1    1    2    0    0 -0.42607279196E+02 -0.19687696860E+02  0.91571500683E+02  0.10289958885E+03  0.00000000000E+00 0. -1.
         11    1    1    2    0    0  0.22165381764E+02 -0.80268042195E+02  0.64194584066E+02  0.10514374622E+03  0.00000000000E+00 0.  1.
</event>
<event>
 7    1  0.2499014E-009  0.1158268E+03  0.7561462E-02  0.1250145E+00
         -1   -1    0    0    0  501 -0.00000000000E+00  0.00000000000E+00  0.17049989263E+02  0.17049989263E+02  0.00000000000E+00 0.  1.
          1   -1    0    0  501    0  0.00000000000E+00 -0.00000000000E+00 -0.86923361901E+03  0.86923361901E+03  0.00000000000E+00 0. -1.
         25    2    1    2    0    0 -0.41054311886E+02 -0.35058573843E+02 -0.53200790635E+03  0.54917668781E+03  0.12509221352E+03 0.  0.
          5    1    3    3  502    0 -0.48009979076E+02  0.38530275670E+02 -0.21840238735E+03  0.22695068944E+03  0.41800000000E+01 0.  1.
         -5    1    3    3    0  502  0.69556671904E+01 -0.73588849513E+02 -0.31360551900E+03  0.32222599837E+03  0.41800000000E+01 0.  1.
        -11    1    1    2    0    0 -0.98675362443E+01  0.43232184783E+02 -0.80113269622E+02  0.91567057625E+02  0.00000000000E+00 0. -1.
         11    1    1    2    0    0  0.50921848130E+02 -0.81736109401E+01 -0.24006245377E+03  0.24553986284E+03  0.00000000000E+00 0.  1.
</event>
<event>
 7    1  0.2499014E-009  0.1070681E+03  0.7561462E-02  0.1266098E+00
          1   -1    0    0  501    0  0.00000000000E+00  0.00000000000E+00  0.24069646921E+03  0.24069646921E+03  0.00000000000E+00 0. -1.
         -1   -1    0    0    0  501 -0.00000000000E+00 -0.00000000000E+00 -0.66745302662E+02  0.66745302662E+02  0.00000000000E+00 0.  1.
         25    2    1    2    0    0 -0.37046489377E+02 -0.52304831017E+02  0.78108616543E+02  0.16079870469E+03  0.12508808787E+03 0.  0.
          5    1    3    3  502    0  0.17782017120E+02  0.22227183105E+02 -0.12371924174E+02  0.31317482489E+02  0.41800000000E+01 0. -1.
         -5    1    3    3    0  502 -0.54828506498E+02 -0.74532014122E+02  0.90480540717E+02  0.12948122220E+03  0.41800000000E+01 0. -1.
        -11    1    1    2    0    0  0.43913696226E+02  0.64922559799E+02  0.38116277943E+02  0.87156193878E+02  0.00000000000E+00 0.  1.
         11    1    1    2    0    0 -0.68672068489E+01 -0.12617728782E+02  0.57726272061E+02  0.59486873305E+02  0.00000000000E+00 0. -1.
</event>
<event>
 7    1  0.2499014E-009  0.1327812E+03  0.7561462E-02  0.1223386E+00
          2   -1    0    0  501    0  0.00000000000E+00  0.00000000000E+00  0.12879821746E+04  0.12879821746E+04  0.00000000000E+00 0.  1.
         -2   -1    0    0    0  501 -0.00000000000E+00 -0.00000000000E+00 -0.16106778468E+02  0.16106778468E+02  0.00000000000E+00 0. -1.
         25    2    1    2    0    0 -0.76206311150E+02  0.31682991972E+02  0.90358427017E+03  0.91592663669E+03  0.12508339883E+03 0.  0.
          5    1    3    3  502    0 -0.10453975046E+03 -0.32005059522E+01  0.64210541265E+03  0.65058099881E+03  0.41800000000E+01 0. -1.
         -5    1    3    3    0  502  0.28333439309E+02  0.34883497924E+02  0.26147885752E+03  0.26534563788E+03  0.41800000000E+01 0. -1.
        -11    1    1    2    0    0 -0.78634688272E+01 -0.30688640555E+02  0.16766528484E+03  0.17063198570E+03  0.00000000000E+00 0.  1.
         11    1    1    2    0    0  0.84069779977E+02 -0.99435141639E+00  0.20062584108E+03  0.21753033065E+03  0.00000000000E+00 0. -1.
</event>
<event>
 7    1  0.2499014E-009  0.1042723E+03  0.7561462E-02  0.1271560E+00
         -3   -1    0    0    0  501 -0.00000000000E+00  0.00000000000E+00  0.21442617353E+03  0.21442617353E+03  0.00000000000E+00 0.  1.
          3   -1    0    0  501    0  0.00000000000E+00 -0.00000000000E+00 -0.91063288957E+02  0.91063288957E+02  0.00000000000E+00 0. -1.
         25    2    1    2    0    0 -0.42182841687E+02 -0.38862022155E+02  0.13949717338E+03  0.19594710660E+03  0.12508460459E+03 0.  0.
          5    1    3    3  502    0 -0.39477869206E+02 -0.81978371477E+02  0.11282788265E+03  0.14500537593E+03  0.41800000000E+01 0.  1.
         -5    1    3    3    0  502 -0.27049724805E+01  0.43116349321E+02  0.26669290737E+02  0.50941730667E+02  0.41800000000E+01 0.  1.
        -11    1    1    2    0    0  0.26837234976E+02 -0.52552955238E+01 -0.46417722397E+02  0.53874486213E+02  0.00000000000E+00 0. -1.
         11    1    1    2    0    0  0.15345606711E+02  0.44117317679E+02  0.30283433592E+02  0.55667869679E+02  0.00000000000E+00 0.  1.
</event>
<event>
 7    1  0.2499014E-009  0.1119454E+03  0.7561462E-02  0.1257009E+00
         -1   -1    0    0    0  501 -0.00000000000E+00  0.00000000000E+00  0.30944727307E+03  0.30944727307E+03  0.00000000000E+00 0.  1.
          1   -1    0    0  501    0  0.00000000000E+00 -0.00000000000E+00 -0.56498007556E+02  0.56498007556E+02  0.00000000000E+00 0. -1.
         25    2    1    2    0    0  0.35136819515E+02 -0.56939515342E+02  0.14758154498E+03  0.20470247496E+03  0.12508431694E+03 0.  0.
          5    1    3    3  502    0 -0.26429821314E+02 -0.13060941546E+02  0.12075585089E+03  0.12437271233E+03  0.41800000000E+01 0.  1.
         -5    1    3    3    0  502  0.61566640830E+02 -0.43878573795E+02  0.26825694091E+02  0.80329762634E+02  0.41800000000E+01 0.  1.
        -11    1    1    2    0    0 -0.29004984145E+02 -0.23741764647E+02  0.52801403449E+02  0.64752982171E+02  0.00000000000E+00 0.  1.
         11    1    1    2    0    0 -0.61318353700E+01  0.80681279989E+02  0.52566317090E+02  0.96489823495E+02  0.00000000000E+00 0. -1.
</event>
<event>
 7    1  0.2499014E-009  0.9642804E+02  0.7561462E-02  0.1287992E+00
         -2   -1    0    0    0  501 -0.00000000000E+00  0.00000000000E+00  0.12889070121E+02  0.12889070121E+02  0.00000000000E+00 0.  1.
          2   -1    0    0  501    0  0.00000000000E+00 -0.00000000000E+00 -0.14131052357E+04  0.14131052357E+04  0.00000000000E+00 0. -1.
         25    2    1    2    0    0  0.38948645615E+01 -0.44736749082E+02 -0.11134793755E+04  0.11213832221E+04  0.12508982508E+03 0.  0.
          5    1    3    3  502    0 -0.41287961420E+01 -0.69316614765E+02 -0.32011057492E+03  0.32758219216E+03  0.41800000000E+01 0. -1.
         -5    1    3    3    0  502  0.80236607035E+01  0.24579865682E+02 -0.79336880059E+03  0.79380102990E+03  0.41800000000E+01 0. -1.
        -11    1    1    2    0    0  0.40725840500E+02  0.14642347248E+02 -0.79690580149E+02  0.90683962098E+02  0.00000000000E+00 0. -1.
         11    1    1    2    0    0 -0.44620705061E+02  0.30094401835E+02 -0.20704620995E+03  0.21392712170E+03  0.00000000000E+00 0.  1.
</event>
<event>
 7    1  0.2499014E-009  0.1158267E+03  0.7561462E-02  0.1250145E+00
         -1   -1    0    0    0  501 -0.00000000000E+00  0.00000000000E+00  0.48577300401E+02  0.48577300401E+02  0.00000000000E+00 0.  1.
          1   -1    0    0  501    0  0.00000000000E+00 -0.00000000000E+00 -0.36429391375E+03  0.36429391375E+03  0.00000000000E+00 0. -1.
         25    2    1    2    0    0 -0.65502602588E+02  0.22920383183E+02 -0.12523227409E+03  0.19012413076E+03  0.12509247664E+03 0.  0.
          5    1    3    3  502    0  0.71693653347E+01  0.48184174518E+02 -0.75674488203E+01  0.49475783520E+02  0.41800000000E+01 0. -1.
         -5    1    3    3    0  502 -0.72671967923E+02 -0.25263791335E+02 -0.11766482527E+03  0.14064834724E+03  0.41800000000E+01 0. -1.
        -11    1    1    2    0    0  0.53113348077E+02 -0.51857161423E+02 -0.16914941828E+03  0.18472065027E+03  0.00000000000E+00 0.  1.
         11    1    1    2    0    0  0.12389254511E+02  0.28936778240E+02 -0.21334920976E+02  0.38026433113E+02  0.00000000000E+00 0. -1.
</event>
<event>
 7    1  0.2499014E-009  0.1011962E+03  0.7561462E-02  0.1277800E+00
         -2   -1    0    0    0  501 -0.00000000000E+00  0.00000000000E+00  0.46517237124E+02  0.46517237124E+02  0.00000000000E+00 0.  1.
          2   -1    0    0  501    0  0.00000000000E+00 -0.00000000000E+00 -0.61367639176E+03  0.61367639176E+03  0.00000000000E+00 0. -1.
         25    2    1    2    0    0  0.84091971257E+01 -0.20826142067E+02 -0.55043210632E+03  0.56491337328E+03  0.12508866001E+03 0.  0.
          5    1    3    3  502    0 -0.22510483001E+02  0.44408839706E+02 -0.30444815722E+03  0.30852069578E+03  0.41800000000E+01 0. -1.
         -5    1    3    3    0  502  0.30919680127E+02 -0.65234981774E+02 -0.24598394910E+03  0.25639267751E+03  0.41800000000E+01 0. -1.
        -11    1    1    2    0    0  0.30532226631E+02  0.26915266108E+02  0.16312856192E+02  0.43849260996E+02  0.00000000000E+00 0.  1.
         11    1    1    2    0    0 -0.38941423756E+02 -0.60891240406E+01 -0.33039904514E+02  0.51430994605E+02  0.00000000000E+00 0. -1.
</event>
<event>
 7    1  0.2499014E-009  0.1170272E+03  0.7561462E-02  0.1248083E+00
         -2   -1    0    0    0  501 -0.00000000000E+00  0.00000000000E+00  0.78215254785E+02  0.78215254785E+02  0.00000000000E+00 0.  1.
          2   -1    0    0  501    0  0.00000000000E+00 -0.00000000000E+00 -0.19292545696E+03  0.19292545696E+03  0.00000000000E+00 0. -1.
         25    2    1    2    0    0 -0.55035681596E+02 -0.71542861328E+01 -0.51456635272E+02  0.14620497978E+03  0.12509196913E+03 0.  0.
          5    1    3    3  502    0 -0.85009631812E+02 -0.38009678274E+02 -0.40405401935E+02  0.10159449812E+03  0.41800000000E+01 0. -1.
         -5    1    3    3    0  502  0.29973950215E+02  0.30855392141E+02 -0.11051233336E+02  0.44610481660E+02  0.41800000000E+01 0. -1.
        -11    1    1    2    0    0 -0.83800342873E+01 -0.25108290289E+02  0.43084741294E+01  0.26818168566E+02  0.00000000000E+00 0.  1.
         11    1    1    2    0    0  0.63415715884E+02  0.32262576422E+02 -0.67562041035E+02  0.98117563398E+02  0.00000000000E+00 0. -1.
</event>
<event>
 7    1  0.2499014E-009  0.8791618E+02  0.7561462E-02  0.1307978E+00
         -4   -1    0    0    0  501 -0.00000000000E+00  0.00000000000E+00  0.78312884207E+02  0.78312884207E+02  0.00000000000E+00 0.  1.
          4   -1    0    0  501    0  0.00000000000E+00 -0.00000000000E+00 -0.24382310373E+03  0.24382310373E+03  0.00000000000E+00 0. -1.
         25    2    1    2    0    0  0.29688181358E+02 -0.80688036147E+02 -0.89386681619E+02  0.17615133717E+03  0.12508943779E+03 0.  0.
          5    1    3    3  502    0  0.32718156052E+01 -0.42978420406E+02 -0.11529224233E+03  0.12315690374E+03  0.41800000000E+01 0.  1.
         -5    1    3    3    0  502  0.26416365752E+02 -0.37709615741E+02  0.25905560709E+02  0.52994433430E+02  0.41800000000E+01 0.  1.
        -11    1    1    2    0    0 -0.27274336371E+02  0.66036294808E+02 -0.96933950503E+02  0.12041956825E+03  0.00000000000E+00 0. -1.
         11    1    1    2    0    0 -0.24138449863E+01  0.14651741339E+02  0.20810412597E+02  0.25565082522E+02  0.00000000000E+00 0.  1.
</event>
<event>
 7    1  0.2499014E-009  0.1044924E+03  0.7561462E-02  0.1271123E+00
          2   -1    0    0  501    0  0.00000000000E+00  0.00000000000E+00  0.27157255291E+02  0.27157255291E+02  0.00000000000E+00 0. -1.
         -2   -1    0    0    0  501 -0.00000000000E+00 -0.00000000000E+00 -0.63236623830E+03  0.63236623830E+03  0.00000000000E+00 0.  1.
         25    2    1    2    0    0 -0.43281817225E+02 -0.95316242029E+01 -0.18945873214E+03  0.23131859142E+03  0.12509800953E+03 0.  0.
          5    1    3    3  502    0 -0.69783712514E+02  0.16539271782E+02 -0.17838021627E+03  0.19230259489E+03  0.41800000000E+01 0. -1.
         -5    1    3    3    0  502  0.26501895289E+02 -0.26070895985E+02 -0.11078515871E+02  0.39015996530E+02  0.41800000000E+01 0. -1.
        -11    1    1    2    0    0  0.54852337626E+02 -0.27199504463E+02 -0.20432348668E+03  0.21329950585E+03  0.00000000000E+00 0.  1.
         11    1    1    2    0    0 -0.11570520401E+02  0.36731128666E+02 -0.21142676418E+03  0.21490539632E+03  0.00000000000E+00 0. -1.
</event>
<event>
 7    1  0.2499014E-009  0.1389223E+03  0.7561462E-02  0.1214787E+00
         -1   -1    0    0    0  501 -0.00000000000E+00  0.00000000000E+00  0.15520766041E+02  0.15520766041E+02  0.00000000000E+00 0.  1.
          1   -1    0    0  501    0  0.00000000000E+00 -0.00000000000E+00 -0.27649466151E+04  0.27649466151E+04  0.00000000000E+00 0. -1.
         25    2    1    2    0    0  0.53280614921E+02 -0.11452084216E+03 -0.22566013452E+04  0.22635922418E+04  0.12508540654E+03 0.  0.
          5    1    3    3  502    0  0.12178110960E+02  0.12345021966E+02 -0.52330683148E+02  0.55287238606E+02  0.41800000000E+01 0. -1.
         -5    1    3    3    0  502  0.41102503961E+02 -0.12686586413E+03 -0.22042706620E+04  0.22083050032E+04  0.41800000000E+01 0. -1.
        -11    1    1    2    0    0 -0.92572531360E+01  0.28271890796E+02 -0.24195446421E+02  0.38346005950E+02  0.00000000000E+00 0.  1.
         11    1    1    2    0    0 -0.44023361785E+02  0.86248951364E+02 -0.46862905744E+03  0.47852913335E+03  0.00000000000E+00 0. -1.
</event>
<event>
 7    1  0.2499014E-009  0.2030261E+03  0.7561462E-02  0.1147211E+00
         -1   -1    0    0    0  501 -0.00000000000E+00  0.00000000000E+00  0.42631228964E+03  0.42631228964E+03  0.00000000000E+00 0.  1.
          1   -1    0    0  501    0  0.00000000000E+00 -0.00000000000E+00 -0.12913974270E+03  0.12913974270E+03  0.00000000000E+00 0. -1.
         25    2    1    2    0    0 -0.50152343231E+02  0.16727304309E+03  0.23800932037E+02  0.21612480167E+03  0.12509163464E+03 0.  0.
          5    1    3    3  502    0 -0.41179089195E+02 -0.50484499772E+01 -0.12190649485E+01  0.41715258042E+02  0.41800000000E+01 0.  1.
         -5    1    3    3    0  502 -0.89732540351E+01  0.17232149306E+03  0.25019996986E+02  0.17440954363E+03  0.41800000000E+01 0.  1.
        -11    1    1    2    0    0 -0.28057526058E+01 -0.12212782269E+03  0.12161226286E+03  0.17237348926E+03  0.00000000000E+00 0. -1.
         11    1    1    2    0    0  0.52958095836E+02 -0.45145220398E+02  0.15175935205E+03  0.16695374142E+03  0.00000000000E+00 0.  1.
</event>
<event>
 7    1  0.2764846E-009  0.8903705E+02  0.7561462E-02  0.1305201E+00
         -2   -1    0    0    0  501 -0.00000000000E+00  0.00000000000E+00  0.11603478077E+02  0.11603478077E+02  0.00000000000E+00 0.  1.
          2   -1    0    0  501    0  0.00000000000E+00 -0.00000000000E+00 -0.20373392573E+04  0.20373392573E+04  0.00000000000E+00 0. -1.
         25    2    1    2    0    0  0.52357963233E+02  0.22324317824E+02 -0.17092988140E+04  0.17148146544E+04  0.12508849634E+03 0.  0.
          5    1    3    3  502    0  0.49913659532E+02  0.12678195026E+01 -0.16626541979E+04  0.16634089801E+04  0.41800000000E+01 0. -1.
         -5    1    3    3    0  502  0.24443037011E+01  0.21056498321E+02 -0.46644616084E+02  0.51405674315E+02  0.41800000000E+01 0. -1.
        -11    1    1    2    0    0 -0.13148196714E+02  0.34729683212E+02 -0.13209582766E+03  0.13721637533E+03  0.00000000000E+00 0.  1.
         11    1    1    2    0    0 -0.39209766519E+02 -0.57054001036E+02 -0.18434113758E+03  0.19691170567E+03  0.00000000000E+00 0. -1.
</event>
<event>
 7    1  0.2499014E-009  0.1521348E+03  0.7561462E-02  0.1197874E+00
         -2   -1    0    0    0  501 -0.00000000000E+00  0.00000000000E+00  0.62829260643E+02  0.62829260643E+02  0.00000000000E+00 0. -1.
          2   -1    0    0  501    0  0.00000000000E+00 -0.00000000000E+00 -0.48527985310E+03  0.48527985310E+03  0.00000000000E+00 0.  1.
         25    2    1    2    0    0  0.12732944633E+03 -0.42309794579E+02 -0.19658735337E+03  0.26888167114E+03  0.12509140238E+03 0.  0.
          5    1    3    3  502    0  0.22060231180E+02 -0.59040975339E+02 -0.27354645627E+02  0.68834872021E+02  0.41800000000E+01 0. -1.
         -5    1    3    3    0  502  0.10526921515E+03  0.16731180760E+02 -0.16923270775E+03  0.20004679912E+03  0.41800000000E+01 0. -1.
        -11    1    1    2    0    0 -0.73893423904E+02  0.20227264780E+02 -0.20313459234E+03  0.21710145771E+03  0.00000000000E+00 0.  1.
         11    1    1    2    0    0 -0.53436022430E+02  0.22082529799E+02 -0.22728646751E+02  0.62125984890E+02  0.00000000000E+00 0. -1.
</event>
<event>
 7    1  0.2499014E-009  0.2076402E+03  0.7561462E-02  0.1143448E+00
         -2   -1    0    0    0  501 -0.00000000000E+00  0.00000000000E+00  0.76690740502E+02  0.76690740502E+02  0.00000000000E+00 0.  1.
          2   -1    0    0  501    0  0.00000000000E+00 -0.00000000000E+00 -0.58407600028E+03  0.58407600028E+03  0.00000000000E+00 0. -1.
         25    2    1    2    0    0  0.91324542543E+02  0.15561939385E+03 -0.26721907105E+03  0.34584790222E+03  0.12508865546E+03 0.  0.
          5    1    3    3  502    0 -0.31049996641E+02  0.39726121999E+02 -0.70348447372E+02  0.86652429326E+02  0.41800000000E+01 0. -1.
         -5    1    3    3    0  502  0.12237453918E+03  0.11589327185E+03 -0.19687062368E+03  0.25919547289E+03  0.41800000000E+01 0. -1.
        -11    1    1    2    0    0 -0.14562174883E+00 -0.73147746382E+02 -0.50483278079E+02  0.88877305157E+02  0.00000000000E+00 0. -1.
         11    1    1    2    0    0 -0.91178920794E+02 -0.82471647465E+02 -0.18968291065E+03  0.22604153341E+03  0.00000000000E+00 0.  1.
</event>
<event>
 7    1  0.2869947E-009  0.1115469E+03  0.7561462E-02  0.1257732E+00
         -1   -1    0    0    0  501 -0.00000000000E+00  0.00000000000E+00  0.24370681694E+02  0.24370681694E+02  0.00000000000E+00 0.  1.
          1   -1    0    0  501    0  0.00000000000E+00 -0.00000000000E+00 -0.73080858162E+03  0.73080858162E+03  0.00000000000E+00 0. -1.
         25    2    1    2    0    0  0.49538670505E+02  0.47495647049E+02 -0.28886079308E+03  0.32217645516E+03  0.12508874498E+03 0.  0.
          5    1    3    3  502    0  0.70996178741E+02  0.20859628710E+02 -0.27537298031E+03  0.28517246043E+03  0.41800000000E+01 0. -1.
         -5    1    3    3    0  502 -0.21457508236E+02  0.26636018339E+02 -0.13487812770E+02  0.37003994730E+02  0.41800000000E+01 0. -1.
        -11    1    1    2    0    0  0.19191685538E+02 -0.41263346056E+02 -0.17043633376E+03  0.17640727986E+03  0.00000000000E+00 0. -1.
         11    1    1    2    0    0 -0.68730356043E+02 -0.62323009929E+01 -0.24714077309E+03  0.25659552829E+03  0.00000000000E+00 0.  1.
</event>
<event>
 7    1  0.2499014E-009  0.2677059E+03  0.7561462E-02  0.1102600E+00
          4   -1    0    0  501    0  0.00000000000E+00  0.00000000000E+00  0.12466561568E+03  0.12466561568E+03  0.00000000000E+00 0. -1.
         -4   -1    0    0    0  501 -0.00000000000E+00 -0.00000000000E+00 -0.71035902344E+03  0.71035902344E+03  0.00000000000E+00 0.  1.
         25    2    1    2    0    0 -0.22015959321E+03 -0.13703991806E+03 -0.16351096138E+03  0.33110441122E+03  0.12507642069E+03 0.  0.
          5    1    3    3  502    0 -0.77122068591E+02 -0.10197951334E+03 -0.12492265378E+03  0.17880373718E+03  0.41800000000E+01 0.  1.
         -5    1    3    3    0  502 -0.14303752461E+03 -0.35060404722E+02 -0.38588307606E+02  0.15230067403E+03  0.41800000000E+01 0.  1.
        -11    1    1    2    0    0  0.10880310517E+03  0.79932735132E+02 -0.13630161826E+03  0.19184756704E+03  0.00000000000E+00 0.  1.
         11    1    1    2    0    0  0.11135648804E+03  0.57107182926E+02 -0.28588082812E+03  0.31207266086E+03  0.00000000000E+00 0. -1.
</event>
<event>
 7    1  0.2499014E-009  0.1905285E+03  0.7561462E-02  0.1157985E+00
          2   -1    0    0  501    0  0.00000000000E+00  0.00000000000E+00  0.43833312447E+03  0.43833312447E+03  0.00000000000E+00 0.  1.
         -2   -1    0    0    0  501 -0.00000000000E+00 -0.00000000000E+00 -0.85972906814E+02  0.85972906814E+02  0.00000000000E+00 0. -1.
         25    2    1    2    0    0 -0.63682790982E+02  0.14680969962E+03  0.20218799347E+03  0.28659273501E+03  0.12508727070E+03 0.  0.
          5    1    3    3  502    0  0.11388378152E+02 -0.15162826035E+02  0.40081668272E+01  0.19827865533E+02  0.41800000000E+01 0. -1.
         -5    1    3    3    0  502 -0.75071169134E+02  0.16197252565E+03  0.19817982664E+03  0.26676486948E+03  0.41800000000E+01 0. -1.
        -11    1    1    2    0    0  0.29386033164E+01 -0.11397951534E+03  0.10645308934E+03  0.15598790189E+03  0.00000000000E+00 0. -1.
         11    1    1    2    0    0  0.60744187666E+02 -0.32830184276E+02  0.43719134846E+02  0.81725394379E+02  0.00000000000E+00 0.  1.
</event>
<event>
 7    1  0.2499014E-009  0.1113858E+03  0.7561462E-02  0.1258025E+00
         -1   -1    0    0    0  501 -0.00000000000E+00  0.00000000000E+00  0.51551225181E+02  0.51551225181E+02  0.00000000000E+00 0.  1.
          1   -1    0    0  501    0  0.00000000000E+00 -0.00000000000E+00 -0.27878669217E+03  0.27878669217E+03  0.00000000000E+00 0. -1.
         25    2    1    2    0    0  0.46158507767E+02 -0.15511638971E+02 -0.10841685489E+03  0.17254940969E+03  0.12509142887E+03 0.  0.
          5    1    3    3  502    0 -0.96845286359E+01 -0.51666382928E+02 -0.88433481568E+02  0.10296192637E+03  0.41800000000E+01 0. -1.
         -5    1    3    3    0  502  0.55843036403E+02  0.36154743957E+02 -0.19983373326E+02  0.69587483320E+02  0.41800000000E+01 0. -1.
        -11    1    1    2    0    0  0.26459031429E+01  0.45844250147E+02 -0.60048643453E+02  0.75594547790E+02  0.00000000000E+00 0.  1.
         11    1    1    2    0    0 -0.48804410910E+02 -0.30332611176E+02 -0.58769968638E+02  0.82193959868E+02  0.00000000000E+00 0. -1.
</event>
<event>
 7    1  0.2926305E-009  0.1512494E+03  0.7561462E-02  0.1198946E+00
          1   -1    0    0  501    0  0.00000000000E+00  0.00000000000E+00  0.13642668228E+04  0.13642668228E+04  0.00000000000E+00 0. -1.
         -1   -1    0    0    0  501 -0.00000000000E+00 -0.00000000000E+00 -0.21055354529E+02  0.21055354529E+02  0.00000000000E+00 0.  1.
         25    2    1    2    0    0  0.54264393303E+02  0.11810738260E+03  0.72221941948E+03  0.74440575920E+03  0.12508023922E+03 0.  0.
          5    1    3    3  502    0  0.23166854187E+02  0.11764125496E+03  0.68630783068E+03  0.69671520642E+03  0.41800000000E+01 0. -1.
         -5    1    3    3    0  502  0.31097539116E+02  0.46612763943E+00  0.35911588805E+02  0.47690552781E+02  0.41800000000E+01 0. -1.
        -11    1    1    2    0    0  0.19913160323E+02 -0.20896518380E+02  0.57850134508E+02  0.64651655022E+02  0.00000000000E+00 0.  1.
         11    1    1    2    0    0 -0.74177553626E+02 -0.97210864222E+02  0.56314191432E+03  0.57626476315E+03  0.00000000000E+00 0. -1.
</event>
<event>
 7    1  0.2499014E-009  0.6836640E+02  0.7561462E-02  0.1365738E+00
          2   -1    0    0  501    0  0.00000000000E+00  0.00000000000E+00  0.49701160647E+02  0.49701160647E+02  0.00000000000E+00 0. -1.
         -2   -1    0    0    0  501 -0.00000000000E+00 -0.00000000000E+00 -0.27642961725E+03  0.27642961725E+03  0.00000000000E+00 0.  1.
         25    2    1    2    0    0 -0.94995153529E+01  0.98158687373E+01 -0.18760313487E+03  0.22589558373E+03  0.12508911410E+03 0.  0.
          5    1    3    3  502    0 -0.20170354365E+02  0.29537210513E+02 -0.19769887686E+03  0.20095175618E+03  0.41800000000E+01 0.  1.
         -5    1    3    3    0  502  0.10670839012E+02 -0.19721341776E+02  0.10095741992E+02  0.24943827554E+02  0.41800000000E+01 0.  1.
        -11    1    1    2    0    0 -0.16997101962E+02 -0.36527560728E+02  0.68079733602E+01  0.40859670448E+02  0.00000000000E+00 0. -1.
         11    1    1    2    0    0  0.26496617315E+02  0.26711691991E+02 -0.45933295099E+02  0.59375523719E+02  0.00000000000E+00 0.  1.
</event>
<event>
 7    1  0.2499014E-009  0.9903551E+02  0.7561462E-02  0.1282337E+00
         -2   -1    0    0    0  501 -0.00000000000E+00  0.00000000000E+00  0.58605106833E+02  0.58605106833E+02  0.00000000000E+00 0.  1.
          2   -1    0    0  501    0  0.00000000000E+00 -0.00000000000E+00 -0.20635894746E+03  0.20635894746E+03  0.00000000000E+00 0. -1.
         25    2    1    2    0    0  0.84674457505E+01  0.13387197419E+02 -0.74757561922E+02  0.14658388170E+03  0.12508887488E+03 0.  0.
          5    1    3    3  502    0 -0.48311648427E+02  0.36245746000E+02 -0.55897660259E+02  0.82400183854E+02  0.41800000000E+01 0.  1.
         -5    1    3    3    0  502  0.56779094178E+02 -0.22858548581E+02 -0.18859901663E+02  0.64183697849E+02  0.41800000000E+01 0.  1.
        -11    1    1    2    0    0 -0.19332873453E+00 -0.44238013297E+02 -0.74232992728E+02  0.86415139911E+02  0.00000000000E+00 0. -1.
         11    1    1    2    0    0 -0.82741170160E+01  0.30850815878E+02  0.12367140208E+01  0.31965032681E+02  0.00000000000E+00 0.  1.
</event>
<event>
 7    1  0.2499014E-009  0.1617154E+03  0.7561462E-02  0.1186774E+00
          2   -1    0    0  501    0  0.00000000000E+00  0.00000000000E+00  0.10554431688E+04  0.10554431688E+04  0.00000000000E+00 0. -1.
         -2   -1    0    0    0  501 -0.00000000000E+00 -0.00000000000E+00 -0.43298583169E+02  0.43298583169E+02  0.00000000000E+00 0.  1.
         25    2    1    2    0    0  0.38583361220E+01  0.13791371234E+03  0.83543861201E+03  0.85594454063E+03  0.12509317883E+03 0.  0.
          5    1    3    3  502    0 -0.41225022331E+02  0.12667855799E+01  0.22246559072E+03  0.22629520248E+03  0.41800000000E+01 0. -1.
         -5    1    3    3    0  502  0.45083358453E+02  0.13664692676E+03  0.61297302129E+03  0.62964933815E+03  0.41800000000E+01 0. -1.
        -11    1    1    2    0    0  0.66031839776E+00 -0.38966066045E+02 -0.14048947137E+01  0.38996974916E+02  0.00000000000E+00 0.  1.
         11    1    1    2    0    0 -0.45186545198E+01 -0.98947646299E+02  0.17811086835E+03  0.20380023643E+03  0.00000000000E+00 0. -1.
</event>
<event>
 7    1  0.2499014E-009  0.6790325E+02  0.7561462E-02  0.1367372E+00
         -2   -1    0    0    0  501 -0.00000000000E+00  0.00000000000E+00  0.93113455637E+02  0.93113455637E+02  0.00000000000E+00 0. -1.
          2   -1    0    0  501    0  0.00000000000E+00 -0.00000000000E+00 -0.14271303632E+03  0.14271303632E+03  0.00000000000E+00 0.  1.
         25    2    1    2    0    0 -0.32294009448E+02  0.12886766489E+01 -0.49103355560E+02  0.13821145858E+03  0.12508678596E+03 0.  0.
          5    1    3    3  502    0 -0.12465898501E+02 -0.18499220494E+02  0.39299563864E+02  0.45382242168E+02  0.41800000000E+01 0.  1.
         -5    1    3    3    0  502 -0.19828110947E+02  0.19787897143E+02 -0.88402919424E+02  0.92829216412E+02  0.41800000000E+01 0.  1.
        -11    1    1    2    0    0  0.49619128181E+02  0.23212409190E+02  0.23089699848E+02  0.59447523590E+02  0.00000000000E+00 0. -1.
         11    1    1    2    0    0 -0.17325118734E+02 -0.24501085839E+02 -0.23585924971E+02  0.38167509785E+02  0.00000000000E+00 0.  1.
</event>
<event>
 7    1  0.2499014E-009  0.1196156E+03  0.7561462E-02  0.1243733E+00
          2   -1    0    0  501    0  0.00000000000E+00  0.00000000000E+00  0.25289998710E+03  0.25289998710E+03  0.00000000000E+00 0. -1.
         -2   -1    0    0    0  501 -0.00000000000E+00 -0.00000000000E+00 -0.66601945985E+02  0.66601945985E+02  0.00000000000E+00 0.  1.
         25    2    1    2    0    0 -0.72847831834E+02 -0.25854489074E+01  0.11506325675E+03  0.18493386410E+03  0.12508992721E+03 0.  0.
          5    1    3    3  502    0 -0.10041024311E+03  0.38593460839E+01  0.46821160621E+02  0.11093603993E+03  0.41800000000E+01 0. -1.
         -5    1    3    3    0  502  0.27562411276E+02 -0.64447949913E+01  0.68242096128E+02  0.73997824170E+02  0.41800000000E+01 0. -1.
        -11    1    1    2    0    0 -0.14003344934E+02 -0.15965746489E+02  0.29735046308E+02  0.36540001495E+02  0.00000000000E+00 0.  1.
         11    1    1    2    0    0  0.86851176768E+02  0.18551195397E+02  0.41499738055E+02  0.98028067487E+02  0.00000000000E+00 0. -1.
</event>
<event>
 7    1  0.2499014E-009  0.2634480E+03  0.7561462E-02  0.1105089E+00
          3   -1    0    0  501    0  0.00000000000E+00  0.00000000000E+00  0.63158764418E+03  0.63158764418E+03  0.00000000000E+00 0. -1.
         -3   -1    0    0    0  501 -0.00000000000E+00 -0.00000000000E+00 -0.11944084027E+03  0.11944084027E+03  0.00000000000E+00 0.  1.
         25    2    1    2    0    0 -0.91485876293E+01  0.25015240381E+03  0.22896381644E+03  0.36156559266E+03  0.12508128065E+03 0.  0.
          5    1    3    3  502    0 -0.60055020295E+02  0.17983557300E+03  0.18167634615E+03  0.26262369643E+03  0.41800000000E+01 0. -1.
         -5    1    3    3    0  502  0.50906432666E+02  0.70316830812E+02  0.47287470288E+02  0.98941896224E+02  0.41800000000E+01 0. -1.
        -11    1    1    2    0    0  0.92454671556E+00 -0.64990803145E+02  0.14299142706E+03  0.15707070858E+03  0.00000000000E+00 0. -1.
         11    1    1    2    0    0  0.82240409138E+01 -0.18516160066E+03  0.14019156041E+03  0.23239218322E+03  0.00000000000E+00 0.  1.
</event>
<event>
 7    1  0.2499014E-009  0.1679803E+03  0.7561462E-02  0.1179971E+00
         -1   -1    0    0    0  501 -0.00000000000E+00  0.00000000000E+00  0.53375016368E+03  0.53375016368E+03  0.00000000000E+00 0.  1.
          1   -1    0    0  501    0  0.00000000000E+00 -0.00000000000E+00 -0.72599086207E+02  0.72599086207E+02  0.00000000000E+00 0. -1.
         25    2    1    2    0    0 -0.20173430222E+02  0.14102471299E+03  0.36585828759E+03  0.41206374927E+03  0.12509720182E+03 0.  0.
          5    1    3    3  502    0  0.40682419761E+02  0.13538205644E+02  0.49806120437E+02  0.65851836138E+02  0.41800000000E+01 0. -1.
         -5    1    3    3    0  502 -0.60855849984E+02  0.12748650735E+03  0.31605216715E+03  0.34621191313E+03  0.41800000000E+01 0. -1.
        -11    1    1    2    0    0  0.23895709116E+02 -0.22033535752E+02  0.63069222381E+02  0.70952155877E+02  0.00000000000E+00 0.  1.
         11    1    1    2    0    0 -0.37222788933E+01 -0.11899117724E+03  0.32223567499E+02  0.12333334474E+03  0.00000000000E+00 0. -1.
</event>
<event>
 7    1  0.2499014E-009  0.9317941E+02  0.7561462E-02  0.1295330E+00
          3   -1    0    0  501    0  0.00000000000E+00  0.00000000000E+00  0.15892676014E+03  0.15892676014E+03  0.00000000000E+00 0. -1.
         -3   -1    0    0    0  501 -0.00000000000E+00 -0.00000000000E+00 -0.76828073339E+02  0.76828073339E+02  0.00000000000E+00 0.  1.
         25    2    1    2    0    0 -0.68252188352E+01  0.20262870292E+02  0.30716985070E+02  0.13057823287E+03  0.12509985693E+03 0.  0.
          5    1    3    3  502    0 -0.43687358836E+02 -0.24355734520E+02 -0.19492386999E+02  0.53844337465E+02  0.41800000000E+01 0. -1.
         -5    1    3    3    0  502  0.36862140001E+02  0.44618604812E+02  0.50209372070E+02  0.76733895408E+02  0.41800000000E+01 0. -1.
        -11    1    1    2    0    0 -0.31994258491E+02 -0.22723034319E+02 -0.18051335783E+01  0.39283932750E+02  0.00000000000E+00 0.  1.
         11    1    1    2    0    0  0.38819477327E+02  0.24601640274E+01  0.53186835305E+02  0.65892667853E+02  0.00000000000E+00 0. -1.
</event>
<event>
 7    1  0.2499014E-009  0.9619467E+02  0.7561462E-02  0.1288508E+00
          2   -1    0    0  501    0  0.00000000000E+00  0.00000000000E+00  0.36766138896E+03  0.36766138896E+03  0.00000000000E+00 0. -1.
         -2   -1    0    0    0  501 -0.00000000000E+00 -0.00000000000E+00 -0.40400655626E+02  0.40400655626E+02  0.00000000000E+00 0.  1.
         25    2    1    2    0    0 -0.41301253688E+02 -0.12412064622E+02  0.22858066148E+03  0.26411292072E+03  0.12508662273E+03 0.  0.
          5    1    3    3  502    0 -0.35710463674E+02 -0.67486832066E+02  0.12314061908E+03  0.14495100615E+03  0.41800000000E+01 0. -1.
         -5    1    3    3    0  502 -0.55907900144E+01  0.55074767444E+02  0.10544004240E+03  0.11916191457E+03  0.41800000000E+01 0. -1.
        -11    1    1    2    0    0  0.37211297252E+02 -0.92651465048E+01 -0.43413644680E+01  0.38592370080E+02  0.00000000000E+00 0.  1.
         11    1    1    2    0    0  0.40899564362E+01  0.21677211127E+02  0.10302143633E+03  0.10535675379E+03  0.00000000000E+00 0. -1.
</event>
<event>
 7    1  0.2499014E-009  0.1147145E+03  0.7561462E-02  0.1252080E+00
          1   -1    0    0  501    0  0.00000000000E+00  0.00000000000E+00  0.57649159616E+02  0.57649159616E+02  0.00000000000E+00 0. -1.
         -1   -1    0    0    0  501 -0.00000000000E+00 -0.00000000000E+00 -0.28036130837E+03  0.28036130837E+03  0.00000000000E+00 0.  1.
         25    2    1    2    0    0  0.24315077749E+02 -0.55438176695E+02 -0.15248367292E+03  0.20630889783E+03  0.12508987319E+03 0.  0.
          5    1    3    3  502    0  0.50779541154E+02  0.14603402919E+02 -0.10480235693E+03  0.11744286949E+03  0.41800000000E+01 0.  1.
         -5    1    3    3    0  502 -0.26464463405E+02 -0.70041579613E+02 -0.47681315992E+02  0.88866028339E+02  0.41800000000E+01 0.  1.
        -11    1    1    2    0    0  0.26344116282E+02  0.96969882937E-02 -0.45621589673E+02  0.52681514794E+02  0.00000000000E+00 0.  1.
         11    1    1    2    0    0 -0.50659194031E+02  0.55428479706E+02 -0.24606886156E+02  0.79020055358E+02  0.00000000000E+00 0. -1.
</event>
<event>
 7    1  0.2499014E-009  0.1717976E+03  0.7561462E-02  0.1175986E+00
          3   -1    0    0  501    0  0.00000000000E+00  0.00000000000E+00  0.24466960218E+03  0.24466960218E+03  0.00000000000E+00 0. -1.
         -3   -1    0    0    0  501 -0.00000000000E+00 -0.00000000000E+00 -0.13665715941E+03  0.13665715941E+03  0.00000000000E+00 0.  1.
         25    2    1    2    0    0  0.76400457473E+02 -0.12366771218E+03  0.79014314947E+02  0.20741661776E+03  0.12509060083E+03 0.  0.
          5    1    3    3  502    0 -0.23677043463E+02 -0.13825228600E+02  0.48187261635E+02  0.55598776218E+02  0.41800000000E+01 0.  1.
         -5    1    3    3    0  502  0.10007750094E+03 -0.10984248358E+03  0.30827053311E+02  0.15181784154E+03  0.41800000000E+01 0.  1.
        -11    1    1    2    0    0  0.86415175205E+01  0.60895250221E+02 -0.77775274462E+01  0.61995138984E+02  0.00000000000E+00 0.  1.
         11    1    1    2    0    0 -0.85041974993E+02  0.62772461963E+02  0.36775655265E+02  0.11191500486E+03  0.00000000000E+00 0. -1.
</event>
<event>
 7    1  0.2499014E-009  0.1524341E+03  0.7561462E-02  0.1197513E+00
         -1   -1    0    0    0  501 -0.00000000000E+00  0.00000000000E+00  0.47921546344E+02  0.47921546344E+02  0.00000000000E+00 0.  1.
          1   -1    0    0  501    0  0.00000000000E+00 -0.00000000000E+00 -0.52176268501E+03  0.52176268501E+03  0.00000000000E+00 0. -1.
         25    2    1    2    0    0 -0.82087545856E+02 -0.79567471778E+02 -0.25665723234E+03  0.30755541871E+03  0.12509217768E+03 0.  0.
          5    1    3    3  502    0  0.14557414164E+02 -0.70155355214E+02 -0.97483572452E+02  0.12105458054E+03  0.41800000000E+01 0.  1.
         -5    1    3    3    0  502 -0.96644960020E+02 -0.94121165647E+01 -0.15917365989E+03  0.18650083817E+03  0.41800000000E+01 0.  1.
        -11    1    1    2    0    0  0.29931595390E+02  0.78197881484E+02 -0.17855103751E+03  0.19720872715E+03  0.00000000000E+00 0.  1.
         11    1    1    2    0    0  0.52155950466E+02  0.13695902943E+01 -0.38632868821E+02  0.64920085490E+02  0.00000000000E+00 0. -1.
</event>
<event>
 7    1  0.2499014E-009  0.1463596E+03  0.7561462E-02  0.1205019E+00
         -4   -1    0    0    0  501 -0.00000000000E+00  0.00000000000E+00  0.17235866376E+03  0.17235866376E+03  0.00000000000E+00 0. -1.
          4   -1    0    0  501    0  0.00000000000E+00 -0.00000000000E+00 -0.18089502894E+03  0.18089502894E+03  0.00000000000E+00 0.  1.
         25    2    1    2    0    0  0.13722540607E+03  0.19382173153E+02 -0.92905729499E+01  0.18692374253E+03  0.12509072735E+03 0.  0.
          5    1    3    3  502    0  0.81645992906E+02 -0.20820672934E+01 -0.65599446546E+02  0.10483874736E+03  0.41800000000E+01 0. -1.
         -5    1    3    3    0  502  0.55579413163E+02  0.21464240446E+02  0.56308873596E+02  0.82084995165E+02  0.41800000000E+01 0. -1.
        -11    1    1    2    0    0 -0.68125386292E+02  0.20862240430E+02 -0.34233244088E+02  0.79045659805E+02  0.00000000000E+00 0.  1.
         11    1    1    2    0    0 -0.69100019777E+02 -0.40244413583E+02  0.34987451850E+02  0.87284290366E+02  0.00000000000E+00 0. -1.
</event>
<event>
 7    1  0.2499014E-009  0.8594624E+02  0.7561462E-02  0.1312976E+00
          2   -1    0    0  501    0  0.00000000000E+00  0.00000000000E+00  0.43600118570E+02  0.43600118570E+02  0.00000000000E+00 0.  1.
         -2   -1    0    0    0  501 -0.00000000000E+00 -0.00000000000E+00 -0.26466795281E+03  0.26466795281E+03  0.00000000000E+00 0. -1.
         25    2    1    2    0    0 -0.11728643098E+02  0.50343628692E+01 -0.11388640399E+03  0.16964753893E+03  0.12508904258E+03 0.  0.
          5    1    3    3  502    0 -0.28526574519E+02 -0.55449677206E+02 -0.50624122750E+02  0.80428268415E+02  0.41800000000E+01 0. -1.
         -5    1    3    3    0  502  0.16797931421E+02  0.60484040075E+02 -0.63262281238E+02  0.89219270515E+02  0.41800000000E+01 0. -1.
        -11    1    1    2    0    0  0.89727483916E+01 -0.24879125922E+02  0.30136965977E+01  0.26618855864E+02  0.00000000000E+00 0.  1.
         11    1    1    2    0    0  0.27558947065E+01  0.19844763053E+02 -0.11019512685E+03  0.11200167658E+03  0.00000000000E+00 0. -1.
</event>
<event>
 7    1  0.2499014E-009  0.1023211E+03  0.7561462E-02  0.1275489E+00
          1   -1    0    0  501    0  0.00000000000E+00  0.00000000000E+00  0.11677771135E+04  0.11677771135E+04  0.00000000000E+00 0. -1.
         -1   -1    0    0    0  501 -0.00000000000E+00 -0.00000000000E+00 -0.13262257453E+02  0.13262257453E+02  0.00000000000E+00 0.  1.
         25    2    1    2    0    0 -0.32974913922E+02  0.33524356766E+02  0.80253575214E+03  0.81358595632E+03  0.12508895801E+03 0.  0.
          5    1    3    3  502    0  0.31859936017E+02  0.13260325389E+02  0.57600569374E+03  0.57705365728E+03  0.41800000000E+01 0. -1.
         -5    1    3    3    0  502 -0.64834849939E+02  0.20264031378E+02  0.22653005839E+03  0.23653229904E+03  0.41800000000E+01 0. -1.
        -11    1    1    2    0    0  0.26280798292E+02 -0.64754793886E+02  0.19214337427E+03  0.20445767280E+03  0.00000000000E+00 0.  1.
         11    1    1    2    0    0  0.66941156295E+01  0.31230437120E+02  0.15983572963E+03  0.16299574183E+03  0.00000000000E+00 0. -1.
</event>
<event>
 7    1  0.2499014E-009  0.1041784E+03  0.7561462E-02  0.1271747E+00
          2   -1    0    0  501    0  0.00000000000E+00  0.00000000000E+00  0.15418911305E+04  0.15418911305E+04  0.00000000000E+00 0. -1.
         -2   -1    0    0    0  501 -0.00000000000E+00 -0.00000000000E+00 -0.17789786601E+02  0.17789786601E+02  0.00000000000E+00 0.  1.
         25    2    1    2    0    0 -0.62314527755E+02 -0.32526273569E+02  0.12987020155E+04  0.13066042435E+04  0.12508663060E+03 0.  0.
          5    1    3    3  502    0 -0.17548943450E+01 -0.33349261341E+02  0.85521250362E+02  0.91905438085E+02  0.41800000000E+01 0. -1.
         -5    1    3    3    0  502 -0.60559633410E+02  0.82298777188E+00  0.12131807652E+04  0.12146988054E+04  0.41800000000E+01 0. -1.
        -11    1    1    2    0    0  0.19310062463E+01  0.50851745385E+02  0.11810013628E+03  0.12859732105E+03  0.00000000000E+00 0. -1.
         11    1    1    2    0    0  0.60383521509E+02 -0.18325471816E+02  0.10729919213E+03  0.12447935258E+03  0.00000000000E+00 0.  1.
</event>
<event>
 7    1  0.2499014E-009  0.1536823E+03  0.7561462E-02  0.1196020E+00
         -3   -1    0    0    0  501 -0.00000000000E+00  0.00000000000E+00  0.80831050716E+03  0.80831050716E+03  0.00000000000E+00 0.  1.
          3   -1    0    0  501    0  0.00000000000E+00 -0.00000000000E+00 -0.33016413897E+02  0.33016413897E+02  0.00000000000E+00 0. -1.
         25    2    1    2    0    0 -0.21424082086E+02  0.97549132161E+02  0.51341771973E+03  0.53779179171E+03  0.12508969510E+03 0.  0.
          5    1    3    3  502    0  0.23187171838E+02 -0.18337014314E+02  0.16971707380E+03  0.17232309355E+03  0.41800000000E+01 0.  1.
         -5    1    3    3    0  502 -0.44611253924E+02  0.11588614648E+03  0.34370064593E+03  0.36546869815E+03  0.41800000000E+01 0.  1.
        -11    1    1    2    0    0  0.69536017477E+02 -0.50236474033E+02  0.15445438041E+03  0.17667800281E+03  0.00000000000E+00 0.  1.
         11    1    1    2    0    0 -0.48111935391E+02 -0.47312658128E+02  0.10742199313E+03  0.12685712654E+03  0.00000000000E+00 0. -1.
</event>
<event>
 7    1  0.2499014E-009  0.1140800E+03  0.7561462E-02  0.1253196E+00
          1   -1    0    0  501    0  0.00000000000E+00  0.00000000000E+00  0.15556826010E+03  0.15556826010E+03  0.00000000000E+00 0. -1.
         -1   -1    0    0    0  501 -0.00000000000E+00 -0.00000000000E+00 -0.14739546570E+03  0.14739546570E+03  0.00000000000E+00 0.  1.
         25    2    1    2    0    0 -0.68786261600E+02 -0.79031535355E+02 -0.88562019049E+00  0.16317435035E+03  0.12509017117E+03 0.  0.
          5    1    3    3  502    0 -0.11981489809E+02 -0.28668808441E+02  0.58719236339E+02  0.66564839004E+02  0.41800000000E+01 0.  1.
         -5    1    3    3    0  502 -0.56804771792E+02 -0.50362726915E+02 -0.59604856529E+02  0.96609511346E+02  0.41800000000E+01 0.  1.
        -11    1    1    2    0    0  0.16831571857E+02  0.64741469394E+02 -0.29925121753E+02  0.73282143680E+02  0.00000000000E+00 0.  1.
         11    1    1    2    0    0  0.51954689743E+02  0.14290065962E+02  0.38983536349E+02  0.66507231770E+02  0.00000000000E+00 0. -1.
</event>
<event>
 7    1  0.2499014E-009  0.1021314E+03  0.7561462E-02  0.1275877E+00
          2   -1    0    0  501    0  0.00000000000E+00  0.00000000000E+00  0.50217824990E+02  0.50217824990E+02  0.00000000000E+00 0. -1.
         -2   -1    0    0    0  501 -0.00000000000E+00 -0.00000000000E+00 -0.28393692846E+03  0.28393692846E+03  0.00000000000E+00 0.  1.
         25    2    1    2    0    0  0.11140099001E+02 -0.10297543739E+02 -0.20581201432E+03  0.24132110005E+03  0.12508855614E+03 0.  0.
          5    1    3    3  502    0  0.42683706111E+02 -0.49430317182E+02 -0.16123047820E+03  0.17400573130E+03  0.41800000000E+01 0.  1.
         -5    1    3    3    0  502 -0.31543607110E+02  0.39132773444E+02 -0.44581536122E+02  0.67315368750E+02  0.41800000000E+01 0.  1.
        -11    1    1    2    0    0 -0.13723546830E+02 -0.37801360538E+02 -0.99586598042E+01  0.41430103804E+02  0.00000000000E+00 0. -1.
         11    1    1    2    0    0  0.25834478296E+01  0.48098904277E+02 -0.17948429344E+02  0.51403549598E+02  0.00000000000E+00 0.  1.
</event>
<event>
 7    1  0.2499014E-009  0.9788743E+02  0.7561462E-02  0.1284802E+00
          2   -1    0    0  501    0  0.00000000000E+00  0.00000000000E+00  0.24731133134E+02  0.24731133134E+02  0.00000000000E+00 0. -1.
         -2   -1    0    0    0  501 -0.00000000000E+00 -0.00000000000E+00 -0.52750096443E+03  0.52750096443E+03  0.00000000000E+00 0.  1.
         25    2    1    2    0    0  0.28509324145E+02  0.15714162137E+02 -0.24648056142E+03  0.27831597946E+03  0.12508957116E+03 0.  0.
          5    1    3    3  502    0 -0.11303431416E+02 -0.38743925730E+02 -0.17619129658E+03  0.18080294449E+03  0.41800000000E+01 0.  1.
         -5    1    3    3    0  502  0.39812755562E+02  0.54458087867E+02 -0.70289264833E+02  0.97513034976E+02  0.41800000000E+01 0.  1.
        -11    1    1    2    0    0 -0.15788446196E+02  0.33364111224E+02 -0.16888478856E+03  0.17287137055E+03  0.00000000000E+00 0.  1.
         11    1    1    2    0    0 -0.12720877950E+02 -0.49078273361E+02 -0.87404481322E+02  0.10104474755E+03  0.00000000000E+00 0. -1.
</event>
<event>
 7    1  0.2499014E-009  0.1087871E+03  0.7561462E-02  0.1262833E+00
         -1   -1    0    0    0  501 -0.00000000000E+00  0.00000000000E+00  0.39568814332E+02  0.39568814332E+02  0.00000000000E+00 0.  1.
          1   -1    0    0  501    0  0.00000000000E+00 -0.00000000000E+00 -0.33786456561E+03  0.33786456561E+03  0.00000000000E+00 0. -1.
         25    2    1    2    0    0  0.10423977500E+02 -0.28656999724E+02 -0.21450092366E+03  0.25017743390E+03  0.12509284248E+03 0.  0.
          5    1    3    3  502    0 -0.30790161531E+02  0.38608294224E+02 -0.76002505930E+02  0.90733057579E+02  0.41800000000E+01 0.  1.
         -5    1    3    3    0  502  0.41214139031E+02 -0.67265293948E+02 -0.13849841773E+03  0.15944437632E+03  0.41800000000E+01 0.  1.
        -11    1    1    2    0    0 -0.47227827423E+02  0.12720203693E+02 -0.68852387734E+02  0.84456631248E+02  0.00000000000E+00 0. -1.
         11    1    1    2    0    0  0.36803849923E+02  0.15936796031E+02 -0.14942439876E+02  0.42799314788E+02  0.00000000000E+00 0.  1.
</event>
<event>
 7    1  0.2499014E-009  0.8822394E+02  0.7561462E-02  0.1307211E+00
         -3   -1    0    0    0  501 -0.00000000000E+00  0.00000000000E+00  0.45287835501E+03  0.45287835501E+03  0.00000000000E+00 0.  1.
          3   -1    0    0  501    0  0.00000000000E+00 -0.00000000000E+00 -0.27170071223E+02  0.27170071223E+02  0.00000000000E+00 0. -1.
         25    2    1    2    0    0 -0.41516501816E+01 -0.13170682353E+02  0.32533080015E+03  0.34882451265E+03  0.12509079912E+03 0.  0.
          5    1    3    3  502    0  0.36265116476E+02 -0.55757137981E+02  0.15980922414E+03  0.17314871535E+03  0.41800000000E+01 0.  1.
         -5    1    3    3    0  502 -0.40416766658E+02  0.42586455628E+02  0.16552157601E+03  0.17567579729E+03  0.41800000000E+01 0.  1.
        -11    1    1    2    0    0 -0.22457128771E+02  0.79760812405E+01 -0.33013062089E+01  0.24059075778E+02  0.00000000000E+00 0. -1.
         11    1    1    2    0    0  0.26608778952E+02  0.51946011122E+01  0.10367878985E+03  0.10716483781E+03  0.00000000000E+00 0.  1.
</event>
<event>
 7    1  0.2499014E-009  0.1125759E+03  0.7561462E-02  0.1255873E+00
         -4   -1    0    0    0  501 -0.00000000000E+00  0.00000000000E+00  0.28503471367E+03  0.28503471367E+03  0.00000000000E+00 0.  1.
          4   -1    0    0  501    0  0.00000000000E+00 -0.00000000000E+00 -0.51071482129E+02  0.51071482129E+02  0.00000000000E+00 0. -1.
         25    2    1    2    0    0  0.52176344335E+02 -0.25737586200E+01  0.11339129449E+03  0.17673380304E+03  0.12509299073E+03 0.  0.
          5    1    3    3  502    0 -0.35030514191E+02  0.25711636954E+02  0.32920190101E+02  0.54675739735E+02  0.41800000000E+01 0.  1.
         -5    1    3    3    0  502  0.87206858526E+02 -0.28285395574E+02  0.80471104385E+02  0.12205806330E+03  0.41800000000E+01 0.  1.
        -11    1    1    2    0    0 -0.28977150656E+02 -0.35077453976E+02  0.10146038433E+03  0.11119493075E+03  0.00000000000E+00 0. -1.
         11    1    1    2    0    0 -0.23199193680E+02  0.37651212596E+02  0.19111552725E+02  0.48177462002E+02  0.00000000000E+00 0.  1.
</event>
<event>
 7    1  0.2499014E-009  0.9606559E+02  0.7561462E-02  0.1288794E+00
         -3   -1    0    0    0  501 -0.00000000000E+00  0.00000000000E+00  0.15426930216E+03  0.15426930216E+03  0.00000000000E+00 0.  1.
          3   -1    0    0  501    0  0.00000000000E+00 -0.00000000000E+00 -0.77793921339E+02  0.77793921339E+02  0.00000000000E+00 0. -1.
         25    2    1    2    0    0  0.56851284356E+00  0.37255652967E+01  0.67486702884E+02  0.14217923139E+03  0.12508507396E+03 0.  0.
          5    1    3    3  502    0  0.33736668009E+01 -0.55944719521E+02  0.62808182587E+01  0.56551873072E+02  0.41800000000E+01 0.  1.
         -5    1    3    3    0  502 -0.28051539573E+01  0.59670284818E+02  0.61205884626E+02  0.85627358314E+02  0.41800000000E+01 0.  1.
        -11    1    1    2    0    0  0.37488977431E+02  0.20922140722E+01  0.28103837881E+02  0.46900175822E+02  0.00000000000E+00 0.  1.
         11    1    1    2    0    0 -0.38057490274E+02 -0.58177793689E+01 -0.19115159947E+02  0.42983816287E+02  0.00000000000E+00 0. -1.
</event>
<event>
 7    1  0.2499014E-009  0.9122804E+02  0.7561462E-02  0.1299905E+00
         -3   -1    0    0    0  501 -0.00000000000E+00  0.00000000000E+00  0.19365643130E+03  0.19365643130E+03  0.00000000000E+00 0.  1.
          3   -1    0    0  501    0  0.00000000000E+00 -0.00000000000E+00 -0.12517170097E+03  0.12517170097E+03  0.00000000000E+00 0. -1.
         25    2    1    2    0    0  0.38021050479E+02 -0.44104407625E+01  0.14421996859E+03  0.19471126870E+03  0.12509207230E+03 0.  0.
          5    1    3    3  502    0 -0.16939015177E+02  0.18410707224E+02 -0.11578236074E+02  0.27882114809E+02  0.41800000000E+01 0. -1.
         -5    1    3    3    0  502  0.54960065655E+02 -0.22821147986E+02  0.15579820466E+03  0.16682915389E+03  0.41800000000E+01 0. -1.
        -11    1    1    2    0    0  0.10971192784E+02  0.37000933793E+02 -0.38323647259E+02  0.54388768251E+02  0.00000000000E+00 0. -1.
         11    1    1    2    0    0 -0.48992243263E+02 -0.32590493030E+02 -0.37411590997E+02  0.69728095319E+02  0.00000000000E+00 0.  1.
</event>
<event>
 7    1  0.2499014E-009  0.9959788E+02  0.7561462E-02  0.1281144E+00
          1   -1    0    0  501    0  0.00000000000E+00  0.00000000000E+00  0.20592544205E+02  0.20592544205E+02  0.00000000000E+00 0. -1.
         -1   -1    0    0    0  501 -0.00000000000E+00 -0.00000000000E+00 -0.76753992862E+03  0.76753992862E+03  0.00000000000E+00 0.  1.
         25    2    1    2    0    0 -0.44299602218E+01 -0.44904512714E+02 -0.50719988576E+03  0.52434232691E+03  0.12508841618E+03 0.  0.
          5    1    3    3  502    0 -0.18086941084E+02  0.37016196159E+02 -0.26614574226E+03  0.26934803645E+03  0.41800000000E+01 0.  1.
         -5    1    3    3    0  502  0.13656980862E+02 -0.81920708873E+02 -0.24105414351E+03  0.25499429047E+03  0.41800000000E+01 0.  1.
        -11    1    1    2    0    0  0.21035130030E+02  0.52359753909E+02 -0.23900215858E+03  0.24557290634E+03  0.00000000000E+00 0.  1.
         11    1    1    2    0    0 -0.16605169808E+02 -0.74552411949E+01 -0.74534006995E+00  0.18217239567E+02  0.00000000000E+00 0. -1.
</event>
<event>
 7    1  0.2499014E-009  0.1093525E+03  0.7561462E-02  0.1261774E+00
         -1   -1    0    0    0  501 -0.00000000000E+00  0.00000000000E+00  0.83179308160E+02  0.83179308160E+02  0.00000000000E+00 0.  1.
          1   -1    0    0  501    0  0.00000000000E+00 -0.00000000000E+00 -0.17397458078E+03  0.17397458078E+03  0.00000000000E+00 0. -1.
         25    2    1    2    0    0  0.52071427228E+02 -0.19406224138E+00 -0.43604229115E+02  0.14233694071E+03  0.12508798783E+03 0.  0.
          5    1    3    3  502    0  0.88079410867E+02 -0.24040913596E+02 -0.36272001284E+02  0.98331473203E+02  0.41800000000E+01 0.  1.
         -5    1    3    3    0  502 -0.36007983639E+02  0.23846851355E+02 -0.73322278308E+01  0.44005467504E+02  0.41800000000E+01 0.  1.
        -11    1    1    2    0    0 -0.45581224601E+02 -0.28990959622E+02  0.54335868578E+01  0.54292242928E+02  0.00000000000E+00 0.  1.
         11    1    1    2    0    0 -0.64902026267E+01  0.29185021864E+02 -0.52624630362E+02  0.60524705303E+02  0.00000000000E+00 0. -1.
</event>
<event>
 7    1  0.2499014E-009  0.1032131E+03  0.7561462E-02  0.1273681E+00
          3   -1    0    0  501    0  0.00000000000E+00  0.00000000000E+00  0.10803816577E+03  0.10803816577E+03  0.00000000000E+00 0. -1.
         -3   -1    0    0    0  501 -0.00000000000E+00 -0.00000000000E+00 -0.28701856143E+03  0.28701856143E+03  0.00000000000E+00 0.  1.
         25    2    1    2    0    0  0.14052457635E+02  0.93207436587E+02  0.18192159622E+02  0.15768528686E+03  0.12509435327E+03 0.  0.
          5    1    3    3  502    0  0.13128619414E+02  0.80436570618E+02  0.67914517049E+02  0.10617088380E+03  0.41800000000E+01 0.  1.
         -5    1    3    3    0  502  0.92383822065E+00  0.12770865969E+02 -0.49722357427E+02  0.51514403061E+02  0.41800000000E+01 0.  1.
        -11    1    1    2    0    0 -0.25183737748E+02 -0.95179809998E+01 -0.48796537489E+01  0.27360987372E+02  0.00000000000E+00 0. -1.
         11    1    1    2    0    0  0.11131280113E+02 -0.83689455587E+02 -0.19229290153E+03  0.21001045296E+03  0.00000000000E+00 0.  1.
</event>
<event>
 7    1  0.2499014E-009  0.1470008E+03  0.7561462E-02  0.1204208E+00
          2   -1    0    0  501    0  0.00000000000E+00  0.00000000000E+00  0.68499480365E+03  0.68499480365E+03  0.00000000000E+00 0. -1.
         -2   -1    0    0    0  501 -0.00000000000E+00 -0.00000000000E+00 -0.37214727797E+02  0.37214727797E+02  0.00000000000E+00 0.  1.
         25    2    1    2    0    0 -0.10759905589E+03  0.19911107870E+02  0.43867846206E+03  0.46910671415E+03  0.12509319383E+03 0.  0.
          5    1    3    3  502    0  0.17678728247E+02 -0.26831331919E+02  0.82836829860E+02  0.88948696371E+02  0.41800000000E+01 0.  1.
         -5    1    3    3    0  502 -0.12527778413E+03  0.46742439789E+02  0.35584163221E+03  0.38015801778E+03  0.41800000000E+01 0.  1.
        -11    1    1    2    0    0  0.30474120318E+02  0.24251210227E+02  0.12431296156E+03  0.13027089322E+03  0.00000000000E+00 0. -1.
         11    1    1    2    0    0  0.77124935568E+02 -0.44162318097E+02  0.84788652224E+02  0.12283192407E+03  0.00000000000E+00 0.  1.
</event>
<event>
 7    1  0.2499014E-009  0.1441669E+03  0.7561462E-02  0.1207830E+00
          1   -1    0    0  501    0  0.00000000000E+00  0.00000000000E+00  0.25325815070E+03  0.25325815070E+03  0.00000000000E+00 0. -1.
         -1   -1    0    0    0  501 -0.00000000000E+00 -0.00000000000E+00 -0.10531819321E+03  0.10531819321E+03  0.00000000000E+00 0.  1.
         25    2    1    2    0    0 -0.33331716202E+02  0.10792048924E+03  0.30283576589E+02  0.17123492387E+03  0.12508584588E+03 0.  0.
          5    1    3    3  502    0 -0.65053199051E+02  0.41584032884E+02 -0.22610316110E+02  0.80559600870E+02  0.41800000000E+01 0. -1.
         -5    1    3    3    0  502  0.31721482850E+02  0.66336456352E+02  0.52893892700E+02  0.90675322996E+02  0.41800000000E+01 0. -1.
        -11    1    1    2    0    0 -0.13175559804E+01 -0.10224288194E+03  0.11220942710E+03  0.15181007342E+03  0.00000000000E+00 0. -1.
         11    1    1    2    0    0  0.34649272182E+02 -0.56776072962E+01  0.54469538015E+01  0.35531346626E+02  0.00000000000E+00 0.  1.
</event>
<event>
 7    1  0.2499014E-009  0.1488494E+03  0.7561462E-02  0.1201894E+00
          2   -1    0    0  501    0  0.00000000000E+00  0.00000000000E+00  0.61067497730E+03  0.61067497730E+03  0.00000000000E+00 0.  1.
         -2   -1    0    0    0  501 -0.00000000000E+00 -0.00000000000E+00 -0.48846848513E+02  0.48846848513E+02  0.00000000000E+00 0. -1.
         25    2    1    2    0    0  0.10770297912E+03  0.82859373510E+02  0.28187571985E+03  0.33699888965E+03  0.12509485480E+03 0.  0.
          5    1    3    3  502    0  0.43867560878E+02  0.17581058721E+02  0.22365592279E+03  0.22863267640E+03  0.41800000000E+01 0.  1.
         -5    1    3    3    0  502  0.63835418240E+02  0.65278314788E+02  0.58219797060E+02  0.10836621325E+03  0.41800000000E+01 0.  1.
        -11    1    1    2    0    0 -0.81870819106E+02 -0.98945313366E+02  0.24110832207E+03  0.27317801711E+03  0.00000000000E+00 0. -1.
         11    1    1    2    0    0 -0.25832160011E+02  0.16085939856E+02  0.38844086873E+02  0.49344919059E+02  0.00000000000E+00 0.  1.
</event>
<event>
 7    1  0.2499014E-009  0.1179362E+03  0.7561462E-02  0.1246541E+00
          3   -1    0    0  501    0  0.00000000000E+00  0.00000000000E+00  0.11458832879E+03  0.11458832879E+03  0.00000000000E+00 0. -1.
         -3   -1    0    0    0  501 -0.00000000000E+00 -0.00000000000E+00 -0.20993807057E+03  0.20993807057E+03  0.00000000000E+00 0.  1.
         25    2    1    2    0    0  0.74852578977E+02  0.64204659152E+02 -0.12497124374E+01  0.15929337268E+03  0.12509064698E+03 0.  0.
          5    1    3    3  502    0  0.90417051899E+01  0.42653492497E+02 -0.55872371054E+02  0.70994838560E+02  0.41800000000E+01 0. -1.
         -5    1    3    3    0  502  0.65810873788E+02  0.21551166655E+02  0.54622658617E+02  0.88298534117E+02  0.41800000000E+01 0. -1.
        -11    1    1    2    0    0  0.44413439657E+01  0.11953482538E+02 -0.41384705080E+02  0.43304792986E+02  0.00000000000E+00 0.  1.
         11    1    1    2    0    0 -0.79293922943E+02 -0.76158141690E+02 -0.52715324260E+02  0.12192823370E+03  0.00000000000E+00 0. -1.
</event>
<event>
 7    1  0.2499014E-009  0.1017635E+03  0.7561462E-02  0.1276631E+00
          2   -1    0    0  501    0  0.00000000000E+00  0.00000000000E+00  0.88614994615E+03  0.88614994615E+03  0.00000000000E+00 0. -1.
         -2   -1    0    0    0  501 -0.00000000000E+00 -0.00000000000E+00 -0.38516871562E+02  0.38516871562E+02  0.00000000000E+00 0.  1.
         25    2    1    2    0    0  0.86446456910E+02  0.71237921210E+01  0.75068007824E+03  0.76595756051E+03  0.12508663520E+03 0.  0.
          5    1    3    3  502    0  0.96017013733E+02  0.21897468842E+02  0.31862415462E+03  0.33352299827E+03  0.41800000000E+01 0. -1.
         -5    1    3    3    0  502 -0.95705568229E+01 -0.14773676721E+02  0.43205592363E+03  0.43243456225E+03  0.41800000000E+01 0. -1.
        -11    1    1    2    0    0 -0.47312229959E+02 -0.62174883298E+01  0.10796893443E+03  0.11804403868E+03  0.00000000000E+00 0. -1.
         11    1    1    2    0    0 -0.39134226952E+02 -0.90630379121E+00 -0.11015938088E+02  0.40665218524E+02  0.00000000000E+00 0.  1.
</event>
<event>
 7    1  0.2507410E-009  0.2917970E+03  0.7561462E-02  0.1089415E+00
         -2   -1    0    0    0  501 -0.00000000000E+00  0.00000000000E+00  0.18121775226E+03  0.18121775226E+03  0.00000000000E+00 0.  1.
          2   -1    0    0  501    0  0.00000000000E+00 -0.00000000000E+00 -0.57734584299E+03  0.57734584299E+03  0.00000000000E+00 0. -1.
         25    2    1    2    0    0 -0.71582027211E+02  0.28050030632E+03 -0.91010811435E+02  0.32822703189E+03  0.12508240563E+03 0.  0.
          5    1    3    3  502    0 -0.16110121180E+02  0.16249040136E+03 -0.10922860672E+03  0.19649688920E+03  0.41800000000E+01 0.  1.
         -5    1    3    3    0  502 -0.55471906032E+02  0.11800990496E+03  0.18217795289E+02  0.13173014269E+03  0.41800000000E+01 0.  1.
        -11    1    1    2    0    0  0.35493345578E+02 -0.11291403624E+03 -0.64194823696E+02  0.13464892332E+03  0.00000000000E+00 0. -1.
         11    1    1    2    0    0  0.36088681633E+02 -0.16758627008E+03 -0.24092245561E+03  0.29568764004E+03  0.00000000000E+00 0.  1.
</event>
<event>
 7    1  0.2499014E-009  0.1067688E+03  0.7561462E-02  0.1266673E+00
         -2   -1    0    0    0  501 -0.00000000000E+00  0.00000000000E+00  0.43836246037E+02  0.43836246037E+02  0.00000000000E+00 0.  1.
          2   -1    0    0  501    0  0.00000000000E+00 -0.00000000000E+00 -0.36249008750E+03  0.36249008750E+03  0.00000000000E+00 0. -1.
         25    2    1    2    0    0  0.62259764809E+02 -0.76544619572E+01 -0.15210320084E+03  0.20668320709E+03  0.12509074821E+03 0.  0.
          5    1    3    3  502    0  0.20381648091E+02  0.51545969516E+02 -0.26478013769E+02  0.61570741147E+02  0.41800000000E+01 0.  1.
         -5    1    3    3    0  502  0.41878116718E+02 -0.59200431473E+02 -0.12562518707E+03  0.14511246595E+03  0.41800000000E+01 0.  1.
        -11    1    1    2    0    0 -0.44983037411E+01 -0.20549294932E+02  0.88620706664E-01  0.21036066941E+02  0.00000000000E+00 0.  1.
         11    1    1    2    0    0 -0.57761461068E+02  0.28203756889E+02 -0.16663926133E+03  0.17860705950E+03  0.00000000000E+00 0. -1.
</event>
<event>
 7    1  0.2499014E-009  0.1017765E+03  0.7561462E-02  0.1276604E+00
          1   -1    0    0  501    0  0.00000000000E+00  0.00000000000E+00  0.10100576552E+04  0.10100576552E+04  0.00000000000E+00 0. -1.
         -1   -1    0    0    0  501 -0.00000000000E+00 -0.00000000000E+00 -0.14354287241E+02  0.14354287241E+02  0.00000000000E+00 0.  1.
         25    2    1    2    0    0  0.27858781838E+02  0.39866706349E+02  0.49046744036E+03  0.50849910983E+03  0.12509024198E+03 0.  0.
          5    1    3    3  502    0  0.52001015606E+02 -0.85346882701E+00  0.42165782523E+03  0.42487366123E+03  0.41800000000E+01 0.  1.
         -5    1    3    3    0  502 -0.24142233767E+02  0.40720175176E+02  0.68809615133E+02  0.83625448593E+02  0.41800000000E+01 0.  1.
        -11    1    1    2    0    0  0.15569571656E+02 -0.55542250633E+02  0.25375572822E+03  0.26022936570E+03  0.00000000000E+00 0. -1.
         11    1    1    2    0    0 -0.43428353494E+02  0.15675544284E+02  0.25148019935E+03  0.25568346689E+03  0.00000000000E+00 0.  1.
</event>
<event>
 7    1  0.2499014E-009  0.1096517E+03  0.7561462E-02  0.1261216E+00
         -1   -1    0    0    0  501 -0.00000000000E+00  0.00000000000E+00  0.41896811760E+02  0.41896811760E+02  0.00000000000E+00 0.  1.
          1   -1    0    0  501    0  0.00000000000E+00 -0.00000000000E+00 -0.69740659426E+03  0.69740659426E+03  0.00000000000E+00 0. -1.
         25    2    1    2    0    0  0.69721441222E+02 -0.23805179908E+02 -0.58919479085E+03  0.60681786081E+03  0.12509855584E+03 0.  0.
          5    1    3    3  502    0  0.10556338312E+03 -0.15632071861E+02 -0.39821148761E+03  0.41228370183E+03  0.41800000000E+01 0. -1.
         -5    1    3    3    0  502 -0.35841941899E+02 -0.81731080468E+01 -0.19098330324E+03  0.19453415898E+03  0.41800000000E+01 0. -1.
        -11    1    1    2    0    0 -0.10610139161E+02  0.10480446161E+02 -0.70199953034E+02  0.71766623236E+02  0.00000000000E+00 0. -1.
         11    1    1    2    0    0 -0.59111302060E+02  0.13324733747E+02  0.38849613858E+01  0.60718921974E+02  0.00000000000E+00 0.  1.
</event>
<event>
 7    1  0.2499014E-009  0.1246563E+03  0.7561462E-02  0.1235607E+00
         -1   -1    0    0    0  501 -0.00000000000E+00  0.00000000000E+00  0.18621473097E+02  0.18621473097E+02  0.00000000000E+00 0.  1.
          1   -1    0    0  501    0  0.00000000000E+00 -0.00000000000E+00 -0.13052578843E+04  0.13052578843E+04  0.00000000000E+00 0. -1.
         25    2    1    2    0    0  0.11047357031E+03  0.24526029677E+01 -0.65457261335E+03  0.67551659651E+03  0.12508773330E+03 0.  0.
          5    1    3    3  502    0  0.64348239403E+01  0.14956084642E+02 -0.39778550250E+03  0.39814051518E+03  0.41800000000E+01 0. -1.
         -5    1    3    3    0  502  0.10403874637E+03 -0.12503481675E+02 -0.25678711085E+03  0.27737608133E+03  0.41800000000E+01 0. -1.
        -11    1    1    2    0    0 -0.10523206525E+02  0.22303802393E+02 -0.37066033914E+02  0.44520650791E+02  0.00000000000E+00 0.  1.
         11    1    1    2    0    0 -0.99950363782E+02 -0.24756405360E+02 -0.59499776396E+03  0.60384211011E+03  0.00000000000E+00 0. -1.
</event>
<event>
 7    1  0.2499014E-009  0.1742428E+03  0.7561462E-02  0.1173494E+00
          1   -1    0    0  501    0  0.00000000000E+00  0.00000000000E+00  0.16416191984E+03  0.16416191984E+03  0.00000000000E+00 0. -1.
         -1   -1    0    0    0  501 -0.00000000000E+00 -0.00000000000E+00 -0.20934523312E+03  0.20934523312E+03  0.00000000000E+00 0.  1.
         25    2    1    2    0    0  0.46804782072E+02 -0.13102232186E+03  0.27705513095E+02  0.18913647052E+03  0.12508985800E+03 0.  0.
          5    1    3    3  502    0  0.57136552107E+02 -0.15248735575E+03  0.24957206199E+02  0.16479476263E+03  0.41800000000E+01 0.  1.
         -5    1    3    3    0  502 -0.10331770035E+02  0.21465033891E+02  0.27483068955E+01  0.24341707885E+02  0.41800000000E+01 0.  1.
        -11    1    1    2    0    0  0.17393542583E+02  0.72429710503E+02 -0.60654425674E+01  0.74735452636E+02  0.00000000000E+00 0. -1.
         11    1    1    2    0    0 -0.64198324655E+02  0.58592611352E+02 -0.66823383804E+02  0.10963522981E+03  0.00000000000E+00 0.  1.
</event>
<event>
 7    1  0.2499014E-009  0.8781194E+02  0.7561462E-02  0.1308239E+00
          1   -1    0    0  501    0  0.00000000000E+00  0.00000000000E+00  0.40930836693E+02  0.40930836693E+02  0.00000000000E+00 0. -1.
         -1   -1    0    0    0  501 -0.00000000000E+00 -0.00000000000E+00 -0.31347715402E+03  0.31347715402E+03  0.00000000000E+00 0.  1.
         25    2    1    2    0    0  0.15036241755E+01 -0.29992985950E+02 -0.13332330716E+03  0.18526786414E+03  0.12508891701E+03 0.  0.
          5    1    3    3  502    0 -0.26765654521E+02 -0.52448621066E+02 -0.14188601436E+02  0.60712823393E+02  0.41800000000E+01 0. -1.
         -5    1    3    3    0  502  0.28269278696E+02  0.22455635116E+02 -0.11913470573E+03  0.12455504075E+03  0.41800000000E+01 0. -1.
        -11    1    1    2    0    0 -0.28757754550E+02  0.41643738051E+02 -0.12765837508E+03  0.13732396037E+03  0.00000000000E+00 0.  1.
         11    1    1    2    0    0  0.27254130374E+02 -0.11650752101E+02 -0.11564635087E+02  0.31816166200E+02  0.00000000000E+00 0. -1.
</event>
<event>
 7    1  0.2499014E-009  0.1478144E+03  0.7561462E-02  0.1203185E+00
         -1   -1    0    0    0  501 -0.00000000000E+00  0.00000000000E+00  0.22873790421E+03  0.22873790421E+03  0.00000000000E+00 0.  1.
          1   -1    0    0  501    0  0.00000000000E+00 -0.00000000000E+00 -0.14977936397E+03  0.14977936397E+03  0.00000000000E+00 0. -1.
         25    2    1    2    0    0  0.13077952200E+03  0.52357567914E+02 -0.95988021949E+01  0.18863901821E+03  0.12509174191E+03 0.  0.
          5    1    3    3  502    0  0.10927961230E+03  0.59873695798E+02 -0.56080158414E+02  0.13670899634E+03  0.41800000000E+01 0.  1.
         -5    1    3    3    0  502  0.21499909705E+02 -0.75161278839E+01  0.46481356219E+02  0.51930021872E+02  0.41800000000E+01 0.  1.
        -11    1    1    2    0    0 -0.96513009232E+02 -0.58678327006E+02  0.10232881849E+03  0.15241093827E+03  0.00000000000E+00 0.  1.
         11    1    1    2    0    0 -0.34266512773E+02  0.63207590927E+01 -0.13771476058E+02  0.37467311699E+02  0.00000000000E+00 0. -1.
</event>
<event>
 7    1  0.2499014E-009  0.5177492E+02  0.7561462E-02  0.1435997E+00
          2   -1    0    0  501    0  0.00000000000E+00  0.00000000000E+00  0.39816026464E+03  0.39816026464E+03  0.00000000000E+00 0.  1.
         -2   -1    0    0    0  501 -0.00000000000E+00 -0.00000000000E+00 -0.34830760260E+02  0.34830760260E+02  0.00000000000E+00 0. -1.
         25    2    1    2    0    0  0.12352252631E+01  0.42361926619E+02  0.17511235054E+03  0.21933689697E+03  0.12509308715E+03 0.  0.
          5    1    3    3  502    0 -0.41413682656E+01  0.20516623270E+02 -0.16115777147E+02  0.26744596362E+02  0.41800000000E+01 0. -1.
         -5    1    3    3    0  502  0.53765935287E+01  0.21845303349E+02  0.19122812769E+03  0.19259230061E+03  0.41800000000E+01 0. -1.
        -11    1    1    2    0    0  0.86262096994E+01  0.56485621793E+01 -0.69448144610E+01  0.12431741486E+02  0.00000000000E+00 0. -1.
         11    1    1    2    0    0 -0.98614349624E+01 -0.48010488799E+02  0.19516196830E+03  0.20122238644E+03  0.00000000000E+00 0.  1.
</event>
<event>
 7    1  0.2499014E-009  0.1548302E+03  0.7561462E-02  0.1194660E+00
         -4   -1    0    0    0  501 -0.00000000000E+00  0.00000000000E+00  0.13488102508E+03  0.13488102508E+03  0.00000000000E+00 0.  1.
          4   -1    0    0  501    0  0.00000000000E+00 -0.00000000000E+00 -0.23798824445E+03  0.23798824445E+03  0.00000000000E+00 0. -1.
         25    2    1    2    0    0 -0.35585831529E+02  0.12925566520E+03 -0.10516717714E+03  0.21137993670E+03  0.12509182268E+03 0.  0.
          5    1    3    3  502    0  0.37366153134E+02  0.54584526479E+02 -0.80046982424E+02  0.10392637647E+03  0.41800000000E+01 0. -1.
         -5    1    3    3    0  502 -0.72951984663E+02  0.74671138721E+02 -0.25120194712E+02  0.10745356023E+03  0.41800000000E+01 0. -1.
        -11    1    1    2    0    0  0.32054181365E+02 -0.48895868517E+02 -0.39882610225E+02  0.70773576280E+02  0.00000000000E+00 0.  1.
         11    1    1    2    0    0  0.35316501633E+01 -0.80359796683E+02  0.41942567997E+02  0.90715756547E+02  0.00000000000E+00 0. -1.
</event>
<event>
 7    1  0.2499014E-009  0.1042490E+03  0.7561462E-02  0.1271606E+00
          1   -1    0    0  501    0  0.00000000000E+00  0.00000000000E+00  0.66030489321E+02  0.66030489321E+02  0.00000000000E+00 0. -1.
         -1   -1    0    0    0  501 -0.00000000000E+00 -0.00000000000E+00 -0.21134789426E+03  0.21134789426E+03  0.00000000000E+00 0.  1.
         25    2    1    2    0    0  0.11525291343E+02  0.10242243884E+02 -0.32051274998E+02  0.13004160613E+03  0.12508316912E+03 0.  0.
          5    1    3    3  502    0 -0.40617242844E+02 -0.37308533429E+02 -0.15430078817E+02  0.57421658067E+02  0.41800000000E+01 0. -1.
         -5    1    3    3    0  502  0.52142534186E+02  0.47550777313E+02 -0.16621196181E+02  0.72619948065E+02  0.41800000000E+01 0. -1.
        -11    1    1    2    0    0 -0.74727167632E+01 -0.45952748649E+02 -0.26847551292E+02  0.53742791280E+02  0.00000000000E+00 0. -1.
         11    1    1    2    0    0 -0.40525745793E+01  0.35710504765E+02 -0.86418578650E+02  0.93593986170E+02  0.00000000000E+00 0.  1.
</event>
<event>
 7    1  0.2499014E-009  0.9895461E+02  0.7561462E-02  0.1282510E+00
         -2   -1    0    0    0  501 -0.00000000000E+00  0.00000000000E+00  0.26136621097E+02  0.26136621097E+02  0.00000000000E+00 0.  1.
          2   -1    0    0  501    0  0.00000000000E+00 -0.00000000000E+00 -0.50371572797E+03  0.50371572797E+03  0.00000000000E+00 0. -1.
         25    2    1    2    0    0 -0.96521603890E+01 -0.16248002451E+02 -0.19360479214E+03  0.23127360822E+03  0.12508998575E+03 0.  0.
          5    1    3    3  502    0  0.17973160391E+02  0.41336179138E+02 -0.26789533623E+02  0.52601004857E+02  0.41800000000E+01 0.  1.
         -5    1    3    3    0  502 -0.27625320780E+02 -0.57584181590E+02 -0.16681525852E+03  0.17867260336E+03  0.41800000000E+01 0.  1.
        -11    1    1    2    0    0 -0.23057441524E+02  0.41391336575E+02 -0.10982906038E+03  0.11961317176E+03  0.00000000000E+00 0.  1.
         11    1    1    2    0    0  0.32709601913E+02 -0.25143334123E+02 -0.17414525434E+03  0.17896556909E+03  0.00000000000E+00 0. -1.
</event>
<event>
 7    1  0.2499014E-009  0.1118215E+03  0.7561462E-02  0.1257234E+00
         -1   -1    0    0    0  501 -0.00000000000E+00  0.00000000000E+00  0.27793781470E+03  0.27793781470E+03  0.00000000000E+00 0.  1.
          1   -1    0    0  501    0  0.00000000000E+00 -0.00000000000E+00 -0.96534800496E+02  0.96534800496E+02  0.00000000000E+00 0. -1.
         25    2    1    2    0    0 -0.59552792988E+02 -0.62465028940E+02  0.19573046448E+03  0.24781212173E+03  0.12510802516E+03 0.  0.
          5    1    3    3  502    0 -0.36642769378E+02  0.25856315692E+02  0.12320652612E+03  0.13118140907E+03  0.41800000000E+01 0.  1.
         -5    1    3    3    0  502 -0.22910023610E+02 -0.88321344632E+02  0.72523938363E+02  0.11663071266E+03  0.41800000000E+01 0.  1.
        -11    1    1    2    0    0  0.52720050312E+01  0.12165074945E+02 -0.44731413432E+02  0.46654929355E+02  0.00000000000E+00 0. -1.
         11    1    1    2    0    0  0.54280787957E+02  0.50299953994E+02  0.30403963160E+02  0.80005564112E+02  0.00000000000E+00 0.  1.
</event>
<event>
 7    1  0.2499014E-009  0.1820285E+03  0.7561462E-02  0.1165854E+00
         -2   -1    0    0    0  501 -0.00000000000E+00  0.00000000000E+00  0.69111515061E+02  0.69111515061E+02  0.00000000000E+00 0.  1.
          2   -1    0    0  501    0  0.00000000000E+00 -0.00000000000E+00 -0.89418511035E+03  0.89418511035E+03  0.00000000000E+00 0. -1.
         25    2    1    2    0    0 -0.80279303507E+01 -0.15354289176E+03 -0.74290503766E+03  0.76889241120E+03  0.12509107777E+03 0.  0.
          5    1    3    3  502    0 -0.60864116833E+02 -0.47961119380E+02 -0.23720849701E+03  0.24957975307E+03  0.41800000000E+01 0. -1.
         -5    1    3    3    0  502  0.52836186483E+02 -0.10558177238E+03 -0.50569654065E+03  0.51931265813E+03  0.41800000000E+01 0. -1.
        -11    1    1    2    0    0 -0.26554045041E+02  0.30185914636E+02 -0.46395183786E+02  0.61390714518E+02  0.00000000000E+00 0. -1.
         11    1    1    2    0    0  0.34581975392E+02  0.12335697712E+03 -0.35773373845E+02  0.13301349970E+03  0.00000000000E+00 0.  1.
</event>
<event>
 7    1  0.2499014E-009  0.7640404E+02  0.7561462E-02  0.1339577E+00
         -2   -1    0    0    0  501 -0.00000000000E+00  0.00000000000E+00  0.10055455290E+03  0.10055455290E+03  0.00000000000E+00 0.  1.
          2   -1    0    0  501    0  0.00000000000E+00 -0.00000000000E+00 -0.15880103143E+03  0.15880103143E+03  0.00000000000E+00 0. -1.
         25    2    1    2    0    0  0.35555229703E+02 -0.51013019723E+02 -0.56418500028E+02  0.15065134082E+03  0.12508507826E+03 0.  0.
          5    1    3    3  502    0  0.33663807175E+02 -0.55113634407E+02 -0.93140756428E+02  0.11341709536E+03  0.41800000000E+01 0.  1.
         -5    1    3    3    0  502  0.18914225274E+01  0.41006146846E+01  0.36722256400E+02  0.37234245461E+02  0.41800000000E+01 0.  1.
        -11    1    1    2    0    0 -0.34467788438E+01  0.49682622002E+02  0.34209344897E+02  0.60419553885E+02  0.00000000000E+00 0.  1.
         11    1    1    2    0    0 -0.32108450859E+02  0.13303977208E+01 -0.36037323402E+02  0.48284689629E+02  0.00000000000E+00 0. -1.
</event>
<event>
 7    1  0.2499014E-009  0.1378651E+03  0.7561462E-02  0.1216231E+00
         -1   -1    0    0    0  501 -0.00000000000E+00  0.00000000000E+00  0.21914927366E+02  0.21914927366E+02  0.00000000000E+00 0.  1.
          1   -1    0    0  501    0  0.00000000000E+00 -0.00000000000E+00 -0.99099853353E+03  0.99099853353E+03  0.00000000000E+00 0. -1.
         25    2    1    2    0    0  0.35506250118E+02  0.89334271334E+02 -0.59722389181E+03  0.61770724901E+03  0.12507822629E+03 0.  0.
          5    1    3    3  502    0  0.77644681090E+02  0.66169404829E+02 -0.30796032518E+03  0.32444432638E+03  0.41800000000E+01 0.  1.
         -5    1    3    3    0  502 -0.42138430972E+02  0.23164866505E+02 -0.28926356664E+03  0.29326292263E+03  0.41800000000E+01 0.  1.
        -11    1    1    2    0    0 -0.59974478094E+02 -0.45949259972E+02 -0.15158570781E+03  0.16937089280E+03  0.00000000000E+00 0.  1.
         11    1    1    2    0    0  0.24468227977E+02 -0.43385011361E+02 -0.22027400654E+03  0.22583531909E+03  0.00000000000E+00 0. -1.
</event>
<event>
 7    1  0.2499014E-009  0.1346270E+03  0.7561462E-02  0.1220747E+00
         -1   -1    0    0    0  501 -0.00000000000E+00  0.00000000000E+00  0.10156651272E+03  0.10156651272E+03  0.00000000000E+00 0.  1.
          1   -1    0    0  501    0  0.00000000000E+00 -0.00000000000E+00 -0.19598820484E+03  0.19598820484E+03  0.00000000000E+00 0. -1.
         25    2    1    2    0    0  0.43624739788E+02  0.63711434232E+02 -0.11639131059E+02  0.14746199841E+03  0.12508919550E+03 0.  0.
          5    1    3    3  502    0 -0.39469059186E+02  0.47277368764E+02  0.88978961411E+00  0.61735082051E+02  0.41800000000E+01 0. -1.
         -5    1    3    3    0  502  0.83093798973E+02  0.16434065468E+02 -0.12528920673E+02  0.85726916361E+02  0.41800000000E+01 0. -1.
        -11    1    1    2    0    0  0.22740312311E+02 -0.50033597621E+02 -0.52029769044E+02  0.75680774056E+02  0.00000000000E+00 0.  1.
         11    1    1    2    0    0 -0.66365052098E+02 -0.13677836610E+02 -0.30752792017E+02  0.74411945084E+02  0.00000000000E+00 0. -1.
</event>
<event>
 7    1  0.2499014E-009  0.1074977E+03  0.7561462E-02  0.1265275E+00
         -2   -1    0    0    0  501 -0.00000000000E+00  0.00000000000E+00  0.38847098531E+02  0.38847098531E+02  0.00000000000E+00 0. -1.
          2   -1    0    0  501    0  0.00000000000E+00 -0.00000000000E+00 -0.30382577169E+03  0.30382577169E+03  0.00000000000E+00 0.  1.
         25    2    1    2    0    0  0.12978396796E+01  0.48877256786E+01 -0.14584094960E+03  0.19220485612E+03  0.12509016702E+03 0.  0.
          5    1    3    3  502    0 -0.44154069769E+02  0.45450732218E+02 -0.83922174903E+02  0.10524141189E+03  0.41800000000E+01 0. -1.
         -5    1    3    3    0  502  0.45451909448E+02 -0.40563006540E+02 -0.61918774694E+02  0.86963444226E+02  0.41800000000E+01 0. -1.
        -11    1    1    2    0    0  0.42536758151E+02  0.10772588258E+02 -0.71303971713E+02  0.83723836712E+02  0.00000000000E+00 0.  1.
         11    1    1    2    0    0 -0.43834597831E+02 -0.15660313937E+02 -0.47833751845E+02  0.66744177388E+02  0.00000000000E+00 0. -1.
</event>
<event>
 7    1  0.2499014E-009  0.1363063E+03  0.7561462E-02  0.1218387E+00
          1   -1    0    0  501    0  0.00000000000E+00  0.00000000000E+00  0.78994982408E+03  0.78994982408E+03  0.00000000000E+00 0. -1.
         -1   -1    0    0    0  501 -0.00000000000E+00 -0.00000000000E+00 -0.32109974376E+02  0.32109974376E+02  0.00000000000E+00 0.  1.
         25    2    1    2    0    0 -0.98279165435E+02 -0.26669668967E+02  0.44576307577E+03  0.47404897683E+03  0.12509055562E+03 0.  0.
          5    1    3    3  502    0 -0.10132163461E+03  0.20126729109E+02  0.37548391672E+03  0.38945706180E+03  0.41800000000E+01 0. -1.
         -5    1    3    3    0  502  0.30424691773E+01 -0.46796398077E+02  0.70279159051E+02  0.84591915031E+02  0.41800000000E+01 0. -1.
        -11    1    1    2    0    0  0.50763239856E+02  0.48180249462E+02  0.65090460218E+02  0.95577251323E+02  0.00000000000E+00 0.  1.
         11    1    1    2    0    0  0.47515925578E+02 -0.21510580495E+02  0.24698631372E+03  0.25243357031E+03  0.00000000000E+00 0. -1.
</event>
<event>
 7    1  0.2499014E-009  0.3463305E+03  0.7561462E-02  0.1064131E+00
         -1   -1    0    0    0  501 -0.00000000000E+00  0.00000000000E+00  0.15214278123E+03  0.15214278123E+03  0.00000000000E+00 0.  1.
          1   -1    0    0  501    0  0.00000000000E+00 -0.00000000000E+00 -0.87891343406E+03  0.87891343406E+03  0.00000000000E+00 0. -1.
         25    2    1    2    0    0 -0.13444817799E+03  0.31215458977E+03 -0.25788657231E+03  0.44460064926E+03  0.12508977843E+03 0.  0.
          5    1    3    3  502    0  0.60549348200E+00 -0.18233837761E+00  0.10418082431E+02  0.11243162864E+02  0.41800000000E+01 0.  1.
         -5    1    3    3    0  502 -0.13505367147E+03  0.31233692814E+03 -0.26830465474E+03  0.43335748640E+03  0.41800000000E+01 0.  1.
        -11    1    1    2    0    0  0.29831975176E+02 -0.16438114275E+03 -0.18053659576E+03  0.24597676566E+03  0.00000000000E+00 0.  1.
         11    1    1    2    0    0  0.10461620281E+03 -0.14777344702E+03 -0.28834748476E+03  0.34047880037E+03  0.00000000000E+00 0. -1.
</event>
<event>
 7    1  0.2499014E-009  0.1146442E+03  0.7561462E-02  0.1252204E+00
         -1   -1    0    0    0  501 -0.00000000000E+00  0.00000000000E+00  0.81498692619E+02  0.81498692619E+02  0.00000000000E+00 0. -1.
          1   -1    0    0  501    0  0.00000000000E+00 -0.00000000000E+00 -0.26695186852E+03  0.26695186852E+03  0.00000000000E+00 0.  1.
         25    2    1    2    0    0 -0.61273093699E+01  0.65883213739E+02 -0.18873955461E+03  0.23589585514E+03  0.12508434443E+03 0.  0.
          5    1    3    3  502    0  0.10261914365E+02 -0.31359732597E+02 -0.15914184858E+02  0.36871037343E+02  0.41800000000E+01 0. -1.
         -5    1    3    3    0  502 -0.16389223735E+02  0.97242946336E+02 -0.17282536975E+03  0.19902481779E+03  0.41800000000E+01 0. -1.
        -11    1    1    2    0    0  0.83036363172E+01  0.14609013600E+02 -0.22429833754E+02  0.28026257272E+02  0.00000000000E+00 0.  1.
         11    1    1    2    0    0 -0.21763269473E+01 -0.80492227338E+02  0.25716212468E+02  0.84528448729E+02  0.00000000000E+00 0. -1.
</event>
<event>
 7    1  0.2499014E-009  0.1054856E+03  0.7561462E-02  0.1269166E+00
          2   -1    0    0  501    0  0.00000000000E+00  0.00000000000E+00  0.29235369657E+03  0.29235369657E+03  0.00000000000E+00 0. -1.
         -2   -1    0    0    0  501 -0.00000000000E+00 -0.00000000000E+00 -0.58711207231E+02  0.58711207231E+02  0.00000000000E+00 0.  1.
         25    2    1    2    0    0 -0.27958711372E+02 -0.64053241011E+02  0.14022806721E+03  0.20048978033E+03  0.12509090278E+03 0.  0.
          5    1    3    3  502    0  0.29612530452E+02 -0.31620622350E+02  0.12526399607E+03  0.13260960308E+03  0.41800000000E+01 0.  1.
         -5    1    3    3    0  502 -0.57571241824E+02 -0.32432618660E+02  0.14964071140E+02  0.67880177249E+02  0.41800000000E+01 0.  1.
        -11    1    1    2    0    0  0.45177040418E+02  0.12483813221E+02  0.54782537064E+01  0.47189213143E+02  0.00000000000E+00 0.  1.
         11    1    1    2    0    0 -0.17218329045E+02  0.51569427790E+02  0.87936168423E+02  0.10338591033E+03  0.00000000000E+00 0. -1.
</event>
<event>
 7    1  0.2499014E-009  0.1069039E+03  0.7561462E-02  0.1266413E+00
          2   -1    0    0  501    0  0.00000000000E+00  0.00000000000E+00  0.14701503921E+03  0.14701503921E+03  0.00000000000E+00 0. -1.
         -2   -1    0    0    0  501 -0.00000000000E+00 -0.00000000000E+00 -0.84814397413E+02  0.84814397413E+02  0.00000000000E+00 0.  1.
         25    2    1    2    0    0 -0.11423240021E+02 -0.25809147396E+02  0.38009293500E+02  0.13374936114E+03  0.12509029823E+03 0.  0.
          5    1    3    3  502    0  0.46105400278E+02 -0.41382588632E+02 -0.15160271801E+01  0.62112778999E+02  0.41800000000E+01 0.  1.
         -5    1    3    3    0  502 -0.57528640299E+02  0.15573441236E+02  0.39525320680E+02  0.71636582145E+02  0.41800000000E+01 0.  1.
        -11    1    1    2    0    0  0.43001323733E+02  0.38707946912E+02  0.27013631190E+02  0.63852605796E+02  0.00000000000E+00 0.  1.
         11    1    1    2    0    0 -0.31578083712E+02 -0.12898799516E+02 -0.28222828955E+01  0.34227469679E+02  0.00000000000E+00 0. -1.
</event>
<event>
 7    1  0.2499014E-009  0.9230677E+02  0.7561462E-02  0.1297360E+00
          3   -1    0    0  501    0  0.00000000000E+00  0.00000000000E+00  0.23330817554E+02  0.23330817554E+02  0.00000000000E+00 0. -1.
         -3   -1    0    0    0  501 -0.00000000000E+00 -0.00000000000E+00 -0.57315901355E+03  0.57315901355E+03  0.00000000000E+00 0.  1.
         25    2    1    2    0    0 -0.29075403017E+02 -0.39770887642E+00 -0.37728815570E+03  0.39854659025E+03  0.12508994739E+03 0.  0.
          5    1    3    3  502    0 -0.51010518674E+02  0.49445465397E+02 -0.25234394196E+03  0.26218669781E+03  0.41800000000E+01 0. -1.
         -5    1    3    3    0  502  0.21935115657E+02 -0.49843174273E+02 -0.12494421375E+03  0.13635989245E+03  0.41800000000E+01 0. -1.
        -11    1    1    2    0    0 -0.86018295337E+01  0.15910286580E+02  0.24682131310E+01  0.18254335552E+02  0.00000000000E+00 0. -1.
         11    1    1    2    0    0  0.37677232551E+02 -0.15512577703E+02 -0.17500825342E+03  0.17968890529E+03  0.00000000000E+00 0.  1.
</event>
<event>
 7    1  0.2499014E-009  0.1148168E+03  0.7561462E-02  0.1251901E+00
          1   -1    0    0  501    0  0.00000000000E+00  0.00000000000E+00  0.42049081750E+02  0.42049081750E+02  0.00000000000E+00 0. -1.
         -1   -1    0    0    0  501 -0.00000000000E+00 -0.00000000000E+00 -0.38737357546E+03  0.38737357546E+03  0.00000000000E+00 0.  1.
         25    2    1    2    0    0  0.13470566223E+02  0.94734147662E+00 -0.25706506005E+03  0.28620450548E+03  0.12509284652E+03 0.  0.
          5    1    3    3  502    0  0.62980305040E+02 -0.19342590899E+02 -0.18445608179E+03  0.19591368802E+03  0.41800000000E+01 0.  1.
         -5    1    3    3    0  502 -0.49509738817E+02  0.20289932375E+02 -0.72608978263E+02  0.90290817462E+02  0.41800000000E+01 0.  1.
        -11    1    1    2    0    0 -0.55169275737E+01 -0.55018986923E+02 -0.60348308409E+02  0.81850129748E+02  0.00000000000E+00 0. -1.
         11    1    1    2    0    0 -0.79536386494E+01  0.54071645446E+02 -0.27911125252E+02  0.61368021981E+02  0.00000000000E+00 0.  1.
</event>
<event>
 7    1  0.2499014E-009  0.1344180E+03  0.7561462E-02  0.1221044E+00
         -2   -1    0    0    0  501 -0.00000000000E+00  0.00000000000E+00  0.96822401486E+02  0.96822401486E+02  0.00000000000E+00 0.  1.
          2   -1    0    0  501    0  0.00000000000E+00 -0.00000000000E+00 -0.30084600868E+03  0.30084600868E+03  0.00000000000E+00 0. -1.
         25    2    1    2    0    0 -0.97731465562E+02  0.82307019997E+02 -0.72748918019E+02  0.19304721190E+03  0.12509570755E+03 0.  0.
          5    1    3    3  502    0 -0.10405119881E+02  0.25227725384E+02  0.33952567806E+02  0.43760186339E+02  0.41800000000E+01 0. -1.
         -5    1    3    3    0  502 -0.87326345681E+02  0.57079294613E+02 -0.10670148582E+03  0.14928702556E+03  0.41800000000E+01 0. -1.
        -11    1    1    2    0    0  0.10008748902E+03 -0.64977706139E+02 -0.64605372473E+02  0.13569621183E+03  0.00000000000E+00 0.  1.
         11    1    1    2    0    0 -0.23560234592E+01 -0.17329313858E+02 -0.66669316706E+02  0.68924986437E+02  0.00000000000E+00 0. -1.
</event>
<event>
 7    1  0.2499014E-009  0.7973359E+02  0.7561462E-02  0.1329809E+00
          2   -1    0    0  501    0  0.00000000000E+00  0.00000000000E+00  0.62201827058E+02  0.62201827058E+02  0.00000000000E+00 0. -1.
         -2   -1    0    0    0  501 -0.00000000000E+00 -0.00000000000E+00 -0.30144231180E+03  0.30144231180E+03  0.00000000000E+00 0.  1.
         25    2    1    2    0    0  0.28230640921E+02  0.20799198383E+02 -0.31161687407E+02  0.13359378057E+03  0.12508665678E+03 0.  0.
          5    1    3    3  502    0  0.36898889800E+02 -0.28824788308E+01  0.41975444623E+02  0.56118153070E+02  0.41800000000E+01 0. -1.
         -5    1    3    3    0  502 -0.86682488797E+01  0.23681677214E+02 -0.73137132030E+02  0.77475627496E+02  0.41800000000E+01 0. -1.
        -11    1    1    2    0    0  0.32860374412E+02 -0.11764208569E+02 -0.56999391550E+02  0.66836602598E+02  0.00000000000E+00 0. -1.
         11    1    1    2    0    0 -0.61091015333E+02 -0.90349898142E+01 -0.15107940578E+03  0.16321375569E+03  0.00000000000E+00 0.  1.
</event>
<event>
 7    1  0.2499014E-009  0.1858722E+03  0.7561462E-02  0.1162238E+00
         -2   -1    0    0    0  501 -0.00000000000E+00  0.00000000000E+00  0.17562125250E+02  0.17562125250E+02  0.00000000000E+00 0.  1.
          2   -1    0    0  501    0  0.00000000000E+00 -0.00000000000E+00 -0.21310314352E+04  0.21310314352E+04  0.00000000000E+00 0. -1.
         25    2    1    2    0    0  0.15674558152E+03  0.94723451771E+01 -0.12547600266E+04  0.12707196246E+04  0.12508691948E+03 0.  0.
          5    1    3    3  502    0  0.72366000039E+02 -0.54131842979E+02 -0.44667318516E+03  0.45574280151E+03  0.41800000000E+01 0.  1.
         -5    1    3    3    0  502  0.84379581482E+02  0.63604188156E+02 -0.80808684142E+03  0.81497682311E+03  0.41800000000E+01 0.  1.
        -11    1    1    2    0    0 -0.14244725140E+02  0.25128547812E+02 -0.71344918258E+02  0.76970471421E+02  0.00000000000E+00 0.  1.
         11    1    1    2    0    0 -0.14250085638E+03 -0.34600892989E+02 -0.78736436511E+03  0.80090346441E+03  0.00000000000E+00 0. -1.
</event>
<event>
 7    1  0.2499014E-009  0.8184531E+02  0.7561462E-02  0.1323895E+00
          1   -1    0    0  501    0  0.00000000000E+00  0.00000000000E+00  0.83097631917E+03  0.83097631917E+03  0.00000000000E+00 0. -1.
         -1   -1    0    0    0  501 -0.00000000000E+00 -0.00000000000E+00 -0.17756846015E+02  0.17756846015E+02  0.00000000000E+00 0.  1.
         25    2    1    2    0    0  0.58473170874E+02 -0.14193410537E+02  0.42030851381E+03  0.44263797515E+03  0.12509422708E+03 0.  0.
          5    1    3    3  502    0  0.45777970081E+02 -0.98886613134E+01  0.42518237801E+03  0.42777439748E+03  0.41800000000E+01 0. -1.
         -5    1    3    3    0  502  0.12695200793E+02 -0.43047492236E+01 -0.48738641970E+01  0.14863577673E+02  0.41800000000E+01 0. -1.
        -11    1    1    2    0    0 -0.18193171178E+02  0.47179523891E+02  0.19108671958E+03  0.19766394044E+03  0.00000000000E+00 0. -1.
         11    1    1    2    0    0 -0.40279999696E+02 -0.32986113354E+02  0.20182423976E+03  0.20843124959E+03  0.00000000000E+00 0.  1.
</event>
<event>
 7    1  0.2499014E-009  0.1425174E+03  0.7561462E-02  0.1209981E+00
          2   -1    0    0  501    0  0.00000000000E+00  0.00000000000E+00  0.55467204302E+03  0.55467204302E+03  0.00000000000E+00 0. -1.
         -2   -1    0    0    0  501 -0.00000000000E+00 -0.00000000000E+00 -0.53618415141E+02  0.53618415141E+02  0.00000000000E+00 0.  1.
         25    2    1    2    0    0 -0.64291582266E+02  0.99412202645E+02  0.37990938651E+03  0.41712446388E+03  0.12508190443E+03 0.  0.
          5    1    3    3  502    0 -0.86237298881E+02  0.94781736179E+02  0.21260522029E+03  0.24827182950E+03  0.41800000000E+01 0.  1.
         -5    1    3    3    0  502  0.21945716614E+02  0.46304664653E+01  0.16730416623E+03  0.16885263437E+03  0.41800000000E+01 0.  1.
        -11    1    1    2    0    0 -0.10091278029E+02 -0.30782370356E+00  0.44129380316E+02  0.45269535614E+02  0.00000000000E+00 0. -1.
         11    1    1    2    0    0  0.74382860295E+02 -0.99104378941E+02  0.77014861051E+02  0.14589645867E+03  0.00000000000E+00 0.  1.
</event>
<event>
 7    1  0.2499014E-009  0.1300527E+03  0.7561462E-02  0.1227378E+00
          2   -1    0    0  501    0  0.00000000000E+00  0.00000000000E+00  0.14035561697E+03  0.14035561697E+03  0.00000000000E+00 0. -1.
         -2   -1    0    0    0  501 -0.00000000000E+00 -0.00000000000E+00 -0.16177990380E+03  0.16177990380E+03  0.00000000000E+00 0.  1.
         25    2    1    2    0    0  0.42092424708E+01  0.83206471198E+02 -0.75515949103E+02  0.16819966461E+03  0.12508970395E+03 0.  0.
          5    1    3    3  502    0  0.57963925173E+02  0.27424812890E+02 -0.62299386954E+02  0.89502083766E+02  0.41800000000E+01 0.  1.
         -5    1    3    3    0  502 -0.53754682702E+02  0.55781658308E+02 -0.13216562149E+02  0.78697580847E+02  0.41800000000E+01 0.  1.
        -11    1    1    2    0    0 -0.43762360384E+02 -0.51425043685E+02  0.13277857460E+02  0.68818462662E+02  0.00000000000E+00 0.  1.
         11    1    1    2    0    0  0.39553117913E+02 -0.31781427513E+02  0.40813804820E+02  0.65117393493E+02  0.00000000000E+00 0. -1.
</event>
<event>
 7    1  0.2499014E-009  0.1525710E+03  0.7561462E-02  0.1197349E+00
         -3   -1    0    0    0  501 -0.00000000000E+00  0.00000000000E+00  0.46974971326E+02  0.46974971326E+02  0.00000000000E+00 0.  1.
          3   -1    0    0  501    0  0.00000000000E+00 -0.00000000000E+00 -0.11228845151E+04  0.11228845151E+04  0.00000000000E+00 0. -1.
         25    2    1    2    0    0 -0.84469273900E+02 -0.92071670615E+02 -0.96151774336E+03  0.97763773911E+03  0.12508767873E+03 0.  0.
          5    1    3    3  502    0 -0.24131155505E+02  0.30067309162E+02 -0.27508061080E+03  0.27780059501E+03  0.41800000000E+01 0. -1.
         -5    1    3    3    0  502 -0.60338118396E+02 -0.12213897978E+03 -0.68643713256E+03  0.69983714410E+03  0.41800000000E+01 0. -1.
        -11    1    1    2    0    0  0.40327672182E+02  0.69834190654E+02 -0.11770968482E+03  0.14268393473E+03  0.00000000000E+00 0.  1.
         11    1    1    2    0    0  0.44141601718E+02  0.22237479961E+02  0.33178844279E+01  0.49537812571E+02  0.00000000000E+00 0. -1.
</event>
<event>
 7    1  0.2499014E-009  0.1838020E+03  0.7561462E-02  0.1164173E+00
          2   -1    0    0  501    0  0.00000000000E+00  0.00000000000E+00  0.41272356132E+03  0.41272356132E+03  0.00000000000E+00 0. -1.
         -2   -1    0    0    0  501 -0.00000000000E+00 -0.00000000000E+00 -0.93645760442E+02  0.93645760442E+02  0.00000000000E+00 0.  1.
         25    2    1    2    0    0 -0.12930466826E+03  0.95506196353E+02  0.12858543904E+03  0.24087921903E+03  0.12508977678E+03 0.  0.
          5    1    3    3  502    0 -0.13105198020E+03  0.48390987641E+02  0.48663789915E+02  0.14799306081E+03  0.41800000000E+01 0. -1.
         -5    1    3    3    0  502  0.17473119430E+01  0.47115208712E+02  0.79921649122E+02  0.92886158223E+02  0.41800000000E+01 0. -1.
        -11    1    1    2    0    0  0.89882600965E+02 -0.15352265218E+02  0.12502263637E+03  0.15474247513E+03  0.00000000000E+00 0.  1.
         11    1    1    2    0    0  0.39422067292E+02 -0.80153931135E+02  0.65469725467E+02  0.11074762760E+03  0.00000000000E+00 0. -1.
</event>
<event>
 7    1  0.2499014E-009  0.1081522E+03  0.7561462E-02  0.1264031E+00
         -1   -1    0    0    0  501 -0.00000000000E+00  0.00000000000E+00  0.22651103939E+03  0.22651103939E+03  0.00000000000E+00 0.  1.
          1   -1    0    0  501    0  0.00000000000E+00 -0.00000000000E+00 -0.78660652307E+02  0.78660652307E+02  0.00000000000E+00 0. -1.
         25    2    1    2    0    0 -0.81295795937E+02  0.15401701775E+02  0.77481167552E+02  0.16882069853E+03  0.12510346946E+03 0.  0.
          5    1    3    3  502    0 -0.68813842582E+02  0.43039324215E+02  0.10141533177E+03  0.12996257260E+03  0.41800000000E+01 0.  1.
         -5    1    3    3    0  502 -0.12481953355E+02 -0.27637622440E+02 -0.23934164215E+02  0.38858125925E+02  0.41800000000E+01 0.  1.
        -11    1    1    2    0    0  0.30325877964E+02  0.25061474877E+02  0.58037009312E+02  0.70114412550E+02  0.00000000000E+00 0.  1.
         11    1    1    2    0    0  0.50969917972E+02 -0.40463176652E+02  0.12332210213E+02  0.66236580615E+02  0.00000000000E+00 0. -1.
</event>
<event>
 7    1  0.2499014E-009  0.1866136E+03  0.7561462E-02  0.1161552E+00
         -2   -1    0    0    0  501 -0.00000000000E+00  0.00000000000E+00  0.18492811635E+02  0.18492811635E+02  0.00000000000E+00 0.  1.
          2   -1    0    0  501    0  0.00000000000E+00 -0.00000000000E+00 -0.22635525466E+04  0.22635525466E+04  0.00000000000E+00 0. -1.
         25    2    1    2    0    0 -0.76050605064E+02  0.14765847931E+03 -0.14877038765E+04  0.15021640433E+04  0.12508903901E+03 0.  0.
          5    1    3    3  502    0 -0.10186743900E+03  0.13143328995E+03 -0.10223710724E+04  0.10358145428E+04  0.41800000000E+01 0. -1.
         -5    1    3    3    0  502  0.25816833934E+02  0.16225189354E+02 -0.46533280404E+03  0.46634950049E+03  0.41800000000E+01 0. -1.
        -11    1    1    2    0    0  0.14738308861E+02 -0.92407299626E+02 -0.52566832973E+03  0.53393213020E+03  0.00000000000E+00 0.  1.
         11    1    1    2    0    0  0.61312296203E+02 -0.55251179682E+02 -0.23168752876E+03  0.24594918480E+03  0.00000000000E+00 0. -1.
</event>
<event>
 7    1  0.2667241E-009  0.1154722E+03  0.7561462E-02  0.1250759E+00
         -1   -1    0    0    0  501 -0.00000000000E+00  0.00000000000E+00  0.28839210627E+02  0.28839210627E+02  0.00000000000E+00 0.  1.
          1   -1    0    0  501    0  0.00000000000E+00 -0.00000000000E+00 -0.71526349666E+03  0.71526349666E+03  0.00000000000E+00 0. -1.
         25    2    1    2    0    0  0.24788720402E+02  0.88024233262E+02 -0.42585567018E+03  0.45317351685E+03  0.12510171160E+03 0.  0.
          5    1    3    3  502    0  0.34894772543E+02 -0.27462752081E+01 -0.28200356399E+02  0.45143323752E+02  0.41800000000E+01 0. -1.
         -5    1    3    3    0  502 -0.10106052141E+02  0.90770508470E+02 -0.39765531378E+03  0.40803019309E+03  0.41800000000E+01 0. -1.
        -11    1    1    2    0    0 -0.39986986708E+02 -0.55919499208E+02 -0.24049818505E+03  0.25013061889E+03  0.00000000000E+00 0. -1.
         11    1    1    2    0    0  0.15198266306E+02 -0.32104734054E+02 -0.20070430803E+02  0.40798571544E+02  0.00000000000E+00 0.  1.
</event>
<event>
 7    1  0.2499014E-009  0.6431198E+02  0.7561462E-02  0.1380578E+00
          1   -1    0    0  501    0  0.00000000000E+00  0.00000000000E+00  0.40067476757E+03  0.40067476757E+03  0.00000000000E+00 0. -1.
         -1   -1    0    0    0  501 -0.00000000000E+00 -0.00000000000E+00 -0.33368076451E+02  0.33368076451E+02  0.00000000000E+00 0.  1.
         25    2    1    2    0    0 -0.89273725363E+01 -0.57366837489E+01  0.27129838203E+03  0.29893562422E+03  0.12508832005E+03 0.  0.
          5    1    3    3  502    0 -0.17483770048E+02 -0.29167624315E+02  0.90053608642E+01  0.35425999598E+02  0.41800000000E+01 0. -1.
         -5    1    3    3    0  502  0.85563975112E+01  0.23430940566E+02  0.26229302117E+03  0.26350962462E+03  0.41800000000E+01 0. -1.
        -11    1    1    2    0    0 -0.11298372425E+02 -0.27742583721E+02 -0.15548042390E+01  0.29995359428E+02  0.00000000000E+00 0.  1.
         11    1    1    2    0    0  0.20225744962E+02  0.33479267470E+02  0.97563113324E+02  0.10511186037E+03  0.00000000000E+00 0. -1.
</event>
<event>
 7    1  0.2499014E-009  0.1051099E+03  0.7561462E-02  0.1269903E+00
          1   -1    0    0  501    0  0.00000000000E+00  0.00000000000E+00  0.10751044573E+03  0.10751044573E+03  0.00000000000E+00 0. -1.
         -1   -1    0    0    0  501 -0.00000000000E+00 -0.00000000000E+00 -0.14827706550E+03  0.14827706550E+03  0.00000000000E+00 0.  1.
         25    2    1    2    0    0 -0.39550331216E+02 -0.46043019579E+02 -0.10992816612E+02  0.13947123872E+03  0.12508875274E+03 0.  0.
          5    1    3    3  502    0 -0.11980830178E+02  0.23949838793E+02 -0.48309584008E+02  0.55393351380E+02  0.41800000000E+01 0.  1.
         -5    1    3    3    0  502 -0.27569501038E+02 -0.69992858372E+02  0.37316767396E+02  0.84077887340E+02  0.41800000000E+01 0.  1.
        -11    1    1    2    0    0 -0.69757119112E+01 -0.23269929996E+02  0.67236906690E+01  0.25206312997E+02  0.00000000000E+00 0. -1.
         11    1    1    2    0    0  0.46526043128E+02  0.69312949575E+02 -0.36497493829E+02  0.91109959520E+02  0.00000000000E+00 0.  1.
</event>
<event>
 7    1  0.2499014E-009  0.1221207E+03  0.7561462E-02  0.1239639E+00
          1   -1    0    0  501    0  0.00000000000E+00  0.00000000000E+00  0.39032584805E+03  0.39032584805E+03  0.00000000000E+00 0. -1.
         -1   -1    0    0    0  501 -0.00000000000E+00 -0.00000000000E+00 -0.59048127425E+02  0.59048127425E+02  0.00000000000E+00 0.  1.
         25    2    1    2    0    0  0.97432653335E+02  0.31992259914E+02  0.18402416983E+03  0.24500975638E+03  0.12509300145E+03 0.  0.
          5    1    3    3  502    0  0.87525526843E+02  0.28552209867E+02  0.20299382093E+03  0.22293476686E+03  0.41800000000E+01 0. -1.
         -5    1    3    3    0  502  0.99071264929E+01  0.34400500478E+01 -0.18969651102E+02  0.22074989527E+02  0.41800000000E+01 0. -1.
        -11    1    1    2    0    0 -0.33041519555E+02 -0.61613817793E+02  0.84727835438E+02  0.10984903575E+03  0.00000000000E+00 0. -1.
         11    1    1    2    0    0 -0.64391133780E+02  0.29621557879E+02  0.62525715359E+02  0.94515183340E+02  0.00000000000E+00 0.  1.
</event>
<event>
 7    1  0.2499014E-009  0.1303105E+03  0.7561462E-02  0.1226996E+00
         -2   -1    0    0    0  501 -0.00000000000E+00  0.00000000000E+00  0.36241358764E+02  0.36241358764E+02  0.00000000000E+00 0.  1.
          2   -1    0    0  501    0  0.00000000000E+00 -0.00000000000E+00 -0.69476675201E+03  0.69476675201E+03  0.00000000000E+00 0. -1.
         25    2    1    2    0    0  0.46046252694E+02  0.10460251308E+03 -0.34044193137E+03  0.38027566210E+03  0.12508767892E+03 0.  0.
          5    1    3    3  502    0  0.42914918273E+02  0.95035985028E+02 -0.11784362697E+03  0.15741067778E+03  0.41800000000E+01 0.  1.
         -5    1    3    3    0  502  0.31313344208E+01  0.95665280557E+01 -0.22259830440E+03  0.22286498432E+03  0.41800000000E+01 0.  1.
        -11    1    1    2    0    0 -0.49352342912E+02 -0.95698956241E+01 -0.14164111900E+03  0.15029784844E+03  0.00000000000E+00 0. -1.
         11    1    1    2    0    0  0.33060902189E+01 -0.95032617459E+02 -0.17644234287E+03  0.20043460024E+03  0.00000000000E+00 0.  1.
</event>
<event>
 7    1  0.2499014E-009  0.1108077E+03  0.7561462E-02  0.1259081E+00
          2   -1    0    0  501    0  0.00000000000E+00  0.00000000000E+00  0.56172213628E+02  0.56172213628E+02  0.00000000000E+00 0. -1.
         -2   -1    0    0    0  501 -0.00000000000E+00 -0.00000000000E+00 -0.46352125620E+03  0.46352125620E+03  0.00000000000E+00 0.  1.
         25    2    1    2    0    0 -0.36462813269E+02 -0.18893835428E+02 -0.39209651898E+02  0.13737037464E+03  0.12508680689E+03 0.  0.
          5    1    3    3  502    0 -0.77486943833E+02 -0.22900611395E+02 -0.49278241012E+02  0.94733742163E+02  0.41800000000E+01 0. -1.
         -5    1    3    3    0  502  0.41024130564E+02  0.40067759668E+01  0.10068589114E+02  0.42636632477E+02  0.41800000000E+01 0. -1.
        -11    1    1    2    0    0  0.66228129203E+02  0.49667121449E+01 -0.29087078492E+03  0.29835657668E+03  0.00000000000E+00 0.  1.
         11    1    1    2    0    0 -0.29765315934E+02  0.13927123283E+02 -0.77268605749E+02  0.83966518506E+02  0.00000000000E+00 0. -1.
</event>
<event>
 7    1  0.2499014E-009  0.8557107E+02  0.7561462E-02  0.1313946E+00
         -1   -1    0    0    0  501 -0.00000000000E+00  0.00000000000E+00  0.13242144473E+03  0.13242144473E+03  0.00000000000E+00 0. -1.
          1   -1    0    0  501    0  0.00000000000E+00 -0.00000000000E+00 -0.92594361398E+02  0.92594361398E+02  0.00000000000E+00 0.  1.
         25    2    1    2    0    0 -0.42661802541E+02  0.25616301528E+01  0.33310492243E+02  0.13632262885E+03  0.12509068270E+03 0.  0.
          5    1    3    3  502    0  0.27469437757E+02  0.20544393365E+02  0.51066841011E+02  0.61659847229E+02  0.41800000000E+01 0. -1.
         -5    1    3    3    0  502 -0.70131240297E+02 -0.17982763212E+02 -0.17756348768E+02  0.74662781625E+02  0.41800000000E+01 0. -1.
        -11    1    1    2    0    0 -0.10410969203E+02  0.26341497819E+01 -0.24677567606E+02  0.26912996261E+02  0.00000000000E+00 0.  1.
         11    1    1    2    0    0  0.53072771743E+02 -0.51957799347E+01  0.31194158699E+02  0.61780181018E+02  0.00000000000E+00 0. -1.
</event>
<event>
 7    1  0.2499014E-009  0.1014485E+03  0.7561462E-02  0.1277279E+00
          1   -1    0    0  501    0  0.00000000000E+00  0.00000000000E+00  0.94940199258E+02  0.94940199258E+02  0.00000000000E+00 0. -1.
         -1   -1    0    0    0  501 -0.00000000000E+00 -0.00000000000E+00 -0.17313586435E+03  0.17313586435E+03  0.00000000000E+00 0.  1.
         25    2    1    2    0    0  0.62071569296E+02 -0.30354171966E+02 -0.39915146656E+02  0.14837593361E+03  0.12509173942E+03 0.  0.
          5    1    3    3  502    0  0.71896284737E+02  0.23856718988E+02  0.65971755096E+01  0.76152570046E+02  0.41800000000E+01 0. -1.
         -5    1    3    3    0  502 -0.98247154413E+01 -0.54210890954E+02 -0.46512322165E+02  0.72223363566E+02  0.41800000000E+01 0. -1.
        -11    1    1    2    0    0 -0.29502819585E+02  0.37802517562E+01 -0.63893074271E+02  0.70477170819E+02  0.00000000000E+00 0.  1.
         11    1    1    2    0    0 -0.32568749711E+02  0.26573920210E+02  0.25612555839E+02  0.49222959172E+02  0.00000000000E+00 0. -1.
</event>
<event>
 7    1  0.2499014E-009  0.1281003E+03  0.7561462E-02  0.1230302E+00
          1   -1    0    0  501    0  0.00000000000E+00  0.00000000000E+00  0.14035269785E+04  0.14035269785E+04  0.00000000000E+00 0. -1.
         -1   -1    0    0    0  501 -0.00000000000E+00 -0.00000000000E+00 -0.19946102368E+02  0.19946102368E+02  0.00000000000E+00 0.  1.
         25    2    1    2    0    0  0.12706429528E+03  0.81657774566E+01  0.78689616088E+03  0.80688635561E+03  0.12509199732E+03 0.  0.
          5    1    3    3  502    0  0.71984492218E+02 -0.31232002106E+01  0.13972809714E+03  0.15726708184E+03  0.41800000000E+01 0. -1.
         -5    1    3    3    0  502  0.55079803058E+02  0.11288977667E+02  0.64716806374E+03  0.64961927376E+03  0.41800000000E+01 0. -1.
        -11    1    1    2    0    0 -0.29862263827E+02  0.19171901604E+01  0.33218505547E+02  0.44709054226E+02  0.00000000000E+00 0.  1.
         11    1    1    2    0    0 -0.97202031449E+02 -0.10082967617E+02  0.56346620969E+03  0.57187767102E+03  0.00000000000E+00 0. -1.
</event>
<event>
 7    1  0.2499014E-009  0.1356430E+03  0.7561462E-02  0.1219315E+00
          2   -1    0    0  501    0  0.00000000000E+00  0.00000000000E+00  0.60546043197E+03  0.60546043197E+03  0.00000000000E+00 0. -1.
         -2   -1    0    0    0  501 -0.00000000000E+00 -0.00000000000E+00 -0.43989577339E+02  0.43989577339E+02  0.00000000000E+00 0.  1.
         25    2    1    2    0    0 -0.63071208991E+02 -0.56168855768E+02  0.47572858156E+03  0.49909743063E+03  0.12509054394E+03 0.  0.
          5    1    3    3  502    0  0.16532682174E+02  0.27427611536E+02  0.67289266710E+02  0.74638604414E+02  0.41800000000E+01 0.  1.
         -5    1    3    3    0  502 -0.79603891165E+02 -0.83596467304E+02  0.40843931485E+03  0.42445882622E+03  0.41800000000E+01 0.  1.
        -11    1    1    2    0    0  0.22363488686E+02 -0.24468759519E+02  0.24463769942E+02  0.41198566217E+02  0.00000000000E+00 0. -1.
         11    1    1    2    0    0  0.40707720306E+02  0.80637615287E+02  0.61278503129E+02  0.10915401247E+03  0.00000000000E+00 0.  1.
</event>
<event>
 7    1  0.2499014E-009  0.1147232E+03  0.7561462E-02  0.1252065E+00
          1   -1    0    0  501    0  0.00000000000E+00  0.00000000000E+00  0.22533581741E+03  0.22533581741E+03  0.00000000000E+00 0. -1.
         -1   -1    0    0    0  501 -0.00000000000E+00 -0.00000000000E+00 -0.68532983581E+02  0.68532983581E+02  0.00000000000E+00 0.  1.
         25    2    1    2    0    0  0.18549133677E+02  0.54422383566E+02  0.10516123427E+03  0.17323748397E+03  0.12508586837E+03 0.  0.
          5    1    3    3  502    0  0.71970040602E+02  0.23893451577E+02  0.60330709400E+02  0.96994075434E+02  0.41800000000E+01 0.  1.
         -5    1    3    3    0  502 -0.53420906925E+02  0.30528931990E+02  0.44830524867E+02  0.76243408534E+02  0.41800000000E+01 0.  1.
        -11    1    1    2    0    0  0.25013842829E+02 -0.37534978476E+02 -0.70073227273E+01  0.45647228986E+02  0.00000000000E+00 0.  1.
         11    1    1    2    0    0 -0.43562976507E+02 -0.16887405090E+02  0.58648922286E+02  0.74984088033E+02  0.00000000000E+00 0. -1.
</event>
<event>
 7    1  0.2499014E-009  0.1470047E+03  0.7561462E-02  0.1204203E+00
          2   -1    0    0  501    0  0.00000000000E+00  0.00000000000E+00  0.40588334436E+03  0.40588334436E+03  0.00000000000E+00 0. -1.
         -2   -1    0    0    0  501 -0.00000000000E+00 -0.00000000000E+00 -0.67578259681E+02  0.67578259681E+02  0.00000000000E+00 0.  1.
         25    2    1    2    0    0 -0.59033955069E+02  0.96086274468E+02  0.10473166954E+03  0.19832821280E+03  0.12509107641E+03 0.  0.
          5    1    3    3  502    0 -0.85916155837E+02  0.68483275859E+02  0.29720003334E+02  0.11389598722E+03  0.41800000000E+01 0.  1.
         -5    1    3    3    0  502  0.26882200768E+02  0.27602998609E+02  0.75011666206E+02  0.84432225585E+02  0.41800000000E+01 0.  1.
        -11    1    1    2    0    0 -0.82455258460E+01 -0.74048633406E+02  0.12484453059E+03  0.14538688257E+03  0.00000000000E+00 0. -1.
         11    1    1    2    0    0  0.67279480915E+02 -0.22037641062E+02  0.10872888455E+03  0.12974650867E+03  0.00000000000E+00 0.  1.
</event>
<event>
 7    1  0.2499014E-009  0.2752404E+03  0.7561462E-02  0.1098317E+00
          1   -1    0    0  501    0  0.00000000000E+00  0.00000000000E+00  0.11993065445E+04  0.11993065445E+04  0.00000000000E+00 0. -1.
         -1   -1    0    0    0  501 -0.00000000000E+00 -0.00000000000E+00 -0.10864370542E+03  0.10864370542E+03  0.00000000000E+00 0.  1.
         25    2    1    2    0    0  0.27308601682E+03 -0.16026300372E+02  0.92970067572E+03  0.97715123447E+03  0.12509345987E+03 0.  0.
          5    1    3    3  502    0  0.61203601955E+02  0.12527703491E+02  0.41652977461E+03  0.42120938948E+03  0.41800000000E+01 0. -1.
         -5    1    3    3    0  502  0.21188241487E+03 -0.28554003863E+02  0.51317090111E+03  0.55594184499E+03  0.41800000000E+01 0. -1.
        -11    1    1    2    0    0 -0.12193244580E+03 -0.86431141137E+00  0.20266270782E+02  0.12360821212E+03  0.00000000000E+00 0. -1.
         11    1    1    2    0    0 -0.15115357103E+03  0.16890611783E+02  0.14069589259E+03  0.20719080335E+03  0.00000000000E+00 0.  1.
</event>
<event>
 7    1  0.2499014E-009  0.9949353E+02  0.7561462E-02  0.1281365E+00
          1   -1    0    0  501    0  0.00000000000E+00  0.00000000000E+00  0.42495293993E+02  0.42495293993E+02  0.00000000000E+00 0. -1.
         -1   -1    0    0    0  501 -0.00000000000E+00 -0.00000000000E+00 -0.37483790343E+03  0.37483790343E+03  0.00000000000E+00 0.  1.
         25    2    1    2    0    0  0.23217223585E+02  0.29234386721E+02 -0.99951906268E+02  0.16441264931E+03  0.12508975517E+03 0.  0.
          5    1    3    3  502    0  0.46180090974E+02  0.54972404956E+02 -0.16170555134E+02  0.73712450525E+02  0.41800000000E+01 0.  1.
         -5    1    3    3    0  502 -0.22962867389E+02 -0.25738018236E+02 -0.83781351134E+02  0.90700198783E+02  0.41800000000E+01 0.  1.
        -11    1    1    2    0    0 -0.49730943480E+02 -0.39887947543E+02 -0.19905419791E+03  0.20901384836E+03  0.00000000000E+00 0.  1.
         11    1    1    2    0    0  0.26513719895E+02  0.10653560822E+02 -0.33336505254E+02  0.43906699755E+02  0.00000000000E+00 0. -1.
</event>
<event>
 7    1  0.2499014E-009  0.2505435E+03  0.7561462E-02  0.1112962E+00
          2   -1    0    0  501    0  0.00000000000E+00  0.00000000000E+00  0.10397132599E+04  0.10397132599E+04  0.00000000000E+00 0. -1.
         -2   -1    0    0    0  501 -0.00000000000E+00 -0.00000000000E+00 -0.94600742785E+02  0.94600742785E+02  0.00000000000E+00 0.  1.
         25    2    1    2    0    0  0.14287931659E+03  0.18629034952E+03  0.16160751080E+03  0.31126159231E+03  0.12509275705E+03 0.  0.
          5    1    3    3  502    0  0.52556708855E+02 -0.14017828394E+01  0.10199071960E+02  0.53718396380E+02  0.41800000000E+01 0. -1.
         -5    1    3    3    0  502  0.90322607735E+02  0.18769213236E+03  0.15140843884E+03  0.25754319593E+03  0.41800000000E+01 0. -1.
        -11    1    1    2    0    0 -0.98350301415E+02 -0.87469768822E+02  0.55132552487E+03  0.56681882169E+03  0.00000000000E+00 0.  1.
         11    1    1    2    0    0 -0.44529015174E+02 -0.98820580703E+02  0.23217948140E+03  0.25623358863E+03  0.00000000000E+00 0. -1.
</event>
<event>
 7    1  0.2499014E-009  0.1245515E+03  0.7561462E-02  0.1235772E+00
          1   -1    0    0  501    0  0.00000000000E+00  0.00000000000E+00  0.77731418063E+02  0.77731418063E+02  0.00000000000E+00 0. -1.
         -1   -1    0    0    0  501 -0.00000000000E+00 -0.00000000000E+00 -0.23844114390E+03  0.23844114390E+03  0.00000000000E+00 0.  1.
         25    2    1    2    0    0  0.33578903368E+02  0.69785204345E+02 -0.12192899477E+03  0.19107935433E+03  0.12508845825E+03 0.  0.
          5    1    3    3  502    0  0.35374336457E+02  0.10537969623E+03 -0.92235283694E+02  0.14450274743E+03  0.41800000000E+01 0.  1.
         -5    1    3    3    0  502 -0.17954330888E+01 -0.35594491882E+02 -0.29693711078E+02  0.46576606896E+02  0.41800000000E+01 0.  1.
        -11    1    1    2    0    0 -0.43651343443E+02 -0.14815723944E+02 -0.50092719715E+02  0.68075149862E+02  0.00000000000E+00 0.  1.
         11    1    1    2    0    0  0.10072440075E+02 -0.54969480402E+02  0.11311988654E+02  0.57018057771E+02  0.00000000000E+00 0. -1.
</event>
<event>
 7    1  0.2499014E-009  0.7619231E+02  0.7561462E-02  0.1340218E+00
         -2   -1    0    0    0  501 -0.00000000000E+00  0.00000000000E+00  0.45358329035E+03  0.45358329035E+03  0.00000000000E+00 0.  1.
          2   -1    0    0  501    0  0.00000000000E+00 -0.00000000000E+00 -0.50124183996E+02  0.50124183996E+02  0.00000000000E+00 0. -1.
         25    2    1    2    0    0  0.59947178299E+02  0.34674532542E+02  0.34883854679E+03  0.37700460496E+03  0.12509257789E+03 0.  0.
          5    1    3    3  502    0  0.46911533189E+02  0.13510603183E+02  0.30595397121E+02  0.57764860162E+02  0.41800000000E+01 0.  1.
         -5    1    3    3    0  502  0.13035645110E+02  0.21163929359E+02  0.31824314967E+03  0.31923974480E+03  0.41800000000E+01 0.  1.
        -11    1    1    2    0    0 -0.44874192116E+02 -0.41964737234E+02 -0.79315054381E+01  0.61948697062E+02  0.00000000000E+00 0. -1.
         11    1    1    2    0    0 -0.15072986183E+02  0.72902046917E+01  0.62552065002E+02  0.64754172320E+02  0.00000000000E+00 0.  1.
</event>
<event>
 7    1  0.2499014E-009  0.1243191E+03  0.7561462E-02  0.1236137E+00
          2   -1    0    0  501    0  0.00000000000E+00  0.00000000000E+00  0.28497526409E+02  0.28497526409E+02  0.00000000000E+00 0.  1.
         -2   -1    0    0    0  501 -0.00000000000E+00 -0.00000000000E+00 -0.60136316752E+03  0.60136316752E+03  0.00000000000E+00 0. -1.
         25    2    1    2    0    0 -0.62471773063E+01  0.68372386734E+02 -0.25611774301E+03  0.29318516471E+03  0.12508969593E+03 0.  0.
          5    1    3    3  502    0 -0.64410698146E+02  0.31839183138E+02 -0.10696602013E+03  0.12892506925E+03  0.41800000000E+01 0. -1.
         -5    1    3    3    0  502  0.58163520840E+02  0.36533203596E+02 -0.14915172288E+03  0.16426009546E+03  0.41800000000E+01 0. -1.
        -11    1    1    2    0    0 -0.59048756886E+01  0.18868506499E+02 -0.24726662214E+02  0.31659057450E+02  0.00000000000E+00 0.  1.
         11    1    1    2    0    0  0.12152052995E+02 -0.87240893232E+02 -0.29202123589E+03  0.30501647177E+03  0.00000000000E+00 0. -1.
</event>
<event>
 7    1  0.2499014E-009  0.1611280E+03  0.7561462E-02  0.1187429E+00
         -2   -1    0    0    0  501 -0.00000000000E+00  0.00000000000E+00  0.54266511229E+02  0.54266511229E+02  0.00000000000E+00 0.  1.
          2   -1    0    0  501    0  0.00000000000E+00 -0.00000000000E+00 -0.75392011658E+03  0.75392011658E+03  0.00000000000E+00 0. -1.
         25    2    1    2    0    0  0.49533532981E+02  0.15000243412E+03 -0.48877437654E+03  0.52867882944E+03  0.12508641975E+03 0.  0.
          5    1    3    3  502    0  0.55508538287E+02  0.11670968158E+03 -0.20170151884E+03  0.23958990525E+03  0.41800000000E+01 0. -1.
         -5    1    3    3    0  502 -0.59750053060E+01  0.33292752540E+02 -0.28707285770E+03  0.28908892419E+03  0.41800000000E+01 0. -1.
        -11    1    1    2    0    0 -0.14435016239E+02 -0.70512830328E+02 -0.28361977036E+02  0.77361687391E+02  0.00000000000E+00 0.  1.
         11    1    1    2    0    0 -0.35098516742E+02 -0.79489603788E+02 -0.18251725177E+03  0.20214611098E+03  0.00000000000E+00 0. -1.
</event>
<event>
 7    1  0.2499014E-009  0.1034225E+03  0.7561462E-02  0.1273259E+00
          2   -1    0    0  501    0  0.00000000000E+00  0.00000000000E+00  0.99280946070E+03  0.99280946070E+03  0.00000000000E+00 0. -1.
         -2   -1    0    0    0  501 -0.00000000000E+00 -0.00000000000E+00 -0.34348063316E+02  0.34348063316E+02  0.00000000000E+00 0.  1.
         25    2    1    2    0    0 -0.10790986078E+02 -0.52466159329E+02  0.91684982448E+03  0.92689308880E+03  0.12509218263E+03 0.  0.
          5    1    3    3  502    0 -0.48851849849E+02  0.87569891125E+01  0.59311557943E+03  0.59520311748E+03  0.41800000000E+01 0.  1.
         -5    1    3    3    0  502  0.38060863772E+02 -0.61223148441E+02  0.32373424505E+03  0.33168997132E+03  0.41800000000E+01 0.  1.
        -11    1    1    2    0    0 -0.19749053327E+02  0.50500694259E+02  0.80067225711E+01  0.54812889307E+02  0.00000000000E+00 0.  1.
         11    1    1    2    0    0  0.30540039404E+02  0.19654650703E+01  0.33604850332E+02  0.45451545910E+02  0.00000000000E+00 0. -1.
</event>
<event>
 7    1  0.2499014E-009  0.1172322E+03  0.7561462E-02  0.1247734E+00
         -2   -1    0    0    0  501 -0.00000000000E+00  0.00000000000E+00  0.87789967215E+02  0.87789967215E+02  0.00000000000E+00 0.  1.
          2   -1    0    0  501    0  0.00000000000E+00 -0.00000000000E+00 -0.16450475900E+03  0.16450475900E+03  0.00000000000E+00 0. -1.
         25    2    1    2    0    0  0.40349564734E+02  0.30031728780E+02 -0.51635087540E+02  0.14437042819E+03  0.12508655469E+03 0.  0.
          5    1    3    3  502    0  0.85744519167E+02  0.19586524450E+02 -0.33681678664E+02  0.94274505487E+02  0.41800000000E+01 0.  1.
         -5    1    3    3    0  502 -0.45394954432E+02  0.10445204329E+02 -0.17953408876E+02  0.50095922705E+02  0.41800000000E+01 0.  1.
        -11    1    1    2    0    0 -0.63425007553E+02 -0.39479989463E+02 -0.32426358531E+01  0.74779113650E+02  0.00000000000E+00 0.  1.
         11    1    1    2    0    0  0.23075442819E+02  0.94482606829E+01 -0.21837068396E+02  0.33145184376E+02  0.00000000000E+00 0. -1.
</event>
<event>
 7    1  0.2499014E-009  0.1275756E+03  0.7561462E-02  0.1231098E+00
          2   -1    0    0  501    0  0.00000000000E+00  0.00000000000E+00  0.11974065621E+03  0.11974065621E+03  0.00000000000E+00 0.  1.
         -2   -1    0    0    0  501 -0.00000000000E+00 -0.00000000000E+00 -0.20733405480E+03  0.20733405480E+03  0.00000000000E+00 0. -1.
         25    2    1    2    0    0  0.95603018108E+02 -0.56538619491E+02 -0.73194393194E+02  0.18259609602E+03  0.12508941810E+03 0.  0.
          5    1    3    3  502    0  0.34856218397E+02 -0.32564022696E+01  0.33538850900E+02  0.48660939535E+02  0.41800000000E+01 0.  1.
         -5    1    3    3    0  502  0.60746799711E+02 -0.53282217221E+02 -0.10673324409E+03  0.13393515648E+03  0.41800000000E+01 0.  1.
        -11    1    1    2    0    0 -0.78311169862E+02  0.78599719528E+02  0.38698600958E+01  0.11102040827E+03  0.00000000000E+00 0. -1.
         11    1    1    2    0    0 -0.17291848246E+02 -0.22061100038E+02 -0.18268865495E+02  0.33458206723E+02  0.00000000000E+00 0.  1.
</event>
<event>
 7    1  0.2499014E-009  0.1463249E+03  0.7561462E-02  0.1205063E+00
          1   -1    0    0  501    0  0.00000000000E+00  0.00000000000E+00  0.85259789754E+03  0.85259789754E+03  0.00000000000E+00 0. -1.
         -1   -1    0    0    0  501 -0.00000000000E+00 -0.00000000000E+00 -0.30004924437E+02  0.30004924437E+02  0.00000000000E+00 0.  1.
         25    2    1    2    0    0 -0.64599982661E+02  0.90209230778E+02  0.54420279704E+03  0.56931179121E+03  0.12509343796E+03 0.  0.
          5    1    3    3  502    0  0.58588318257E+01 -0.27058929592E+02  0.61401133862E+02  0.67483947873E+02  0.41800000000E+01 0.  1.
         -5    1    3    3    0  502 -0.70458814487E+02  0.11726816037E+03  0.48280166318E+03  0.50182784333E+03  0.41800000000E+01 0.  1.
        -11    1    1    2    0    0  0.34688683369E+02 -0.91484501145E+02  0.26084368888E+03  0.27858957040E+03  0.00000000000E+00 0. -1.
         11    1    1    2    0    0  0.29911299292E+02  0.12752703678E+01  0.17546487181E+02  0.34701460377E+02  0.00000000000E+00 0.  1.
</event>
<event>
 7    1  0.2499014E-009  0.1241727E+03  0.7561462E-02  0.1236368E+00
          2   -1    0    0  501    0  0.00000000000E+00  0.00000000000E+00  0.10904287855E+03  0.10904287855E+03  0.00000000000E+00 0. -1.
         -2   -1    0    0    0  501 -0.00000000000E+00 -0.00000000000E+00 -0.26118182572E+03  0.26118182572E+03  0.00000000000E+00 0.  1.
         25    2    1    2    0    0 -0.15507867231E+02 -0.74013454340E+02  0.32381429068E+02  0.14971300104E+03  0.12508773066E+03 0.  0.
          5    1    3    3  502    0 -0.58259274130E+01 -0.10087911709E+03 -0.64401977275E+01  0.10133847365E+03  0.41800000000E+01 0. -1.
         -5    1    3    3    0  502 -0.96819398178E+01  0.26865662747E+02  0.38821626796E+02  0.48374527393E+02  0.41800000000E+01 0. -1.
        -11    1    1    2    0    0 -0.35747487905E+02  0.50717245292E+02 -0.74773389954E+02  0.97165743484E+02  0.00000000000E+00 0. -1.
         11    1    1    2    0    0  0.51255355136E+02  0.23296209048E+02 -0.10974698629E+03  0.12334595975E+03  0.00000000000E+00 0.  1.
</event>
<event>
 7    1  0.2499014E-009  0.8930407E+02  0.7561462E-02  0.1304546E+00
         -2   -1    0    0    0  501 -0.00000000000E+00  0.00000000000E+00  0.35440742229E+02  0.35440742229E+02  0.00000000000E+00 0.  1.
          2   -1    0    0  501    0  0.00000000000E+00 -0.00000000000E+00 -0.34078435150E+03  0.34078435150E+03  0.00000000000E+00 0. -1.
         25    2    1    2    0    0  0.11072094927E+02 -0.18136869024E+02 -0.17239781198E+03  0.21405470391E+03  0.12508746295E+03 0.  0.
          5    1    3    3  502    0 -0.35951283396E+02 -0.29469755172E+02 -0.14519348067E+02  0.48879905033E+02  0.41800000000E+01 0.  1.
         -5    1    3    3    0  502  0.47023378323E+02  0.11332886148E+02 -0.15787846391E+03  0.16517479888E+03  0.41800000000E+01 0.  1.
        -11    1    1    2    0    0 -0.21165798884E+02  0.47678802260E+02 -0.45156414113E+02  0.68995369141E+02  0.00000000000E+00 0.  1.
         11    1    1    2    0    0  0.10093703957E+02 -0.29541933236E+02 -0.87789383181E+02  0.93175020678E+02  0.00000000000E+00 0. -1.
</event>
<event>
 7    1  0.2499014E-009  0.1046908E+03  0.7561462E-02  0.1270730E+00
         -2   -1    0    0    0  501 -0.00000000000E+00  0.00000000000E+00  0.16779329643E+03  0.16779329643E+03  0.00000000000E+00 0. -1.
          2   -1    0    0  501    0  0.00000000000E+00 -0.00000000000E+00 -0.95021103943E+02  0.95021103943E+02  0.00000000000E+00 0.  1.
         25    2    1    2    0    0 -0.62292176691E+02  0.17669460098E+02  0.30013530724E+02  0.14401592338E+03  0.12508896460E+03 0.  0.
          5    1    3    3  502    0 -0.40897225869E+02 -0.44845818473E+02  0.45562455703E+02  0.76007501524E+02  0.41800000000E+01 0.  1.
         -5    1    3    3    0  502 -0.21394950822E+02  0.62515278571E+02 -0.15548924979E+02  0.68008421857E+02  0.41800000000E+01 0.  1.
        -11    1    1    2    0    0  0.50335947524E+02 -0.34981318137E+02  0.64196403226E+02  0.88761356563E+02  0.00000000000E+00 0. -1.
         11    1    1    2    0    0  0.11956229167E+02  0.17311858039E+02 -0.21437741463E+02  0.30037120429E+02  0.00000000000E+00 0.  1.
</event>
<event>
 7    1  0.2499014E-009  0.1205348E+03  0.7561462E-02  0.1242217E+00
         -1   -1    0    0    0  501 -0.00000000000E+00  0.00000000000E+00  0.79136711131E+02  0.79136711131E+02  0.00000000000E+00 0.  1.
          1   -1    0    0  501    0  0.00000000000E+00 -0.00000000000E+00 -0.27150662258E+03  0.27150662258E+03  0.00000000000E+00 0. -1.
         25    2    1    2    0    0 -0.40685324535E+02 -0.96359007130E+02 -0.13646973506E+03  0.21262688416E+03  0.12508336977E+03 0.  0.
          5    1    3    3  502    0 -0.68069626985E+02 -0.74789682722E+02 -0.14468168265E+03  0.17657075764E+03  0.41800000000E+01 0.  1.
         -5    1    3    3    0  502  0.27384302450E+02 -0.21569324408E+02  0.82119475956E+01  0.36056126516E+02  0.41800000000E+01 0.  1.
        -11    1    1    2    0    0  0.12761029701E+02  0.23914550970E+02  0.16603131676E+02  0.31787003768E+02  0.00000000000E+00 0.  1.
         11    1    1    2    0    0  0.27924294834E+02  0.72444456160E+02 -0.72503308068E+02  0.10622944578E+03  0.00000000000E+00 0. -1.
</event>
<event>
 7    1  0.2499014E-009  0.1173513E+03  0.7561462E-02  0.1247532E+00
          3   -1    0    0  501    0  0.00000000000E+00  0.00000000000E+00  0.36429513718E+03  0.36429513718E+03  0.00000000000E+00 0. -1.
         -3   -1    0    0    0  501 -0.00000000000E+00 -0.00000000000E+00 -0.46590245701E+02  0.46590245701E+02  0.00000000000E+00 0.  1.
         25    2    1    2    0    0  0.64834100926E+02  0.11809134619E+02  0.21996436397E+03  0.26148820928E+03  0.12509534713E+03 0.  0.
          5    1    3    3  502    0  0.39151928897E+01 -0.41360414721E+02  0.14589591900E+03  0.15175343232E+03  0.41800000000E+01 0.  1.
         -5    1    3    3    0  502  0.60918908036E+02  0.53169549340E+02  0.74068444969E+02  0.10973477696E+03  0.41800000000E+01 0.  1.
        -11    1    1    2    0    0 -0.58157474017E+02 -0.47859064944E+02  0.74791744438E+02  0.10614417986E+03  0.00000000000E+00 0.  1.
         11    1    1    2    0    0 -0.66766269085E+01  0.36049930325E+02  0.22948783071E+02  0.43252993743E+02  0.00000000000E+00 0. -1.
</event>
<event>
 7    1  0.2499014E-009  0.3933166E+03  0.7561462E-02  0.1046119E+00
         -2   -1    0    0    0  501 -0.00000000000E+00  0.00000000000E+00  0.96113347639E+02  0.96113347639E+02  0.00000000000E+00 0. -1.
          2   -1    0    0  501    0  0.00000000000E+00 -0.00000000000E+00 -0.17901956915E+04  0.17901956915E+04  0.00000000000E+00 0.  1.
         25    2    1    2    0    0  0.35275068725E+03  0.15045217987E+03 -0.59642894264E+03  0.72003016905E+03  0.12508818867E+03 0.  0.
          5    1    3    3  502    0  0.29871870573E+03  0.75108512222E+02 -0.49036296053E+03  0.57909192639E+03  0.41800000000E+01 0.  1.
         -5    1    3    3    0  502  0.54031981521E+02  0.75343667646E+02 -0.10606598211E+03  0.14093824265E+03  0.41800000000E+01 0.  1.
        -11    1    1    2    0    0 -0.30649462777E+03 -0.11446063116E+03 -0.82725518389E+03  0.88960178294E+03  0.00000000000E+00 0. -1.
         11    1    1    2    0    0 -0.46256059476E+02 -0.35991548707E+02 -0.27039821738E+03  0.27667708719E+03  0.00000000000E+00 0.  1.
</event>
<event>
 7    1  0.2499014E-009  0.9381289E+02  0.7561462E-02  0.1293872E+00
          1   -1    0    0  501    0  0.00000000000E+00  0.00000000000E+00  0.12709066123E+03  0.12709066123E+03  0.00000000000E+00 0. -1.
         -1   -1    0    0    0  501 -0.00000000000E+00 -0.00000000000E+00 -0.93013264101E+02  0.93013264101E+02  0.00000000000E+00 0.  1.
         25    2    1    2    0    0  0.25255430504E+02  0.17887800456E+02  0.44331287269E+02  0.13627625508E+03  0.12509254372E+03 0.  0.
          5    1    3    3  502    0  0.36025691425E+02  0.55231813154E+02 -0.12551858732E+02  0.67256413706E+02  0.41800000000E+01 0.  1.
         -5    1    3    3    0  502 -0.10770260921E+02 -0.37344012698E+02  0.56883146001E+02  0.69019841377E+02  0.41800000000E+01 0.  1.
        -11    1    1    2    0    0 -0.19534824871E+02  0.29142353219E+02  0.11307631521E+01  0.35102204477E+02  0.00000000000E+00 0.  1.
         11    1    1    2    0    0 -0.57206056329E+01 -0.47030153675E+02 -0.11384653297E+02  0.48725465767E+02  0.00000000000E+00 0. -1.
</event>
<event>
 7    1  0.2499014E-009  0.1424981E+03  0.7561462E-02  0.1210007E+00
          2   -1    0    0  501    0  0.00000000000E+00  0.00000000000E+00  0.76742786411E+03  0.76742786411E+03  0.00000000000E+00 0. -1.
         -2   -1    0    0    0  501 -0.00000000000E+00 -0.00000000000E+00 -0.45691273028E+02  0.45691273028E+02  0.00000000000E+00 0.  1.
         25    2    1    2    0    0 -0.10951078305E+03  0.27270312587E+02  0.60211416651E+03  0.62524151040E+03  0.12509674359E+03 0.  0.
          5    1    3    3  502    0 -0.27787312034E+02 -0.29350274891E+02  0.50960497843E+02  0.65176821698E+02  0.41800000000E+01 0. -1.
         -5    1    3    3    0  502 -0.81723471012E+02  0.56620587478E+02  0.55115366867E+03  0.56006468870E+03  0.41800000000E+01 0. -1.
        -11    1    1    2    0    0 -0.12173262243E+02 -0.19415949983E+02  0.20081424872E+02  0.30470166594E+02  0.00000000000E+00 0.  1.
         11    1    1    2    0    0  0.12168404529E+03 -0.78543626043E+01  0.99540999705E+02  0.15740746015E+03  0.00000000000E+00 0. -1.
</event>
<event>
 7    1  0.2499014E-009  0.1189308E+03  0.7561462E-02  0.1244871E+00
          2   -1    0    0  501    0  0.00000000000E+00  0.00000000000E+00  0.27669592964E+03  0.27669592964E+03  0.00000000000E+00 0. -1.
         -2   -1    0    0    0  501 -0.00000000000E+00 -0.00000000000E+00 -0.87408066396E+02  0.87408066396E+02  0.00000000000E+00 0.  1.
         25    2    1    2    0    0 -0.35742768450E+02 -0.37748132546E+02  0.21475603870E+03  0.25390820925E+03  0.12508699197E+03 0.  0.
          5    1    3    3  502    0 -0.49677691909E+02  0.32481663607E+02  0.12937065457E+03  0.14239792909E+03  0.41800000000E+01 0. -1.
         -5    1    3    3    0  502  0.13934923460E+02 -0.70229796153E+02  0.85385384128E+02  0.11151028016E+03  0.41800000000E+01 0. -1.
        -11    1    1    2    0    0 -0.29123337724E+02 -0.41516365233E+01 -0.12177632801E+02  0.31838649888E+02  0.00000000000E+00 0.  1.
         11    1    1    2    0    0  0.64866106174E+02  0.41899769069E+02 -0.13290542657E+02  0.78357136895E+02  0.00000000000E+00 0. -1.
</event>
<event>
 7    1  0.3189719E-009  0.2220407E+03  0.7561462E-02  0.1132371E+00
         -2   -1    0    0    0  501 -0.00000000000E+00  0.00000000000E+00  0.45977288349E+02  0.45977288349E+02  0.00000000000E+00 0.  1.
          2   -1    0    0  501    0  0.00000000000E+00 -0.00000000000E+00 -0.11675291817E+04  0.11675291817E+04  0.00000000000E+00 0. -1.
         25    2    1    2    0    0 -0.16538206404E+03  0.12021933027E+03 -0.59982238877E+03  0.64593894054E+03  0.12508518039E+03 0.  0.
          5    1    3    3  502    0 -0.18540649664E+03  0.11491792617E+03 -0.55646429124E+03  0.59770534427E+03  0.41800000000E+01 0.  1.
         -5    1    3    3    0  502  0.20024432606E+02  0.53014041058E+01 -0.43358097539E+02  0.48233596267E+02  0.41800000000E+01 0.  1.
        -11    1    1    2    0    0  0.53688353151E+02 -0.32535621139E+02 -0.69911759491E+02  0.93960949453E+02  0.00000000000E+00 0. -1.
         11    1    1    2    0    0  0.11169371089E+03 -0.87683709133E+02 -0.45181774510E+03  0.47360658007E+03  0.00000000000E+00 0.  1.
</event>
<event>
 7    1  0.2499014E-009  0.2019834E+03  0.7561462E-02  0.1148076E+00
         -1   -1    0    0    0  501 -0.00000000000E+00  0.00000000000E+00  0.14340413147E+04  0.14340413147E+04  0.00000000000E+00 0.  1.
          1   -1    0    0  501    0  0.00000000000E+00 -0.00000000000E+00 -0.32034000020E+02  0.32034000020E+02  0.00000000000E+00 0. -1.
         25    2    1    2    0    0  0.17740570589E+03  0.42399906026E+02  0.82179069442E+03  0.85103292689E+03  0.12508621307E+03 0.  0.
          5    1    3    3  502    0  0.19337760503E+03  0.27226820609E+02  0.68068003204E+03  0.70815180315E+03  0.41800000000E+01 0.  1.
         -5    1    3    3    0  502 -0.15971899142E+02  0.15173085417E+02  0.14111066237E+03  0.14288112373E+03  0.41800000000E+01 0.  1.
        -11    1    1    2    0    0 -0.47376247507E+02  0.53868361693E+01  0.28471405485E+03  0.28867909495E+03  0.00000000000E+00 0.  1.
         11    1    1    2    0    0 -0.13002945839E+03 -0.47786742195E+02  0.29550256543E+03  0.32636329290E+03  0.00000000000E+00 0. -1.
</event>
<event>
 7    1  0.2499014E-009  0.1181521E+03  0.7561462E-02  0.1246177E+00
          1   -1    0    0  501    0  0.00000000000E+00  0.00000000000E+00  0.15592858307E+03  0.15592858307E+03  0.00000000000E+00 0. -1.
         -1   -1    0    0    0  501 -0.00000000000E+00 -0.00000000000E+00 -0.15841609451E+03  0.15841609451E+03  0.00000000000E+00 0.  1.
         25    2    1    2    0    0 -0.11970589292E+02 -0.10624221507E+03  0.37345643582E+02  0.16874157329E+03  0.12509323800E+03 0.  0.
          5    1    3    3  502    0 -0.15304916766E+02 -0.11050433011E+03  0.72378765316E+02  0.13304738073E+03  0.41800000000E+01 0.  1.
         -5    1    3    3    0  502  0.33343274738E+01  0.42621150448E+01 -0.35033121734E+02  0.35694192564E+02  0.41800000000E+01 0.  1.
        -11    1    1    2    0    0 -0.18002685459E+02  0.60659191960E+02  0.18313061618E+02  0.65871105037E+02  0.00000000000E+00 0. -1.
         11    1    1    2    0    0  0.29973274752E+02  0.45583023105E+02 -0.58146216638E+02  0.79731999248E+02  0.00000000000E+00 0.  1.
</event>
<event>
 7    1  0.2499014E-009  0.7282182E+02  0.7561462E-02  0.1350752E+00
         -1   -1    0    0    0  501 -0.00000000000E+00  0.00000000000E+00  0.31480503306E+02  0.31480503306E+02  0.00000000000E+00 0.  1.
          1   -1    0    0  501    0  0.00000000000E+00 -0.00000000000E+00 -0.38532694265E+03  0.38532694265E+03  0.00000000000E+00 0. -1.
         25    2    1    2    0    0  0.17839931326E+02  0.67733830593E+01 -0.18143705764E+03  0.22120509722E+03  0.12509255487E+03 0.  0.
          5    1    3    3  502    0  0.35844537654E+01 -0.40452488881E+02 -0.16354539366E+03  0.16856399483E+03  0.41800000000E+01 0.  1.
         -5    1    3    3    0  502  0.14255477560E+02  0.47225871940E+02 -0.17891663979E+02  0.52641102391E+02  0.41800000000E+01 0.  1.
        -11    1    1    2    0    0  0.18527041883E+02 -0.23949679972E+01  0.66622126474E+00  0.18693073675E+02  0.00000000000E+00 0.  1.
         11    1    1    2    0    0 -0.36366973209E+02 -0.43784150621E+01 -0.17307560297E+03  0.17690927506E+03  0.00000000000E+00 0. -1.
</event>
<event>
 7    1  0.2499014E-009  0.1048684E+03  0.7561462E-02  0.1270379E+00
         -2   -1    0    0    0  501 -0.00000000000E+00  0.00000000000E+00  0.16388781528E+02  0.16388781528E+02  0.00000000000E+00 0.  1.
          2   -1    0    0  501    0  0.00000000000E+00 -0.00000000000E+00 -0.90919534299E+03  0.90919534299E+03  0.00000000000E+00 0. -1.
         25    2    1    2    0    0  0.15639966740E+01 -0.36594259850E+02 -0.65971529658E+03  0.67246809872E+03  0.12508990892E+03 0.  0.
          5    1    3    3  502    0  0.12208182111E+02 -0.80078927403E+02 -0.50032567968E+03  0.50685790166E+03  0.41800000000E+01 0.  1.
         -5    1    3    3    0  502 -0.10644185437E+02  0.43484667553E+02 -0.15938961690E+03  0.16561019706E+03  0.41800000000E+01 0.  1.
        -11    1    1    2    0    0 -0.29255054309E+02  0.45915906358E+02 -0.20667882061E+03  0.21372941667E+03  0.00000000000E+00 0. -1.
         11    1    1    2    0    0  0.27691057635E+02 -0.93216465078E+01 -0.26412444273E+02  0.39386609133E+02  0.00000000000E+00 0.  1.
</event>
<event>
 7    1  0.2499014E-009  0.1096413E+03  0.7561462E-02  0.1261236E+00
          2   -1    0    0  501    0  0.00000000000E+00  0.00000000000E+00  0.10773728932E+04  0.10773728932E+04  0.00000000000E+00 0.  1.
         -2   -1    0    0    0  501 -0.00000000000E+00 -0.00000000000E+00 -0.15182778868E+02  0.15182778868E+02  0.00000000000E+00 0. -1.
         25    2    1    2    0    0  0.30830378941E+02  0.52134186279E+02  0.71222170143E+03  0.72565502555E+03  0.12508788299E+03 0.  0.
          5    1    3    3  502    0 -0.34031377286E+02  0.10017270855E+02  0.68154918061E+02  0.76948330789E+02  0.41800000000E+01 0.  1.
         -5    1    3    3    0  502  0.64861756227E+02  0.42116915424E+02  0.64406678337E+03  0.64870669476E+03  0.41800000000E+01 0.  1.
        -11    1    1    2    0    0 -0.33065667689E+02  0.16837052131E+02  0.17341408398E+03  0.17733941814E+03  0.00000000000E+00 0.  1.
         11    1    1    2    0    0  0.22352887485E+01 -0.68971238409E+02  0.17655432894E+03  0.18956122840E+03  0.00000000000E+00 0. -1.
</event>
<event>
 7    1  0.2499014E-009  0.8516951E+02  0.7561462E-02  0.1314990E+00
         -2   -1    0    0    0  501 -0.00000000000E+00  0.00000000000E+00  0.42508229016E+02  0.42508229016E+02  0.00000000000E+00 0.  1.
          2   -1    0    0  501    0  0.00000000000E+00 -0.00000000000E+00 -0.26006802901E+03  0.26006802901E+03  0.00000000000E+00 0. -1.
         25    2    1    2    0    0 -0.94312067539E+01 -0.17506906386E+02 -0.15461779027E+03  0.19987609266E+03  0.12509337279E+03 0.  0.
          5    1    3    3  502    0  0.38885559670E+02  0.62810769810E+01 -0.39373335998E+01  0.39805950244E+02  0.41800000000E+01 0.  1.
         -5    1    3    3    0  502 -0.48316766424E+02 -0.23787983367E+02 -0.15068045667E+03  0.16007014241E+03  0.41800000000E+01 0.  1.
        -11    1    1    2    0    0 -0.32202121202E+02  0.19323518349E+01 -0.10438432830E+02  0.33906805710E+02  0.00000000000E+00 0. -1.
         11    1    1    2    0    0  0.41633327956E+02  0.15574554551E+02 -0.52503576895E+02  0.68793359657E+02  0.00000000000E+00 0.  1.
</event>
<event>
 7    1  0.2499014E-009  0.1848278E+03  0.7561462E-02  0.1163211E+00
         -2   -1    0    0    0  501 -0.00000000000E+00  0.00000000000E+00  0.66879927551E+02  0.66879927551E+02  0.00000000000E+00 0. -1.
          2   -1    0    0  501    0  0.00000000000E+00 -0.00000000000E+00 -0.66207289404E+03  0.66207289404E+03  0.00000000000E+00 0.  1.
         25    2    1    2    0    0  0.14160736731E+03  0.10051844003E+03 -0.38897867508E+03  0.44396895297E+03  0.12508964093E+03 0.  0.
          5    1    3    3  502    0  0.14285783554E+03  0.11149361281E+03 -0.39191115127E+03  0.43179973340E+03  0.41800000000E+01 0.  1.
         -5    1    3    3    0  502 -0.12504682317E+01 -0.10975172778E+02  0.29324761905E+01  0.12169219569E+02  0.41800000000E+01 0.  1.
        -11    1    1    2    0    0 -0.31085200794E+02 -0.39726248179E+02 -0.95423014162E+01  0.51337316049E+02  0.00000000000E+00 0. -1.
         11    1    1    2    0    0 -0.11052216652E+03 -0.60792191850E+02 -0.19667199000E+03  0.23364655258E+03  0.00000000000E+00 0.  1.
</event>
<event>
 7    1  0.2499014E-009  0.7476673E+02  0.7561462E-02  0.1344595E+00
          2   -1    0    0  501    0  0.00000000000E+00  0.00000000000E+00  0.23129485433E+03  0.23129485433E+03  0.00000000000E+00 0. -1.
         -2   -1    0    0    0  501 -0.00000000000E+00 -0.00000000000E+00 -0.87664078090E+02  0.87664078090E+02  0.00000000000E+00 0.  1.
         25    2    1    2    0    0 -0.47011506775E+02  0.13970618461E+02 -0.88806366263E+01  0.13465279051E+03  0.12508896168E+03 0.  0.
          5    1    3    3  502    0  0.29154625599E+01  0.35848311377E+00  0.53358398605E+02  0.53602420970E+02  0.41800000000E+01 0. -1.
         -5    1    3    3    0  502 -0.49926969335E+02  0.13612135347E+02 -0.62239035232E+02  0.81050369538E+02  0.41800000000E+01 0. -1.
        -11    1    1    2    0    0 -0.17995356240E+02 -0.20376248195E+02  0.12736195648E+02  0.30020576548E+02  0.00000000000E+00 0.  1.
         11    1    1    2    0    0  0.65006863016E+02  0.64056297337E+01  0.13977521722E+03  0.15428556536E+03  0.00000000000E+00 0. -1.
</event>
<event>
 7    1  0.2499014E-009  0.9726271E+02  0.7561462E-02  0.1286160E+00
         -1   -1    0    0    0  501 -0.00000000000E+00  0.00000000000E+00  0.27232739493E+02  0.27232739493E+02  0.00000000000E+00 0.  1.
          1   -1    0    0  501    0  0.00000000000E+00 -0.00000000000E+00 -0.62169459455E+03  0.62169459455E+03  0.00000000000E+00 0. -1.
         25    2    1    2    0    0  0.33182666296E+02 -0.47833957723E+02 -0.44015041661E+03  0.46127010184E+03  0.12509412757E+03 0.  0.
          5    1    3    3  502    0 -0.33386180486E+02  0.85385290746E+01 -0.24529867695E+03  0.24774272308E+03  0.41800000000E+01 0.  1.
         -5    1    3    3    0  502  0.66568846781E+02 -0.56372486797E+02 -0.19485173967E+03  0.21352737876E+03  0.41800000000E+01 0.  1.
        -11    1    1    2    0    0 -0.30578249834E+02  0.67499412894E+01 -0.14093509617E+03  0.14437206241E+03  0.00000000000E+00 0. -1.
         11    1    1    2    0    0 -0.26044164615E+01  0.41084016433E+02 -0.13376342264E+02  0.43285169790E+02  0.00000000000E+00 0.  1.
</event>
<event>
 7    1  0.2499014E-009  0.1025001E+03  0.7561462E-02  0.1275125E+00
         -1   -1    0    0    0  501 -0.00000000000E+00  0.00000000000E+00  0.38708911332E+02  0.38708911332E+02  0.00000000000E+00 0.  1.
          1   -1    0    0  501    0  0.00000000000E+00 -0.00000000000E+00 -0.50665500828E+03  0.50665500828E+03  0.00000000000E+00 0. -1.
         25    2    1    2    0    0 -0.66993184981E+02 -0.58061259523E+02 -0.24835378511E+03  0.29186625322E+03  0.12508841073E+03 0.  0.
          5    1    3    3  502    0 -0.49740743901E+02 -0.32763065925E+02 -0.25358693927E+03  0.26052133936E+03  0.41800000000E+01 0. -1.
         -5    1    3    3    0  502 -0.17252441080E+02 -0.25298193598E+02  0.52331541596E+01  0.31344913862E+02  0.41800000000E+01 0. -1.
        -11    1    1    2    0    0 -0.81729505664E+01  0.34737135673E+02 -0.24939991120E+02  0.43536982817E+02  0.00000000000E+00 0.  1.
         11    1    1    2    0    0  0.75166135548E+02  0.23324123851E+02 -0.19465232071E+03  0.20996068357E+03  0.00000000000E+00 0. -1.
</event>
<event>
 7    1  0.2499014E-009  0.1035698E+03  0.7561462E-02  0.1272963E+00
         -2   -1    0    0    0  501 -0.00000000000E+00  0.00000000000E+00  0.18674833344E+03  0.18674833344E+03  0.00000000000E+00 0.  1.
          2   -1    0    0  501    0  0.00000000000E+00 -0.00000000000E+00 -0.11378964507E+03  0.11378964507E+03  0.00000000000E+00 0. -1.
         25    2    1    2    0    0  0.55451232644E+02 -0.79175219294E+02  0.32533175926E+02  0.16140010386E+03  0.12509209183E+03 0.  0.
          5    1    3    3  502    0  0.56204213937E+02 -0.46878752354E+02  0.76975725276E+02  0.10629800454E+03  0.41800000000E+01 0. -1.
         -5    1    3    3    0  502 -0.75298129290E+00 -0.32296466940E+02 -0.44442549349E+02  0.55102099327E+02  0.41800000000E+01 0. -1.
        -11    1    1    2    0    0 -0.55024232161E+02  0.57528297546E+02  0.67569552887E+02  0.10441654860E+03  0.00000000000E+00 0.  1.
         11    1    1    2    0    0 -0.42700048249E+00  0.21646921748E+02 -0.27144040452E+02  0.34721326049E+02  0.00000000000E+00 0. -1.
</event>
<event>
 7    1  0.2499014E-009  0.1286855E+03  0.7561462E-02  0.1229419E+00
          1   -1    0    0  501    0  0.00000000000E+00  0.00000000000E+00  0.40250781713E+03  0.40250781713E+03  0.00000000000E+00 0. -1.
         -1   -1    0    0    0  501 -0.00000000000E+00 -0.00000000000E+00 -0.60332008252E+02  0.60332008252E+02  0.00000000000E+00 0.  1.
         25    2    1    2    0    0  0.52755220538E+02  0.96899548972E+02  0.16162863356E+03  0.23225926799E+03  0.12509163239E+03 0.  0.
          5    1    3    3  502    0  0.67673920252E+02  0.28418827679E+02  0.23282428717E+02  0.77116361013E+02  0.41800000000E+01 0.  1.
         -5    1    3    3    0  502 -0.14918699715E+02  0.68480721293E+02  0.13834620484E+03  0.15514290697E+03  0.41800000000E+01 0.  1.
        -11    1    1    2    0    0 -0.30789511496E+02 -0.80625037585E+02  0.55566971907E+02  0.10264540453E+03  0.00000000000E+00 0.  1.
         11    1    1    2    0    0 -0.21965709042E+02 -0.16274511387E+02  0.12498020341E+03  0.12793515287E+03  0.00000000000E+00 0. -1.
</event>
<event>
 7    1  0.2499014E-009  0.1140184E+03  0.7561462E-02  0.1253304E+00
         -1   -1    0    0    0  501 -0.00000000000E+00  0.00000000000E+00  0.84116239966E+02  0.84116239966E+02  0.00000000000E+00 0.  1.
          1   -1    0    0  501    0  0.00000000000E+00 -0.00000000000E+00 -0.17370252458E+03  0.17370252458E+03  0.00000000000E+00 0. -1.
         25    2    1    2    0    0  0.43581265244E+02 -0.31061605783E+02 -0.61944997725E+02  0.14949467956E+03  0.12508927387E+03 0.  0.
          5    1    3    3  502    0  0.85319019612E+02 -0.25562460774E+02 -0.59348264478E+02  0.10710958596E+03  0.41800000000E+01 0. -1.
         -5    1    3    3    0  502 -0.41737754368E+02 -0.54991450091E+01 -0.25967332475E+01  0.42385093595E+02  0.41800000000E+01 0. -1.
        -11    1    1    2    0    0  0.40457978241E+01 -0.23670718964E+02 -0.26499881868E+02  0.35761923261E+02  0.00000000000E+00 0. -1.
         11    1    1    2    0    0 -0.47627063068E+02  0.54732324747E+02 -0.11414050168E+01  0.72562161725E+02  0.00000000000E+00 0.  1.
</event>
<event>
 7    1  0.2499014E-009  0.1074339E+03  0.7561462E-02  0.1265397E+00
         -2   -1    0    0    0  501 -0.00000000000E+00  0.00000000000E+00  0.18596994886E+02  0.18596994886E+02  0.00000000000E+00 0.  1.
          2   -1    0    0  501    0  0.00000000000E+00 -0.00000000000E+00 -0.77572689286E+03  0.77572689286E+03  0.00000000000E+00 0. -1.
         25    2    1    2    0    0 -0.21896775363E+02  0.16760554906E+02 -0.52170886573E+03  0.53720504073E+03  0.12509488490E+03 0.  0.
          5    1    3    3  502    0 -0.64121785996E+02 -0.19166764990E+02 -0.36035599508E+03  0.36654179013E+03  0.41800000000E+01 0.  1.
         -5    1    3    3    0  502  0.42225010633E+02  0.35927319896E+02 -0.16135287065E+03  0.17066325060E+03  0.41800000000E+01 0.  1.
        -11    1    1    2    0    0  0.46960673643E+02  0.17194952308E+02 -0.67692017664E+02  0.84161633239E+02  0.00000000000E+00 0.  1.
         11    1    1    2    0    0 -0.25063898280E+02 -0.33955507214E+02 -0.16772901458E+03  0.17295721378E+03  0.00000000000E+00 0. -1.
</event>
<event>
 7    1  0.2499014E-009  0.9988124E+02  0.7561462E-02  0.1280546E+00
         -2   -1    0    0    0  501 -0.00000000000E+00  0.00000000000E+00  0.10564686124E+03  0.10564686124E+03  0.00000000000E+00 0.  1.
          2   -1    0    0  501    0  0.00000000000E+00 -0.00000000000E+00 -0.15193938306E+03  0.15193938306E+03  0.00000000000E+00 0. -1.
         25    2    1    2    0    0  0.29524005437E+02 -0.26161217420E+01 -0.84540914617E+02  0.15387657059E+03  0.12510923923E+03 0.  0.
          5    1    3    3  502    0 -0.48270343953E+02 -0.14934358422E+01 -0.19011279372E+02  0.52068777586E+02  0.41800000000E+01 0. -1.
         -5    1    3    3    0  502  0.77794349390E+02 -0.11226858998E+01 -0.65529635245E+02  0.10180779300E+03  0.41800000000E+01 0. -1.
        -11    1    1    2    0    0 -0.51152888818E+02 -0.22574247138E+01  0.55578515287E+02  0.75569076760E+02  0.00000000000E+00 0.  1.
         11    1    1    2    0    0  0.21628883381E+02  0.48735464558E+01 -0.17330122484E+02  0.28140596950E+02  0.00000000000E+00 0. -1.
</event>
<event>
 7    1  0.2499014E-009  0.1588227E+03  0.7561462E-02  0.1190032E+00
         -2   -1    0    0    0  501 -0.00000000000E+00  0.00000000000E+00  0.28017676856E+03  0.28017676856E+03  0.00000000000E+00 0.  1.
          2   -1    0    0  501    0  0.00000000000E+00 -0.00000000000E+00 -0.10973783724E+03  0.10973783724E+03  0.00000000000E+00 0. -1.
         25    2    1    2    0    0 -0.63293301160E+02 -0.11742805225E+03  0.53592364137E+02  0.19056594266E+03  0.12509135694E+03 0.  0.
          5    1    3    3  502    0 -0.77602689057E+02 -0.48074798110E+02  0.73068454328E+02  0.11700356824E+03  0.41800000000E+01 0. -1.
         -5    1    3    3    0  502  0.14309387897E+02 -0.69353254135E+02 -0.19476090191E+02  0.73562374420E+02  0.41800000000E+01 0. -1.
        -11    1    1    2    0    0 -0.10596078690E+02  0.62150136475E+02  0.75130601207E+02  0.98079169986E+02  0.00000000000E+00 0.  1.
         11    1    1    2    0    0  0.73889379850E+02  0.55277915770E+02  0.41715965975E+02  0.10126949315E+03  0.00000000000E+00 0. -1.
</event>
<event>
 7    1  0.2499014E-009  0.1346900E+03  0.7561462E-02  0.1220658E+00
          4   -1    0    0  501    0  0.00000000000E+00  0.00000000000E+00  0.40077036272E+03  0.40077036272E+03  0.00000000000E+00 0. -1.
         -4   -1    0    0    0  501 -0.00000000000E+00 -0.00000000000E+00 -0.51993480445E+02  0.51993480445E+02  0.00000000000E+00 0.  1.
         25    2    1    2    0    0  0.80261679476E+02 -0.40447384264E+02  0.22872665698E+03  0.27575901072E+03  0.12509684365E+03 0.  0.
          5    1    3    3  502    0  0.96607686472E+02 -0.70431572008E+02  0.17706457680E+03  0.21368899873E+03  0.41800000000E+01 0. -1.
         -5    1    3    3    0  502 -0.16346006996E+02  0.29984187744E+02  0.51662080184E+02  0.62070011989E+02  0.41800000000E+01 0. -1.
        -11    1    1    2    0    0 -0.87487307117E+02  0.14838090641E+02  0.12138612449E+03  0.15036219292E+03  0.00000000000E+00 0. -1.
         11    1    1    2    0    0  0.72256276408E+01  0.25609293623E+02 -0.13358991922E+01  0.26642639534E+02  0.00000000000E+00 0.  1.
</event>
<event>
 7    1  0.2499014E-009  0.1038032E+03  0.7561462E-02  0.1272496E+00
         -2   -1    0    0    0  501 -0.00000000000E+00  0.00000000000E+00  0.28764585993E+02  0.28764585993E+02  0.00000000000E+00 0. -1.
          2   -1    0    0  501    0  0.00000000000E+00 -0.00000000000E+00 -0.51118864087E+03  0.51118864087E+03  0.00000000000E+00 0.  1.
         25    2    1    2    0    0 -0.36552772675E+01  0.36066496158E+02 -0.17683068002E+03  0.21961769692E+03  0.12509472495E+03 0.  0.
          5    1    3    3  502    0 -0.34842397731E+02  0.72870785819E+02 -0.97540985608E+02  0.12671172155E+03  0.41800000000E+01 0.  1.
         -5    1    3    3    0  502  0.31187120463E+02 -0.36804289662E+02 -0.79289694409E+02  0.92905975372E+02  0.41800000000E+01 0.  1.
        -11    1    1    2    0    0 -0.17690064705E+01 -0.56823132155E+02 -0.28493979349E+03  0.29055581847E+03  0.00000000000E+00 0.  1.
         11    1    1    2    0    0  0.54242837380E+01  0.20756635997E+02 -0.20653581377E+02  0.29779711477E+02  0.00000000000E+00 0. -1.
</event>
<event>
 7    1  0.2499014E-009  0.9933875E+02  0.7561462E-02  0.1281693E+00
         -2   -1    0    0    0  501 -0.00000000000E+00  0.00000000000E+00  0.48668209506E+03  0.48668209506E+03  0.00000000000E+00 0.  1.
          2   -1    0    0  501    0  0.00000000000E+00 -0.00000000000E+00 -0.25800870894E+02  0.25800870894E+02  0.00000000000E+00 0. -1.
         25    2    1    2    0    0 -0.25725228248E+02  0.14402326978E+02  0.23802514238E+03  0.27050415344E+03  0.12508922509E+03 0.  0.
          5    1    3    3  502    0 -0.10076669972E+02 -0.55587974475E+02  0.10776380430E+03  0.12174593258E+03  0.41800000000E+01 0.  1.
         -5    1    3    3    0  502 -0.15648558276E+02  0.69990301453E+02  0.13026133808E+03  0.14875822086E+03  0.41800000000E+01 0.  1.
        -11    1    1    2    0    0 -0.96502996202E+01 -0.30010059544E+02  0.18569154078E+03  0.18834829512E+03  0.00000000000E+00 0.  1.
         11    1    1    2    0    0  0.35375527868E+02  0.15607732567E+02  0.37164541009E+02  0.53630517397E+02  0.00000000000E+00 0. -1.
</event>
<event>
 7    1  0.2499014E-009  0.1083993E+03  0.7561462E-02  0.1263563E+00
          2   -1    0    0  501    0  0.00000000000E+00  0.00000000000E+00  0.11963388747E+03  0.11963388747E+03  0.00000000000E+00 0. -1.
         -2   -1    0    0    0  501 -0.00000000000E+00 -0.00000000000E+00 -0.14251366743E+03  0.14251366743E+03  0.00000000000E+00 0.  1.
         25    2    1    2    0    0 -0.32536044425E+02  0.54118639771E+02 -0.47174560132E+02  0.14785265359E+03  0.12509015426E+03 0.  0.
          5    1    3    3  502    0  0.37852856585E+02 -0.15249863996E+02 -0.17338194706E+02  0.44536305406E+02  0.41800000000E+01 0. -1.
         -5    1    3    3    0  502 -0.70388901010E+02  0.69368503767E+02 -0.29836365427E+02  0.10331634818E+03  0.41800000000E+01 0. -1.
        -11    1    1    2    0    0 -0.60147080198E+01 -0.31700954963E+02 -0.29983127391E+02  0.44046738656E+02  0.00000000000E+00 0.  1.
         11    1    1    2    0    0  0.38550752445E+02 -0.22417684808E+02  0.54277907570E+02  0.70248162655E+02  0.00000000000E+00 0. -1.
</event>
<event>
 7    1  0.2499014E-009  0.1867205E+03  0.7561462E-02  0.1161453E+00
         -2   -1    0    0    0  501 -0.00000000000E+00  0.00000000000E+00  0.12602791603E+03  0.12602791603E+03  0.00000000000E+00 0.  1.
          2   -1    0    0  501    0  0.00000000000E+00 -0.00000000000E+00 -0.31255986774E+03  0.31255986774E+03  0.00000000000E+00 0. -1.
         25    2    1    2    0    0 -0.10797262692E+03 -0.12545474752E+03 -0.96036255427E+02  0.22861906535E+03  0.12508690118E+03 0.  0.
          5    1    3    3  502    0 -0.22174236178E+02 -0.11672566050E+03 -0.38922296072E+02  0.12509593959E+03  0.41800000000E+01 0.  1.
         -5    1    3    3    0  502 -0.85798390745E+02 -0.87290870173E+01 -0.57113959355E+02  0.10352312576E+03  0.41800000000E+01 0.  1.
        -11    1    1    2    0    0  0.11194513236E+02  0.20434927640E+01  0.16551546947E+02  0.20085982566E+02  0.00000000000E+00 0.  1.
         11    1    1    2    0    0  0.96778113686E+02  0.12341125476E+03 -0.10704724324E+03  0.18988273585E+03  0.00000000000E+00 0. -1.
</event>
<event>
 7    1  0.2499014E-009  0.1068192E+03  0.7561462E-02  0.1266576E+00
         -2   -1    0    0    0  501 -0.00000000000E+00  0.00000000000E+00  0.15978705183E+03  0.15978705183E+03  0.00000000000E+00 0.  1.
          2   -1    0    0  501    0  0.00000000000E+00 -0.00000000000E+00 -0.82079238475E+02  0.82079238475E+02  0.00000000000E+00 0. -1.
         25    2    1    2    0    0  0.10815909768E+02  0.12452166326E+02  0.81683113628E+02  0.15030651953E+03  0.12509148016E+03 0.  0.
          5    1    3    3  502    0  0.34999633848E+02  0.61698712869E+02  0.48896257160E+02  0.86255561580E+02  0.41800000000E+01 0.  1.
         -5    1    3    3    0  502 -0.24183724080E+02 -0.49246546542E+02  0.32786856468E+02  0.64050957946E+02  0.41800000000E+01 0.  1.
        -11    1    1    2    0    0 -0.26432883386E+02  0.31378384802E+02  0.11353877113E+02  0.42570070265E+02  0.00000000000E+00 0. -1.
         11    1    1    2    0    0  0.15616973618E+02 -0.43830551128E+02 -0.15329177386E+02  0.48989700514E+02  0.00000000000E+00 0.  1.
</event>
<event>
 7    1  0.2499014E-009  0.1740505E+03  0.7561462E-02  0.1173689E+00
         -1   -1    0    0    0  501 -0.00000000000E+00  0.00000000000E+00  0.14180034998E+04  0.14180034998E+04  0.00000000000E+00 0.  1.
          1   -1    0    0  501    0  0.00000000000E+00 -0.00000000000E+00 -0.24797565067E+02  0.24797565067E+02  0.00000000000E+00 0. -1.
         25    2    1    2    0    0 -0.10696783135E+03  0.10397728239E+03  0.87610352292E+03  0.89747414288E+03  0.12509621125E+03 0.  0.
          5    1    3    3  502    0 -0.43515536507E+02  0.10479166250E+03  0.72025243654E+03  0.72914740566E+03  0.41800000000E+01 0.  1.
         -5    1    3    3    0  502 -0.63452294841E+02 -0.81438010825E+00  0.15585108638E+03  0.16832673721E+03  0.41800000000E+01 0.  1.
        -11    1    1    2    0    0 -0.13681433802E+02 -0.18899486767E+02  0.10552649913E+03  0.10807503990E+03  0.00000000000E+00 0.  1.
         11    1    1    2    0    0  0.12064926515E+03 -0.85077795620E+02  0.41157591271E+03  0.43725188211E+03  0.00000000000E+00 0. -1.
</event>
<event>
 7    1  0.2499014E-009  0.1267434E+03  0.7561462E-02  0.1232369E+00
          1   -1    0    0  501    0  0.00000000000E+00  0.00000000000E+00  0.11640810057E+03  0.11640810057E+03  0.00000000000E+00 0. -1.
         -1   -1    0    0    0  501 -0.00000000000E+00 -0.00000000000E+00 -0.28832523720E+03  0.28832523720E+03  0.00000000000E+00 0.  1.
         25    2    1    2    0    0  0.89475445783E+02  0.80462073822E+02 -0.18529223039E+03  0.25389081631E+03  0.12508930906E+03 0.  0.
          5    1    3    3  502    0  0.41894408730E+02  0.44578788109E+02 -0.22643547455E+01  0.61359673520E+02  0.41800000000E+01 0. -1.
         -5    1    3    3    0  502  0.47581037053E+02  0.35883285714E+02 -0.18302787564E+03  0.19253114279E+03  0.41800000000E+01 0. -1.
        -11    1    1    2    0    0 -0.65210590438E+02 -0.85615271981E+02 -0.19790857631E+02  0.10942611182E+03  0.00000000000E+00 0.  1.
         11    1    1    2    0    0 -0.24264855345E+02  0.51531981591E+01  0.33165951388E+02  0.41416409642E+02  0.00000000000E+00 0. -1.
</event>
<event>
 7    1  0.2499014E-009  0.1082342E+03  0.7561462E-02  0.1263875E+00
          3   -1    0    0  501    0  0.00000000000E+00  0.00000000000E+00  0.21894789014E+03  0.21894789014E+03  0.00000000000E+00 0. -1.
         -3   -1    0    0    0  501 -0.00000000000E+00 -0.00000000000E+00 -0.59780126342E+02  0.59780126342E+02  0.00000000000E+00 0.  1.
         25    2    1    2    0    0  0.69402579843E+01 -0.61892606410E+01  0.12623722957E+03  0.17796065904E+03  0.12509070272E+03 0.  0.
          5    1    3    3  502    0 -0.65769574147E+01 -0.63727527388E+02  0.49829719507E+02  0.81270704820E+02  0.41800000000E+01 0.  1.
         -5    1    3    3    0  502  0.13517215399E+02  0.57538266747E+02  0.76407510062E+02  0.96689954216E+02  0.41800000000E+01 0.  1.
        -11    1    1    2    0    0  0.37050431254E+02 -0.19708297887E+02  0.41635562246E+01  0.42172107632E+02  0.00000000000E+00 0. -1.
         11    1    1    2    0    0 -0.43990689238E+02  0.25897558528E+02  0.28766978006E+02  0.58595249815E+02  0.00000000000E+00 0.  1.
</event>
<event>
 7    1  0.2499014E-009  0.2780574E+03  0.7561462E-02  0.1096755E+00
         -2   -1    0    0    0  501 -0.00000000000E+00  0.00000000000E+00  0.62297252991E+02  0.62297252991E+02  0.00000000000E+00 0.  1.
          2   -1    0    0  501    0  0.00000000000E+00 -0.00000000000E+00 -0.17608138155E+04  0.17608138155E+04  0.00000000000E+00 0. -1.
         25    2    1    2    0    0 -0.21943360794E+03 -0.14769382469E+03 -0.13170459472E+04  0.13491558177E+04  0.12508724648E+03 0.  0.
          5    1    3    3  502    0 -0.74108157932E+02  0.12067912483E+02 -0.40052538681E+03  0.40752387840E+03  0.41800000000E+01 0.  1.
         -5    1    3    3    0  502 -0.14532545000E+03 -0.15976173717E+03 -0.91652056035E+03  0.94163193926E+03  0.41800000000E+01 0.  1.
        -11    1    1    2    0    0  0.15331441707E+03  0.95067477536E+02 -0.32686614908E+03  0.37334249046E+03  0.00000000000E+00 0. -1.
         11    1    1    2    0    0  0.66119190866E+02  0.52626347153E+02 -0.54604466274E+02  0.10061276039E+03  0.00000000000E+00 0.  1.
</event>
<event>
 7    1  0.2499014E-009  0.2135365E+03  0.7561462E-02  0.1138796E+00
         -1   -1    0    0    0  501 -0.00000000000E+00  0.00000000000E+00  0.94473769161E+02  0.94473769161E+02  0.00000000000E+00 0.  1.
          1   -1    0    0  501    0  0.00000000000E+00 -0.00000000000E+00 -0.11753121385E+04  0.11753121385E+04  0.00000000000E+00 0. -1.
         25    2    1    2    0    0 -0.18762221956E+03 -0.68798782520E+01 -0.10358939667E+04  0.10601759784E+04  0.12508942748E+03 0.  0.
          5    1    3    3  502    0  0.16880848771E+02  0.96922300726E+01 -0.73743538017E+02  0.76383795260E+02  0.41800000000E+01 0. -1.
         -5    1    3    3    0  502 -0.20450306833E+03 -0.16572108325E+02 -0.96215042868E+03  0.98379218311E+03  0.41800000000E+01 0. -1.
        -11    1    1    2    0    0  0.10379665893E+03  0.40789026519E+02 -0.41898701868E+02  0.11913434563E+03  0.00000000000E+00 0.  1.
         11    1    1    2    0    0  0.83825560627E+02 -0.33909148267E+02 -0.30457007965E+01  0.90475583689E+02  0.00000000000E+00 0. -1.
</event>
<event>
 7    1  0.2499014E-009  0.1118623E+03  0.7561462E-02  0.1257160E+00
         -1   -1    0    0    0  501 -0.00000000000E+00  0.00000000000E+00  0.19386166251E+02  0.19386166251E+02  0.00000000000E+00 0.  1.
          1   -1    0    0  501    0  0.00000000000E+00 -0.00000000000E+00 -0.77621405907E+03  0.77621405907E+03  0.00000000000E+00 0. -1.
         25    2    1    2    0    0 -0.25258867905E+02 -0.49941062186E+02 -0.45980520502E+03  0.47979274946E+03  0.12509250884E+03 0.  0.
          5    1    3    3  502    0 -0.56537580453E+02 -0.61286310352E+02 -0.41771877025E+03  0.42597999162E+03  0.41800000000E+01 0. -1.
         -5    1    3    3    0  502  0.31278712548E+02  0.11345248167E+02 -0.42086434769E+02  0.53812757839E+02  0.41800000000E+01 0. -1.
        -11    1    1    2    0    0  0.59296487963E+02  0.24270211905E+02 -0.16182602634E+03  0.17404821019E+03  0.00000000000E+00 0.  1.
         11    1    1    2    0    0 -0.34037620058E+02  0.25670850281E+02 -0.13519666146E+03  0.14175926567E+03  0.00000000000E+00 0. -1.
</event>
<event>
 7    1  0.2499014E-009  0.3434897E+03  0.7561462E-02  0.1065319E+00
          1   -1    0    0  501    0  0.00000000000E+00  0.00000000000E+00  0.55871155799E+03  0.55871155799E+03  0.00000000000E+00 0. -1.
         -1   -1    0    0    0  501 -0.00000000000E+00 -0.00000000000E+00 -0.23013363645E+03  0.23013363645E+03  0.00000000000E+00 0.  1.
         25    2    1    2    0    0  0.96245522840E+02 -0.32148485423E+03  0.23724016370E+03  0.42958775056E+03  0.12508808094E+03 0.  0.
          5    1    3    3  502    0  0.86987227744E+02 -0.16823238409E+03  0.68565813838E+02  0.20146378353E+03  0.41800000000E+01 0.  1.
         -5    1    3    3    0  502  0.92582950959E+01 -0.15325247014E+03  0.16867434987E+03  0.22812396703E+03  0.41800000000E+01 0.  1.
        -11    1    1    2    0    0  0.12975047382E+02  0.38169309449E+02 -0.51831939564E+01  0.40646199552E+02  0.00000000000E+00 0.  1.
         11    1    1    2    0    0 -0.10922057022E+03  0.28331554478E+03  0.96520951790E+02  0.31861124432E+03  0.00000000000E+00 0. -1.
</event>
<event>
 7    1  0.2499014E-009  0.1641759E+03  0.7561462E-02  0.1184061E+00
          2   -1    0    0  501    0  0.00000000000E+00  0.00000000000E+00  0.42393964490E+03  0.42393964490E+03  0.00000000000E+00 0. -1.
         -2   -1    0    0    0  501 -0.00000000000E+00 -0.00000000000E+00 -0.79659886676E+02  0.79659886676E+02  0.00000000000E+00 0.  1.
         25    2    1    2    0    0  0.99052741424E+02 -0.11028129657E+03  0.17082781093E+03  0.25846344658E+03  0.12509117585E+03 0.  0.
          5    1    3    3  502    0  0.55330003300E+01 -0.47477913194E+02 -0.64158585166E+01  0.48408697301E+02  0.41800000000E+01 0.  1.
         -5    1    3    3    0  502  0.93519741094E+02 -0.62803383374E+02  0.17724366944E+03  0.21005474928E+03  0.41800000000E+01 0.  1.
        -11    1    1    2    0    0 -0.58436642448E+01  0.62734426247E+02  0.96512297401E+02  0.11525788562E+03  0.00000000000E+00 0. -1.
         11    1    1    2    0    0 -0.93209077179E+02  0.47546870321E+02  0.76939649891E+02  0.12987819937E+03  0.00000000000E+00 0.  1.
</event>
<event>
 7    1  0.2499014E-009  0.9325655E+02  0.7561462E-02  0.1295152E+00
          1   -1    0    0  501    0  0.00000000000E+00  0.00000000000E+00  0.37188163260E+03  0.37188163260E+03  0.00000000000E+00 0. -1.
         -1   -1    0    0    0  501 -0.00000000000E+00 -0.00000000000E+00 -0.32825104494E+02  0.32825104494E+02  0.00000000000E+00 0.  1.
         25    2    1    2    0    0  0.46522184247E+01  0.90743170659E+01  0.22077938545E+03  0.25396031028E+03  0.12509322839E+03 0.  0.
          5    1    3    3  502    0 -0.38718507216E+02 -0.20592297967E+02  0.18519217005E+03  0.19035960124E+03  0.41800000000E+01 0. -1.
         -5    1    3    3    0  502  0.43370725640E+02  0.29666615033E+02  0.35587215402E+02  0.63600709038E+02  0.41800000000E+01 0. -1.
        -11    1    1    2    0    0 -0.23503457539E+02  0.34801009424E+02  0.34644365578E+02  0.54440378760E+02  0.00000000000E+00 0.  1.
         11    1    1    2    0    0  0.18851239115E+02 -0.43875326490E+02  0.83632777072E+02  0.96306048053E+02  0.00000000000E+00 0. -1.
</event>
<event>
 7    1  0.2499014E-009  0.1816033E+03  0.7561462E-02  0.1166260E+00
          1   -1    0    0  501    0  0.00000000000E+00  0.00000000000E+00  0.84698753519E+03  0.84698753519E+03  0.00000000000E+00 0. -1.
         -1   -1    0    0    0  501 -0.00000000000E+00 -0.00000000000E+00 -0.46333032891E+02  0.46333032891E+02  0.00000000000E+00 0.  1.
         25    2    1    2    0    0 -0.15002122898E+03 -0.63076586036E+02  0.48890224112E+03  0.53024504636E+03  0.12509749385E+03 0.  0.
          5    1    3    3  502    0 -0.35945681403E+02  0.24420534160E+02  0.41279026770E+02  0.60082318125E+02  0.41800000000E+01 0.  1.
         -5    1    3    3    0  502 -0.11407554758E+03 -0.87497120196E+02  0.44762321435E+03  0.47016272824E+03  0.41800000000E+01 0.  1.
        -11    1    1    2    0    0  0.68859096731E+02  0.64781104761E+02  0.10681357423E+03  0.14264398472E+03  0.00000000000E+00 0.  1.
         11    1    1    2    0    0  0.81162132252E+02 -0.17045187255E+01  0.20493868695E+03  0.22043153700E+03  0.00000000000E+00 0. -1.
</event>
<event>
 7    1  0.2499014E-009  0.7145821E+02  0.7561462E-02  0.1355203E+00
         -3   -1    0    0    0  501 -0.00000000000E+00  0.00000000000E+00  0.10218766488E+03  0.10218766488E+03  0.00000000000E+00 0.  1.
          3   -1    0    0  501    0  0.00000000000E+00 -0.00000000000E+00 -0.15789434688E+03  0.15789434688E+03  0.00000000000E+00 0. -1.
         25    2    1    2    0    0 -0.39171178216E+01 -0.13491392243E+02  0.35167686905E+02  0.13069866132E+03  0.12509201570E+03 0.  0.
          5    1    3    3  502    0  0.20718373253E+02 -0.51086097772E+02  0.57985910050E+02  0.80117903993E+02  0.41800000000E+01 0.  1.
         -5    1    3    3    0  502 -0.24635491074E+02  0.37594705529E+02 -0.22818223144E+02  0.50580757327E+02  0.41800000000E+01 0.  1.
        -11    1    1    2    0    0  0.20576573965E+02 -0.72388494951E+00  0.12250873855E+02  0.23958366300E+02  0.00000000000E+00 0.  1.
         11    1    1    2    0    0 -0.16659456143E+02  0.14215277193E+02 -0.10312524276E+03  0.10542498413E+03  0.00000000000E+00 0. -1.
</event>
<event>
 7    1  0.2499014E-009  0.1238569E+03  0.7561462E-02  0.1236867E+00
         -2   -1    0    0    0  501 -0.00000000000E+00  0.00000000000E+00  0.13696223365E+03  0.13696223365E+03  0.00000000000E+00 0.  1.
          2   -1    0    0  501    0  0.00000000000E+00 -0.00000000000E+00 -0.13863479365E+03  0.13863479365E+03  0.00000000000E+00 0. -1.
         25    2    1    2    0    0 -0.21725807641E+00  0.85590329323E+02 -0.29744753335E+01  0.15159784639E+03  0.12508919958E+03 0.  0.
          5    1    3    3  502    0 -0.12343844573E+02 -0.30745982838E+02 -0.83883072022E+01  0.34431410910E+02  0.41800000000E+01 0. -1.
         -5    1    3    3    0  502  0.12126586497E+02  0.11633631216E+03  0.54138318687E+01  0.11716643548E+03  0.41800000000E+01 0. -1.
        -11    1    1    2    0    0 -0.19947809588E+02 -0.66803653234E+02  0.36977830309E+02  0.78917698440E+02  0.00000000000E+00 0.  1.
         11    1    1    2    0    0  0.20165067664E+02 -0.18786676090E+02 -0.35675914982E+02  0.45081482475E+02  0.00000000000E+00 0. -1.
</event>
<event>
 7    1  0.2499014E-009  0.1209233E+03  0.7561462E-02  0.1241582E+00
         -2   -1    0    0    0  501 -0.00000000000E+00  0.00000000000E+00  0.25867924201E+02  0.25867924201E+02  0.00000000000E+00 0. -1.
          2   -1    0    0  501    0  0.00000000000E+00 -0.00000000000E+00 -0.90178808260E+03  0.90178808260E+03  0.00000000000E+00 0.  1.
         25    2    1    2    0    0 -0.45649558547E+02  0.72410726783E+02 -0.66359175324E+03  0.68068357499E+03  0.12509563841E+03 0.  0.
          5    1    3    3  502    0  0.19164147608E+02  0.40028822946E+02 -0.72176128926E+02  0.84831817184E+02  0.41800000000E+01 0.  1.
         -5    1    3    3    0  502 -0.64813706156E+02  0.32381903836E+02 -0.59141562431E+03  0.59585175781E+03  0.41800000000E+01 0.  1.
        -11    1    1    2    0    0  0.40343054043E+02  0.10443718859E+02 -0.54148781122E+02  0.68328059903E+02  0.00000000000E+00 0. -1.
         11    1    1    2    0    0  0.53065045048E+01 -0.82854445641E+02 -0.15817962404E+03  0.17864437191E+03  0.00000000000E+00 0.  1.
</event>
<event>
 7    1  0.2499014E-009  0.1162728E+03  0.7561462E-02  0.1249376E+00
          2   -1    0    0  501    0  0.00000000000E+00  0.00000000000E+00  0.72903772145E+03  0.72903772145E+03  0.00000000000E+00 0. -1.
         -2   -1    0    0    0  501 -0.00000000000E+00 -0.00000000000E+00 -0.27238120536E+02  0.27238120536E+02  0.00000000000E+00 0.  1.
         25    2    1    2    0    0  0.39094002133E+02  0.72384152838E+02  0.47248723947E+03  0.49564042801E+03  0.12508971112E+03 0.  0.
          5    1    3    3  502    0  0.70179026973E+01 -0.34862023971E+02  0.15131748259E+03  0.15549618841E+03  0.41800000000E+01 0. -1.
         -5    1    3    3    0  502  0.32076099436E+02  0.10724617681E+03  0.32116975688E+03  0.34014423960E+03  0.41800000000E+01 0. -1.
        -11    1    1    2    0    0 -0.18576605120E+02 -0.54236185732E+02  0.22586542221E+03  0.23302755857E+03  0.00000000000E+00 0. -1.
         11    1    1    2    0    0 -0.20517397013E+02 -0.18147967106E+02  0.34469392289E+01  0.27607855409E+02  0.00000000000E+00 0.  1.
</event>
<event>
 7    1  0.2499014E-009  0.9444795E+02  0.7561462E-02  0.1292424E+00
         -2   -1    0    0    0  501 -0.00000000000E+00  0.00000000000E+00  0.67658048939E+02  0.67658048939E+02  0.00000000000E+00 0.  1.
          2   -1    0    0  501    0  0.00000000000E+00 -0.00000000000E+00 -0.18294988616E+03  0.18294988616E+03  0.00000000000E+00 0. -1.
         25    2    1    2    0    0 -0.18986530323E+01 -0.12339549111E+02 -0.38926425803E+02  0.13160402871E+03  0.12509390230E+03 0.  0.
          5    1    3    3  502    0  0.19905552640E+02 -0.64052529497E+02 -0.33427331608E+02  0.75058753383E+02  0.41800000000E+01 0.  1.
         -5    1    3    3    0  502 -0.21804205672E+02  0.51712980386E+02 -0.54990941949E+01  0.56545275332E+02  0.41800000000E+01 0.  1.
        -11    1    1    2    0    0  0.16094380326E+02  0.35086196366E+02 -0.56994097696E+00  0.38605635420E+02  0.00000000000E+00 0.  1.
         11    1    1    2    0    0 -0.14195727294E+02 -0.22746647254E+02 -0.75795470442E+02  0.80398270965E+02  0.00000000000E+00 0. -1.
</event>
<event>
 7    1  0.2499014E-009  0.9935088E+02  0.7561462E-02  0.1281667E+00
         -1   -1    0    0    0  501 -0.00000000000E+00  0.00000000000E+00  0.17534259010E+03  0.17534259010E+03  0.00000000000E+00 0.  1.
          1   -1    0    0  501    0  0.00000000000E+00 -0.00000000000E+00 -0.92206416678E+02  0.92206416678E+02  0.00000000000E+00 0. -1.
         25    2    1    2    0    0  0.66924850601E+02  0.14944021644E+02  0.44463343439E+02  0.14942828330E+03  0.12509821553E+03 0.  0.
          5    1    3    3  502    0  0.30810472722E+02 -0.21654667739E+02 -0.37029597494E+02  0.52979933511E+02  0.41800000000E+01 0.  1.
         -5    1    3    3    0  502  0.36114377879E+02  0.36598689383E+02  0.81492940933E+02  0.96448349784E+02  0.41800000000E+01 0.  1.
        -11    1    1    2    0    0 -0.54689165653E+02  0.30185039160E+02  0.34025182054E+02  0.71131950927E+02  0.00000000000E+00 0. -1.
         11    1    1    2    0    0 -0.12235684948E+02 -0.45129060804E+02  0.46476479319E+01  0.46988772558E+02  0.00000000000E+00 0.  1.
</event>
<event>
 7    1  0.2499014E-009  0.9109043E+02  0.7561462E-02  0.1300232E+00
          3   -1    0    0  501    0  0.00000000000E+00  0.00000000000E+00  0.61173012256E+03  0.61173012256E+03  0.00000000000E+00 0. -1.
         -3   -1    0    0    0  501 -0.00000000000E+00 -0.00000000000E+00 -0.52128918731E+02  0.52128918731E+02  0.00000000000E+00 0.  1.
         25    2    1    2    0    0 -0.14619302380E+02  0.71293359128E+02  0.52564197497E+03  0.54520058861E+03  0.12509088259E+03 0.  0.
          5    1    3    3  502    0 -0.10639235720E+02  0.12909692400E+02  0.44573762647E+03  0.44607102298E+03  0.41800000000E+01 0.  1.
         -5    1    3    3    0  502 -0.39800666606E+01  0.58383666728E+02  0.79904348506E+02  0.99129565627E+02  0.41800000000E+01 0.  1.
        -11    1    1    2    0    0  0.37677134443E+02 -0.74013645909E+02  0.43264897299E+02  0.93645275262E+02  0.00000000000E+00 0. -1.
         11    1    1    2    0    0 -0.23057832062E+02  0.27202867815E+01 -0.93056684425E+01  0.25013177422E+02  0.00000000000E+00 0.  1.
</event>
<event>
 7    1  0.2499014E-009  0.8931425E+02  0.7561462E-02  0.1304521E+00
          1   -1    0    0  501    0  0.00000000000E+00  0.00000000000E+00  0.15615687424E+03  0.15615687424E+03  0.00000000000E+00 0. -1.
         -1   -1    0    0    0  501 -0.00000000000E+00 -0.00000000000E+00 -0.54559105784E+02  0.54559105784E+02  0.00000000000E+00 0.  1.
         25    2    1    2    0    0 -0.30200857392E+02  0.88597462542E+01  0.69220196167E+02  0.14638813979E+03  0.12508982781E+03 0.  0.
          5    1    3    3  502    0 -0.75483443094E+01 -0.56449954079E+02  0.16777220269E+02  0.59519092208E+02  0.41800000000E+01 0. -1.
         -5    1    3    3    0  502 -0.22652513082E+02  0.65309700333E+02  0.52442975898E+02  0.86869047580E+02  0.41800000000E+01 0. -1.
        -11    1    1    2    0    0  0.38142741792E+02  0.27076045992E+01  0.32668629342E+02  0.50293530570E+02  0.00000000000E+00 0.  1.
         11    1    1    2    0    0 -0.79418844006E+01 -0.11567350853E+02 -0.29105705296E+00  0.14034309666E+02  0.00000000000E+00 0. -1.
</event>
<event>
 7    1  0.2499014E-009  0.6118727E+02  0.7561462E-02  0.1392916E+00
         -3   -1    0    0    0  501 -0.00000000000E+00  0.00000000000E+00  0.30997439515E+02  0.30997439515E+02  0.00000000000E+00 0.  1.
          3   -1    0    0  501    0  0.00000000000E+00 -0.00000000000E+00 -0.37799293975E+03  0.37799293975E+03  0.00000000000E+00 0. -1.
         25    2    1    2    0    0 -0.18544426300E+00 -0.54024885568E+01 -0.16982805457E+03  0.21099329801E+03  0.12508949761E+03 0.  0.
          5    1    3    3  502    0 -0.18782741699E+02 -0.22568952649E+01 -0.18525818872E+03  0.18626849935E+03  0.41800000000E+01 0. -1.
         -5    1    3    3    0  502  0.18597297436E+02 -0.31455932919E+01  0.15430134147E+02  0.24724798662E+02  0.41800000000E+01 0. -1.
        -11    1    1    2    0    0  0.38208094142E+02  0.19788220834E+02 -0.58936756014E+02  0.72972415002E+02  0.00000000000E+00 0.  1.
         11    1    1    2    0    0 -0.38022649879E+02 -0.14385732277E+02 -0.11823068965E+03  0.12502466626E+03  0.00000000000E+00 0. -1.
</event>
<event>
 7    1  0.2930715E-009  0.1927325E+03  0.7561462E-02  0.1156020E+00
         -2   -1    0    0    0  501 -0.00000000000E+00  0.00000000000E+00  0.18801832585E+02  0.18801832585E+02  0.00000000000E+00 0.  1.
          2   -1    0    0  501    0  0.00000000000E+00 -0.00000000000E+00 -0.22793466526E+04  0.22793466526E+04  0.00000000000E+00 0. -1.
         25    2    1    2    0    0 -0.17134786291E+03 -0.33569669407E+02 -0.12941288040E+04  0.13118319208E+04  0.12508642658E+03 0.  0.
          5    1    3    3  502    0 -0.11371783833E+03 -0.55404261801E+02 -0.11188848682E+04  0.11260205148E+04  0.41800000000E+01 0. -1.
         -5    1    3    3    0  502 -0.57630024579E+02  0.21834592394E+02 -0.17524393579E+03  0.18581140597E+03  0.41800000000E+01 0. -1.
        -11    1    1    2    0    0  0.95036898251E+02  0.64426953830E+02 -0.56198911565E+03  0.57359795198E+03  0.00000000000E+00 0.  1.
         11    1    1    2    0    0  0.76310964660E+02 -0.30857284423E+02 -0.40442690032E+03  0.41271861241E+03  0.00000000000E+00 0. -1.
</event>
<event>
 7    1  0.2499014E-009  0.1448772E+03  0.7561462E-02  0.1206913E+00
         -2   -1    0    0    0  501 -0.00000000000E+00  0.00000000000E+00  0.22416374271E+03  0.22416374271E+03  0.00000000000E+00 0.  1.
          2   -1    0    0  501    0  0.00000000000E+00 -0.00000000000E+00 -0.13453232744E+03  0.13453232744E+03  0.00000000000E+00 0. -1.
         25    2    1    2    0    0  0.10416148947E+03 -0.74768397043E+02  0.10735820094E+02  0.17945032100E+03  0.12508889155E+03 0.  0.
          5    1    3    3  502    0  0.97960528814E+02 -0.86286865121E+02  0.48454760279E+02  0.13930909694E+03  0.41800000000E+01 0. -1.
         -5    1    3    3    0  502  0.62009606552E+01  0.11518468078E+02 -0.37718940185E+02  0.40141224054E+02  0.41800000000E+01 0. -1.
        -11    1    1    2    0    0 -0.32826388776E+02 -0.10287551795E+02 -0.11303856419E+02  0.36210256723E+02  0.00000000000E+00 0. -1.
         11    1    1    2    0    0 -0.71335100693E+02  0.85055948838E+02  0.90199451595E+02  0.14303549242E+03  0.00000000000E+00 0.  1.
</event>
<event>
 7    1  0.2499014E-009  0.1209827E+03  0.7561462E-02  0.1241485E+00
          1   -1    0    0  501    0  0.00000000000E+00  0.00000000000E+00  0.31004370207E+03  0.31004370207E+03  0.00000000000E+00 0. -1.
         -1   -1    0    0    0  501 -0.00000000000E+00 -0.00000000000E+00 -0.77563381313E+02  0.77563381313E+02  0.00000000000E+00 0.  1.
         25    2    1    2    0    0 -0.57888262633E+02 -0.16007686912E+02  0.86074637511E+01  0.13902557374E+03  0.12508686874E+03 0.  0.
          5    1    3    3  502    0 -0.42329939935E+02 -0.67653246397E+02  0.22785024175E+02  0.83098828449E+02  0.41800000000E+01 0. -1.
         -5    1    3    3    0  502 -0.15558322698E+02  0.51645559485E+02 -0.14177560424E+02  0.55926745295E+02  0.41800000000E+01 0. -1.
        -11    1    1    2    0    0  0.60870553924E+02 -0.25745921437E+02  0.13197979460E+03  0.14760332987E+03  0.00000000000E+00 0.  1.
         11    1    1    2    0    0 -0.29822912914E+01  0.41753608349E+02  0.91893062399E+02  0.10097817977E+03  0.00000000000E+00 0. -1.
</event>
<event>
 7    1  0.2499014E-009  0.2096380E+03  0.7561462E-02  0.1141853E+00
          2   -1    0    0  501    0  0.00000000000E+00  0.00000000000E+00  0.39280634881E+03  0.39280634881E+03  0.00000000000E+00 0. -1.
         -2   -1    0    0    0  501 -0.00000000000E+00 -0.00000000000E+00 -0.12620602782E+03  0.12620602782E+03  0.00000000000E+00 0.  1.
         25    2    1    2    0    0  0.17918594876E+03  0.42466342339E+02  0.21186896075E+03  0.30732895764E+03  0.12510650347E+03 0.  0.
          5    1    3    3  502    0  0.17474736588E+03 -0.46859122376E+01  0.17208017462E+03  0.24533173165E+03  0.41800000000E+01 0. -1.
         -5    1    3    3    0  502  0.44385828839E+01  0.47152254576E+02  0.39788786124E+02  0.61997225993E+02  0.41800000000E+01 0. -1.
        -11    1    1    2    0    0 -0.64607797729E+02 -0.50513156547E+02 -0.51093567309E+01  0.82169653997E+02  0.00000000000E+00 0.  1.
         11    1    1    2    0    0 -0.11457815103E+03  0.80468142081E+01  0.59840716977E+02  0.12951376499E+03  0.00000000000E+00 0. -1.
</event>
<event>
 7    1  0.2499014E-009  0.1081896E+03  0.7561462E-02  0.1263960E+00
         -2   -1    0    0    0  501 -0.00000000000E+00  0.00000000000E+00  0.31165517332E+02  0.31165517332E+02  0.00000000000E+00 0.  1.
          2   -1    0    0  501    0  0.00000000000E+00 -0.00000000000E+00 -0.67671808795E+03  0.67671808795E+03  0.00000000000E+00 0. -1.
         25    2    1    2    0    0  0.49781332601E+02 -0.36053620120E+02 -0.53467501606E+03  0.55254450348E+03  0.12510000373E+03 0.  0.
          5    1    3    3  502    0  0.61608737353E+02  0.89037492947E+01 -0.46185701819E+03  0.46605181142E+03  0.41800000000E+01 0. -1.
         -5    1    3    3    0  502 -0.11827404752E+02 -0.44957369415E+02 -0.72817997864E+02  0.86492692066E+02  0.41800000000E+01 0. -1.
        -11    1    1    2    0    0  0.99350100089E+01  0.45750709578E+02 -0.61226794478E+02  0.77074977865E+02  0.00000000000E+00 0. -1.
         11    1    1    2    0    0 -0.59716342610E+02 -0.96970894580E+01 -0.49650760085E+02  0.78264123937E+02  0.00000000000E+00 0.  1.
</event>
<event>
 7    1  0.2499014E-009  0.2946791E+03  0.7561462E-02  0.1087931E+00
          1   -1    0    0  501    0  0.00000000000E+00  0.00000000000E+00  0.82338220901E+03  0.82338220901E+03  0.00000000000E+00 0.  1.
         -1   -1    0    0    0  501 -0.00000000000E+00 -0.00000000000E+00 -0.12001512596E+03  0.12001512596E+03  0.00000000000E+00 0. -1.
         25    2    1    2    0    0  0.27199489480E+03  0.93345497734E+02  0.45683499297E+03  0.55411204501E+03  0.12508933955E+03 0.  0.
          5    1    3    3  502    0  0.15182225780E+03  0.26327033309E+02  0.13825779145E+03  0.20706472404E+03  0.41800000000E+01 0. -1.
         -5    1    3    3    0  502  0.12017263700E+03  0.67018464425E+02  0.31857720152E+03  0.34704732096E+03  0.41800000000E+01 0. -1.
        -11    1    1    2    0    0 -0.26397744049E+03 -0.10442114767E+03  0.21897234693E+03  0.35852022801E+03  0.00000000000E+00 0. -1.
         11    1    1    2    0    0 -0.80174543169E+01  0.11075649940E+02  0.27559743139E+02  0.30765061957E+02  0.00000000000E+00 0.  1.
</event>
<event>
 7    1  0.2499014E-009  0.9802257E+02  0.7561462E-02  0.1284510E+00
          2   -1    0    0  501    0  0.00000000000E+00  0.00000000000E+00  0.39212572482E+03  0.39212572482E+03  0.00000000000E+00 0. -1.
         -2   -1    0    0    0  501 -0.00000000000E+00 -0.00000000000E+00 -0.55357361036E+02  0.55357361036E+02  0.00000000000E+00 0.  1.
         25    2    1    2    0    0  0.24627666704E+02 -0.18139807581E+02  0.38605647628E+02  0.13443911986E+03  0.12509159178E+03 0.  0.
          5    1    3    3  502    0  0.19174776594E+02  0.38777404820E+02 -0.23920053291E+02  0.49608472375E+02  0.41800000000E+01 0. -1.
         -5    1    3    3    0  502  0.54528901099E+01 -0.56917212401E+02  0.62525700920E+02  0.84830647490E+02  0.41800000000E+01 0. -1.
        -11    1    1    2    0    0 -0.58273495470E+02  0.19858684640E+02  0.18520840637E+03  0.19517254269E+03  0.00000000000E+00 0. -1.
         11    1    1    2    0    0  0.33645828766E+02 -0.17188770586E+01  0.11295430978E+03  0.11787142330E+03  0.00000000000E+00 0.  1.
</event>
<event>
 7    1  0.2499014E-009  0.1241461E+03  0.7561462E-02  0.1236410E+00
          2   -1    0    0  501    0  0.00000000000E+00  0.00000000000E+00  0.40650627640E+03  0.40650627640E+03  0.00000000000E+00 0.  1.
         -2   -1    0    0    0  501 -0.00000000000E+00 -0.00000000000E+00 -0.92088844710E+02  0.92088844710E+02  0.00000000000E+00 0. -1.
         25    2    1    2    0    0 -0.33038902517E+02  0.81133902418E+02  0.33608720797E+03  0.36915548498E+03  0.12508749549E+03 0.  0.
          5    1    3    3  502    0 -0.18639394180E+02 -0.30230853777E+02  0.47450641947E+02  0.59416894539E+02  0.41800000000E+01 0.  1.
         -5    1    3    3    0  502 -0.14399508337E+02  0.11136475619E+03  0.28863656602E+03  0.30973859044E+03  0.41800000000E+01 0.  1.
        -11    1    1    2    0    0 -0.18019131235E+01 -0.58690935558E+02  0.27747355592E+02  0.64944503616E+02  0.00000000000E+00 0.  1.
         11    1    1    2    0    0  0.34840815640E+02 -0.22442966859E+02 -0.49417131870E+02  0.64495132515E+02  0.00000000000E+00 0. -1.
</event>
<event>
 7    1  0.2499014E-009  0.9925252E+02  0.7561462E-02  0.1281876E+00
          2   -1    0    0  501    0  0.00000000000E+00  0.00000000000E+00  0.79725863666E+02  0.79725863666E+02  0.00000000000E+00 0. -1.
         -2   -1    0    0    0  501 -0.00000000000E+00 -0.00000000000E+00 -0.16644472456E+03  0.16644472456E+03  0.00000000000E+00 0.  1.
         25    2    1    2    0    0 -0.37267431109E+02 -0.96593901200E+01 -0.42744737153E+02  0.13768362073E+03  0.12508997412E+03 0.  0.
          5    1    3    3  502    0 -0.81337754967E+02 -0.19494858901E+02 -0.16718721004E+02  0.85398290022E+02  0.41800000000E+01 0.  1.
         -5    1    3    3    0  502  0.44070323858E+02  0.98354687809E+01 -0.26026016149E+02  0.52285330712E+02  0.41800000000E+01 0.  1.
        -11    1    1    2    0    0  0.29909463825E+02 -0.21859026163E+02  0.15987029133E+02  0.40348211256E+02  0.00000000000E+00 0. -1.
         11    1    1    2    0    0  0.73579672839E+01  0.31518416283E+02 -0.59961152876E+02  0.68138756238E+02  0.00000000000E+00 0.  1.
</event>
<event>
 7    1  0.2499014E-009  0.1253389E+03  0.7561462E-02  0.1234541E+00
         -1   -1    0    0    0  501 -0.00000000000E+00  0.00000000000E+00  0.61927490127E+02  0.61927490127E+02  0.00000000000E+00 0.  1.
          1   -1    0    0  501    0  0.00000000000E+00 -0.00000000000E+00 -0.34568930735E+03  0.34568930735E+03  0.00000000000E+00 0. -1.
         25    2    1    2    0    0 -0.75608891198E+02 -0.37342073235E+01 -0.64445718977E+02  0.15978520826E+03  0.12508962128E+03 0.  0.
          5    1    3    3  502    0 -0.10544859317E+03  0.71942200049E+01 -0.24511501973E+02  0.10857922790E+03  0.41800000000E+01 0.  1.
         -5    1    3    3    0  502  0.29839701968E+02 -0.10928427328E+02 -0.39934217004E+02  0.51205980365E+02  0.41800000000E+01 0.  1.
        -11    1    1    2    0    0  0.10781049679E+02 -0.35481709666E+02 -0.49238274060E+02  0.61640817527E+02  0.00000000000E+00 0.  1.
         11    1    1    2    0    0  0.64827841519E+02  0.39215916990E+02 -0.17007782419E+03  0.18619077169E+03  0.00000000000E+00 0. -1.
</event>
<event>
 7    1  0.2499014E-009  0.1919427E+03  0.7561462E-02  0.1156721E+00
         -2   -1    0    0    0  501 -0.00000000000E+00  0.00000000000E+00  0.87207191569E+03  0.87207191569E+03  0.00000000000E+00 0.  1.
          2   -1    0    0  501    0  0.00000000000E+00 -0.00000000000E+00 -0.46181471234E+02  0.46181471234E+02  0.00000000000E+00 0. -1.
         25    2    1    2    0    0 -0.35177718191E+01 -0.15967195862E+03  0.31392865329E+03  0.37377640073E+03  0.12510031695E+03 0.  0.
          5    1    3    3  502    0 -0.51933407920E+02 -0.14065727842E+03  0.24590858459E+03  0.28804522771E+03  0.41800000000E+01 0.  1.
         -5    1    3    3    0  502  0.48415636101E+02 -0.19014680197E+02  0.68020068702E+02  0.85731173025E+02  0.41800000000E+01 0.  1.
        -11    1    1    2    0    0 -0.34995140926E+02  0.12526519992E+03  0.31356409641E+03  0.33946792596E+03  0.00000000000E+00 0. -1.
         11    1    1    2    0    0  0.38512912745E+02  0.34406758698E+02  0.19839769476E+03  0.20500906023E+03  0.00000000000E+00 0.  1.
</event>
<event>
 7    1  0.2499014E-009  0.8525563E+02  0.7561462E-02  0.1314765E+00
         -1   -1    0    0    0  501 -0.00000000000E+00  0.00000000000E+00  0.12137911205E+03  0.12137911205E+03  0.00000000000E+00 0.  1.
          1   -1    0    0  501    0  0.00000000000E+00 -0.00000000000E+00 -0.11577685777E+03  0.11577685777E+03  0.00000000000E+00 0. -1.
         25    2    1    2    0    0  0.46192751522E+02 -0.57640975825E+01  0.64559872368E+01  0.13362357672E+03  0.12508631168E+03 0.  0.
          5    1    3    3  502    0  0.58541387984E+02  0.70823559993E+01 -0.48015643563E+02  0.76159229909E+02  0.41800000000E+01 0.  1.
         -5    1    3    3    0  502 -0.12348636462E+02 -0.12846453582E+02  0.54471630799E+02  0.57464346808E+02  0.41800000000E+01 0.  1.
        -11    1    1    2    0    0 -0.45204736808E+02 -0.31955936098E+02  0.21827690231E+02  0.59507126822E+02  0.00000000000E+00 0.  1.
         11    1    1    2    0    0 -0.98801471477E+00  0.37720033680E+02 -0.22681423185E+02  0.44025266287E+02  0.00000000000E+00 0. -1.
</event>
<event>
 7    1  0.2499014E-009  0.1394923E+03  0.7561462E-02  0.1214014E+00
          1   -1    0    0  501    0  0.00000000000E+00  0.00000000000E+00  0.72624162299E+02  0.72624162299E+02  0.00000000000E+00 0. -1.
         -1   -1    0    0    0  501 -0.00000000000E+00 -0.00000000000E+00 -0.46009750090E+03  0.46009750090E+03  0.00000000000E+00 0.  1.
         25    2    1    2    0    0  0.68642190915E+02  0.10897913755E+03 -0.10176371858E+03  0.20637694256E+03  0.12508950877E+03 0.  0.
          5    1    3    3  502    0  0.18585498853E+02  0.91655777217E+01 -0.91789444447E+02  0.94192372804E+02  0.41800000000E+01 0.  1.
         -5    1    3    3    0  502  0.50056692062E+02  0.99813559830E+02 -0.99742741301E+01  0.11218456975E+03  0.41800000000E+01 0.  1.
        -11    1    1    2    0    0 -0.38416993744E+02 -0.10932354988E+03 -0.16315583220E+03  0.20011828889E+03  0.00000000000E+00 0.  1.
         11    1    1    2    0    0 -0.30225197172E+02  0.34441232682E+00 -0.12255378782E+03  0.12622643175E+03  0.00000000000E+00 0. -1.
</event>
<event>
 7    1  0.2499014E-009  0.1048235E+03  0.7561462E-02  0.1270468E+00
         -2   -1    0    0    0  501 -0.00000000000E+00  0.00000000000E+00  0.40729379741E+02  0.40729379741E+02  0.00000000000E+00 0.  1.
          2   -1    0    0  501    0  0.00000000000E+00 -0.00000000000E+00 -0.31056258601E+03  0.31056258601E+03  0.00000000000E+00 0. -1.
         25    2    1    2    0    0  0.19684749593E+02 -0.14731760178E+02 -0.13415282848E+03  0.18506452960E+03  0.12508950637E+03 0.  0.
          5    1    3    3  502    0  0.22294008926E+02  0.46739708911E+02 -0.20680984705E+02  0.55917785645E+02  0.41800000000E+01 0.  1.
         -5    1    3    3    0  502 -0.26092593330E+01 -0.61471469089E+02 -0.11347184377E+03  0.12914674396E+03  0.41800000000E+01 0.  1.
        -11    1    1    2    0    0 -0.54518461665E+02  0.24613657529E+02 -0.85546685454E+02  0.10438548841E+03  0.00000000000E+00 0.  1.
         11    1    1    2    0    0  0.34833712072E+02 -0.98818973512E+01 -0.50133692337E+02  0.61841947732E+02  0.00000000000E+00 0. -1.
</event>
<event>
 7    1  0.2499014E-009  0.9200501E+02  0.7561462E-02  0.1298068E+00
         -1   -1    0    0    0  501 -0.00000000000E+00  0.00000000000E+00  0.38324573126E+03  0.38324573126E+03  0.00000000000E+00 0.  1.
          1   -1    0    0  501    0  0.00000000000E+00 -0.00000000000E+00 -0.39770120181E+02  0.39770120181E+02  0.00000000000E+00 0. -1.
         25    2    1    2    0    0 -0.77926040993E+01  0.42417725813E+02  0.27857207256E+03  0.30840269494E+03  0.12509929853E+03 0.  0.
          5    1    3    3  502    0 -0.54681944919E+02  0.43221533783E+02  0.89278364811E+02  0.11334158507E+03  0.41800000000E+01 0. -1.
         -5    1    3    3    0  502  0.46889340820E+02 -0.80380796953E+00  0.18929370775E+03  0.19506110987E+03  0.41800000000E+01 0. -1.
        -11    1    1    2    0    0  0.27234755276E+02 -0.94490938913E+01 -0.99875040031E+01  0.30508482534E+02  0.00000000000E+00 0. -1.
         11    1    1    2    0    0 -0.19442151177E+02 -0.32968631922E+02  0.74891042515E+02  0.84104673962E+02  0.00000000000E+00 0.  1.
</event>
<event>
 7    1  0.2499014E-009  0.1516522E+03  0.7561462E-02  0.1198457E+00
          2   -1    0    0  501    0  0.00000000000E+00  0.00000000000E+00  0.61391622814E+03  0.61391622814E+03  0.00000000000E+00 0. -1.
         -2   -1    0    0    0  501 -0.00000000000E+00 -0.00000000000E+00 -0.58011619628E+02  0.58011619628E+02  0.00000000000E+00 0.  1.
         25    2    1    2    0    0  0.85555501473E+02  0.11999146581E+03  0.37227973095E+03  0.41947456277E+03  0.12509602326E+03 0.  0.
          5    1    3    3  502    0  0.55514739627E+02  0.94070782727E+02  0.11328016471E+03  0.15742003238E+03  0.41800000000E+01 0. -1.
         -5    1    3    3    0  502  0.30040761846E+02  0.25920683083E+02  0.25899956624E+03  0.26205453039E+03  0.41800000000E+01 0. -1.
        -11    1    1    2    0    0 -0.32444977494E+02 -0.83707753417E+02  0.46750527168E+02  0.10121895246E+03  0.00000000000E+00 0.  1.
         11    1    1    2    0    0 -0.53110523979E+02 -0.36283712394E+02  0.13687435040E+03  0.15123433254E+03  0.00000000000E+00 0. -1.
</event>
<event>
 7    1  0.2499014E-009  0.9732572E+02  0.7561462E-02  0.1286022E+00
          2   -1    0    0  501    0  0.00000000000E+00  0.00000000000E+00  0.13407753534E+03  0.13407753534E+03  0.00000000000E+00 0.  1.
         -2   -1    0    0    0  501 -0.00000000000E+00 -0.00000000000E+00 -0.15724153604E+03  0.15724153604E+03  0.00000000000E+00 0. -1.
         25    2    1    2    0    0  0.63458818355E+02 -0.11477228215E+02  0.60210422816E+02  0.15307254233E+03  0.12508860781E+03 0.  0.
          5    1    3    3  502    0  0.53418241286E+02 -0.38307335753E+02  0.90003260566E+02  0.11153035366E+03  0.41800000000E+01 0. -1.
         -5    1    3    3    0  502  0.10040577069E+02  0.26830107538E+02 -0.29792837750E+02  0.41542188671E+02  0.41800000000E+01 0. -1.
        -11    1    1    2    0    0  0.17688326174E+02 -0.10788121732E+01 -0.43485538193E+02  0.46957776252E+02  0.00000000000E+00 0. -1.
         11    1    1    2    0    0 -0.81147144529E+02  0.12556040388E+02 -0.39888885327E+02  0.91288752802E+02  0.00000000000E+00 0.  1.
</event>
<event>
 7    1  0.2499014E-009  0.9383512E+02  0.7561462E-02  0.1293821E+00
          2   -1    0    0  501    0  0.00000000000E+00  0.00000000000E+00  0.11402361930E+03  0.11402361930E+03  0.00000000000E+00 0. -1.
         -2   -1    0    0    0  501 -0.00000000000E+00 -0.00000000000E+00 -0.12725281667E+03  0.12725281667E+03  0.00000000000E+00 0.  1.
         25    2    1    2    0    0 -0.51873235088E+02  0.20538626681E+01 -0.17514416970E+02  0.13656415887E+03  0.12509182154E+03 0.  0.
          5    1    3    3  502    0 -0.34417343162E+02 -0.30800365662E+02 -0.62634755383E+02  0.77934594482E+02  0.41800000000E+01 0. -1.
         -5    1    3    3    0  502 -0.17455891927E+02  0.32854228330E+02  0.45120338413E+02  0.58629564391E+02  0.41800000000E+01 0. -1.
        -11    1    1    2    0    0  0.64786579213E+02  0.28430616348E+02  0.88140677632E+01  0.71297184955E+02  0.00000000000E+00 0.  1.
         11    1    1    2    0    0 -0.12913344125E+02 -0.30484479016E+02 -0.45288481566E+01  0.33415092144E+02  0.00000000000E+00 0. -1.
</event>
<event>
 7    1  0.2499014E-009  0.1121572E+03  0.7561462E-02  0.1256627E+00
         -1   -1    0    0    0  501 -0.00000000000E+00  0.00000000000E+00  0.18539282465E+02  0.18539282465E+02  0.00000000000E+00 0.  1.
          1   -1    0    0  501    0  0.00000000000E+00 -0.00000000000E+00 -0.68191806600E+03  0.68191806600E+03  0.00000000000E+00 0. -1.
         25    2    1    2    0    0 -0.27186882961E+02  0.57182231392E+01 -0.37391892115E+03  0.39526729017E+03  0.12509614863E+03 0.  0.
          5    1    3    3  502    0  0.13786023638E+02  0.58943163140E+02 -0.18738504714E+03  0.19696441105E+03  0.41800000000E+01 0. -1.
         -5    1    3    3    0  502 -0.40972906598E+02 -0.53224940000E+02 -0.18653387401E+03  0.19830287912E+03  0.41800000000E+01 0. -1.
        -11    1    1    2    0    0  0.57952646877E+02 -0.21434814875E+02 -0.19827776238E+03  0.20768252604E+03  0.00000000000E+00 0.  1.
         11    1    1    2    0    0 -0.30765763916E+02  0.15716591735E+02 -0.91182100004E+02  0.97507532254E+02  0.00000000000E+00 0. -1.
</event>
<event>
 7    1  0.2499014E-009  0.1071872E+03  0.7561462E-02  0.1265869E+00
          2   -1    0    0  501    0  0.00000000000E+00  0.00000000000E+00  0.15521048065E+04  0.15521048065E+04  0.00000000000E+00 0. -1.
         -2   -1    0    0    0  501 -0.00000000000E+00 -0.00000000000E+00 -0.15672987231E+02  0.15672987231E+02  0.00000000000E+00 0.  1.
         25    2    1    2    0    0  0.36207797239E+02 -0.92825811964E+02  0.10753453955E+04  0.10871714609E+04  0.12508569031E+03 0.  0.
          5    1    3    3  502    0  0.50152753458E+02 -0.71230929757E+02  0.32876037383E+03  0.34013232695E+03  0.41800000000E+01 0. -1.
         -5    1    3    3    0  502 -0.13944956220E+02 -0.21594882208E+02  0.74658502165E+03  0.74703913397E+03  0.41800000000E+01 0. -1.
        -11    1    1    2    0    0 -0.10050631932E+02  0.96897411394E+01  0.29699541036E+01  0.14273293697E+02  0.00000000000E+00 0.  1.
         11    1    1    2    0    0 -0.26157165307E+02  0.83136070825E+02  0.45811646969E+03  0.46633303912E+03  0.00000000000E+00 0. -1.
</event>
<event>
 7    1  0.2499014E-009  0.1054645E+03  0.7561462E-02  0.1269207E+00
          2   -1    0    0  501    0  0.00000000000E+00  0.00000000000E+00  0.20496047545E+03  0.20496047545E+03  0.00000000000E+00 0. -1.
         -2   -1    0    0    0  501 -0.00000000000E+00 -0.00000000000E+00 -0.12437165439E+03  0.12437165439E+03  0.00000000000E+00 0.  1.
         25    2    1    2    0    0  0.52627192622E+02  0.50112189210E+02 -0.51412385798E+02  0.15352494510E+03  0.12508326204E+03 0.  0.
          5    1    3    3  502    0  0.27949989890E+02  0.61504887960E+02  0.25123091858E+02  0.72198998070E+02  0.41800000000E+01 0. -1.
         -5    1    3    3    0  502  0.24677202732E+02 -0.11392698750E+02 -0.76535477656E+02  0.81325947025E+02  0.41800000000E+01 0. -1.
        -11    1    1    2    0    0  0.53998951703E+01 -0.57047357999E+02  0.58273505569E+02  0.81727360008E+02  0.00000000000E+00 0. -1.
         11    1    1    2    0    0 -0.58027087792E+02  0.69351687892E+01  0.73727701293E+02  0.94079824732E+02  0.00000000000E+00 0.  1.
</event>
<event>
 7    1  0.2499014E-009  0.5144650E+02  0.7561462E-02  0.1437692E+00
          2   -1    0    0  501    0  0.00000000000E+00  0.00000000000E+00  0.30338797337E+03  0.30338797337E+03  0.00000000000E+00 0. -1.
         -2   -1    0    0    0  501 -0.00000000000E+00 -0.00000000000E+00 -0.44477527547E+02  0.44477527547E+02  0.00000000000E+00 0.  1.
         25    2    1    2    0    0 -0.14670642058E+02 -0.30401639765E+02  0.15340417662E+03  0.20079809758E+03  0.12509015608E+03 0.  0.
          5    1    3    3  502    0 -0.28716902353E+02 -0.28000702404E+02 -0.59421476474E+01  0.40761272485E+02  0.41800000000E+01 0.  1.
         -5    1    3    3    0  502  0.14046260295E+02 -0.24009373611E+01  0.15934632427E+03  0.16003682510E+03  0.41800000000E+01 0.  1.
        -11    1    1    2    0    0  0.25715850825E+02  0.20594907362E+02  0.12115148250E+03  0.12555133176E+03  0.00000000000E+00 0. -1.
         11    1    1    2    0    0 -0.11045208767E+02  0.98067324031E+01 -0.15645213300E+02  0.21516071582E+02  0.00000000000E+00 0.  1.
</event>
<event>
 7    1  0.2499014E-009  0.1248081E+03  0.7561462E-02  0.1235370E+00
          2   -1    0    0  501    0  0.00000000000E+00  0.00000000000E+00  0.56612632307E+02  0.56612632307E+02  0.00000000000E+00 0. -1.
         -2   -1    0    0    0  501 -0.00000000000E+00 -0.00000000000E+00 -0.41753445755E+03  0.41753445755E+03  0.00000000000E+00 0.  1.
         25    2    1    2    0    0  0.65048506432E+02  0.86609189065E+02 -0.19430808390E+03  0.25521823775E+03  0.12509299578E+03 0.  0.
          5    1    3    3  502    0  0.11694367007E+02  0.55674191350E+02 -0.18388650587E+03  0.19253075921E+03  0.41800000000E+01 0. -1.
         -5    1    3    3    0  502  0.53354139425E+02  0.30934997715E+02 -0.10421578032E+02  0.62687478543E+02  0.41800000000E+01 0. -1.
        -11    1    1    2    0    0  0.97250339382E+01 -0.43235429366E+02 -0.10135216048E+03  0.11061708309E+03  0.00000000000E+00 0.  1.
         11    1    1    2    0    0 -0.74773540370E+02 -0.43373759700E+02 -0.65261580866E+02  0.10831176901E+03  0.00000000000E+00 0. -1.
</event>
<event>
 7    1  0.2499014E-009  0.7720770E+02  0.7561462E-02  0.1337168E+00
         -2   -1    0    0    0  501 -0.00000000000E+00  0.00000000000E+00  0.27032557200E+02  0.27032557200E+02  0.00000000000E+00 0.  1.
          2   -1    0    0  501    0  0.00000000000E+00 -0.00000000000E+00 -0.84166524148E+03  0.84166524148E+03  0.00000000000E+00 0. -1.
         25    2    1    2    0    0 -0.21061397175E+01  0.24343235117E+02 -0.73822111633E+03  0.74914279431E+03  0.12508989068E+03 0.  0.
          5    1    3    3  502    0  0.39802976875E+02  0.29517359000E+01 -0.62729401508E+03  0.62857636248E+03  0.41800000000E+01 0. -1.
         -5    1    3    3    0  502 -0.41909116592E+02  0.21391499217E+02 -0.11092710125E+03  0.12056643183E+03  0.41800000000E+01 0. -1.
        -11    1    1    2    0    0  0.26458614391E+01  0.21268159830E+02 -0.70346618677E+02  0.73538982619E+02  0.00000000000E+00 0. -1.
         11    1    1    2    0    0 -0.53972172160E+00 -0.45611394947E+02 -0.60649492772E+01  0.46016021756E+02  0.00000000000E+00 0.  1.
</event>
<event>
 7    1  0.2499014E-009  0.2076533E+03  0.7561462E-02  0.1143438E+00
         -3   -1    0    0    0  501 -0.00000000000E+00  0.00000000000E+00  0.43296740579E+03  0.43296740579E+03  0.00000000000E+00 0.  1.
          3   -1    0    0  501    0  0.00000000000E+00 -0.00000000000E+00 -0.15676730720E+03  0.15676730720E+03  0.00000000000E+00 0. -1.
         25    2    1    2    0    0 -0.10889772046E+03  0.14375190845E+03  0.31642702117E+03  0.38509327239E+03  0.12508974384E+03 0.  0.
          5    1    3    3  502    0 -0.31774212286E+01  0.10574583895E+03  0.17345277949E+03  0.20321323179E+03  0.41800000000E+01 0. -1.
         -5    1    3    3    0  502 -0.10572029923E+03  0.38006069504E+02  0.14297424167E+03  0.18188004060E+03  0.41800000000E+01 0. -1.
        -11    1    1    2    0    0  0.31516789526E+02  0.24287226435E+01  0.75139053686E+01  0.32491006288E+02  0.00000000000E+00 0. -1.
         11    1    1    2    0    0  0.77380930933E+02 -0.14618063110E+03 -0.47740827940E+02  0.17215043431E+03  0.00000000000E+00 0.  1.
</event>
<event>
 7    1  0.2499014E-009  0.1752313E+03  0.7561462E-02  0.1172500E+00
          1   -1    0    0  501    0  0.00000000000E+00  0.00000000000E+00  0.12391233844E+04  0.12391233844E+04  0.00000000000E+00 0. -1.
         -1   -1    0    0    0  501 -0.00000000000E+00 -0.00000000000E+00 -0.31405979645E+02  0.31405979645E+02  0.00000000000E+00 0.  1.
         25    2    1    2    0    0  0.71018644137E+02 -0.13235978798E+03  0.84719509612E+03  0.86945226507E+03  0.12507977080E+03 0.  0.
          5    1    3    3  502    0  0.46427617334E+01  0.20983120706E+02  0.45176632220E+02  0.50202062605E+02  0.41800000000E+01 0. -1.
         -5    1    3    3    0  502  0.66375882403E+02 -0.15334290869E+03  0.80201846390E+03  0.81925020247E+03  0.41800000000E+01 0. -1.
        -11    1    1    2    0    0 -0.26408219110E+02  0.55338960864E+01  0.14176145132E+03  0.14430636550E+03  0.00000000000E+00 0. -1.
         11    1    1    2    0    0 -0.44610425026E+02  0.12682589189E+03  0.21876085732E+03  0.25677073348E+03  0.00000000000E+00 0.  1.
</event>
<event>
 7    1  0.2499014E-009  0.1888631E+03  0.7561462E-02  0.1159491E+00
          2   -1    0    0  501    0  0.00000000000E+00  0.00000000000E+00  0.11664147038E+04  0.11664147038E+04  0.00000000000E+00 0. -1.
         -2   -1    0    0    0  501 -0.00000000000E+00 -0.00000000000E+00 -0.38948964532E+02  0.38948964532E+02  0.00000000000E+00 0.  1.
         25    2    1    2    0    0 -0.47098424445E+02 -0.17606327216E+03  0.53933471003E+03  0.58287732023E+03  0.12508998205E+03 0.  0.
          5    1    3    3  502    0  0.10478170521E+02 -0.66595051843E+02  0.35154924507E+03  0.35797910148E+03  0.41800000000E+01 0. -1.
         -5    1    3    3    0  502 -0.57576594967E+02 -0.10946822032E+03  0.18778546495E+03  0.22489821875E+03  0.41800000000E+01 0. -1.
        -11    1    1    2    0    0 -0.27952087259E+01  0.60336702515E+02  0.88089977953E+02  0.10680905897E+03  0.00000000000E+00 0.  1.
         11    1    1    2    0    0  0.49893633171E+02  0.11572656965E+03  0.50004105131E+03  0.51567728915E+03  0.00000000000E+00 0. -1.
</event>
<event>
 7    1  0.2499014E-009  0.1363291E+03  0.7561462E-02  0.1218356E+00
         -1   -1    0    0    0  501 -0.00000000000E+00  0.00000000000E+00  0.30068342353E+02  0.30068342353E+02  0.00000000000E+00 0.  1.
          1   -1    0    0  501    0  0.00000000000E+00 -0.00000000000E+00 -0.90436427268E+03  0.90436427268E+03  0.00000000000E+00 0. -1.
         25    2    1    2    0    0 -0.11068850135E+03  0.49160960149E+02 -0.39049861826E+03  0.42755602971E+03  0.12508494452E+03 0.  0.
          5    1    3    3  502    0  0.15912955143E+02  0.41511043668E+01 -0.27808096188E+01  0.17194740794E+02  0.41800000000E+01 0. -1.
         -5    1    3    3    0  502 -0.12660145649E+03  0.45009855782E+02 -0.38771780864E+03  0.41036128892E+03  0.41800000000E+01 0. -1.
        -11    1    1    2    0    0  0.78348202385E+02 -0.37724518423E+02 -0.45137895097E+03  0.45967873290E+03  0.00000000000E+00 0. -1.
         11    1    1    2    0    0  0.32340298966E+02 -0.11436441726E+02 -0.32418361099E+02  0.47197852418E+02  0.00000000000E+00 0.  1.
</event>
<event>
 7    1  0.2499014E-009  0.1109150E+03  0.7561462E-02  0.1258885E+00
         -2   -1    0    0    0  501 -0.00000000000E+00  0.00000000000E+00  0.67021228937E+02  0.67021228937E+02  0.00000000000E+00 0. -1.
          2   -1    0    0  501    0  0.00000000000E+00 -0.00000000000E+00 -0.22082028008E+03  0.22082028008E+03  0.00000000000E+00 0.  1.
         25    2    1    2    0    0 -0.49167553177E+02 -0.17598803804E+01 -0.98126401149E+02  0.16642278452E+03  0.12508879702E+03 0.  0.
          5    1    3    3  502    0 -0.60238442987E+02 -0.41696114619E+02 -0.10080397799E+03  0.12468420255E+03  0.41800000000E+01 0. -1.
         -5    1    3    3    0  502  0.11070889811E+02  0.39936234238E+02  0.26775768421E+01  0.41738581961E+02  0.41800000000E+01 0. -1.
        -11    1    1    2    0    0  0.24824014950E+02  0.48282401263E+02 -0.19622302221E+02  0.57727434850E+02  0.00000000000E+00 0.  1.
         11    1    1    2    0    0  0.24343538227E+02 -0.46522520882E+02 -0.36050347770E+02  0.63691289647E+02  0.00000000000E+00 0. -1.
</event>
<event>
 7    1  0.2499014E-009  0.8484463E+02  0.7561462E-02  0.1315839E+00
          2   -1    0    0  501    0  0.00000000000E+00  0.00000000000E+00  0.50287761218E+02  0.50287761218E+02  0.00000000000E+00 0. -1.
         -2   -1    0    0    0  501 -0.00000000000E+00 -0.00000000000E+00 -0.25113747213E+03  0.25113747213E+03  0.00000000000E+00 0.  1.
         25    2    1    2    0    0 -0.96212659912E+01 -0.13561495101E+02 -0.95854404701E+02  0.15847844806E+03  0.12510343197E+03 0.  0.
          5    1    3    3  502    0  0.22124861828E+02  0.21570605166E+02 -0.10546843748E+03  0.10998119941E+03  0.41800000000E+01 0. -1.
         -5    1    3    3    0  502 -0.31746127819E+02 -0.35132100267E+02  0.96140327813E+01  0.48497248654E+02  0.41800000000E+01 0. -1.
        -11    1    1    2    0    0 -0.81681523635E+01  0.49873404606E+02 -0.82298296005E+02  0.96576833274E+02  0.00000000000E+00 0.  1.
         11    1    1    2    0    0  0.17789418355E+02 -0.36311909504E+02 -0.22697010204E+02  0.46369952010E+02  0.00000000000E+00 0. -1.
</event>
<event>
 7    1  0.2499014E-009  0.2334274E+03  0.7561462E-02  0.1124250E+00
         -2   -1    0    0    0  501 -0.00000000000E+00  0.00000000000E+00  0.59868967987E+02  0.59868967987E+02  0.00000000000E+00 0.  1.
          2   -1    0    0  501    0  0.00000000000E+00 -0.00000000000E+00 -0.10272946565E+04  0.10272946565E+04  0.00000000000E+00 0. -1.
         25    2    1    2    0    0 -0.20916191848E+03 -0.75990057062E+02 -0.47434301536E+03  0.53867608513E+03  0.12508969401E+03 0.  0.
          5    1    3    3  502    0 -0.18975336647E+03 -0.53428466676E+02 -0.28257772343E+03  0.34457014281E+03  0.41800000000E+01 0.  1.
         -5    1    3    3    0  502 -0.19408552013E+02 -0.22561590386E+02 -0.19176529194E+03  0.19410594232E+03  0.41800000000E+01 0.  1.
        -11    1    1    2    0    0  0.61564354622E+02 -0.18607908560E+02 -0.15008129817E+03  0.16328141376E+03  0.00000000000E+00 0. -1.
         11    1    1    2    0    0  0.14759756386E+03  0.94597965622E+02 -0.34300137498E+03  0.38520612560E+03  0.00000000000E+00 0.  1.
</event>
<event>
 7    1  0.2499014E-009  0.1386733E+03  0.7561462E-02  0.1215125E+00
         -2   -1    0    0    0  501 -0.00000000000E+00  0.00000000000E+00  0.36098088024E+02  0.36098088024E+02  0.00000000000E+00 0.  1.
          2   -1    0    0  501    0  0.00000000000E+00 -0.00000000000E+00 -0.72765194176E+03  0.72765194176E+03  0.00000000000E+00 0. -1.
         25    2    1    2    0    0 -0.19471556948E+02 -0.83112165563E+02 -0.17295590830E+03  0.22988429241E+03  0.12508504342E+03 0.  0.
          5    1    3    3  502    0 -0.57835125555E+02 -0.94037615524E+02 -0.13721198420E+03  0.17616065364E+03  0.41800000000E+01 0. -1.
         -5    1    3    3    0  502  0.38363568607E+02  0.10925449961E+02 -0.35743924101E+02  0.53723638775E+02  0.41800000000E+01 0. -1.
        -11    1    1    2    0    0  0.73038000412E+01  0.10310129288E+03 -0.42396258672E+03  0.43637999155E+03  0.00000000000E+00 0. -1.
         11    1    1    2    0    0  0.12167756907E+02 -0.19989127317E+02 -0.94635358718E+02  0.97485745823E+02  0.00000000000E+00 0.  1.
</event>
<event>
 7    1  0.2499014E-009  0.1056448E+03  0.7561462E-02  0.1268854E+00
          2   -1    0    0  501    0  0.00000000000E+00  0.00000000000E+00  0.52956843368E+02  0.52956843368E+02  0.00000000000E+00 0.  1.
         -2   -1    0    0    0  501 -0.00000000000E+00 -0.00000000000E+00 -0.30197123754E+03  0.30197123754E+03  0.00000000000E+00 0. -1.
         25    2    1    2    0    0  0.41684150317E+02 -0.49430133751E+02 -0.13999443283E+03  0.19856347547E+03  0.12509239008E+03 0.  0.
          5    1    3    3  502    0  0.85564268405E+02 -0.21197578910E+02 -0.93186417025E+02  0.12834236283E+03  0.41800000000E+01 0. -1.
         -5    1    3    3    0  502 -0.43880118088E+02 -0.28232554841E+02 -0.46808015803E+02  0.70221112635E+02  0.41800000000E+01 0. -1.
        -11    1    1    2    0    0 -0.66783706418E+01  0.29843747283E+02  0.88659070015E+01  0.31841077138E+02  0.00000000000E+00 0.  1.
         11    1    1    2    0    0 -0.35005779675E+02  0.19586386468E+02 -0.11788586835E+03  0.12452352831E+03  0.00000000000E+00 0. -1.
</event>
<event>
 7    1  0.2499014E-009  0.2344655E+03  0.7561462E-02  0.1123536E+00
          1   -1    0    0  501    0  0.00000000000E+00  0.00000000000E+00  0.66045984193E+03  0.66045984193E+03  0.00000000000E+00 0. -1.
         -1   -1    0    0    0  501 -0.00000000000E+00 -0.00000000000E+00 -0.99126406361E+02  0.99126406361E+02  0.00000000000E+00 0.  1.
         25    2    1    2    0    0 -0.18058930586E+03 -0.13233876402E+03  0.37189651240E+03  0.45175398270E+03  0.12509436078E+03 0.  0.
          5    1    3    3  502    0 -0.36349753603E+02 -0.47667168931E+01  0.48155914684E+01  0.37211402797E+02  0.41800000000E+01 0. -1.
         -5    1    3    3    0  502 -0.14423955225E+03 -0.12757204713E+03  0.36708092093E+03  0.41454257991E+03  0.41800000000E+01 0. -1.
        -11    1    1    2    0    0 -0.74780749943E+01  0.17596003535E+02  0.32638820887E+01  0.19395717886E+02  0.00000000000E+00 0.  1.
         11    1    1    2    0    0  0.18806738085E+03  0.11474276049E+03  0.18617304108E+03  0.28843654770E+03  0.00000000000E+00 0. -1.
</event>
<event>
 7    1  0.2499014E-009  0.1970112E+03  0.7561462E-02  0.1152285E+00
         -1   -1    0    0    0  501 -0.00000000000E+00  0.00000000000E+00  0.12116140176E+03  0.12116140176E+03  0.00000000000E+00 0.  1.
          1   -1    0    0  501    0  0.00000000000E+00 -0.00000000000E+00 -0.34888613146E+03  0.34888613146E+03  0.00000000000E+00 0. -1.
         25    2    1    2    0    0 -0.49794260422E+02 -0.15780986247E+03 -0.18248200014E+03  0.27628188411E+03  0.12509427663E+03 0.  0.
          5    1    3    3  502    0 -0.91603909558E+02 -0.10160652756E+03 -0.12864560245E+03  0.18783590210E+03  0.41800000000E+01 0.  1.
         -5    1    3    3    0  502  0.41809649136E+02 -0.56203334916E+02 -0.53836397693E+02  0.88445982006E+02  0.41800000000E+01 0.  1.
        -11    1    1    2    0    0  0.48362827193E+02  0.16895716033E+03 -0.36418226394E+02  0.17947638367E+03  0.00000000000E+00 0.  1.
         11    1    1    2    0    0  0.14314332289E+01 -0.11147297860E+02 -0.88245031685E+01  0.14289265440E+02  0.00000000000E+00 0. -1.
</event>
<event>
 7    1  0.2499014E-009  0.2491935E+03  0.7561462E-02  0.1113816E+00
         -1   -1    0    0    0  501 -0.00000000000E+00  0.00000000000E+00  0.24571736822E+03  0.24571736822E+03  0.00000000000E+00 0.  1.
          1   -1    0    0  501    0  0.00000000000E+00 -0.00000000000E+00 -0.26903208863E+03  0.26903208863E+03  0.00000000000E+00 0. -1.
         25    2    1    2    0    0  0.37043828940E+02  0.22945010550E+03 -0.98684690040E+01  0.26412743647E+03  0.12508525029E+03 0.  0.
          5    1    3    3  502    0 -0.42241073955E+02  0.12926100669E+03 -0.78378081760E+01  0.13627773044E+03  0.41800000000E+01 0.  1.
         -5    1    3    3    0  502  0.79284902894E+02  0.10018909881E+03 -0.20306608279E+01  0.12784970603E+03  0.41800000000E+01 0.  1.
        -11    1    1    2    0    0 -0.38864690216E+02 -0.14760122821E+03  0.33475357940E+02  0.15625999585E+03  0.00000000000E+00 0.  1.
         11    1    1    2    0    0  0.18208612765E+01 -0.81848877287E+02 -0.46921609349E+02  0.94362024527E+02  0.00000000000E+00 0. -1.
</event>
<event>
 7    1  0.2499014E-009  0.7570099E+02  0.7561462E-02  0.1341714E+00
         -1   -1    0    0    0  501 -0.00000000000E+00  0.00000000000E+00  0.14223772846E+02  0.14223772846E+02  0.00000000000E+00 0.  1.
          1   -1    0    0  501    0  0.00000000000E+00 -0.00000000000E+00 -0.92530096791E+03  0.92530096791E+03  0.00000000000E+00 0. -1.
         25    2    1    2    0    0 -0.26783893952E+02 -0.26208641558E+02 -0.55168369036E+03  0.56692750209E+03  0.12509048144E+03 0.  0.
          5    1    3    3  502    0 -0.22007805557E+02  0.16152234362E+02 -0.49554468735E+03  0.49631365863E+03  0.41800000000E+01 0. -1.
         -5    1    3    3    0  502 -0.47760883952E+01 -0.42360875920E+02 -0.56139003011E+02  0.70613843460E+02  0.41800000000E+01 0. -1.
        -11    1    1    2    0    0 -0.62630348257E+01 -0.21792173884E+02 -0.27575633173E+02  0.35700700171E+02  0.00000000000E+00 0.  1.
         11    1    1    2    0    0  0.33046928778E+02  0.48000815442E+02 -0.33181787153E+03  0.33689653850E+03  0.00000000000E+00 0. -1.
</event>
<event>
 7    1  0.2684117E-009  0.1777289E+03  0.7561462E-02  0.1170019E+00
          1   -1    0    0  501    0  0.00000000000E+00  0.00000000000E+00  0.79514850046E+03  0.79514850046E+03  0.00000000000E+00 0. -1.
         -1   -1    0    0    0  501 -0.00000000000E+00 -0.00000000000E+00 -0.50443377046E+02  0.50443377046E+02  0.00000000000E+00 0.  1.
         25    2    1    2    0    0 -0.92026094525E+02 -0.13911381930E+03  0.42937433380E+03  0.47731752692E+03  0.12509295020E+03 0.  0.
          5    1    3    3  502    0 -0.35935466330E+02  0.81521063538E+00  0.19699153332E+03  0.20028769036E+03  0.41800000000E+01 0.  1.
         -5    1    3    3    0  502 -0.56090628194E+02 -0.13992902993E+03  0.23238280048E+03  0.27702983656E+03  0.41800000000E+01 0.  1.
        -11    1    1    2    0    0  0.41278741703E+02  0.83670950212E+02  0.85808915241E+02  0.12675934822E+03  0.00000000000E+00 0. -1.
         11    1    1    2    0    0  0.50747352822E+02  0.55442869087E+02  0.22952187438E+03  0.24151500237E+03  0.00000000000E+00 0.  1.
</event>
<event>
 7    1  0.2499014E-009  0.1801699E+03  0.7561462E-02  0.1167639E+00
         -1   -1    0    0    0  501 -0.00000000000E+00  0.00000000000E+00  0.24791491623E+02  0.24791491623E+02  0.00000000000E+00 0.  1.
          1   -1    0    0  501    0  0.00000000000E+00 -0.00000000000E+00 -0.14724281319E+04  0.14724281319E+04  0.00000000000E+00 0. -1.
         25    2    1    2    0    0  0.60293529376E+02  0.13442391357E+03 -0.97289499851E+03  0.99190632290E+03  0.12509347333E+03 0.  0.
          5    1    3    3  502    0 -0.38352393724E+01  0.12236875191E+03 -0.73725531025E+03  0.74736315496E+03  0.41800000000E+01 0.  1.
         -5    1    3    3    0  502  0.64128768749E+02  0.12055161666E+02 -0.23563968826E+03  0.24454316794E+03  0.41800000000E+01 0.  1.
        -11    1    1    2    0    0 -0.79948069944E+02 -0.74092646091E+02 -0.27864351599E+03  0.29920498507E+03  0.00000000000E+00 0. -1.
         11    1    1    2    0    0  0.19654540567E+02 -0.60331267482E+02 -0.19609812576E+03  0.20610831552E+03  0.00000000000E+00 0.  1.
</event>
<event>
 7    1  0.2823988E-009  0.1436720E+03  0.7561462E-02  0.1208472E+00
          2   -1    0    0  501    0  0.00000000000E+00  0.00000000000E+00  0.10605675009E+04  0.10605675009E+04  0.00000000000E+00 0. -1.
         -2   -1    0    0    0  501 -0.00000000000E+00 -0.00000000000E+00 -0.21680506434E+02  0.21680506434E+02  0.00000000000E+00 0.  1.
         25    2    1    2    0    0 -0.96471031245E+02  0.41151590777E+02  0.57377306203E+03  0.59654255694E+03  0.12508949691E+03 0.  0.
          5    1    3    3  502    0 -0.16564112269E+02  0.69132391133E+02  0.35178964623E+03  0.35892490150E+03  0.41800000000E+01 0. -1.
         -5    1    3    3    0  502 -0.79906918975E+02 -0.27980800356E+02  0.22198341580E+03  0.23761765544E+03  0.41800000000E+01 0. -1.
        -11    1    1    2    0    0  0.81651939087E+02  0.60653779724E+01  0.20173101616E+03  0.21771364415E+03  0.00000000000E+00 0.  1.
         11    1    1    2    0    0  0.14819092158E+02 -0.47216968750E+02  0.26338291629E+03  0.26799180627E+03  0.00000000000E+00 0. -1.
</event>
<event>
 7    1  0.2499014E-009  0.1897285E+03  0.7561462E-02  0.1158706E+00
         -1   -1    0    0    0  501 -0.00000000000E+00  0.00000000000E+00  0.13752955828E+03  0.13752955828E+03  0.00000000000E+00 0.  1.
          1   -1    0    0  501    0  0.00000000000E+00 -0.00000000000E+00 -0.40595492826E+03  0.40595492826E+03  0.00000000000E+00 0. -1.
         25    2    1    2    0    0  0.82980766732E+02  0.13423064833E+03 -0.29511346056E+03  0.35727132104E+03  0.12508863912E+03 0.  0.
          5    1    3    3  502    0  0.99909134180E+02  0.50881768136E+02 -0.20217889150E+03  0.23122406014E+03  0.41800000000E+01 0.  1.
         -5    1    3    3    0  502 -0.16928367448E+02  0.83348880190E+02 -0.92934569060E+02  0.12604726090E+03  0.41800000000E+01 0.  1.
        -11    1    1    2    0    0 -0.86824880144E+02 -0.54992891501E+02  0.84459451290E+00  0.10277884640E+03  0.00000000000E+00 0.  1.
         11    1    1    2    0    0  0.38441134123E+01 -0.79237756824E+02  0.25843496063E+02  0.83434319097E+02  0.00000000000E+00 0. -1.
</event>
<event>
 7    1  0.2499014E-009  0.1555531E+03  0.7561462E-02  0.1193811E+00
         -1   -1    0    0    0  501 -0.00000000000E+00  0.00000000000E+00  0.90770161837E+03  0.90770161837E+03  0.00000000000E+00 0.  1.
          1   -1    0    0  501    0  0.00000000000E+00 -0.00000000000E+00 -0.28845276443E+02  0.28845276443E+02  0.00000000000E+00 0. -1.
         25    2    1    2    0    0  0.76238186654E+02 -0.92291690100E+02  0.44857432625E+03  0.48082893182E+03  0.12509004091E+03 0.  0.
          5    1    3    3  502    0 -0.13538850869E+02 -0.70233628946E+02  0.27435957654E+03  0.28356077436E+03  0.41800000000E+01 0.  1.
         -5    1    3    3    0  502  0.89777037523E+02 -0.22058061153E+02  0.17421474971E+03  0.19726815746E+03  0.41800000000E+01 0.  1.
        -11    1    1    2    0    0 -0.77966620719E+02  0.28365452649E+02  0.28826691331E+03  0.29996867530E+03  0.00000000000E+00 0.  1.
         11    1    1    2    0    0  0.17284340649E+01  0.63926237451E+02  0.14201510237E+03  0.15574928770E+03  0.00000000000E+00 0. -1.
</event>
<event>
 7    1  0.2499014E-009  0.1113688E+03  0.7561462E-02  0.1258056E+00
          1   -1    0    0  501    0  0.00000000000E+00  0.00000000000E+00  0.31221439890E+03  0.31221439890E+03  0.00000000000E+00 0. -1.
         -1   -1    0    0    0  501 -0.00000000000E+00 -0.00000000000E+00 -0.50924833388E+02  0.50924833388E+02  0.00000000000E+00 0.  1.
         25    2    1    2    0    0 -0.61632940029E+02  0.16515075665E+02  0.16692974912E+03  0.21813820953E+03  0.12508944917E+03 0.  0.
          5    1    3    3  502    0 -0.56357761069E+01 -0.49720780369E+02  0.39275066442E+02  0.63748891887E+02  0.41800000000E+01 0.  1.
         -5    1    3    3    0  502 -0.55997163923E+02  0.66235856034E+02  0.12765468268E+03  0.15438931764E+03  0.41800000000E+01 0.  1.
        -11    1    1    2    0    0  0.58112402132E+02  0.99781518368E+01  0.14403999095E+02  0.60696704898E+02  0.00000000000E+00 0.  1.
         11    1    1    2    0    0  0.35205378978E+01 -0.26493227502E+02  0.79955817296E+02  0.84304317861E+02  0.00000000000E+00 0. -1.
</event>
<event>
 7    1  0.2499014E-009  0.8800527E+02  0.7561462E-02  0.1307755E+00
          1   -1    0    0  501    0  0.00000000000E+00  0.00000000000E+00  0.68178708818E+02  0.68178708818E+02  0.00000000000E+00 0. -1.
         -1   -1    0    0    0  501 -0.00000000000E+00 -0.00000000000E+00 -0.27168412681E+03  0.27168412681E+03  0.00000000000E+00 0.  1.
         25    2    1    2    0    0  0.48937643140E+01 -0.79918447358E+02 -0.13538608305E+03  0.20097164566E+03  0.12509717709E+03 0.  0.
          5    1    3    3  502    0  0.90099738984E+01 -0.36314056263E+02  0.17763024141E+02  0.41627968225E+02  0.41800000000E+01 0. -1.
         -5    1    3    3    0  502 -0.41162095844E+01 -0.43604391095E+02 -0.15314910719E+03  0.15934367743E+03  0.41800000000E+01 0. -1.
        -11    1    1    2    0    0  0.22611341761E+02  0.33734037116E+02 -0.74409091897E+02  0.84770106720E+02  0.00000000000E+00 0.  1.
         11    1    1    2    0    0 -0.27505106075E+02  0.46184410242E+02  0.62897569555E+01  0.54121083250E+02  0.00000000000E+00 0. -1.
</event>
<event>
 7    1  0.2499014E-009  0.1072145E+03  0.7561462E-02  0.1265817E+00
         -1   -1    0    0    0  501 -0.00000000000E+00  0.00000000000E+00  0.17007217610E+02  0.17007217610E+02  0.00000000000E+00 0.  1.
          1   -1    0    0  501    0  0.00000000000E+00 -0.00000000000E+00 -0.11562685467E+04  0.11562685467E+04  0.00000000000E+00 0. -1.
         25    2    1    2    0    0  0.27527058977E+02 -0.53904351461E+01 -0.97822820395E+03  0.98659268513E+03  0.12509161271E+03 0.  0.
          5    1    3    3  502    0  0.19884253637E+02 -0.63489458588E+02 -0.41652728861E+03  0.42182786709E+03  0.41800000000E+01 0. -1.
         -5    1    3    3    0  502  0.76428053403E+01  0.58099023442E+02 -0.56170091534E+03  0.56476481804E+03  0.41800000000E+01 0. -1.
        -11    1    1    2    0    0  0.30624305605E+02  0.66053936052E-01 -0.87990851609E+02  0.93167818605E+02  0.00000000000E+00 0. -1.
         11    1    1    2    0    0 -0.58151364582E+02  0.53243812100E+01 -0.73042273510E+02  0.93515260559E+02  0.00000000000E+00 0.  1.
</event>
<event>
 7    1  0.2499014E-009  0.8863972E+02  0.7561462E-02  0.1306180E+00
         -1   -1    0    0    0  501 -0.00000000000E+00  0.00000000000E+00  0.35526983694E+02  0.35526983694E+02  0.00000000000E+00 0.  1.
          1   -1    0    0  501    0  0.00000000000E+00 -0.00000000000E+00 -0.67920697767E+03  0.67920697767E+03  0.00000000000E+00 0. -1.
         25    2    1    2    0    0  0.52735267289E+02  0.16200053803E+02 -0.57146947488E+03  0.58759463874E+03  0.12508656442E+03 0.  0.
          5    1    3    3  502    0  0.31316011700E+02 -0.15612019579E+02 -0.34755222723E+02  0.49495713457E+02  0.41800000000E+01 0.  1.
         -5    1    3    3    0  502  0.21419255589E+02  0.31812073382E+02 -0.53671425216E+03  0.53809892529E+03  0.41800000000E+01 0.  1.
        -11    1    1    2    0    0  0.19497033763E+02  0.15177061381E+02 -0.95108943990E+01  0.26475170066E+02  0.00000000000E+00 0.  1.
         11    1    1    2    0    0 -0.72232301052E+02 -0.31377115185E+02 -0.62699624690E+02  0.10066415255E+03  0.00000000000E+00 0. -1.
</event>
<event>
 7    1  0.2499014E-009  0.1125104E+03  0.7561462E-02  0.1255990E+00
         -2   -1    0    0    0  501 -0.00000000000E+00  0.00000000000E+00  0.18184383203E+02  0.18184383203E+02  0.00000000000E+00 0.  1.
          2   -1    0    0  501    0  0.00000000000E+00 -0.00000000000E+00 -0.15239741243E+04  0.15239741243E+04  0.00000000000E+00 0. -1.
         25    2    1    2    0    0 -0.37375625693E+02 -0.14931153139E+02 -0.13586061439E+04  0.13649462289E+04  0.12509067432E+03 0.  0.
          5    1    3    3  502    0  0.32204560949E+02  0.29346513354E+02 -0.30726485684E+03  0.31036674474E+03  0.41800000000E+01 0. -1.
         -5    1    3    3    0  502 -0.69580186642E+02 -0.44277666493E+02 -0.10513412870E+04  0.10545794841E+04  0.41800000000E+01 0. -1.
        -11    1    1    2    0    0 -0.13602582600E+02 -0.28577881442E+02 -0.49137427001E+02  0.58448372889E+02  0.00000000000E+00 0. -1.
         11    1    1    2    0    0  0.50978208293E+02  0.43509034581E+02 -0.98046170182E+02  0.11876390570E+03  0.00000000000E+00 0.  1.
</event>
<event>
 7    1  0.2499014E-009  0.7676531E+02  0.7561462E-02  0.1338490E+00
          1   -1    0    0  501    0  0.00000000000E+00  0.00000000000E+00  0.39205192833E+02  0.39205192833E+02  0.00000000000E+00 0. -1.
         -1   -1    0    0    0  501 -0.00000000000E+00 -0.00000000000E+00 -0.35696386912E+03  0.35696386912E+03  0.00000000000E+00 0.  1.
         25    2    1    2    0    0 -0.16853215363E+02 -0.19791000348E+02 -0.24811215582E+03  0.27907496754E+03  0.12508989200E+03 0.  0.
          5    1    3    3  502    0 -0.35827925663E+02  0.15104166555E+01 -0.76673697472E+01  0.36907757649E+02  0.41800000000E+01 0. -1.
         -5    1    3    3    0  502  0.18974710300E+02 -0.21301417003E+02 -0.24044478607E+03  0.24216720989E+03  0.41800000000E+01 0. -1.
        -11    1    1    2    0    0  0.27807290948E+02 -0.28061839899E+02 -0.51160325350E+02  0.64638155746E+02  0.00000000000E+00 0.  1.
         11    1    1    2    0    0 -0.10954075584E+02  0.47852840246E+02 -0.18486195119E+02  0.52455938668E+02  0.00000000000E+00 0. -1.
</event>
<event>
 7    1  0.2499014E-009  0.9474598E+02  0.7561462E-02  0.1291749E+00
          1   -1    0    0  501    0  0.00000000000E+00  0.00000000000E+00  0.44943996251E+03  0.44943996251E+03  0.00000000000E+00 0. -1.
         -1   -1    0    0    0  501 -0.00000000000E+00 -0.00000000000E+00 -0.35382806587E+02  0.35382806587E+02  0.00000000000E+00 0.  1.
         25    2    1    2    0    0  0.42952716993E+02 -0.16835987583E+02  0.31945915977E+03  0.34616530465E+03  0.12509147457E+03 0.  0.
          5    1    3    3  502    0 -0.86922599160E+01 -0.33623457472E+02  0.27104448248E+03  0.27329229070E+03  0.41800000000E+01 0. -1.
         -5    1    3    3    0  502  0.51644976909E+02  0.16787469889E+02  0.48414677295E+02  0.72873013955E+02  0.41800000000E+01 0. -1.
        -11    1    1    2    0    0  0.25364065333E+02  0.19007312084E+02  0.19988121807E+02  0.37471839243E+02  0.00000000000E+00 0.  1.
         11    1    1    2    0    0 -0.68316782326E+02 -0.21713245016E+01  0.74609874346E+02  0.10118562520E+03  0.00000000000E+00 0. -1.
</event>
<event>
 7    1  0.2499014E-009  0.1267283E+03  0.7561462E-02  0.1232393E+00
          2   -1    0    0  501    0  0.00000000000E+00  0.00000000000E+00  0.97322466956E+03  0.97322466956E+03  0.00000000000E+00 0. -1.
         -2   -1    0    0    0  501 -0.00000000000E+00 -0.00000000000E+00 -0.20707904389E+02  0.20707904389E+02  0.00000000000E+00 0.  1.
         25    2    1    2    0    0 -0.54459146036E+02  0.65896847311E+02  0.70028093194E+03  0.71648403103E+03  0.12509112681E+03 0.  0.
          5    1    3    3  502    0  0.25603611312E+02  0.57586052729E+02  0.42425874823E+03  0.42893432625E+03  0.41800000000E+01 0.  1.
         -5    1    3    3    0  502 -0.80062757348E+02  0.83107945827E+01  0.27602218371E+03  0.28754970478E+03  0.41800000000E+01 0.  1.
        -11    1    1    2    0    0 -0.90092004655E+01  0.81650678166E+01  0.82615651028E+01  0.14699914402E+02  0.00000000000E+00 0.  1.
         11    1    1    2    0    0  0.63468346502E+02 -0.74061915128E+02  0.24397426813E+03  0.26274862852E+03  0.00000000000E+00 0. -1.
</event>
<event>
 7    1  0.2499014E-009  0.1711463E+03  0.7561462E-02  0.1176658E+00
         -1   -1    0    0    0  501 -0.00000000000E+00  0.00000000000E+00  0.26029777170E+03  0.26029777170E+03  0.00000000000E+00 0.  1.
          1   -1    0    0  501    0  0.00000000000E+00 -0.00000000000E+00 -0.16335630126E+03  0.16335630126E+03  0.00000000000E+00 0. -1.
         25    2    1    2    0    0 -0.11519094455E+03 -0.11307334586E+03 -0.18579091252E+02  0.20505528408E+03  0.12509177290E+03 0.  0.
          5    1    3    3  502    0 -0.40515321334E+02 -0.79138372222E+02  0.46358201817E+02  0.10035401585E+03  0.41800000000E+01 0. -1.
         -5    1    3    3    0  502 -0.74675623217E+02 -0.33934973638E+02 -0.64937293069E+02  0.10470126823E+03  0.41800000000E+01 0. -1.
        -11    1    1    2    0    0  0.73826602289E+01  0.40570004387E+02 -0.48084584638E+01  0.41515662115E+02  0.00000000000E+00 0. -1.
         11    1    1    2    0    0  0.10780828432E+03  0.72503341472E+02  0.12032902016E+03  0.17708312676E+03  0.00000000000E+00 0.  1.
</event>
<event>
 7    1  0.2499014E-009  0.1350906E+03  0.7561462E-02  0.1220092E+00
          2   -1    0    0  501    0  0.00000000000E+00  0.00000000000E+00  0.45045829092E+03  0.45045829092E+03  0.00000000000E+00 0. -1.
         -2   -1    0    0    0  501 -0.00000000000E+00 -0.00000000000E+00 -0.52927772423E+02  0.52927772423E+02  0.00000000000E+00 0.  1.
         25    2    1    2    0    0 -0.92190031923E+01  0.89629288845E+02  0.31561429262E+03  0.35125281644E+03  0.12509100652E+03 0.  0.
          5    1    3    3  502    0 -0.56040424553E+02  0.39699339530E+01  0.12206678024E+03  0.13443980362E+03  0.41800000000E+01 0.  1.
         -5    1    3    3    0  502  0.46821421361E+02  0.85659354892E+02  0.19354751238E+03  0.21681301282E+03  0.41800000000E+01 0.  1.
        -11    1    1    2    0    0 -0.78390828045E+01  0.11311942359E+02  0.38588668415E+02  0.40969459225E+02  0.00000000000E+00 0. -1.
         11    1    1    2    0    0  0.17058085997E+02 -0.10094123120E+03  0.43327557461E+02  0.11116378768E+03  0.00000000000E+00 0.  1.
</event>
<event>
 7    1  0.2499014E-009  0.1078836E+03  0.7561462E-02  0.1264540E+00
         -1   -1    0    0    0  501 -0.00000000000E+00  0.00000000000E+00  0.16541008094E+02  0.16541008094E+02  0.00000000000E+00 0.  1.
          1   -1    0    0  501    0  0.00000000000E+00 -0.00000000000E+00 -0.77681680908E+03  0.77681680908E+03  0.00000000000E+00 0. -1.
         25    2    1    2    0    0 -0.10319681237E+02  0.54242834889E+01 -0.32223417687E+03  0.34585903375E+03  0.12509071832E+03 0.  0.
          5    1    3    3  502    0 -0.50134891873E+00  0.64640490742E+02 -0.14896726200E+03  0.16244187250E+03  0.41800000000E+01 0. -1.
         -5    1    3    3    0  502 -0.98183323181E+01 -0.59216207253E+02 -0.17326691487E+03  0.18341716124E+03  0.41800000000E+01 0. -1.
        -11    1    1    2    0    0  0.52260383170E+01 -0.47827301399E+02 -0.25930300921E+03  0.26372867273E+03  0.00000000000E+00 0. -1.
         11    1    1    2    0    0  0.50936429199E+01  0.42403017911E+02 -0.17873861490E+03  0.18377011069E+03  0.00000000000E+00 0.  1.
</event>
<event>
 7    1  0.2499014E-009  0.1548011E+03  0.7561462E-02  0.1194695E+00
         -2   -1    0    0    0  501 -0.00000000000E+00  0.00000000000E+00  0.10399457645E+03  0.10399457645E+03  0.00000000000E+00 0.  1.
          2   -1    0    0  501    0  0.00000000000E+00 -0.00000000000E+00 -0.24053228786E+03  0.24053228786E+03  0.00000000000E+00 0. -1.
         25    2    1    2    0    0  0.74464725315E+02 -0.87855949795E+02 -0.68408579972E+02  0.18327433108E+03  0.12508430512E+03 0.  0.
          5    1    3    3  502    0  0.90683991223E+02 -0.11093292146E+02 -0.37453222188E+02  0.98827443795E+02  0.41800000000E+01 0.  1.
         -5    1    3    3    0  502 -0.16219265908E+02 -0.76762657649E+02 -0.30955357784E+02  0.84446887281E+02  0.41800000000E+01 0.  1.
        -11    1    1    2    0    0  0.40758410997E+01  0.53829124446E+02 -0.36825508196E+01  0.54108671207E+02  0.00000000000E+00 0.  1.
         11    1    1    2    0    0 -0.78540566415E+02  0.34026825349E+02 -0.64446580622E+02  0.10714386203E+03  0.00000000000E+00 0. -1.
</event>
<event>
 7    1  0.2499014E-009  0.1148706E+03  0.7561462E-02  0.1251807E+00
         -2   -1    0    0    0  501 -0.00000000000E+00  0.00000000000E+00  0.14597060675E+03  0.14597060675E+03  0.00000000000E+00 0.  1.
          2   -1    0    0  501    0  0.00000000000E+00 -0.00000000000E+00 -0.16376722110E+03  0.16376722110E+03  0.00000000000E+00 0. -1.
         25    2    1    2    0    0 -0.59462891437E+02  0.29332070360E+02  0.78543937861E+02  0.16190727887E+03  0.12509440821E+03 0.  0.
          5    1    3    3  502    0 -0.80585396525E+01  0.59070717588E+02 -0.42682794155E+01  0.59916444711E+02  0.41800000000E+01 0.  1.
         -5    1    3    3    0  502 -0.51404351784E+02 -0.29738647227E+02  0.82812217276E+02  0.10199083415E+03  0.41800000000E+01 0.  1.
        -11    1    1    2    0    0  0.74403602664E+02 -0.46457372239E+02 -0.65272976502E+02  0.10933775645E+03  0.00000000000E+00 0.  1.
         11    1    1    2    0    0 -0.14940711227E+02  0.17125301879E+02 -0.31067575711E+02  0.38492792533E+02  0.00000000000E+00 0. -1.
</event>
<event>
 7    1  0.2499014E-009  0.1107963E+03  0.7561462E-02  0.1259102E+00
          1   -1    0    0  501    0  0.00000000000E+00  0.00000000000E+00  0.35544769391E+03  0.35544769391E+03  0.00000000000E+00 0. -1.
         -1   -1    0    0    0  501 -0.00000000000E+00 -0.00000000000E+00 -0.44754496869E+02  0.44754496869E+02  0.00000000000E+00 0.  1.
         25    2    1    2    0    0  0.11104454512E+02 -0.59085087928E+02  0.12855540786E+03  0.18917747685E+03  0.12508904161E+03 0.  0.
          5    1    3    3  502    0 -0.56844429162E+02 -0.24184776255E+02  0.50698089710E+02  0.80024753854E+02  0.41800000000E+01 0.  1.
         -5    1    3    3    0  502  0.67948883674E+02 -0.34900311673E+02  0.77857318153E+02  0.10915272300E+03  0.41800000000E+01 0.  1.
        -11    1    1    2    0    0  0.23705355395E+02  0.25116309495E+02  0.16277610205E+02  0.38180275943E+02  0.00000000000E+00 0.  1.
         11    1    1    2    0    0 -0.34809809908E+02  0.33968778433E+02  0.16586017897E+03  0.17284443798E+03  0.00000000000E+00 0. -1.
</event>
<event>
 7    1  0.2499014E-009  0.2009997E+03  0.7561462E-02  0.1148898E+00
         -2   -1    0    0    0  501 -0.00000000000E+00  0.00000000000E+00  0.82899687878E+02  0.82899687878E+02  0.00000000000E+00 0.  1.
          2   -1    0    0  501    0  0.00000000000E+00 -0.00000000000E+00 -0.70955110690E+03  0.70955110690E+03  0.00000000000E+00 0. -1.
         25    2    1    2    0    0 -0.15855320910E+03 -0.78236907124E+02 -0.11962794529E+03  0.24742856261E+03  0.12509961849E+03 0.  0.
          5    1    3    3  502    0 -0.17977787425E+03 -0.66289440612E+02 -0.10232473178E+03  0.21726066635E+03  0.41800000000E+01 0.  1.
         -5    1    3    3    0  502  0.21224665151E+02 -0.11947466512E+02 -0.17303213512E+02  0.30167896259E+02  0.41800000000E+01 0.  1.
        -11    1    1    2    0    0  0.82037703097E+01  0.24712777226E+02 -0.20952457527E+02  0.33421979025E+02  0.00000000000E+00 0.  1.
         11    1    1    2    0    0  0.15034943879E+03  0.53524129898E+02 -0.48607101621E+03  0.51160025315E+03  0.00000000000E+00 0. -1.
</event>
<event>
 7    1  0.2499014E-009  0.2105367E+03  0.7561462E-02  0.1141142E+00
          1   -1    0    0  501    0  0.00000000000E+00  0.00000000000E+00  0.32907100389E+03  0.32907100389E+03  0.00000000000E+00 0. -1.
         -1   -1    0    0    0  501 -0.00000000000E+00 -0.00000000000E+00 -0.13710805848E+03  0.13710805848E+03  0.00000000000E+00 0.  1.
         25    2    1    2    0    0  0.15187474515E+03 -0.99151696227E+02  0.83598044990E+02  0.23565457455E+03  0.12508976097E+03 0.  0.
          5    1    3    3  502    0  0.66682367590E+02  0.23581916242E+02  0.25658953917E+02  0.75355817540E+02  0.41800000000E+01 0.  1.
         -5    1    3    3    0  502  0.85192377559E+02 -0.12273361247E+03  0.57939091073E+02  0.16029875701E+03  0.41800000000E+01 0.  1.
        -11    1    1    2    0    0 -0.10699952055E+03  0.18675857134E+02  0.39832719960E+02  0.11569066780E+03  0.00000000000E+00 0.  1.
         11    1    1    2    0    0 -0.44875224599E+02  0.80475839092E+02  0.68532180463E+02  0.11483382002E+03  0.00000000000E+00 0. -1.
</event>
<event>
 7    1  0.2499014E-009  0.1448544E+03  0.7561462E-02  0.1206942E+00
         -3   -1    0    0    0  501 -0.00000000000E+00  0.00000000000E+00  0.47477340002E+02  0.47477340002E+02  0.00000000000E+00 0.  1.
          3   -1    0    0  501    0  0.00000000000E+00 -0.00000000000E+00 -0.54010763971E+03  0.54010763971E+03  0.00000000000E+00 0. -1.
         25    2    1    2    0    0 -0.99189041266E+01 -0.96060028594E+02 -0.38722182218E+03  0.41822703774E+03  0.12508877558E+03 0.  0.
          5    1    3    3  502    0 -0.58055025212E+02 -0.92227309814E+02 -0.25223447860E+03  0.27480168708E+03  0.41800000000E+01 0.  1.
         -5    1    3    3    0  502  0.48136121085E+02 -0.38327187796E+01 -0.13498734357E+03  0.14342535066E+03  0.41800000000E+01 0.  1.
        -11    1    1    2    0    0  0.49418565163E+02  0.66468858677E+02 -0.59817458360E+02  0.10216864529E+03  0.00000000000E+00 0.  1.
         11    1    1    2    0    0 -0.39499661036E+02  0.29591169917E+02 -0.45591019176E+02  0.67189296681E+02  0.00000000000E+00 0. -1.
</event>
<event>
 7    1  0.2499014E-009  0.1191674E+03  0.7561462E-02  0.1244477E+00
          2   -1    0    0  501    0  0.00000000000E+00  0.00000000000E+00  0.33686653921E+02  0.33686653921E+02  0.00000000000E+00 0. -1.
         -2   -1    0    0    0  501 -0.00000000000E+00 -0.00000000000E+00 -0.62669947157E+03  0.62669947157E+03  0.00000000000E+00 0.  1.
         25    2    1    2    0    0  0.80423059211E+02 -0.17653150041E+02 -0.20530693623E+03  0.25412458315E+03  0.12509541775E+03 0.  0.
          5    1    3    3  502    0  0.11110653416E+02  0.50633054207E+02 -0.80077892810E+02  0.95483475610E+02  0.41800000000E+01 0. -1.
         -5    1    3    3    0  502  0.69312405795E+02 -0.68286204248E+02 -0.12522904342E+03  0.15864110754E+03  0.41800000000E+01 0. -1.
        -11    1    1    2    0    0 -0.61300388629E+02  0.27779333364E+02 -0.37536662070E+03  0.38135223737E+03  0.00000000000E+00 0.  1.
         11    1    1    2    0    0 -0.19122670582E+02 -0.10126183324E+02 -0.12339260720E+02  0.24909304968E+02  0.00000000000E+00 0. -1.
</event>
<event>
 7    1  0.2499014E-009  0.1321680E+03  0.7561462E-02  0.1224274E+00
          1   -1    0    0  501    0  0.00000000000E+00  0.00000000000E+00  0.26174919043E+03  0.26174919043E+03  0.00000000000E+00 0. -1.
         -1   -1    0    0    0  501 -0.00000000000E+00 -0.00000000000E+00 -0.10092396507E+03  0.10092396507E+03  0.00000000000E+00 0.  1.
         25    2    1    2    0    0  0.42860300704E+02 -0.10076571146E+03  0.29527082407E+02  0.16884519046E+03  0.12508443454E+03 0.  0.
          5    1    3    3  502    0 -0.19488298208E+01 -0.10887479284E+03  0.48574635166E+02  0.11930836532E+03  0.41800000000E+01 0. -1.
         -5    1    3    3    0  502  0.44809130525E+02  0.81090813830E+01 -0.19047552759E+02  0.49536825144E+02  0.41800000000E+01 0. -1.
        -11    1    1    2    0    0 -0.21842337138E+02  0.44486363273E+02  0.12371865856E+03  0.13327576931E+03  0.00000000000E+00 0. -1.
         11    1    1    2    0    0 -0.21017963566E+02  0.56279348183E+02  0.75794843997E+01  0.60552195734E+02  0.00000000000E+00 0.  1.
</event>
<event>
 7    1  0.2499014E-009  0.1041251E+03  0.7561462E-02  0.1271853E+00
          2   -1    0    0  501    0  0.00000000000E+00  0.00000000000E+00  0.22259478673E+02  0.22259478673E+02  0.00000000000E+00 0. -1.
         -2   -1    0    0    0  501 -0.00000000000E+00 -0.00000000000E+00 -0.59778357180E+03  0.59778357180E+03  0.00000000000E+00 0.  1.
         25    2    1    2    0    0  0.75598320598E+01 -0.25554212481E+02 -0.24813855750E+03  0.27916089314E+03  0.12509153330E+03 0.  0.
          5    1    3    3  502    0  0.20852296567E+02 -0.66675407448E+02 -0.83783447293E+02  0.10916760816E+03  0.41800000000E+01 0. -1.
         -5    1    3    3    0  502 -0.13292464508E+02  0.41121194967E+02 -0.16435511021E+03  0.16999328498E+03  0.41800000000E+01 0. -1.
        -11    1    1    2    0    0  0.41231806277E+02  0.37394276303E+01 -0.13435830262E+03  0.14059231363E+03  0.00000000000E+00 0.  1.
         11    1    1    2    0    0 -0.48791638337E+02  0.21814784851E+02 -0.19302723300E+03  0.20028984370E+03  0.00000000000E+00 0. -1.
</event>
<event>
 7    1  0.2499014E-009  0.7984945E+02  0.7561462E-02  0.1329479E+00
         -2   -1    0    0    0  501 -0.00000000000E+00  0.00000000000E+00  0.13284058644E+03  0.13284058644E+03  0.00000000000E+00 0.  1.
          2   -1    0    0  501    0  0.00000000000E+00 -0.00000000000E+00 -0.10567322549E+03  0.10567322549E+03  0.00000000000E+00 0. -1.
         25    2    1    2    0    0  0.30587160533E+02  0.56960651337E+01 -0.29983880586E+02  0.13234385449E+03  0.12509133935E+03 0.  0.
          5    1    3    3  502    0  0.37799698417E+02 -0.53367603505E+02  0.11352871064E+00  0.65531699147E+02  0.41800000000E+01 0. -1.
         -5    1    3    3    0  502 -0.72125378840E+01  0.59063668639E+02 -0.30097409297E+02  0.66812155348E+02  0.41800000000E+01 0. -1.
        -11    1    1    2    0    0 -0.89703948121E+01 -0.89339690050E+01  0.76158536894E+02  0.77203669130E+02  0.00000000000E+00 0.  1.
         11    1    1    2    0    0 -0.21616765721E+02  0.32379038713E+01 -0.19007295356E+02  0.28966288310E+02  0.00000000000E+00 0. -1.
</event>
<event>
 7    1  0.2499014E-009  0.9896367E+02  0.7561462E-02  0.1282490E+00
         -2   -1    0    0    0  501 -0.00000000000E+00  0.00000000000E+00  0.31726353231E+03  0.31726353231E+03  0.00000000000E+00 0.  1.
          2   -1    0    0  501    0  0.00000000000E+00 -0.00000000000E+00 -0.48783137945E+02  0.48783137945E+02  0.00000000000E+00 0. -1.
         25    2    1    2    0    0 -0.29306904078E+02 -0.52783746688E+02  0.19507169706E+03  0.23946789186E+03  0.12508751215E+03 0.  0.
          5    1    3    3  502    0 -0.30423674516E+02  0.36686290405E+02  0.85156683037E+02  0.97676081722E+02  0.41800000000E+01 0. -1.
         -5    1    3    3    0  502  0.11167704381E+01 -0.89470037093E+02  0.10991501402E+03  0.14179181013E+03  0.41800000000E+01 0. -1.
        -11    1    1    2    0    0  0.19328928873E+02  0.30725073696E+02 -0.11664738039E+02  0.38127467245E+02  0.00000000000E+00 0. -1.
         11    1    1    2    0    0  0.99779752046E+01  0.22058672992E+02  0.85073435343E+02  0.88451311151E+02  0.00000000000E+00 0.  1.
</event>
<event>
 7    1  0.2499014E-009  0.1668142E+03  0.7561462E-02  0.1181211E+00
         -1   -1    0    0    0  501 -0.00000000000E+00  0.00000000000E+00  0.11508420398E+03  0.11508420398E+03  0.00000000000E+00 0.  1.
          1   -1    0    0  501    0  0.00000000000E+00 -0.00000000000E+00 -0.35346693305E+03  0.35346693305E+03  0.00000000000E+00 0. -1.
         25    2    1    2    0    0  0.12673578844E+03 -0.75699019754E+02 -0.20429703062E+03  0.28138695214E+03  0.12509611685E+03 0.  0.
          5    1    3    3  502    0  0.85485032045E+02 -0.95249549009E+02 -0.85291494309E+02  0.15385798222E+03  0.41800000000E+01 0.  1.
         -5    1    3    3    0  502  0.41250756395E+02  0.19550529255E+02 -0.11900553631E+03  0.12752896992E+03  0.41800000000E+01 0.  1.
        -11    1    1    2    0    0 -0.36204209022E+02 -0.72792525239E+01  0.30965134058E+02  0.48193067919E+02  0.00000000000E+00 0.  1.
         11    1    1    2    0    0 -0.90531579418E+02  0.82978272278E+02 -0.65050832512E+02  0.13897111697E+03  0.00000000000E+00 0. -1.
</event>
<event>
 7    1  0.2499014E-009  0.1039938E+03  0.7561462E-02  0.1272115E+00
         -2   -1    0    0    0  501 -0.00000000000E+00  0.00000000000E+00  0.62508551028E+02  0.62508551028E+02  0.00000000000E+00 0. -1.
          2   -1    0    0  501    0  0.00000000000E+00 -0.00000000000E+00 -0.24271969418E+03  0.24271969418E+03  0.00000000000E+00 0.  1.
         25    2    1    2    0    0 -0.50003790023E+02  0.75532740374E+01 -0.13414131223E+03  0.19025972723E+03  0.12508973257E+03 0.  0.
          5    1    3    3  502    0 -0.74603830542E+02  0.16085213952E+02 -0.28817441320E+02  0.81684655619E+02  0.41800000000E+01 0.  1.
         -5    1    3    3    0  502  0.24600040520E+02 -0.85319399144E+01 -0.10532387091E+03  0.10857507161E+03  0.41800000000E+01 0.  1.
        -11    1    1    2    0    0 -0.25647848302E+02 -0.14067677919E+02 -0.15592721423E+02  0.33148825710E+02  0.00000000000E+00 0.  1.
         11    1    1    2    0    0  0.75651638324E+02  0.65144038819E+01 -0.30477109497E+02  0.81819692265E+02  0.00000000000E+00 0. -1.
</event>
<event>
 7    1  0.2499014E-009  0.1061417E+03  0.7561462E-02  0.1267886E+00
          2   -1    0    0  501    0  0.00000000000E+00  0.00000000000E+00  0.13289342422E+03  0.13289342422E+03  0.00000000000E+00 0. -1.
         -2   -1    0    0    0  501 -0.00000000000E+00 -0.00000000000E+00 -0.17675728498E+03  0.17675728498E+03  0.00000000000E+00 0.  1.
         25    2    1    2    0    0 -0.21908940338E+02 -0.80116688712E+02  0.46834173949E+02  0.15728866728E+03  0.12509036545E+03 0.  0.
          5    1    3    3  502    0  0.16800806610E+02 -0.26874621193E+02 -0.38109829844E+02  0.49742777343E+02  0.41800000000E+01 0. -1.
         -5    1    3    3    0  502 -0.38709746948E+02 -0.53242067519E+02  0.84944003793E+02  0.10754588994E+03  0.41800000000E+01 0. -1.
        -11    1    1    2    0    0  0.42288995955E+02  0.83593077224E+02 -0.48774201527E+02  0.10561763334E+03  0.00000000000E+00 0. -1.
         11    1    1    2    0    0 -0.20380055617E+02 -0.34763885118E+01 -0.41923833186E+02  0.46744408575E+02  0.00000000000E+00 0.  1.
</event>
<event>
 7    1  0.2499014E-009  0.1290724E+03  0.7561462E-02  0.1228839E+00
         -1   -1    0    0    0  501 -0.00000000000E+00  0.00000000000E+00  0.38277944723E+03  0.38277944723E+03  0.00000000000E+00 0.  1.
          1   -1    0    0  501    0  0.00000000000E+00 -0.00000000000E+00 -0.44570851082E+02  0.44570851082E+02  0.00000000000E+00 0. -1.
         25    2    1    2    0    0 -0.56280080012E+02 -0.58647147596E+02  0.20111830731E+03  0.25041196056E+03  0.12510252248E+03 0.  0.
          5    1    3    3  502    0  0.39309222264E+02 -0.26122571750E+02  0.76260409477E+02  0.89781546898E+02  0.41800000000E+01 0.  1.
         -5    1    3    3    0  502 -0.95589302276E+02 -0.32524575846E+02  0.12485789783E+03  0.16063041367E+03  0.41800000000E+01 0.  1.
        -11    1    1    2    0    0  0.25390964575E+02 -0.15245262451E+02  0.53648878607E+02  0.61280676278E+02  0.00000000000E+00 0.  1.
         11    1    1    2    0    0  0.30889115437E+02  0.73892410047E+02  0.83441410229E+02  0.11565766147E+03  0.00000000000E+00 0. -1.
</event>
<event>
 7    1  0.2499014E-009  0.1466606E+03  0.7561462E-02  0.1204638E+00
         -2   -1    0    0    0  501 -0.00000000000E+00  0.00000000000E+00  0.11741491510E+03  0.11741491510E+03  0.00000000000E+00 0.  1.
          2   -1    0    0  501    0  0.00000000000E+00 -0.00000000000E+00 -0.20610508426E+03  0.20610508426E+03  0.00000000000E+00 0. -1.
         25    2    1    2    0    0 -0.11659548676E+02 -0.10233745768E+03 -0.34936004820E+01  0.16207474590E+03  0.12508843949E+03 0.  0.
          5    1    3    3  502    0 -0.38592338723E+02 -0.12047654941E+03  0.93167500756E+01  0.12691824849E+03  0.41800000000E+01 0. -1.
         -5    1    3    3    0  502  0.26932790047E+02  0.18139091736E+02 -0.12810350558E+02  0.35156497410E+02  0.41800000000E+01 0. -1.
        -11    1    1    2    0    0 -0.19284655085E+02  0.10122080819E+03 -0.49889163896E+02  0.11448352985E+03  0.00000000000E+00 0.  1.
         11    1    1    2    0    0  0.30944203761E+02  0.11166494846E+01 -0.35307404777E+02  0.46961723611E+02  0.00000000000E+00 0. -1.
</event>
<event>
 7    1  0.2499014E-009  0.9081895E+02  0.7561462E-02  0.1300881E+00
         -4   -1    0    0    0  501 -0.00000000000E+00  0.00000000000E+00  0.50973701074E+02  0.50973701074E+02  0.00000000000E+00 0.  1.
          4   -1    0    0  501    0  0.00000000000E+00 -0.00000000000E+00 -0.29101763594E+03  0.29101763594E+03  0.00000000000E+00 0. -1.
         25    2    1    2    0    0  0.24955500568E+02  0.55913201831E+01 -0.20912709201E+03  0.24502350582E+03  0.12509331686E+03 0.  0.
          5    1    3    3  502    0 -0.20761361602E+02  0.55742492501E+02 -0.93948836013E+02  0.11127495583E+03  0.41800000000E+01 0. -1.
         -5    1    3    3    0  502  0.45716862170E+02 -0.50151172318E+02 -0.11517825600E+03  0.13374855000E+03  0.41800000000E+01 0. -1.
        -11    1    1    2    0    0 -0.39262696416E+02 -0.59225788653E+01 -0.55667461001E+02  0.68377646088E+02  0.00000000000E+00 0. -1.
         11    1    1    2    0    0  0.14307195848E+02  0.33125868218E+00  0.24750618149E+02  0.28590185101E+02  0.00000000000E+00 0.  1.
</event>
<event>
 7    1  0.2541668E-009  0.9326714E+02  0.7561462E-02  0.1295127E+00
          2   -1    0    0  501    0  0.00000000000E+00  0.00000000000E+00  0.11596044169E+03  0.11596044169E+03  0.00000000000E+00 0. -1.
         -2   -1    0    0    0  501 -0.00000000000E+00 -0.00000000000E+00 -0.14022915965E+03  0.14022915965E+03  0.00000000000E+00 0.  1.
         25    2    1    2    0    0 -0.45105846977E+02  0.20480828812E+02 -0.57077064120E+02  0.14614953040E+03  0.12509153531E+03 0.  0.
          5    1    3    3  502    0 -0.19432289568E+02 -0.52930547521E+02 -0.20966275042E+02  0.60301855924E+02  0.41800000000E+01 0.  1.
         -5    1    3    3    0  502 -0.25673557409E+02  0.73411376333E+02 -0.36110789078E+02  0.85847674476E+02  0.41800000000E+01 0.  1.
        -11    1    1    2    0    0  0.38953792526E+02 -0.10428229107E+02  0.64589345028E+02  0.76144135727E+02  0.00000000000E+00 0. -1.
         11    1    1    2    0    0  0.61520544516E+01 -0.10052599705E+02 -0.31780998871E+02  0.33895935214E+02  0.00000000000E+00 0.  1.
</event>
<event>
 7    1  0.2499014E-009  0.1017539E+03  0.7561462E-02  0.1276650E+00
          4   -1    0    0  501    0  0.00000000000E+00  0.00000000000E+00  0.50074030536E+03  0.50074030536E+03  0.00000000000E+00 0.  1.
         -4   -1    0    0    0  501 -0.00000000000E+00 -0.00000000000E+00 -0.27729840129E+02  0.27729840129E+02  0.00000000000E+00 0. -1.
         25    2    1    2    0    0 -0.14217188964E+02 -0.42092116790E+02  0.28320458447E+03  0.31277165222E+03  0.12508954797E+03 0.  0.
          5    1    3    3  502    0  0.34352390936E+02  0.79861023325E+01  0.20666425955E+02  0.41090609089E+02  0.41800000000E+01 0.  1.
         -5    1    3    3    0  502 -0.48569579901E+02 -0.50078219123E+02  0.26253815851E+03  0.27168104313E+03  0.41800000000E+01 0.  1.
        -11    1    1    2    0    0  0.44867398835E+02  0.49256877299E+02  0.15531873220E+03  0.16900660345E+03  0.00000000000E+00 0.  1.
         11    1    1    2    0    0 -0.30650209871E+02 -0.71647605084E+01  0.34487148563E+02  0.46691889813E+02  0.00000000000E+00 0. -1.
</event>
<event>
 7    1  0.2499014E-009  0.2049490E+03  0.7561462E-02  0.1145629E+00
         -2   -1    0    0    0  501 -0.00000000000E+00  0.00000000000E+00  0.38733938874E+02  0.38733938874E+02  0.00000000000E+00 0.  1.
          2   -1    0    0  501    0  0.00000000000E+00 -0.00000000000E+00 -0.12679875234E+04  0.12679875234E+04  0.00000000000E+00 0. -1.
         25    2    1    2    0    0 -0.14975874960E+03  0.11009608948E+03 -0.76503534714E+03  0.79716655384E+03  0.12508637086E+03 0.  0.
          5    1    3    3  502    0 -0.40854827938E+02  0.82262409391E+02 -0.51293975593E+03  0.52111504159E+03  0.41800000000E+01 0. -1.
         -5    1    3    3    0  502 -0.10890392166E+03  0.27833680086E+02 -0.25209559122E+03  0.27605151224E+03  0.41800000000E+01 0. -1.
        -11    1    1    2    0    0  0.33649626744E+02 -0.78091131593E+02 -0.14136541372E+03  0.16496879223E+03  0.00000000000E+00 0.  1.
         11    1    1    2    0    0  0.11610912285E+03 -0.32004957884E+02 -0.32285282368E+03  0.34458611623E+03  0.00000000000E+00 0. -1.
</event>
<event>
 7    1  0.2499014E-009  0.1107945E+03  0.7561462E-02  0.1259106E+00
         -1   -1    0    0    0  501 -0.00000000000E+00  0.00000000000E+00  0.52863288651E+02  0.52863288651E+02  0.00000000000E+00 0.  1.
          1   -1    0    0  501    0  0.00000000000E+00 -0.00000000000E+00 -0.26586484805E+03  0.26586484805E+03  0.00000000000E+00 0. -1.
         25    2    1    2    0    0 -0.97076488510E+01  0.44597606586E+02 -0.11141242992E+03  0.17361791271E+03  0.12508902875E+03 0.  0.
          5    1    3    3  502    0 -0.67254016413E+02  0.20817607858E+02 -0.64112612740E+02  0.95311987876E+02  0.41800000000E+01 0. -1.
         -5    1    3    3    0  502  0.57546367562E+02  0.23779998728E+02 -0.47299817185E+02  0.78305924838E+02  0.41800000000E+01 0. -1.
        -11    1    1    2    0    0  0.36578925986E+02  0.11856901588E-01 -0.81427388812E+02  0.89266105637E+02  0.00000000000E+00 0. -1.
         11    1    1    2    0    0 -0.26871277135E+02 -0.44609463488E+02 -0.20161740658E+02  0.55844118346E+02  0.00000000000E+00 0.  1.
</event>
<event>
 7    1  0.2499014E-009  0.7827950E+02  0.7561462E-02  0.1334006E+00
          1   -1    0    0  501    0  0.00000000000E+00  0.00000000000E+00  0.42510953504E+03  0.42510953504E+03  0.00000000000E+00 0. -1.
         -1   -1    0    0    0  501 -0.00000000000E+00 -0.00000000000E+00 -0.34074271968E+02  0.34074271968E+02  0.00000000000E+00 0.  1.
         25    2    1    2    0    0 -0.35677221682E+02  0.23781898031E+02  0.27707696381E+03  0.30701410722E+03  0.12509026876E+03 0.  0.
          5    1    3    3  502    0  0.29547652114E+02  0.14855265445E+02  0.21110345600E+03  0.21371917132E+03  0.41800000000E+01 0. -1.
         -5    1    3    3    0  502 -0.65224873797E+02  0.89266325857E+01  0.65973507811E+02  0.93294935897E+02  0.41800000000E+01 0. -1.
        -11    1    1    2    0    0 -0.18349295171E+01 -0.19405517374E+02 -0.10477085811E+02  0.22129401212E+02  0.00000000000E+00 0.  1.
         11    1    1    2    0    0  0.37512151199E+02 -0.43763806562E+01  0.12443538507E+03  0.13004029857E+03  0.00000000000E+00 0. -1.
</event>
<event>
 7    1  0.2499014E-009  0.1114687E+03  0.7561462E-02  0.1257874E+00
         -2   -1    0    0    0  501 -0.00000000000E+00  0.00000000000E+00  0.48940422645E+02  0.48940422645E+02  0.00000000000E+00 0.  1.
          2   -1    0    0  501    0  0.00000000000E+00 -0.00000000000E+00 -0.32949861741E+03  0.32949861741E+03  0.00000000000E+00 0. -1.
         25    2    1    2    0    0  0.49447202694E+02  0.38479268848E+02 -0.18267892291E+03  0.23009596838E+03  0.12508751257E+03 0.  0.
          5    1    3    3  502    0  0.68122737145E+01 -0.43636474880E+02 -0.38540225447E+02  0.58765384289E+02  0.41800000000E+01 0.  1.
         -5    1    3    3    0  502  0.42634928980E+02  0.82115743728E+02 -0.14413869747E+03  0.17133058409E+03  0.41800000000E+01 0.  1.
        -11    1    1    2    0    0  0.36792341273E+01 -0.32257718203E+02 -0.88198728729E+02  0.93984641813E+02  0.00000000000E+00 0. -1.
         11    1    1    2    0    0 -0.53126436822E+02 -0.62215506449E+01 -0.96805431198E+01  0.54358429860E+02  0.00000000000E+00 0.  1.
</event>
<event>
 7    1  0.2499014E-009  0.1246047E+03  0.7561462E-02  0.1235688E+00
          2   -1    0    0  501    0  0.00000000000E+00  0.00000000000E+00  0.87433406260E+03  0.87433406260E+03  0.00000000000E+00 0. -1.
         -2   -1    0    0    0  501 -0.00000000000E+00 -0.00000000000E+00 -0.32647281349E+02  0.32647281349E+02  0.00000000000E+00 0.  1.
         25    2    1    2    0    0 -0.82181164826E+02 -0.68749259379E+02  0.64322274964E+03  0.66397540937E+03  0.12509050356E+03 0.  0.
          5    1    3    3  502    0 -0.38917117913E+01 -0.22208547868E+02  0.11400687758E+02  0.25608848089E+02  0.41800000000E+01 0. -1.
         -5    1    3    3    0  502 -0.78289453034E+02 -0.46540711510E+02  0.63182206188E+03  0.63836656128E+03  0.41800000000E+01 0. -1.
        -11    1    1    2    0    0  0.73315030917E+02  0.80442906268E+01  0.75272780562E+02  0.10538403989E+03  0.00000000000E+00 0.  1.
         11    1    1    2    0    0  0.88661339083E+01  0.60704968752E+02  0.12319125104E+03  0.13762189468E+03  0.00000000000E+00 0. -1.
</event>
<event>
 7    1  0.2499014E-009  0.9337040E+02  0.7561462E-02  0.1294889E+00
          2   -1    0    0  501    0  0.00000000000E+00  0.00000000000E+00  0.50995615892E+03  0.50995615892E+03  0.00000000000E+00 0. -1.
         -2   -1    0    0    0  501 -0.00000000000E+00 -0.00000000000E+00 -0.24879459355E+02  0.24879459355E+02  0.00000000000E+00 0.  1.
         25    2    1    2    0    0 -0.55048945328E+01 -0.46010610782E+01  0.20593320975E+03  0.24105578299E+03  0.12509168639E+03 0.  0.
          5    1    3    3  502    0  0.62459711644E+01 -0.54131153325E+02  0.17009962379E+03  0.17866322601E+03  0.41800000000E+01 0.  1.
         -5    1    3    3    0  502 -0.11750865697E+02  0.49530092247E+02  0.35833585964E+02  0.62392556974E+02  0.41800000000E+01 0.  1.
        -11    1    1    2    0    0  0.43182691430E+02  0.34182938390E+01  0.78806762168E+02  0.89927389239E+02  0.00000000000E+00 0.  1.
         11    1    1    2    0    0 -0.37677796897E+02  0.11827672392E+01  0.20033672764E+03  0.20385244605E+03  0.00000000000E+00 0. -1.
</event>
<event>
 7    1  0.2499014E-009  0.1441287E+03  0.7561462E-02  0.1207879E+00
         -1   -1    0    0    0  501 -0.00000000000E+00  0.00000000000E+00  0.23090016533E+02  0.23090016533E+02  0.00000000000E+00 0.  1.
          1   -1    0    0  501    0  0.00000000000E+00 -0.00000000000E+00 -0.91292826058E+03  0.91292826058E+03  0.00000000000E+00 0. -1.
         25    2    1    2    0    0 -0.93576058217E+02  0.91892654749E+01 -0.51601222025E+03  0.53921867751E+03  0.12508896615E+03 0.  0.
          5    1    3    3  502    0 -0.63127419313E+02 -0.55130033278E+02 -0.31304148827E+03  0.32409387130E+03  0.41800000000E+01 0. -1.
         -5    1    3    3    0  502 -0.30448638904E+02  0.64319298752E+02 -0.20297073198E+03  0.21512480621E+03  0.41800000000E+01 0. -1.
        -11    1    1    2    0    0  0.20960892260E+02 -0.46799644677E+02 -0.14393759841E+03  0.15279920805E+03  0.00000000000E+00 0.  1.
         11    1    1    2    0    0  0.72615165956E+02  0.37610379202E+02 -0.22988842539E+03  0.24400039156E+03  0.00000000000E+00 0. -1.
</event>
<event>
 7    1  0.2499014E-009  0.1231835E+03  0.7561462E-02  0.1237936E+00
         -2   -1    0    0    0  501 -0.00000000000E+00  0.00000000000E+00  0.12108464408E+03  0.12108464408E+03  0.00000000000E+00 0.  1.
          2   -1    0    0  501    0  0.00000000000E+00 -0.00000000000E+00 -0.17430615936E+03  0.17430615936E+03  0.00000000000E+00 0. -1.
         25    2    1    2    0    0  0.82232970252E+02 -0.45730025454E+02 -0.52782434849E+02  0.16518883221E+03  0.12509143950E+03 0.  0.
          5    1    3    3  502    0  0.84878740390E+02 -0.14376715664E+02 -0.84226212858E+02  0.12050982473E+03  0.41800000000E+01 0.  1.
         -5    1    3    3    0  502 -0.26457701384E+01 -0.31353309790E+02  0.31443778009E+02  0.44679007486E+02  0.41800000000E+01 0.  1.
        -11    1    1    2    0    0 -0.81714595393E+02 -0.98322991473E+00  0.10010661764E+02  0.82331374277E+02  0.00000000000E+00 0.  1.
         11    1    1    2    0    0 -0.51837485822E+00  0.46713255368E+02 -0.10449742196E+02  0.47870596942E+02  0.00000000000E+00 0. -1.
</event>
<event>
 7    1  0.2499014E-009  0.2099257E+03  0.7561462E-02  0.1141625E+00
          2   -1    0    0  501    0  0.00000000000E+00  0.00000000000E+00  0.15811278359E+04  0.15811278359E+04  0.00000000000E+00 0. -1.
         -2   -1    0    0    0  501 -0.00000000000E+00 -0.00000000000E+00 -0.50793648322E+02  0.50793648322E+02  0.00000000000E+00 0.  1.
         25    2    1    2    0    0 -0.11509716963E+02  0.20359809798E+03  0.12518337606E+04  0.12744876115E+04  0.12508496583E+03 0.  0.
          5    1    3    3  502    0 -0.39097214013E+02  0.14788429851E+03  0.58265244354E+03  0.60241157048E+03  0.41800000000E+01 0.  1.
         -5    1    3    3    0  502  0.27587497049E+02  0.55713799471E+02  0.66918131707E+03  0.67207604105E+03  0.41800000000E+01 0.  1.
        -11    1    1    2    0    0 -0.31250137851E+01 -0.13449752495E+02 -0.58952571761E+01  0.15013847292E+02  0.00000000000E+00 0. -1.
         11    1    1    2    0    0  0.14634730748E+02 -0.19014834549E+03  0.28439568419E+03  0.34242002544E+03  0.00000000000E+00 0.  1.
</event>
<event>
 7    1  0.2499014E-009  0.1096349E+03  0.7561462E-02  0.1261248E+00
          1   -1    0    0  501    0  0.00000000000E+00  0.00000000000E+00  0.12236235154E+04  0.12236235154E+04  0.00000000000E+00 0. -1.
         -1   -1    0    0    0  501 -0.00000000000E+00 -0.00000000000E+00 -0.13511473740E+02  0.13511473740E+02  0.00000000000E+00 0.  1.
         25    2    1    2    0    0  0.44602666664E+02 -0.11105222883E+02  0.89044053446E+03  0.90035819721E+03  0.12509122282E+03 0.  0.
          5    1    3    3  502    0  0.87137737099E+02 -0.19786191651E+02  0.57484470015E+03  0.58176316512E+03  0.41800000000E+01 0.  1.
         -5    1    3    3    0  502 -0.42535070435E+02  0.86809687683E+01  0.31559583431E+03  0.31859503209E+03  0.41800000000E+01 0.  1.
        -11    1    1    2    0    0  0.15962854732E+02  0.19344266453E+02  0.23519379259E+02  0.34382765690E+02  0.00000000000E+00 0.  1.
         11    1    1    2    0    0 -0.60565521396E+02 -0.82390435695E+01  0.29615212797E+03  0.30239402627E+03  0.00000000000E+00 0. -1.
</event>
<event>
 7    1  0.2499014E-009  0.1034079E+03  0.7561462E-02  0.1273289E+00
         -1   -1    0    0    0  501 -0.00000000000E+00  0.00000000000E+00  0.22731324259E+02  0.22731324259E+02  0.00000000000E+00 0.  1.
          1   -1    0    0  501    0  0.00000000000E+00 -0.00000000000E+00 -0.85631300320E+03  0.85631300320E+03  0.00000000000E+00 0. -1.
         25    2    1    2    0    0 -0.17231354293E+02 -0.82735235863E+02 -0.52828336059E+03  0.54943033322E+03  0.12509333779E+03 0.  0.
          5    1    3    3  502    0 -0.11311631837E+02 -0.83398478620E+02 -0.53372978789E+03  0.54034083515E+03  0.41800000000E+01 0. -1.
         -5    1    3    3    0  502 -0.59197224555E+01  0.66324275693E+00  0.54464272954E+01  0.90894980713E+01  0.41800000000E+01 0. -1.
        -11    1    1    2    0    0  0.48705931253E+02  0.47631486648E+02 -0.11593205610E+03  0.13446660512E+03  0.00000000000E+00 0.  1.
         11    1    1    2    0    0 -0.31474576960E+02  0.35103749215E+02 -0.18936626224E+03  0.19514738912E+03  0.00000000000E+00 0. -1.
</event>
<event>
 7    1  0.2499014E-009  0.1571770E+03  0.7561462E-02  0.1191921E+00
          1   -1    0    0  501    0  0.00000000000E+00  0.00000000000E+00  0.12140332430E+04  0.12140332430E+04  0.00000000000E+00 0. -1.
         -1   -1    0    0    0  501 -0.00000000000E+00 -0.00000000000E+00 -0.26378299432E+02  0.26378299432E+02  0.00000000000E+00 0.  1.
         25    2    1    2    0    0  0.81957496237E+02  0.11232313272E+03  0.52520031066E+03  0.55750776309E+03  0.12508406073E+03 0.  0.
          5    1    3    3  502    0  0.38582074181E+02  0.93100684736E+02  0.15948478223E+03  0.18870395362E+03  0.41800000000E+01 0. -1.
         -5    1    3    3    0  502  0.43375422056E+02  0.19222447980E+02  0.36571552843E+03  0.36880380947E+03  0.41800000000E+01 0. -1.
        -11    1    1    2    0    0 -0.46774291950E+02  0.14249511511E+01  0.18921848839E+03  0.19491921717E+03  0.00000000000E+00 0.  1.
         11    1    1    2    0    0 -0.35183204288E+02 -0.11374808387E+03  0.47323614450E+03  0.48798456216E+03  0.00000000000E+00 0. -1.
</event>
<event>
 7    1  0.2499014E-009  0.9867229E+02  0.7561462E-02  0.1283113E+00
          2   -1    0    0  501    0  0.00000000000E+00  0.00000000000E+00  0.25254870360E+03  0.25254870360E+03  0.00000000000E+00 0. -1.
         -2   -1    0    0    0  501 -0.00000000000E+00 -0.00000000000E+00 -0.60234099065E+02  0.60234099065E+02  0.00000000000E+00 0.  1.
         25    2    1    2    0    0  0.19847633278E+02  0.54675098940E+02  0.12171899629E+03  0.18396807548E+03  0.12508174826E+03 0.  0.
          5    1    3    3  502    0 -0.37897439639E+01  0.63948233382E+02  0.13890606164E+03  0.15302321742E+03  0.41800000000E+01 0.  1.
         -5    1    3    3    0  502  0.23637377241E+02 -0.92731344418E+01 -0.17187065344E+02  0.30944858060E+02  0.41800000000E+01 0.  1.
        -11    1    1    2    0    0  0.19450299205E+02 -0.64113915092E+02  0.48879202774E+02  0.82934219182E+02  0.00000000000E+00 0.  1.
         11    1    1    2    0    0 -0.39297932482E+02  0.94388161518E+01  0.21716405474E+02  0.45880508001E+02  0.00000000000E+00 0. -1.
</event>
<event>
 7    1  0.2499014E-009  0.9150808E+02  0.7561462E-02  0.1299240E+00
          1   -1    0    0  501    0  0.00000000000E+00  0.00000000000E+00  0.91226549538E+02  0.91226549538E+02  0.00000000000E+00 0.  1.
         -1   -1    0    0    0  501 -0.00000000000E+00 -0.00000000000E+00 -0.15942797913E+03  0.15942797913E+03  0.00000000000E+00 0. -1.
         25    2    1    2    0    0  0.37143541866E+02  0.34896103180E+02 -0.55723171139E+02  0.14611692676E+03  0.12509078209E+03 0.  0.
          5    1    3    3  502    0  0.33028165609E+02 -0.16707584824E+02 -0.80405296119E+02  0.88614260468E+02  0.41800000000E+01 0. -1.
         -5    1    3    3    0  502  0.41153762568E+01  0.51603688004E+02  0.24682124981E+02  0.57502666294E+02  0.41800000000E+01 0. -1.
        -11    1    1    2    0    0 -0.44280080231E+02  0.12412947749E+02 -0.28475911429E+02  0.54089595198E+02  0.00000000000E+00 0. -1.
         11    1    1    2    0    0  0.71365383647E+01 -0.47309050929E+02  0.15997652979E+02  0.50448006704E+02  0.00000000000E+00 0.  1.
</event>
<event>
 7    1  0.2499014E-009  0.1440064E+03  0.7561462E-02  0.1208038E+00
          1   -1    0    0  501    0  0.00000000000E+00  0.00000000000E+00  0.71928154671E+03  0.71928154671E+03  0.00000000000E+00 0. -1.
         -1   -1    0    0    0  501 -0.00000000000E+00 -0.00000000000E+00 -0.78213026128E+02  0.78213026128E+02  0.00000000000E+00 0.  1.
         25    2    1    2    0    0 -0.94666232448E+02  0.72153165320E+02  0.38894336193E+02  0.17700610333E+03  0.12510242362E+03 0.  0.
          5    1    3    3  502    0  0.25943889108E+01  0.47359803600E+02  0.57693364308E+02  0.74804268167E+02  0.41800000000E+01 0. -1.
         -5    1    3    3    0  502 -0.97260621359E+02  0.24793361720E+02 -0.18799028115E+02  0.10220183516E+03  0.41800000000E+01 0. -1.
        -11    1    1    2    0    0  0.51539820388E+02  0.47621139220E+01  0.12597701442E+03  0.13619559089E+03  0.00000000000E+00 0.  1.
         11    1    1    2    0    0  0.43126412060E+02 -0.76915279242E+02  0.47619716996E+03  0.48429287862E+03  0.00000000000E+00 0. -1.
</event>
<event>
 7    1  0.2499014E-009  0.7150426E+02  0.7561462E-02  0.1355051E+00
          1   -1    0    0  501    0  0.00000000000E+00  0.00000000000E+00  0.22314708678E+03  0.22314708678E+03  0.00000000000E+00 0. -1.
         -1   -1    0    0    0  501 -0.00000000000E+00 -0.00000000000E+00 -0.63090090652E+02  0.63090090652E+02  0.00000000000E+00 0.  1.
         25    2    1    2    0    0 -0.32648035343E+02 -0.35116283925E+02  0.10848334387E+03  0.17237845187E+03  0.12508655869E+03 0.  0.
          5    1    3    3  502    0 -0.80924654351E+01  0.24920830541E+01  0.12423864648E+03  0.12459699898E+03  0.41800000000E+01 0. -1.
         -5    1    3    3    0  502 -0.24555569908E+02 -0.37608366980E+02 -0.15755302613E+02  0.47781452895E+02  0.41800000000E+01 0. -1.
        -11    1    1    2    0    0 -0.16395082908E+02  0.35835541774E+02  0.51452649709E+02  0.64810184075E+02  0.00000000000E+00 0. -1.
         11    1    1    2    0    0  0.49043118251E+02 -0.71925784869E+00  0.12100254585E+00  0.49048541480E+02  0.00000000000E+00 0.  1.
</event>
<event>
 7    1  0.2499014E-009  0.8798932E+02  0.7561462E-02  0.1307795E+00
         -3   -1    0    0    0  501 -0.00000000000E+00  0.00000000000E+00  0.41870218699E+02  0.41870218699E+02  0.00000000000E+00 0.  1.
          3   -1    0    0  501    0  0.00000000000E+00 -0.00000000000E+00 -0.48243999944E+03  0.48243999944E+03  0.00000000000E+00 0. -1.
         25    2    1    2    0    0  0.44315560207E+02  0.40858098721E+02 -0.36666263128E+03  0.39207379349E+03  0.12508845372E+03 0.  0.
          5    1    3    3  502    0 -0.23117335431E+02 -0.12797296872E+02 -0.16481899938E+02  0.31421448570E+02  0.41800000000E+01 0.  1.
         -5    1    3    3    0  502  0.67432895638E+02  0.53655395593E+02 -0.35018073134E+03  0.36065234492E+03  0.41800000000E+01 0.  1.
        -11    1    1    2    0    0 -0.55697381515E+01 -0.15937316388E+02  0.20877533963E+02  0.26849421989E+02  0.00000000000E+00 0.  1.
         11    1    1    2    0    0 -0.38745822055E+02 -0.24920782332E+02 -0.94784683428E+02  0.10538700267E+03  0.00000000000E+00 0. -1.
</event>
<event>
 7    1  0.2499014E-009  0.1661470E+03  0.7561462E-02  0.1181927E+00
         -1   -1    0    0    0  501 -0.00000000000E+00  0.00000000000E+00  0.52609835219E+03  0.52609835219E+03  0.00000000000E+00 0.  1.
          1   -1    0    0  501    0  0.00000000000E+00 -0.00000000000E+00 -0.61095791289E+02  0.61095791289E+02  0.00000000000E+00 0. -1.
         25    2    1    2    0    0  0.12736640792E+03 -0.37143558380E+02  0.32768922494E+03  0.37500717125E+03  0.12509318347E+03 0.  0.
          5    1    3    3  502    0 -0.53340940562E+01  0.31840580724E+02  0.52480395496E+02  0.61757100415E+02  0.41800000000E+01 0.  1.
         -5    1    3    3    0  502  0.13270050197E+03 -0.68984139105E+02  0.27520882945E+03  0.31325007083E+03  0.41800000000E+01 0.  1.
        -11    1    1    2    0    0 -0.67828646112E+02  0.55690466047E+02  0.11769577888E+03  0.14681433720E+03  0.00000000000E+00 0. -1.
         11    1    1    2    0    0 -0.59537761803E+02 -0.18546907667E+02  0.19617557077E+02  0.65372635026E+02  0.00000000000E+00 0.  1.
</event>
<event>
 7    1  0.2499014E-009  0.2573783E+03  0.7561462E-02  0.1108729E+00
          2   -1    0    0  501    0  0.00000000000E+00  0.00000000000E+00  0.17906479359E+04  0.17906479359E+04  0.00000000000E+00 0. -1.
         -2   -1    0    0    0  501 -0.00000000000E+00 -0.00000000000E+00 -0.40736896176E+02  0.40736896176E+02  0.00000000000E+00 0.  1.
         25    2    1    2    0    0 -0.11036445148E+03  0.22067121483E+03  0.91887861521E+03  0.95961543403E+03  0.12509106494E+03 0.  0.
          5    1    3    3  502    0 -0.68871345047E+02  0.58204021277E+02  0.17328271882E+03  0.19538511536E+03  0.41800000000E+01 0.  1.
         -5    1    3    3    0  502 -0.41493106437E+02  0.16246719355E+03  0.74559589638E+03  0.76423031867E+03  0.41800000000E+01 0.  1.
        -11    1    1    2    0    0  0.10605880927E+02 -0.98308796002E+02  0.41944624348E+03  0.43094344786E+03  0.00000000000E+00 0. -1.
         11    1    1    2    0    0  0.99758570558E+02 -0.12236241883E+03  0.41158618100E+03  0.44082595016E+03  0.00000000000E+00 0.  1.
</event>
<event>
 7    1  0.2499014E-009  0.1673891E+03  0.7561462E-02  0.1180598E+00
         -1   -1    0    0    0  501 -0.00000000000E+00  0.00000000000E+00  0.69688032151E+03  0.69688032151E+03  0.00000000000E+00 0.  1.
          1   -1    0    0  501    0  0.00000000000E+00 -0.00000000000E+00 -0.64994681221E+02  0.64994681221E+02  0.00000000000E+00 0. -1.
         25    2    1    2    0    0 -0.55722410550E+02  0.11486148918E+03  0.95214505557E+02  0.20251130042E+03  0.12508747337E+03 0.  0.
          5    1    3    3  502    0 -0.80161232403E+02  0.24957451278E+02  0.57857407778E+02  0.10204729095E+03  0.41800000000E+01 0.  1.
         -5    1    3    3    0  502  0.24438821853E+02  0.89904037900E+02  0.37357097780E+02  0.10046400947E+03  0.41800000000E+01 0.  1.
        -11    1    1    2    0    0  0.57146580086E+02 -0.17050179750E+02  0.18817757532E+03  0.19740121605E+03  0.00000000000E+00 0.  1.
         11    1    1    2    0    0 -0.14241695367E+01 -0.97811309428E+02  0.34849355941E+03  0.36196248626E+03  0.00000000000E+00 0. -1.
</event>
<event>
 7    1  0.2499014E-009  0.1125938E+03  0.7561462E-02  0.1255841E+00
          1   -1    0    0  501    0  0.00000000000E+00  0.00000000000E+00  0.21374498796E+02  0.21374498796E+02  0.00000000000E+00 0. -1.
         -1   -1    0    0    0  501 -0.00000000000E+00 -0.00000000000E+00 -0.63726981689E+03  0.63726981689E+03  0.00000000000E+00 0.  1.
         25    2    1    2    0    0 -0.26215096727E+02  0.31739310003E+02 -0.30158301418E+03  0.32907966977E+03  0.12508596851E+03 0.  0.
          5    1    3    3  502    0 -0.11043365860E+02 -0.46314468954E+02 -0.75219448087E+02  0.89120276786E+02  0.41800000000E+01 0. -1.
         -5    1    3    3    0  502 -0.15171730867E+02  0.78053778957E+02 -0.22636356609E+03  0.23995939298E+03  0.41800000000E+01 0. -1.
        -11    1    1    2    0    0  0.46199744545E+01 -0.61125245660E+02 -0.22207363295E+03  0.23037868450E+03  0.00000000000E+00 0.  1.
         11    1    1    2    0    0  0.21595122272E+02  0.29385935657E+02 -0.92238670969E+02  0.99185961419E+02  0.00000000000E+00 0. -1.
</event>
<event>
 7    1  0.2499014E-009  0.1207268E+03  0.7561462E-02  0.1241903E+00
          1   -1    0    0  501    0  0.00000000000E+00  0.00000000000E+00  0.29456156174E+03  0.29456156174E+03  0.00000000000E+00 0. -1.
         -1   -1    0    0    0  501 -0.00000000000E+00 -0.00000000000E+00 -0.56646696826E+02  0.56646696826E+02  0.00000000000E+00 0.  1.
         25    2    1    2    0    0 -0.60991271406E+01 -0.66792921851E+02  0.15454110083E+03  0.20982879562E+03  0.12508668139E+03 0.  0.
          5    1    3    3  502    0 -0.14865298965E+02 -0.96989655925E+02  0.14771236133E+03  0.17738202998E+03  0.41800000000E+01 0. -1.
         -5    1    3    3    0  502  0.87661718248E+01  0.30196734075E+02  0.68287395090E+01  0.32446765640E+02  0.41800000000E+01 0. -1.
        -11    1    1    2    0    0 -0.95425533477E+01  0.86126643266E+02  0.50969621147E+02  0.10053238923E+03  0.00000000000E+00 0.  1.
         11    1    1    2    0    0  0.15641680488E+02 -0.19333721415E+02  0.32404142928E+02  0.40847073716E+02  0.00000000000E+00 0. -1.
</event>
<event>
 7    1  0.2499014E-009  0.1129480E+03  0.7561462E-02  0.1255206E+00
         -1   -1    0    0    0  501 -0.00000000000E+00  0.00000000000E+00  0.12500810381E+03  0.12500810381E+03  0.00000000000E+00 0. -1.
          1   -1    0    0  501    0  0.00000000000E+00 -0.00000000000E+00 -0.15650190729E+03  0.15650190729E+03  0.00000000000E+00 0.  1.
         25    2    1    2    0    0  0.31011637332E+02  0.78240412651E+02 -0.42140333139E+02  0.15655435883E+03  0.12510066254E+03 0.  0.
          5    1    3    3  502    0 -0.10367105025E+02  0.86912704732E+02  0.11223639498E+02  0.88344425937E+02  0.41800000000E+01 0. -1.
         -5    1    3    3    0  502  0.41378742357E+02 -0.86722920810E+01 -0.53363972637E+02  0.68209932889E+02  0.41800000000E+01 0. -1.
        -11    1    1    2    0    0  0.12114033765E+02 -0.18050939653E+02  0.39822884932E+02  0.45370126744E+02  0.00000000000E+00 0. -1.
         11    1    1    2    0    0 -0.43125671097E+02 -0.60189472999E+02 -0.29176355268E+02  0.79585525532E+02  0.00000000000E+00 0.  1.
</event>
<event>
 7    1  0.2499014E-009  0.1196877E+03  0.7561462E-02  0.1243613E+00
          1   -1    0    0  501    0  0.00000000000E+00  0.00000000000E+00  0.47373280982E+03  0.47373280982E+03  0.00000000000E+00 0. -1.
         -1   -1    0    0    0  501 -0.00000000000E+00 -0.00000000000E+00 -0.43696946227E+02  0.43696946227E+02  0.00000000000E+00 0.  1.
         25    2    1    2    0    0 -0.59319918012E+02  0.74290492461E+02  0.25706114053E+03  0.30127299569E+03  0.12508820096E+03 0.  0.
          5    1    3    3  502    0 -0.23734249533E+02  0.88634110372E+02  0.24369307119E+03  0.26042869555E+03  0.41800000000E+01 0.  1.
         -5    1    3    3    0  502 -0.35585668479E+02 -0.14343617910E+02  0.13368069342E+02  0.40844300138E+02  0.41800000000E+01 0.  1.
        -11    1    1    2    0    0 -0.10021560162E+02 -0.12747646677E+02  0.90897696286E+02  0.92332688437E+02  0.00000000000E+00 0. -1.
         11    1    1    2    0    0  0.69341478174E+02 -0.61542845784E+02  0.82077026781E+02  0.12382407192E+03  0.00000000000E+00 0.  1.
</event>
<event>
 7    1  0.2499014E-009  0.1996445E+03  0.7561462E-02  0.1150039E+00
         -2   -1    0    0    0  501 -0.00000000000E+00  0.00000000000E+00  0.49620425669E+03  0.49620425669E+03  0.00000000000E+00 0.  1.
          2   -1    0    0  501    0  0.00000000000E+00 -0.00000000000E+00 -0.11561487152E+03  0.11561487152E+03  0.00000000000E+00 0. -1.
         25    2    1    2    0    0 -0.85497134952E+02 -0.17279003238E+03  0.30440281829E+03  0.38141155181E+03  0.12509013027E+03 0.  0.
          5    1    3    3  502    0 -0.67613598907E+02 -0.89695033833E+02  0.70925573025E+02  0.13290864216E+03  0.41800000000E+01 0. -1.
         -5    1    3    3    0  502 -0.17883536045E+02 -0.83094998551E+02  0.23347724527E+03  0.24850290965E+03  0.41800000000E+01 0. -1.
        -11    1    1    2    0    0  0.54378545248E+02  0.45974737617E+02  0.69739571897E+02  0.99671011687E+02  0.00000000000E+00 0. -1.
         11    1    1    2    0    0  0.31118589704E+02  0.12681529477E+03  0.64469949798E+01  0.13073656473E+03  0.00000000000E+00 0.  1.
</event>
<event>
 7    1  0.2499014E-009  0.1100943E+03  0.7561462E-02  0.1260395E+00
         -2   -1    0    0    0  501 -0.00000000000E+00  0.00000000000E+00  0.96553955375E+01  0.96553955375E+01  0.00000000000E+00 0. -1.
          2   -1    0    0  501    0  0.00000000000E+00 -0.00000000000E+00 -0.23778189880E+04  0.23778189880E+04  0.00000000000E+00 0.  1.
         25    2    1    2    0    0  0.16906869472E+02  0.42931549715E+02 -0.20226532452E+04  0.20270427319E+04  0.12508847469E+03 0.  0.
          5    1    3    3  502    0  0.62845834730E+02  0.17110089180E+02 -0.62682307050E+03  0.63021185977E+03  0.41800000000E+01 0.  1.
         -5    1    3    3    0  502 -0.45938965258E+02  0.25821460535E+02 -0.13958301747E+04  0.13968308721E+04  0.41800000000E+01 0.  1.
        -11    1    1    2    0    0  0.30579922755E+02 -0.45135516431E+02 -0.16541719052E+03  0.17417001303E+03  0.00000000000E+00 0.  1.
         11    1    1    2    0    0 -0.47486792227E+02  0.22039667162E+01 -0.18009315673E+03  0.18626163858E+03  0.00000000000E+00 0. -1.
</event>
<event>
 7    1  0.2499014E-009  0.1062877E+03  0.7561462E-02  0.1267603E+00
         -1   -1    0    0    0  501 -0.00000000000E+00  0.00000000000E+00  0.22907057198E+03  0.22907057198E+03  0.00000000000E+00 0.  1.
          1   -1    0    0  501    0  0.00000000000E+00 -0.00000000000E+00 -0.14396709250E+03  0.14396709250E+03  0.00000000000E+00 0. -1.
         25    2    1    2    0    0 -0.80481576072E+02 -0.11098735450E+02 -0.77383244471E+02  0.16803878991E+03  0.12509357447E+03 0.  0.
          5    1    3    3  502    0 -0.15568381069E+02  0.41855306903E+02  0.11009883112E+02  0.46183667364E+02  0.41800000000E+01 0. -1.
         -5    1    3    3    0  502 -0.64913195003E+02 -0.52954042353E+02 -0.88393127583E+02  0.12185512255E+03  0.41800000000E+01 0. -1.
        -11    1    1    2    0    0  0.56025454372E+02  0.17264146857E+02  0.16905900028E+03  0.17893531759E+03  0.00000000000E+00 0.  1.
         11    1    1    2    0    0  0.24456121700E+02 -0.61654114066E+01 -0.65722763313E+01  0.26063556983E+02  0.00000000000E+00 0. -1.
</event>
<event>
 7    1  0.2499014E-009  0.1037623E+03  0.7561462E-02  0.1272577E+00
         -2   -1    0    0    0  501 -0.00000000000E+00  0.00000000000E+00  0.52871291640E+02  0.52871291640E+02  0.00000000000E+00 0.  1.
          2   -1    0    0  501    0  0.00000000000E+00 -0.00000000000E+00 -0.30174157802E+03  0.30174157802E+03  0.00000000000E+00 0. -1.
         25    2    1    2    0    0  0.59028414342E+02  0.66838716624E+01 -0.18656445580E+03  0.23234169587E+03  0.12508932660E+03 0.  0.
          5    1    3    3  502    0  0.73447266324E+02 -0.43173425649E+02 -0.10122854153E+03  0.13237498115E+03  0.41800000000E+01 0.  1.
         -5    1    3    3    0  502 -0.14418851982E+02  0.49857297311E+02 -0.85335914271E+02  0.99966714721E+02  0.41800000000E+01 0.  1.
        -11    1    1    2    0    0 -0.44952044188E+02  0.12224457613E+02  0.87571222406E+01  0.47400536184E+02  0.00000000000E+00 0.  1.
         11    1    1    2    0    0 -0.14076370154E+02 -0.18908329275E+02 -0.71062952824E+02  0.74870637614E+02  0.00000000000E+00 0. -1.
</event>
<event>
 7    1  0.2499014E-009  0.1057039E+03  0.7561462E-02  0.1268739E+00
          1   -1    0    0  501    0  0.00000000000E+00  0.00000000000E+00  0.65493330835E+03  0.65493330835E+03  0.00000000000E+00 0. -1.
         -1   -1    0    0    0  501 -0.00000000000E+00 -0.00000000000E+00 -0.28258008996E+02  0.28258008996E+02  0.00000000000E+00 0.  1.
         25    2    1    2    0    0  0.58557304851E+02  0.70089337925E+01  0.48542261279E+03  0.50473691597E+03  0.12508460426E+03 0.  0.
          5    1    3    3  502    0  0.54903041900E+02  0.40580242304E+02  0.45163142833E+03  0.45678169789E+03  0.41800000000E+01 0.  1.
         -5    1    3    3    0  502  0.36542629512E+01 -0.33571308512E+02  0.33791184463E+02  0.47955218071E+02  0.41800000000E+01 0.  1.
        -11    1    1    2    0    0 -0.35247141382E+02 -0.49351315516E+02  0.75250768168E+02  0.96646735220E+02  0.00000000000E+00 0.  1.
         11    1    1    2    0    0 -0.23310163470E+02  0.42342381724E+02  0.66001918390E+02  0.81807666158E+02  0.00000000000E+00 0. -1.
</event>
<event>
 7    1  0.2499014E-009  0.9925367E+02  0.7561462E-02  0.1281873E+00
          2   -1    0    0  501    0  0.00000000000E+00  0.00000000000E+00  0.24747073240E+03  0.24747073240E+03  0.00000000000E+00 0. -1.
         -2   -1    0    0    0  501 -0.00000000000E+00 -0.00000000000E+00 -0.68215534406E+02  0.68215534406E+02  0.00000000000E+00 0.  1.
         25    2    1    2    0    0  0.60639167398E+02  0.39297621025E+02  0.10314063939E+03  0.17749731258E+03  0.12508354343E+03 0.  0.
          5    1    3    3  502    0 -0.15625276522E+02  0.41792714656E+02  0.89189098822E+02  0.99814568142E+02  0.41800000000E+01 0.  1.
         -5    1    3    3    0  502  0.76264443920E+02 -0.24950936310E+01  0.13951540567E+02  0.77682744435E+02  0.41800000000E+01 0.  1.
        -11    1    1    2    0    0 -0.33766878960E+02 -0.56882088452E+01 -0.15030691940E+02  0.37396250277E+02  0.00000000000E+00 0.  1.
         11    1    1    2    0    0 -0.26872288438E+02 -0.33609412180E+02  0.91145250548E+02  0.10079270395E+03  0.00000000000E+00 0. -1.
</event>
<event>
 7    1  0.2499014E-009  0.1346945E+03  0.7561462E-02  0.1220652E+00
          3   -1    0    0  501    0  0.00000000000E+00  0.00000000000E+00  0.18590174393E+03  0.18590174393E+03  0.00000000000E+00 0. -1.
         -3   -1    0    0    0  501 -0.00000000000E+00 -0.00000000000E+00 -0.12050017193E+03  0.12050017193E+03  0.00000000000E+00 0.  1.
         25    2    1    2    0    0 -0.16696437181E+02  0.87979369089E+02  0.86861578110E+02  0.17666811290E+03  0.12509015935E+03 0.  0.
          5    1    3    3  502    0 -0.57680589624E+02  0.31923154959E+01  0.20726735619E+02  0.61516755986E+02  0.41800000000E+01 0. -1.
         -5    1    3    3    0  502  0.40984152443E+02  0.84787053593E+02  0.66134842492E+02  0.11515135692E+03  0.41800000000E+01 0. -1.
        -11    1    1    2    0    0 -0.22419675110E+02 -0.17153881480E+01  0.16294271135E+02  0.27768465215E+02  0.00000000000E+00 0. -1.
         11    1    1    2    0    0  0.39116112292E+02 -0.86263980941E+02 -0.37754277246E+02  0.10196533773E+03  0.00000000000E+00 0.  1.
</event>
<event>
 7    1  0.2499014E-009  0.7086991E+02  0.7561462E-02  0.1357160E+00
         -2   -1    0    0    0  501 -0.00000000000E+00  0.00000000000E+00  0.18856364957E+03  0.18856364957E+03  0.00000000000E+00 0.  1.
          2   -1    0    0  501    0  0.00000000000E+00 -0.00000000000E+00 -0.78343061989E+02  0.78343061989E+02  0.00000000000E+00 0. -1.
         25    2    1    2    0    0 -0.70230063655E+01 -0.17047662946E+02  0.11974061083E+03  0.17414231446E+03  0.12509111229E+03 0.  0.
          5    1    3    3  502    0  0.38339636924E+02  0.17731113638E+02  0.11896854911E+01  0.42464195528E+02  0.41800000000E+01 0.  1.
         -5    1    3    3    0  502 -0.45362643289E+02 -0.34778776584E+02  0.11855092534E+03  0.13167811893E+03  0.41800000000E+01 0.  1.
        -11    1    1    2    0    0 -0.15376449851E+02  0.33948391545E+01  0.36522975793E+02  0.39772954425E+02  0.00000000000E+00 0.  1.
         11    1    1    2    0    0  0.22399456216E+02  0.13652823791E+02 -0.46042999039E+02  0.52991442675E+02  0.00000000000E+00 0. -1.
</event>
<event>
 7    1  0.2499014E-009  0.9586223E+02  0.7561462E-02  0.1289246E+00
         -1   -1    0    0    0  501 -0.00000000000E+00  0.00000000000E+00  0.22607876458E+03  0.22607876458E+03  0.00000000000E+00 0.  1.
          1   -1    0    0  501    0  0.00000000000E+00 -0.00000000000E+00 -0.75530362917E+02  0.75530362917E+02  0.00000000000E+00 0. -1.
         25    2    1    2    0    0  0.16397168737E+02  0.43051322491E+02  0.14567292973E+03  0.19746110053E+03  0.12509196719E+03 0.  0.
          5    1    3    3  502    0  0.88648562522E+01  0.86856384597E+02  0.83188105927E+02  0.12066627776E+03  0.41800000000E+01 0. -1.
         -5    1    3    3    0  502  0.75323124851E+01 -0.43805062106E+02  0.62484823805E+02  0.76794822764E+02  0.41800000000E+01 0. -1.
        -11    1    1    2    0    0 -0.27005690884E+02 -0.17964151090E+02  0.45110362177E+02  0.55560443125E+02  0.00000000000E+00 0.  1.
         11    1    1    2    0    0  0.10608522146E+02 -0.25087171401E+02 -0.40234890244E+02  0.48587583846E+02  0.00000000000E+00 0. -1.
</event>
<event>
 7    1  0.2499014E-009  0.1678684E+03  0.7561462E-02  0.1180089E+00
         -2   -1    0    0    0  501 -0.00000000000E+00  0.00000000000E+00  0.17291966934E+02  0.17291966934E+02  0.00000000000E+00 0.  1.
          2   -1    0    0  501    0  0.00000000000E+00 -0.00000000000E+00 -0.16633778413E+04  0.16633778413E+04  0.00000000000E+00 0. -1.
         25    2    1    2    0    0 -0.19664700758E+02 -0.12976009730E+03 -0.84822077096E+03  0.86737907464E+03  0.12507437597E+03 0.  0.
          5    1    3    3  502    0  0.17346905857E+02 -0.13916158981E+03 -0.71935988605E+03  0.73291403403E+03  0.41800000000E+01 0.  1.
         -5    1    3    3    0  502 -0.37011606614E+02  0.94014925103E+01 -0.12886088492E+03  0.13446504061E+03  0.41800000000E+01 0.  1.
        -11    1    1    2    0    0 -0.31355525124E+02  0.23624733712E+02 -0.23251137703E+03  0.23580253910E+03  0.00000000000E+00 0.  1.
         11    1    1    2    0    0  0.51020225882E+02  0.10613536359E+03 -0.56535372637E+03  0.57748819449E+03  0.00000000000E+00 0. -1.
</event>
<event>
 7    1  0.2499014E-009  0.2419127E+03  0.7561462E-02  0.1118525E+00
          1   -1    0    0  501    0  0.00000000000E+00  0.00000000000E+00  0.21745446809E+04  0.21745446809E+04  0.00000000000E+00 0.  1.
         -1   -1    0    0    0  501 -0.00000000000E+00 -0.00000000000E+00 -0.35738232584E+02  0.35738232584E+02  0.00000000000E+00 0. -1.
         25    2    1    2    0    0 -0.23000429806E+03  0.58472710399E+02  0.14756839241E+04  0.14998707081E+04  0.12509221481E+03 0.  0.
          5    1    3    3  502    0 -0.11271249946E+03  0.37122648339E+02  0.39062375167E+03  0.40827268623E+03  0.41800000000E+01 0.  1.
         -5    1    3    3    0  502 -0.11729179860E+03  0.21350062061E+02  0.10850601724E+04  0.10915980219E+04  0.41800000000E+01 0.  1.
        -11    1    1    2    0    0  0.43831268123E+02 -0.38878921450E+02  0.89116546187E+02  0.10665134506E+03  0.00000000000E+00 0.  1.
         11    1    1    2    0    0  0.18617302993E+03 -0.19593788949E+02  0.57400597805E+03  0.60376086034E+03  0.00000000000E+00 0. -1.
</event>
<event>
 7    1  0.2499014E-009  0.1053489E+03  0.7561462E-02  0.1269434E+00
         -2   -1    0    0    0  501 -0.00000000000E+00  0.00000000000E+00  0.56333070130E+02  0.56333070130E+02  0.00000000000E+00 0.  1.
          2   -1    0    0  501    0  0.00000000000E+00 -0.00000000000E+00 -0.50401157802E+03  0.50401157802E+03  0.00000000000E+00 0. -1.
         25    2    1    2    0    0  0.71008219972E+02 -0.54782205731E+02 -0.85061572039E+02  0.17585897397E+03  0.12509056846E+03 0.  0.
          5    1    3    3  502    0  0.11688813840E+01 -0.32786511964E+01 -0.88737625010E+02  0.88904186233E+02  0.41800000000E+01 0. -1.
         -5    1    3    3    0  502  0.69839338588E+02 -0.51503554534E+02  0.36760529716E+01  0.86954787732E+02  0.41800000000E+01 0. -1.
        -11    1    1    2    0    0 -0.75967198710E+02  0.13935701587E+02 -0.15916194820E+03  0.17691168648E+03  0.00000000000E+00 0.  1.
         11    1    1    2    0    0  0.49589787380E+01  0.40846504143E+02 -0.20345498765E+03  0.20757398770E+03  0.00000000000E+00 0. -1.
</event>
<event>
 7    1  0.2997874E-009  0.1807845E+03  0.7561462E-02  0.1167046E+00
         -2   -1    0    0    0  501 -0.00000000000E+00  0.00000000000E+00  0.32830572460E+02  0.32830572460E+02  0.00000000000E+00 0. -1.
          2   -1    0    0  501    0  0.00000000000E+00 -0.00000000000E+00 -0.10643047702E+04  0.10643047702E+04  0.00000000000E+00 0.  1.
         25    2    1    2    0    0 -0.15112957932E+03  0.10081291388E+02 -0.50782293885E+03  0.54449364571E+03  0.12508961111E+03 0.  0.
          5    1    3    3  502    0 -0.13130698702E+02 -0.40979813374E+02 -0.66959718731E+02  0.79704684211E+02  0.41800000000E+01 0. -1.
         -5    1    3    3    0  502 -0.13799888062E+03  0.51061104761E+02 -0.44086322012E+03  0.46478896149E+03  0.41800000000E+01 0. -1.
        -11    1    1    2    0    0  0.12673069955E+03 -0.39657795968E+02 -0.45531751318E+03  0.47428625196E+03  0.00000000000E+00 0. -1.
         11    1    1    2    0    0  0.24398879765E+02  0.29576504581E+02 -0.68333745665E+02  0.78355444952E+02  0.00000000000E+00 0.  1.
</event>
<event>
 7    1  0.2499014E-009  0.1112235E+03  0.7561462E-02  0.1258321E+00
          1   -1    0    0  501    0  0.00000000000E+00  0.00000000000E+00  0.15730080882E+03  0.15730080882E+03  0.00000000000E+00 0. -1.
         -1   -1    0    0    0  501 -0.00000000000E+00 -0.00000000000E+00 -0.10118772177E+03  0.10118772177E+03  0.00000000000E+00 0.  1.
         25    2    1    2    0    0  0.44830056152E+02 -0.46909780349E+02  0.43329170634E+02  0.14742982220E+03  0.12509146262E+03 0.  0.
          5    1    3    3  502    0 -0.14378160221E+02 -0.50727228931E+02 -0.23577347760E+02  0.57908090745E+02  0.41800000000E+01 0. -1.
         -5    1    3    3    0  502  0.59208216373E+02  0.38174485821E+01  0.66906518395E+02  0.89521731459E+02  0.41800000000E+01 0. -1.
        -11    1    1    2    0    0  0.22122275390E+02 -0.79631793090E+01  0.57675324116E+01  0.24208918258E+02  0.00000000000E+00 0. -1.
         11    1    1    2    0    0 -0.66952331542E+02  0.54872959658E+02  0.70163840096E+01  0.86849790127E+02  0.00000000000E+00 0.  1.
</event>
<event>
 7    1  0.2499014E-009  0.1045773E+03  0.7561462E-02  0.1270955E+00
         -1   -1    0    0    0  501 -0.00000000000E+00  0.00000000000E+00  0.45224867379E+03  0.45224867379E+03  0.00000000000E+00 0.  1.
          1   -1    0    0  501    0  0.00000000000E+00 -0.00000000000E+00 -0.44256171537E+02  0.44256171537E+02  0.00000000000E+00 0. -1.
         25    2    1    2    0    0 -0.17991537285E+02  0.62449308919E+02  0.33367412561E+03  0.36222834079E+03  0.12508931679E+03 0.  0.
          5    1    3    3  502    0 -0.49043195413E+02 -0.13666292167E+02  0.18895683149E+03  0.19574002944E+03  0.41800000000E+01 0.  1.
         -5    1    3    3    0  502  0.31051658128E+02  0.76115601086E+02  0.14471729412E+03  0.16648831136E+03  0.41800000000E+01 0.  1.
        -11    1    1    2    0    0 -0.11337313125E+02 -0.29736036711E+02 -0.14662800628E+02  0.35039467325E+02  0.00000000000E+00 0. -1.
         11    1    1    2    0    0  0.29328850410E+02 -0.32713272208E+02  0.88981177272E+02  0.99237037207E+02  0.00000000000E+00 0.  1.
</event>
<event>
 7    1  0.2499014E-009  0.1556756E+03  0.7561462E-02  0.1193667E+00
         -2   -1    0    0    0  501 -0.00000000000E+00  0.00000000000E+00  0.14305490084E+03  0.14305490084E+03  0.00000000000E+00 0.  1.
          2   -1    0    0  501    0  0.00000000000E+00 -0.00000000000E+00 -0.17762575328E+03  0.17762575328E+03  0.00000000000E+00 0. -1.
         25    2    1    2    0    0  0.44059950774E+01  0.12172604459E+03 -0.78220736326E+01  0.17477293262E+03  0.12509096856E+03 0.  0.
          5    1    3    3  502    0  0.60715343393E+02  0.91988608535E+02 -0.11210840218E+02  0.11086664224E+03  0.41800000000E+01 0. -1.
         -5    1    3    3    0  502 -0.56309348316E+02  0.29737436058E+02  0.33887665854E+01  0.63906290379E+02  0.41800000000E+01 0. -1.
        -11    1    1    2    0    0  0.20914163992E+02 -0.10459509631E+03 -0.21800691763E+01  0.10668781153E+03  0.00000000000E+00 0.  1.
         11    1    1    2    0    0 -0.25320159070E+02 -0.17130948281E+02 -0.24568709639E+02  0.39219909965E+02  0.00000000000E+00 0. -1.
</event>
<event>
 7    1  0.2499014E-009  0.1726298E+03  0.7561462E-02  0.1175133E+00
          1   -1    0    0  501    0  0.00000000000E+00  0.00000000000E+00  0.68783404712E+03  0.68783404712E+03  0.00000000000E+00 0.  1.
         -1   -1    0    0    0  501 -0.00000000000E+00 -0.00000000000E+00 -0.57864357241E+02  0.57864357241E+02  0.00000000000E+00 0. -1.
         25    2    1    2    0    0  0.31627463307E+01  0.15969493805E+03  0.23749682546E+03  0.31235256960E+03  0.12508760703E+03 0.  0.
          5    1    3    3  502    0 -0.16534073911E+02  0.15391128441E+02  0.12812453890E+03  0.13016770837E+03  0.41800000000E+01 0. -1.
         -5    1    3    3    0  502  0.19696820241E+02  0.14430380961E+03  0.10937228656E+03  0.18218486123E+03  0.41800000000E+01 0. -1.
        -11    1    1    2    0    0  0.30449503486E+02 -0.12346618873E+03  0.22186805959E+03  0.25572740934E+03  0.00000000000E+00 0. -1.
         11    1    1    2    0    0 -0.33612249816E+02 -0.36228749315E+02  0.17060480484E+03  0.17761842542E+03  0.00000000000E+00 0.  1.
</event>
<event>
 7    1  0.2499014E-009  0.2706185E+03  0.7561462E-02  0.1100926E+00
         -2   -1    0    0    0  501 -0.00000000000E+00  0.00000000000E+00  0.42234110967E+02  0.42234110967E+02  0.00000000000E+00 0.  1.
          2   -1    0    0  501    0  0.00000000000E+00 -0.00000000000E+00 -0.24044418993E+04  0.24044418993E+04  0.00000000000E+00 0. -1.
         25    2    1    2    0    0 -0.25528766612E+03 -0.17029730946E+02 -0.17975849950E+04  0.18200056237E+04  0.12508737759E+03 0.  0.
          5    1    3    3  502    0 -0.75514001628E+02 -0.46023250516E+02 -0.35075950865E+03  0.36175987801E+03  0.41800000000E+01 0. -1.
         -5    1    3    3    0  502 -0.17977366450E+03  0.28993519570E+02 -0.14468254863E+04  0.14582457457E+04  0.41800000000E+01 0. -1.
        -11    1    1    2    0    0  0.58312626978E+02 -0.33441950878E+02 -0.11499359739E+03  0.13320005250E+03  0.00000000000E+00 0.  1.
         11    1    1    2    0    0  0.19697503915E+03  0.50471681824E+02 -0.44962919593E+03  0.49347033401E+03  0.00000000000E+00 0. -1.
</event>
<event>
 7    1  0.2499014E-009  0.1120553E+03  0.7561462E-02  0.1256811E+00
         -1   -1    0    0    0  501 -0.00000000000E+00  0.00000000000E+00  0.14075073143E+03  0.14075073143E+03  0.00000000000E+00 0.  1.
          1   -1    0    0  501    0  0.00000000000E+00 -0.00000000000E+00 -0.11182728075E+03  0.11182728075E+03  0.00000000000E+00 0. -1.
         25    2    1    2    0    0  0.23901718510E+02 -0.43229542275E+02 -0.22893963646E+02  0.13642763368E+03  0.12509308609E+03 0.  0.
          5    1    3    3  502    0  0.25280707647E+02  0.40923003485E+02 -0.19557877447E+02  0.52094043456E+02  0.41800000000E+01 0. -1.
         -5    1    3    3    0  502 -0.13789891374E+01 -0.84152545759E+02 -0.33360861988E+01  0.84333590223E+02  0.41800000000E+01 0. -1.
        -11    1    1    2    0    0  0.14047873455E+02  0.50934089665E+02  0.56250748391E+02  0.77173641440E+02  0.00000000000E+00 0.  1.
         11    1    1    2    0    0 -0.37949591965E+02 -0.77045473900E+01 -0.44333340641E+01  0.38976737058E+02  0.00000000000E+00 0. -1.
</event>
<event>
 7    1  0.2499014E-009  0.1073533E+03  0.7561462E-02  0.1265551E+00
          2   -1    0    0  501    0  0.00000000000E+00  0.00000000000E+00  0.52381147228E+03  0.52381147228E+03  0.00000000000E+00 0. -1.
         -2   -1    0    0    0  501 -0.00000000000E+00 -0.00000000000E+00 -0.33864397863E+02  0.33864397863E+02  0.00000000000E+00 0.  1.
         25    2    1    2    0    0 -0.63041040483E+02 -0.32887674608E+02  0.32943732715E+03  0.35949271675E+03  0.12510111491E+03 0.  0.
          5    1    3    3  502    0 -0.77857140973E+02 -0.34796119817E+02  0.33283568862E+03  0.34361253232E+03  0.41800000000E+01 0. -1.
         -5    1    3    3    0  502  0.14816100490E+02  0.19084452093E+01 -0.33983614640E+01  0.15880184429E+02  0.41800000000E+01 0. -1.
        -11    1    1    2    0    0  0.51504959339E+02  0.63112548638E+02  0.13173025959E+03  0.15488323319E+03  0.00000000000E+00 0. -1.
         11    1    1    2    0    0  0.11536081144E+02 -0.30224874030E+02  0.28779487674E+02  0.43299920197E+02  0.00000000000E+00 0.  1.
</event>
<event>
 7    1  0.2499014E-009  0.1002759E+03  0.7561462E-02  0.1279717E+00
          1   -1    0    0  501    0  0.00000000000E+00  0.00000000000E+00  0.65604425294E+02  0.65604425294E+02  0.00000000000E+00 0. -1.
         -1   -1    0    0    0  501 -0.00000000000E+00 -0.00000000000E+00 -0.21683688019E+03  0.21683688019E+03  0.00000000000E+00 0.  1.
         25    2    1    2    0    0  0.11528972630E+02  0.32707278150E+02 -0.12492321608E+03  0.18015479802E+03  0.12508900063E+03 0.  0.
          5    1    3    3  502    0 -0.49401449591E+02 -0.12312781871E+02 -0.32369608556E+02  0.60476208357E+02  0.41800000000E+01 0. -1.
         -5    1    3    3    0  502  0.60930422221E+02  0.45020060020E+02 -0.92553607528E+02  0.11967858966E+03  0.41800000000E+01 0. -1.
        -11    1    1    2    0    0  0.26829442897E+02 -0.18935101898E+02 -0.46402453147E+02  0.56846677547E+02  0.00000000000E+00 0.  1.
         11    1    1    2    0    0 -0.38358415527E+02 -0.13772176252E+02  0.20093214339E+02  0.45439829917E+02  0.00000000000E+00 0. -1.
</event>
<event>
 7    1  0.2499014E-009  0.9672909E+02  0.7561462E-02  0.1287329E+00
         -3   -1    0    0    0  501 -0.00000000000E+00  0.00000000000E+00  0.21405576233E+03  0.21405576233E+03  0.00000000000E+00 0.  1.
          3   -1    0    0  501    0  0.00000000000E+00 -0.00000000000E+00 -0.85545217544E+02  0.85545217544E+02  0.00000000000E+00 0. -1.
         25    2    1    2    0    0  0.29039928728E+02 -0.56395992586E+02  0.12523596961E+03  0.18803033001E+03  0.12509009346E+03 0.  0.
          5    1    3    3  502    0  0.16801203506E+02 -0.65468434992E+02  0.62573770534E+01  0.68007525959E+02  0.41800000000E+01 0.  1.
         -5    1    3    3    0  502  0.12238725221E+02  0.90724424062E+01  0.11897859256E+03  0.12002280406E+03  0.41800000000E+01 0.  1.
        -11    1    1    2    0    0  0.25762779805E+02 -0.64491112954E+01  0.88689762868E+01  0.27999474998E+02  0.00000000000E+00 0.  1.
         11    1    1    2    0    0 -0.54802708532E+02  0.62845103881E+02 -0.55944011100E+01  0.83571174864E+02  0.00000000000E+00 0. -1.
</event>
<event>
 7    1  0.2499014E-009  0.1085673E+03  0.7561462E-02  0.1263246E+00
         -3   -1    0    0    0  501 -0.00000000000E+00  0.00000000000E+00  0.18346479661E+03  0.18346479661E+03  0.00000000000E+00 0.  1.
          3   -1    0    0  501    0  0.00000000000E+00 -0.00000000000E+00 -0.10078208832E+03  0.10078208832E+03  0.00000000000E+00 0. -1.
         25    2    1    2    0    0 -0.52370424016E+02 -0.23189324148E+02 -0.17442439294E+02  0.13868432334E+03  0.12509475123E+03 0.  0.
          5    1    3    3  502    0 -0.64239186583E+02  0.26314619689E+02  0.23302401392E+02  0.73345801604E+02  0.41800000000E+01 0. -1.
         -5    1    3    3    0  502  0.11868762568E+02 -0.49503943837E+02 -0.40744840686E+02  0.65338521737E+02  0.41800000000E+01 0. -1.
        -11    1    1    2    0    0  0.67508837665E+02 -0.15277417385E+01  0.39163476250E+02  0.78061226160E+02  0.00000000000E+00 0. -1.
         11    1    1    2    0    0 -0.15138413649E+02  0.24717065887E+02  0.60961671332E+02  0.67501335435E+02  0.00000000000E+00 0.  1.
</event>
<event>
 7    1  0.2499014E-009  0.1086313E+03  0.7561462E-02  0.1263126E+00
         -2   -1    0    0    0  501 -0.00000000000E+00  0.00000000000E+00  0.56128924537E+02  0.56128924537E+02  0.00000000000E+00 0.  1.
          2   -1    0    0  501    0  0.00000000000E+00 -0.00000000000E+00 -0.29851708843E+03  0.29851708843E+03  0.00000000000E+00 0. -1.
         25    2    1    2    0    0 -0.15899308786E+02 -0.43646118957E+02 -0.61659865890E+02  0.14698446665E+03  0.12507886575E+03 0.  0.
          5    1    3    3  502    0  0.43357746391E+02  0.12693654281E+01  0.88056911994E+01  0.44458048295E+02  0.41800000000E+01 0.  1.
         -5    1    3    3    0  502 -0.59257055177E+02 -0.44915484385E+02 -0.70465557089E+02  0.10252641836E+03  0.41800000000E+01 0.  1.
        -11    1    1    2    0    0  0.46621154998E+02  0.97399758965E+00 -0.11045053374E+03  0.11989078851E+03  0.00000000000E+00 0. -1.
         11    1    1    2    0    0 -0.30721846212E+02  0.42672121367E+02 -0.70277764264E+02  0.87770757810E+02  0.00000000000E+00 0.  1.
</event>
<event>
 7    1  0.2499014E-009  0.1392151E+03  0.7561462E-02  0.1214389E+00
         -1   -1    0    0    0  501 -0.00000000000E+00  0.00000000000E+00  0.15426855198E+03  0.15426855198E+03  0.00000000000E+00 0.  1.
          1   -1    0    0  501    0  0.00000000000E+00 -0.00000000000E+00 -0.17641087257E+03  0.17641087257E+03  0.00000000000E+00 0. -1.
         25    2    1    2    0    0 -0.68892271834E+02  0.99075833220E+02 -0.43060967663E+02  0.17906407182E+03  0.12509008368E+03 0.  0.
          5    1    3    3  502    0  0.23992206206E+02  0.52896163275E+01 -0.39801588343E+02  0.46960034435E+02  0.41800000000E+01 0.  1.
         -5    1    3    3    0  502 -0.92884478040E+02  0.93786216893E+02 -0.32593793201E+01  0.13210403738E+03  0.41800000000E+01 0.  1.
        -11    1    1    2    0    0  0.61450072451E+02 -0.79350551401E+02  0.52792104543E+02  0.11340029856E+03  0.00000000000E+00 0.  1.
         11    1    1    2    0    0  0.74421993828E+01 -0.19725281819E+02 -0.31873457466E+02  0.38215054171E+02  0.00000000000E+00 0. -1.
</event>
<event>
 7    1  0.2499014E-009  0.1026675E+03  0.7561462E-02  0.1274785E+00
          2   -1    0    0  501    0  0.00000000000E+00  0.00000000000E+00  0.46880440169E+03  0.46880440169E+03  0.00000000000E+00 0. -1.
         -2   -1    0    0    0  501 -0.00000000000E+00 -0.00000000000E+00 -0.56940480708E+02  0.56940480708E+02  0.00000000000E+00 0.  1.
         25    2    1    2    0    0  0.22971279839E+02  0.66590442671E+02  0.38470639433E+03  0.41061362447E+03  0.12507026828E+03 0.  0.
          5    1    3    3  502    0  0.27076786386E+02  0.95455308391E+02  0.35559213087E+03  0.36919927438E+03  0.41800000000E+01 0.  1.
         -5    1    3    3    0  502 -0.41055065469E+01 -0.28864865720E+02  0.29114263460E+02  0.41414350096E+02  0.41800000000E+01 0.  1.
        -11    1    1    2    0    0 -0.10872264404E+02 -0.22482806427E+01 -0.27620122535E+02  0.29767970505E+02  0.00000000000E+00 0.  1.
         11    1    1    2    0    0 -0.12099015435E+02 -0.64342162028E+02  0.54777649184E+02  0.85363287419E+02  0.00000000000E+00 0. -1.
</event>
<event>
 7    1  0.2499014E-009  0.5580796E+02  0.7561462E-02  0.1416316E+00
         -2   -1    0    0    0  501 -0.00000000000E+00  0.00000000000E+00  0.30253389417E+02  0.30253389417E+02  0.00000000000E+00 0.  1.
          2   -1    0    0  501    0  0.00000000000E+00 -0.00000000000E+00 -0.74163158380E+03  0.74163158380E+03  0.00000000000E+00 0. -1.
         25    2    1    2    0    0  0.25638598097E+01  0.70947911610E+01 -0.65008008850E+03  0.66204885902E+03  0.12509061044E+03 0.  0.
          5    1    3    3  502    0  0.91993070822E+01  0.33045288751E+02 -0.46877385722E+02  0.58237273731E+02  0.41800000000E+01 0. -1.
         -5    1    3    3    0  502 -0.66354472725E+01 -0.25950497590E+02 -0.60320270278E+03  0.60381158529E+03  0.41800000000E+01 0. -1.
        -11    1    1    2    0    0 -0.23493548740E+02 -0.14663968358E+02  0.14202255104E+02  0.31123670260E+02  0.00000000000E+00 0.  1.
         11    1    1    2    0    0  0.20929688930E+02  0.75691771973E+01 -0.75500360977E+02  0.78712443933E+02  0.00000000000E+00 0. -1.
</event>
<event>
 7    1  0.2499014E-009  0.1927806E+03  0.7561462E-02  0.1155977E+00
          1   -1    0    0  501    0  0.00000000000E+00  0.00000000000E+00  0.11859743752E+04  0.11859743752E+04  0.00000000000E+00 0. -1.
         -1   -1    0    0    0  501 -0.00000000000E+00 -0.00000000000E+00 -0.33238650773E+02  0.33238650773E+02  0.00000000000E+00 0.  1.
         25    2    1    2    0    0 -0.36373157452E+02 -0.15996085642E+03  0.63028095913E+03  0.66318386323E+03  0.12509303272E+03 0.  0.
          5    1    3    3  502    0 -0.53548840161E+02 -0.17465005067E+03  0.57433464554E+03  0.60270048611E+03  0.41800000000E+01 0. -1.
         -5    1    3    3    0  502  0.17175682710E+02  0.14689194249E+02  0.55946313592E+02  0.60483377128E+02  0.41800000000E+01 0. -1.
        -11    1    1    2    0    0  0.58612751730E+02  0.10011986305E+03  0.24161401151E+03  0.26802382767E+03  0.00000000000E+00 0.  1.
         11    1    1    2    0    0 -0.22239594279E+02  0.59840993369E+02  0.28084075380E+03  0.28800533509E+03  0.00000000000E+00 0. -1.
</event>
<event>
 7    1  0.2499014E-009  0.1536452E+03  0.7561462E-02  0.1196064E+00
          2   -1    0    0  501    0  0.00000000000E+00  0.00000000000E+00  0.31704430554E+03  0.31704430554E+03  0.00000000000E+00 0. -1.
         -2   -1    0    0    0  501 -0.00000000000E+00 -0.00000000000E+00 -0.11810625553E+03  0.11810625553E+03  0.00000000000E+00 0.  1.
         25    2    1    2    0    0  0.67036446972E+02 -0.10959839883E+03 -0.73007331209E+01  0.17946600287E+03  0.12509616794E+03 0.  0.
          5    1    3    3  502    0  0.74842438793E+02 -0.13358975487E+03 -0.11222827338E+02  0.15359374174E+03  0.41800000000E+01 0. -1.
         -5    1    3    3    0  502 -0.78059918209E+01  0.23991356036E+02  0.39220942174E+01  0.25872261126E+02  0.41800000000E+01 0. -1.
        -11    1    1    2    0    0 -0.24701630318E+02  0.44043141223E+02  0.21019545382E+02  0.54697258772E+02  0.00000000000E+00 0.  1.
         11    1    1    2    0    0 -0.42334816654E+02  0.65555257607E+02  0.18521923775E+03  0.20098729943E+03  0.00000000000E+00 0. -1.
</event>
<event>
 7    1  0.2499014E-009  0.1448022E+03  0.7561462E-02  0.1207009E+00
          2   -1    0    0  501    0  0.00000000000E+00  0.00000000000E+00  0.11924136053E+04  0.11924136053E+04  0.00000000000E+00 0. -1.
         -2   -1    0    0    0  501 -0.00000000000E+00 -0.00000000000E+00 -0.27079078374E+02  0.27079078374E+02  0.00000000000E+00 0.  1.
         25    2    1    2    0    0  0.12533095396E+03  0.21390366343E+02  0.39393194553E+03  0.43242962916E+03  0.12509040999E+03 0.  0.
          5    1    3    3  502    0  0.35711451852E+02 -0.11978043439E+02  0.13643042595E+02  0.40278857099E+02  0.41800000000E+01 0. -1.
         -5    1    3    3    0  502  0.89619502107E+02  0.33368409782E+02  0.38028890294E+03  0.39215077206E+03  0.41800000000E+01 0. -1.
        -11    1    1    2    0    0 -0.57769981132E+02 -0.55667538244E+02  0.41851350484E+03  0.42613354628E+03  0.00000000000E+00 0.  1.
         11    1    1    2    0    0 -0.67560972826E+02  0.34277171901E+02  0.35288907659E+03  0.36092950826E+03  0.00000000000E+00 0. -1.
</event>
<event>
 7    1  0.2499014E-009  0.1125195E+03  0.7561462E-02  0.1255974E+00
          1   -1    0    0  501    0  0.00000000000E+00  0.00000000000E+00  0.59122454546E+02  0.59122454546E+02  0.00000000000E+00 0.  1.
         -1   -1    0    0    0  501 -0.00000000000E+00 -0.00000000000E+00 -0.30870922955E+03  0.30870922955E+03  0.00000000000E+00 0. -1.
         25    2    1    2    0    0  0.26407214474E+02 -0.61951281619E+02 -0.19573402594E+03  0.24185402962E+03  0.12508501295E+03 0.  0.
          5    1    3    3  502    0  0.64164481491E+02 -0.38384137843E+01 -0.54102689394E+02  0.84121266663E+02  0.41800000000E+01 0. -1.
         -5    1    3    3    0  502 -0.37757267017E+02 -0.58112867835E+02 -0.14163133654E+03  0.15773276296E+03  0.41800000000E+01 0. -1.
        -11    1    1    2    0    0 -0.25809553929E+02  0.74391657059E+02 -0.87962803478E+01  0.79231472673E+02  0.00000000000E+00 0.  1.
         11    1    1    2    0    0 -0.59766054450E+00 -0.12440375440E+02 -0.45056468717E+02  0.46746181795E+02  0.00000000000E+00 0. -1.
</event>
<event>
 7    1  0.2499014E-009  0.8117362E+02  0.7561462E-02  0.1325753E+00
         -4   -1    0    0    0  501 -0.00000000000E+00  0.00000000000E+00  0.81563104612E+02  0.81563104612E+02  0.00000000000E+00 0. -1.
          4   -1    0    0  501    0  0.00000000000E+00 -0.00000000000E+00 -0.15807483525E+03  0.15807483525E+03  0.00000000000E+00 0.  1.
         25    2    1    2    0    0  0.10636808289E+02  0.27942805899E+02 -0.63600006835E+02  0.14347953745E+03  0.12508986651E+03 0.  0.
          5    1    3    3  502    0  0.35543856428E+02  0.17534054185E+02 -0.94306311338E+02  0.10238145117E+03  0.41800000000E+01 0.  1.
         -5    1    3    3    0  502 -0.24907048139E+02  0.10408751714E+02  0.30706304503E+02  0.41098086275E+02  0.41800000000E+01 0.  1.
        -11    1    1    2    0    0  0.10087347825E+02  0.31051683258E+02 -0.22426421108E+01  0.32725999800E+02  0.00000000000E+00 0.  1.
         11    1    1    2    0    0 -0.20724156113E+02 -0.58994489158E+02 -0.10669081696E+02  0.63432402617E+02  0.00000000000E+00 0. -1.
</event>
<event>
 7    1  0.2499014E-009  0.1172510E+03  0.7561462E-02  0.1247702E+00
          1   -1    0    0  501    0  0.00000000000E+00  0.00000000000E+00  0.44334077732E+03  0.44334077732E+03  0.00000000000E+00 0. -1.
         -1   -1    0    0    0  501 -0.00000000000E+00 -0.00000000000E+00 -0.53507514973E+02  0.53507514973E+02  0.00000000000E+00 0.  1.
         25    2    1    2    0    0 -0.51787341248E+02 -0.21038867577E+01  0.54651934590E+02  0.14601825669E+03  0.12509253486E+03 0.  0.
          5    1    3    3  502    0 -0.92962592627E+02 -0.47513400404E+01  0.44821644030E+02  0.10339763553E+03  0.41800000000E+01 0.  1.
         -5    1    3    3    0  502  0.41175251379E+02  0.26474532827E+01  0.98302905600E+01  0.42620621154E+02  0.41800000000E+01 0.  1.
        -11    1    1    2    0    0 -0.23299090782E+02  0.77506319814E+01  0.12930432382E+03  0.13161507545E+03  0.00000000000E+00 0. -1.
         11    1    1    2    0    0  0.75086432030E+02 -0.56467452237E+01  0.20587700394E+03  0.21921496016E+03  0.00000000000E+00 0.  1.
</event>
<event>
 7    1  0.2499014E-009  0.8931039E+02  0.7561462E-02  0.1304530E+00
         -1   -1    0    0    0  501 -0.00000000000E+00  0.00000000000E+00  0.24458000561E+03  0.24458000561E+03  0.00000000000E+00 0.  1.
          1   -1    0    0  501    0  0.00000000000E+00 -0.00000000000E+00 -0.52145691264E+02  0.52145691264E+02  0.00000000000E+00 0. -1.
         25    2    1    2    0    0 -0.21803995063E+02 -0.62070319295E+01  0.13110942894E+03  0.18262457130E+03  0.12509240679E+03 0.  0.
          5    1    3    3  502    0 -0.45841230124E+02  0.17407401550E+02  0.13926486091E+03  0.14770446808E+03  0.41800000000E+01 0. -1.
         -5    1    3    3    0  502  0.24037235062E+02 -0.23614433480E+02 -0.81554319637E+01  0.34920103214E+02  0.41800000000E+01 0. -1.
        -11    1    1    2    0    0  0.87427106872E+00 -0.42464039897E+02  0.20195980140E+02  0.47030167425E+02  0.00000000000E+00 0. -1.
         11    1    1    2    0    0  0.20929723994E+02  0.48671071826E+02  0.41128905258E+02  0.67070958148E+02  0.00000000000E+00 0.  1.
</event>
<event>
 7    1  0.2499014E-009  0.1521130E+03  0.7561462E-02  0.1197900E+00
         -3   -1    0    0    0  501 -0.00000000000E+00  0.00000000000E+00  0.74099586918E+02  0.74099586918E+02  0.00000000000E+00 0.  1.
          3   -1    0    0  501    0  0.00000000000E+00 -0.00000000000E+00 -0.49714021697E+03  0.49714021697E+03  0.00000000000E+00 0. -1.
         25    2    1    2    0    0  0.14060476002E+03  0.13250487670E+02 -0.33149329503E+03  0.38141914600E+03  0.12508991296E+03 0.  0.
          5    1    3    3  502    0  0.23346040916E+02  0.15851954643E+02  0.12809150667E+01  0.28555826653E+02  0.41800000000E+01 0. -1.
         -5    1    3    3    0  502  0.11725871911E+03 -0.26014669731E+01 -0.33277421010E+03  0.35286331935E+03  0.41800000000E+01 0. -1.
        -11    1    1    2    0    0 -0.42521881662E+02 -0.38166911385E+02 -0.62182465388E+02  0.84448105642E+02  0.00000000000E+00 0.  1.
         11    1    1    2    0    0 -0.98082878359E+02  0.24916423715E+02 -0.29364869634E+02  0.10537255224E+03  0.00000000000E+00 0. -1.
</event>
<event>
 7    1  0.2499014E-009  0.2653392E+03  0.7561462E-02  0.1103977E+00
         -2   -1    0    0    0  501 -0.00000000000E+00  0.00000000000E+00  0.49443701518E+02  0.49443701518E+02  0.00000000000E+00 0.  1.
          2   -1    0    0  501    0  0.00000000000E+00 -0.00000000000E+00 -0.15214545713E+04  0.15214545713E+04  0.00000000000E+00 0. -1.
         25    2    1    2    0    0 -0.24381083744E+03  0.67433064762E+01 -0.93351931263E+03  0.97293136974E+03  0.12509175252E+03 0.  0.
          5    1    3    3  502    0 -0.57592269515E+02 -0.52898912053E+02 -0.28480992359E+03  0.29537997458E+03  0.41800000000E+01 0. -1.
         -5    1    3    3    0  502 -0.18621856792E+03  0.59642218529E+02 -0.64870938903E+03  0.67755139517E+03  0.41800000000E+01 0. -1.
        -11    1    1    2    0    0  0.15225113362E+03 -0.43159301879E+02 -0.28483214630E+03  0.32584119536E+03  0.00000000000E+00 0. -1.
         11    1    1    2    0    0  0.91559703813E+02  0.36415995403E+02 -0.25365941084E+03  0.27212570770E+03  0.00000000000E+00 0.  1.
</event>
<event>
 7    1  0.2499014E-009  0.2351768E+03  0.7561462E-02  0.1123048E+00
          1   -1    0    0  501    0  0.00000000000E+00  0.00000000000E+00  0.68922919162E+03  0.68922919162E+03  0.00000000000E+00 0. -1.
         -1   -1    0    0    0  501 -0.00000000000E+00 -0.00000000000E+00 -0.93311490566E+02  0.93311490566E+02  0.00000000000E+00 0.  1.
         25    2    1    2    0    0 -0.22004967773E+03 -0.36476971784E+02  0.38631137435E+03  0.46328824224E+03  0.12508831801E+03 0.  0.
          5    1    3    3  502    0 -0.13525156971E+03 -0.48614925903E+02  0.33193559735E+03  0.36173900995E+03  0.41800000000E+01 0.  1.
         -5    1    3    3    0  502 -0.84798108022E+02  0.12137954119E+02  0.54375777003E+02  0.10154923229E+03  0.41800000000E+01 0.  1.
        -11    1    1    2    0    0  0.61747254509E+02  0.53354917849E+02  0.71282962831E+02  0.10835465605E+03  0.00000000000E+00 0. -1.
         11    1    1    2    0    0  0.15830242322E+03 -0.16877946065E+02  0.13832336387E+03  0.21089778390E+03  0.00000000000E+00 0.  1.
</event>
<event>
 7    1  0.2499014E-009  0.1104326E+03  0.7561462E-02  0.1259771E+00
          1   -1    0    0  501    0  0.00000000000E+00  0.00000000000E+00  0.96428168249E+03  0.96428168249E+03  0.00000000000E+00 0. -1.
         -1   -1    0    0    0  501 -0.00000000000E+00 -0.00000000000E+00 -0.13704427153E+02  0.13704427153E+02  0.00000000000E+00 0.  1.
         25    2    1    2    0    0 -0.24685134248E+02 -0.19873900025E+02  0.60601438539E+03  0.61960134183E+03  0.12509220495E+03 0.  0.
          5    1    3    3  502    0  0.43480391207E+02  0.21777879964E+02  0.24833771787E+03  0.25308874924E+03  0.41800000000E+01 0.  1.
         -5    1    3    3    0  502 -0.68165525455E+02 -0.41651779988E+02  0.35767666753E+03  0.36651259259E+03  0.41800000000E+01 0.  1.
        -11    1    1    2    0    0  0.22472842121E+02  0.53675169999E+02  0.14992881133E+03  0.16082506327E+03  0.00000000000E+00 0.  1.
         11    1    1    2    0    0  0.22122921275E+01 -0.33801269974E+02  0.19463405861E+03  0.19755970455E+03  0.00000000000E+00 0. -1.
</event>
<event>
 7    1  0.2499014E-009  0.8860668E+02  0.7561462E-02  0.1306261E+00
         -2   -1    0    0    0  501 -0.00000000000E+00  0.00000000000E+00  0.30263921170E+03  0.30263921170E+03  0.00000000000E+00 0.  1.
          2   -1    0    0  501    0  0.00000000000E+00 -0.00000000000E+00 -0.55794333473E+02  0.55794333473E+02  0.00000000000E+00 0. -1.
         25    2    1    2    0    0 -0.59213081719E+02  0.12437247845E+01  0.83996067064E+02  0.16189693369E+03  0.12509013534E+03 0.  0.
          5    1    3    3  502    0  0.28292406493E+02  0.85922817076E+01  0.65603856160E+02  0.72080690293E+02  0.41800000000E+01 0.  1.
         -5    1    3    3    0  502 -0.87505488213E+02 -0.73485569231E+01  0.18392210904E+02  0.89816243398E+02  0.41800000000E+01 0.  1.
        -11    1    1    2    0    0  0.38032303235E+02  0.16074047120E+01  0.16983746811E+03  0.17405115746E+03  0.00000000000E+00 0.  1.
         11    1    1    2    0    0  0.21180778484E+02 -0.28511294965E+01 -0.69886569473E+01  0.22485454021E+02  0.00000000000E+00 0. -1.
</event>
<event>
 7    1  0.2499014E-009  0.2264548E+03  0.7561462E-02  0.1129160E+00
         -1   -1    0    0    0  501 -0.00000000000E+00  0.00000000000E+00  0.53288604529E+02  0.53288604529E+02  0.00000000000E+00 0.  1.
          1   -1    0    0  501    0  0.00000000000E+00 -0.00000000000E+00 -0.10448025163E+04  0.10448025163E+04  0.00000000000E+00 0. -1.
         25    2    1    2    0    0 -0.97463670695E+02  0.18424303283E+03 -0.46620420572E+03  0.52577434259E+03  0.12509050983E+03 0.  0.
          5    1    3    3  502    0 -0.11455864299E+03  0.87808079671E+02 -0.25842679004E+03  0.29603347741E+03  0.41800000000E+01 0.  1.
         -5    1    3    3    0  502  0.17094972294E+02  0.96434953155E+02 -0.20777741568E+03  0.22974086518E+03  0.41800000000E+01 0.  1.
        -11    1    1    2    0    0  0.25904664233E+02 -0.25473901913E+02 -0.20050867424E+03  0.20377364833E+03  0.00000000000E+00 0.  1.
         11    1    1    2    0    0  0.71559006462E+02 -0.15876913091E+03 -0.32480103183E+03  0.36854312992E+03  0.00000000000E+00 0. -1.
</event>
<event>
 7    1  0.2499014E-009  0.8181569E+02  0.7561462E-02  0.1323976E+00
         -2   -1    0    0    0  501 -0.00000000000E+00  0.00000000000E+00  0.15243413276E+03  0.15243413276E+03  0.00000000000E+00 0. -1.
          2   -1    0    0  501    0  0.00000000000E+00 -0.00000000000E+00 -0.10039100042E+03  0.10039100042E+03  0.00000000000E+00 0.  1.
         25    2    1    2    0    0  0.30164181433E+02  0.13831951131E+02 -0.21358768275E+02  0.13116809642E+03  0.12509065442E+03 0.  0.
          5    1    3    3  502    0  0.35855834225E+02  0.31347982296E+02  0.42872848058E+02  0.64217523641E+02  0.41800000000E+01 0.  1.
         -5    1    3    3    0  502 -0.56916527918E+01 -0.17516031165E+02 -0.64231616333E+02  0.66950572784E+02  0.41800000000E+01 0.  1.
        -11    1    1    2    0    0  0.32502089585E+02  0.10770443524E+01  0.22266529811E+02  0.39412487891E+02  0.00000000000E+00 0.  1.
         11    1    1    2    0    0 -0.62666271019E+02 -0.14908995484E+02  0.51135370813E+02  0.82244548864E+02  0.00000000000E+00 0. -1.
</event>
<event>
 7    1  0.2499014E-009  0.1547828E+03  0.7561462E-02  0.1194716E+00
          2   -1    0    0  501    0  0.00000000000E+00  0.00000000000E+00  0.16158075945E+03  0.16158075945E+03  0.00000000000E+00 0.  1.
         -2   -1    0    0    0  501 -0.00000000000E+00 -0.00000000000E+00 -0.21170607635E+03  0.21170607635E+03  0.00000000000E+00 0. -1.
         25    2    1    2    0    0  0.90693762557E+02 -0.10571892539E+03 -0.80245870138E+02  0.20368956507E+03  0.12509272357E+03 0.  0.
          5    1    3    3  502    0 -0.98961662348E+00 -0.58971097196E+01  0.28782488559E+02  0.29692748134E+02  0.41800000000E+01 0.  1.
         -5    1    3    3    0  502  0.91683379180E+02 -0.99821815674E+02 -0.10902835870E+03  0.17399681693E+03  0.41800000000E+01 0.  1.
        -11    1    1    2    0    0 -0.20658181720E+02 -0.16073776791E+02  0.14982558294E+01  0.26217771508E+02  0.00000000000E+00 0. -1.
         11    1    1    2    0    0 -0.70035580837E+02  0.12179270218E+03  0.28622297415E+02  0.14337949922E+03  0.00000000000E+00 0.  1.
</event>
<event>
 7    1  0.2499014E-009  0.1294354E+03  0.7561462E-02  0.1228296E+00
         -2   -1    0    0    0  501 -0.00000000000E+00  0.00000000000E+00  0.37598071322E+02  0.37598071322E+02  0.00000000000E+00 0.  1.
          2   -1    0    0  501    0  0.00000000000E+00 -0.00000000000E+00 -0.49099716109E+03  0.49099716109E+03  0.00000000000E+00 0. -1.
         25    2    1    2    0    0  0.79866440338E+02 -0.20496992864E+02 -0.24713756911E+03  0.28900282659E+03  0.12508749217E+03 0.  0.
          5    1    3    3  502    0  0.98236883716E+02 -0.47546515431E+02 -0.22246137050E+03  0.24782592725E+03  0.41800000000E+01 0. -1.
         -5    1    3    3    0  502 -0.18370443378E+02  0.27049522567E+02 -0.24676198614E+02  0.41176899338E+02  0.41800000000E+01 0. -1.
        -11    1    1    2    0    0 -0.11739359813E+02 -0.29785116888E+02 -0.29221990143E+02  0.43346170128E+02  0.00000000000E+00 0.  1.
         11    1    1    2    0    0 -0.68127080524E+02  0.50282109752E+02 -0.17703953051E+03  0.19624623570E+03  0.00000000000E+00 0. -1.
</event>
<event>
 7    1  0.2499014E-009  0.1090277E+03  0.7561462E-02  0.1262381E+00
         -2   -1    0    0    0  501 -0.00000000000E+00  0.00000000000E+00  0.63385971814E+03  0.63385971814E+03  0.00000000000E+00 0.  1.
          2   -1    0    0  501    0  0.00000000000E+00 -0.00000000000E+00 -0.21864727789E+02  0.21864727789E+02  0.00000000000E+00 0. -1.
         25    2    1    2    0    0 -0.24536828875E+02 -0.31748843580E+02  0.31789191004E+03  0.34396501727E+03  0.12508645650E+03 0.  0.
          5    1    3    3  502    0  0.27849431315E+02 -0.57319825314E+02  0.10235337089E+03  0.12064343385E+03  0.41800000000E+01 0.  1.
         -5    1    3    3    0  502 -0.52386260189E+02  0.25570981734E+02  0.21553853915E+03  0.22332158342E+03  0.41800000000E+01 0.  1.
        -11    1    1    2    0    0 -0.25109868129E+02  0.38168549732E+02  0.82402208794E+02  0.94220314583E+02  0.00000000000E+00 0. -1.
         11    1    1    2    0    0  0.49646697004E+02 -0.64197061516E+01  0.21170087152E+03  0.21753911408E+03  0.00000000000E+00 0.  1.
</event>
<event>
 7    1  0.2499014E-009  0.1023829E+03  0.7561462E-02  0.1275363E+00
         -2   -1    0    0    0  501 -0.00000000000E+00  0.00000000000E+00  0.12146601032E+03  0.12146601032E+03  0.00000000000E+00 0.  1.
          2   -1    0    0  501    0  0.00000000000E+00 -0.00000000000E+00 -0.13418919756E+03  0.13418919756E+03  0.00000000000E+00 0. -1.
         25    2    1    2    0    0 -0.13143553464E+01 -0.50555041802E+01 -0.74518149091E+02  0.14571479122E+03  0.12511019216E+03 0.  0.
          5    1    3    3  502    0 -0.26882333901E+02 -0.52913927308E+02 -0.68854976108E+02  0.91000130296E+02  0.41800000000E+01 0.  1.
         -5    1    3    3    0  502  0.25567978554E+02  0.47858423128E+02 -0.56631729833E+01  0.54714660923E+02  0.41800000000E+01 0.  1.
        -11    1    1    2    0    0  0.44964424360E+02  0.12261006337E+02  0.34049881591E+02  0.57719374310E+02  0.00000000000E+00 0. -1.
         11    1    1    2    0    0 -0.43650069013E+02 -0.72055021566E+01  0.27745080257E+02  0.52221042355E+02  0.00000000000E+00 0.  1.
</event>
<event>
 7    1  0.2967644E-009  0.1231197E+03  0.7561462E-02  0.1238038E+00
         -1   -1    0    0    0  501 -0.00000000000E+00  0.00000000000E+00  0.11242189031E+03  0.11242189031E+03  0.00000000000E+00 0.  1.
          1   -1    0    0  501    0  0.00000000000E+00 -0.00000000000E+00 -0.18293278734E+03  0.18293278734E+03  0.00000000000E+00 0. -1.
         25    2    1    2    0    0  0.66767635332E+02  0.65037095491E+02 -0.43645801042E+02  0.16199254330E+03  0.12509551238E+03 0.  0.
          5    1    3    3  502    0 -0.11992143893E+02  0.66381788215E+02 -0.48147717011E+02  0.82982096715E+02  0.41800000000E+01 0. -1.
         -5    1    3    3    0  502  0.78759779224E+02 -0.13446927238E+01  0.45019159688E+01  0.79010446584E+02  0.41800000000E+01 0. -1.
        -11    1    1    2    0    0 -0.32300218666E+02 -0.55152445138E+02  0.26400055557E+02  0.69152434982E+02  0.00000000000E+00 0. -1.
         11    1    1    2    0    0 -0.34467416666E+02 -0.98846503531E+01 -0.53265151539E+02  0.64209699366E+02  0.00000000000E+00 0.  1.
</event>
<event>
 7    1  0.2499014E-009  0.9925070E+02  0.7561462E-02  0.1281880E+00
          2   -1    0    0  501    0  0.00000000000E+00  0.00000000000E+00  0.83271577508E+02  0.83271577508E+02  0.00000000000E+00 0. -1.
         -2   -1    0    0    0  501 -0.00000000000E+00 -0.00000000000E+00 -0.14884775155E+03  0.14884775155E+03  0.00000000000E+00 0.  1.
         25    2    1    2    0    0 -0.17702276374E+02  0.18745867344E+02 -0.34116754562E+02  0.13219713005E+03  0.12508936853E+03 0.  0.
          5    1    3    3  502    0  0.44308177069E+02  0.34755072700E+02  0.55637510140E+01  0.56741143440E+02  0.41800000000E+01 0. -1.
         -5    1    3    3    0  502 -0.62010453442E+02 -0.16009205355E+02 -0.39680505576E+02  0.75455986608E+02  0.41800000000E+01 0. -1.
        -11    1    1    2    0    0  0.53481902123E+01 -0.46849938478E+02  0.10129401428E+02  0.48229914444E+02  0.00000000000E+00 0. -1.
         11    1    1    2    0    0  0.12354086161E+02  0.28104071134E+02 -0.41588820910E+02  0.51692284568E+02  0.00000000000E+00 0.  1.
</event>
<event>
 7    1  0.2499014E-009  0.1084333E+03  0.7561462E-02  0.1263499E+00
         -1   -1    0    0    0  501 -0.00000000000E+00  0.00000000000E+00  0.39646150212E+03  0.39646150212E+03  0.00000000000E+00 0.  1.
          1   -1    0    0  501    0  0.00000000000E+00 -0.00000000000E+00 -0.29918763495E+02  0.29918763495E+02  0.00000000000E+00 0. -1.
         25    2    1    2    0    0 -0.13872406476E+02  0.14253439545E+02  0.21920554506E+03  0.25316780776E+03  0.12508902310E+03 0.  0.
          5    1    3    3  502    0  0.18057554587E+02 -0.50493895211E+02  0.81893080908E+02  0.97977843576E+02  0.41800000000E+01 0.  1.
         -5    1    3    3    0  502 -0.31929961063E+02  0.64747334755E+02  0.13731246415E+03  0.15518996418E+03  0.41800000000E+01 0.  1.
        -11    1    1    2    0    0  0.31189934445E+02 -0.45427293635E+02  0.96296457088E+02  0.11094799983E+03  0.00000000000E+00 0.  1.
         11    1    1    2    0    0 -0.17317527969E+02  0.31173854090E+02  0.51040736479E+02  0.62264458032E+02  0.00000000000E+00 0. -1.
</event>
<event>
 7    1  0.2901117E-009  0.1083270E+03  0.7561462E-02  0.1263700E+00
         -2   -1    0    0    0  501 -0.00000000000E+00  0.00000000000E+00  0.27437931279E+02  0.27437931279E+02  0.00000000000E+00 0.  1.
          2   -1    0    0  501    0  0.00000000000E+00 -0.00000000000E+00 -0.58420296846E+03  0.58420296846E+03  0.00000000000E+00 0. -1.
         25    2    1    2    0    0  0.61396754589E+02  0.73239250138E+01 -0.26248350864E+03  0.29726707615E+03  0.12508765288E+03 0.  0.
          5    1    3    3  502    0  0.11767292442E+02  0.62459577876E+02 -0.99422324164E+02  0.11807598817E+03  0.41800000000E+01 0.  1.
         -5    1    3    3    0  502  0.49629462147E+02 -0.55135652863E+02 -0.16306118448E+03  0.17919108798E+03  0.41800000000E+01 0.  1.
        -11    1    1    2    0    0 -0.32455538911E+01 -0.19060259562E+02 -0.62845309841E+01  0.20330333109E+02  0.00000000000E+00 0.  1.
         11    1    1    2    0    0 -0.58151200697E+02  0.11736334548E+02 -0.28799699756E+03  0.29404349048E+03  0.00000000000E+00 0. -1.
</event>
<event>
 7    1  0.2499014E-009  0.1309989E+03  0.7561462E-02  0.1225981E+00
          2   -1    0    0  501    0  0.00000000000E+00  0.00000000000E+00  0.21224659900E+04  0.21224659900E+04  0.00000000000E+00 0. -1.
         -2   -1    0    0    0  501 -0.00000000000E+00 -0.00000000000E+00 -0.13654459836E+02  0.13654459836E+02  0.00000000000E+00 0.  1.
         25    2    1    2    0    0 -0.14373461529E+02 -0.10250765579E+03  0.16394774883E+04  0.16474973536E+04  0.12508668814E+03 0.  0.
          5    1    3    3  502    0 -0.25818980312E+02 -0.10941030146E+03  0.79662112683E+03  0.80452465837E+03  0.41800000000E+01 0. -1.
         -5    1    3    3    0  502  0.11445518784E+02  0.69026456711E+01  0.84285636150E+03  0.84297269525E+03  0.41800000000E+01 0. -1.
        -11    1    1    2    0    0 -0.30461484399E+02  0.79438597648E+02  0.27545122580E+03  0.28829112130E+03  0.00000000000E+00 0. -1.
         11    1    1    2    0    0  0.44834945927E+02  0.23069058144E+02  0.19388281607E+03  0.20033197495E+03  0.00000000000E+00 0.  1.
</event>
<event>
 7    1  0.2499014E-009  0.1224578E+03  0.7561462E-02  0.1239097E+00
          1   -1    0    0  501    0  0.00000000000E+00  0.00000000000E+00  0.23342523956E+03  0.23342523956E+03  0.00000000000E+00 0. -1.
         -1   -1    0    0    0  501 -0.00000000000E+00 -0.00000000000E+00 -0.90251667698E+02  0.90251667698E+02  0.00000000000E+00 0.  1.
         25    2    1    2    0    0 -0.61221155418E+01  0.94895516710E+02  0.97665737428E+02  0.18501022459E+03  0.12509015767E+03 0.  0.
          5    1    3    3  502    0 -0.36312338466E+02  0.51300996909E+02 -0.11074673180E+02  0.63957008958E+02  0.41800000000E+01 0.  1.
         -5    1    3    3    0  502  0.30190222924E+02  0.43594519800E+02  0.10874041061E+03  0.12105321564E+03  0.41800000000E+01 0.  1.
        -11    1    1    2    0    0  0.25167921784E+02 -0.10443960912E+03  0.27808483060E+02  0.11097012197E+03  0.00000000000E+00 0.  1.
         11    1    1    2    0    0 -0.19045806242E+02  0.95440924072E+01  0.17699351373E+02  0.27696560695E+02  0.00000000000E+00 0. -1.
</event>
<event>
 7    1  0.2499014E-009  0.1242447E+03  0.7561462E-02  0.1236254E+00
         -4   -1    0    0    0  501 -0.00000000000E+00  0.00000000000E+00  0.33824250352E+02  0.33824250352E+02  0.00000000000E+00 0.  1.
          4   -1    0    0  501    0  0.00000000000E+00 -0.00000000000E+00 -0.75803913744E+03  0.75803913744E+03  0.00000000000E+00 0. -1.
         25    2    1    2    0    0  0.89298663773E+02  0.29180345454E+02 -0.58019009795E+03  0.60091114750E+03  0.12509162047E+03 0.  0.
          5    1    3    3  502    0  0.90974203629E+02 -0.15458869867E+02 -0.50479046402E+03  0.51317264868E+03  0.41800000000E+01 0. -1.
         -5    1    3    3    0  502 -0.16755398551E+01  0.44639215321E+02 -0.75399633932E+02  0.87738498821E+02  0.41800000000E+01 0. -1.
        -11    1    1    2    0    0  0.85334511403E+01 -0.67494353209E+01 -0.57240878758E+02  0.58265709183E+02  0.00000000000E+00 0. -1.
         11    1    1    2    0    0 -0.97832114914E+02 -0.22430910133E+02 -0.86783910375E+02  0.13268653111E+03  0.00000000000E+00 0.  1.
</event>
<event>
 7    1  0.2499014E-009  0.1402484E+03  0.7561462E-02  0.1212995E+00
          2   -1    0    0  501    0  0.00000000000E+00  0.00000000000E+00  0.24476340117E+03  0.24476340117E+03  0.00000000000E+00 0. -1.
         -2   -1    0    0    0  501 -0.00000000000E+00 -0.00000000000E+00 -0.95362024967E+02  0.95362024967E+02  0.00000000000E+00 0.  1.
         25    2    1    2    0    0 -0.87355802034E+02 -0.32739773514E+02  0.13771259232E+03  0.20812285115E+03  0.12508970449E+03 0.  0.
          5    1    3    3  502    0  0.29637054233E+02  0.85716931024E+01  0.36306198205E+02  0.47827202870E+02  0.41800000000E+01 0. -1.
         -5    1    3    3    0  502 -0.11699285627E+03 -0.41311466616E+02  0.10140639411E+03  0.16029564828E+03  0.41800000000E+01 0. -1.
        -11    1    1    2    0    0  0.41340496496E+02  0.59149957502E+02 -0.13261285592E+02  0.73373127360E+02  0.00000000000E+00 0.  1.
         11    1    1    2    0    0  0.46015305538E+02 -0.26410183988E+02  0.24950069479E+02  0.58629447627E+02  0.00000000000E+00 0. -1.
</event>
<event>
 7    1  0.2499014E-009  0.1229413E+03  0.7561462E-02  0.1238322E+00
          2   -1    0    0  501    0  0.00000000000E+00  0.00000000000E+00  0.11159613651E+04  0.11159613651E+04  0.00000000000E+00 0. -1.
         -2   -1    0    0    0  501 -0.00000000000E+00 -0.00000000000E+00 -0.15147017849E+02  0.15147017849E+02  0.00000000000E+00 0.  1.
         25    2    1    2    0    0 -0.29144104961E+02  0.46548342968E+02  0.48055259110E+03  0.49959569079E+03  0.12509570076E+03 0.  0.
          5    1    3    3  502    0 -0.54419477140E+02  0.73934779400E+02  0.25738071116E+03  0.27329495783E+03  0.41800000000E+01 0. -1.
         -5    1    3    3    0  502  0.25275372179E+02 -0.27386436433E+02  0.22317187994E+03  0.22630073296E+03  0.41800000000E+01 0. -1.
        -11    1    1    2    0    0  0.36892751731E+02 -0.76828520397E+02  0.50236013911E+03  0.50953842450E+03  0.00000000000E+00 0. -1.
         11    1    1    2    0    0 -0.77486467700E+01  0.30280177429E+02  0.11790161706E+03  0.12197426769E+03  0.00000000000E+00 0.  1.
</event>
<event>
 7    1  0.2499014E-009  0.1544224E+03  0.7561462E-02  0.1195142E+00
         -3   -1    0    0    0  501 -0.00000000000E+00  0.00000000000E+00  0.22747647243E+03  0.22747647243E+03  0.00000000000E+00 0.  1.
          3   -1    0    0  501    0  0.00000000000E+00 -0.00000000000E+00 -0.13942515083E+03  0.13942515083E+03  0.00000000000E+00 0. -1.
         25    2    1    2    0    0  0.88177603347E+02  0.95830770531E+02 -0.89160658010E+01  0.18079042859E+03  0.12508739556E+03 0.  0.
          5    1    3    3  502    0  0.93952060516E+01  0.65439142495E+02 -0.53556603584E+02  0.85184115037E+02  0.41800000000E+01 0. -1.
         -5    1    3    3    0  502  0.78782397296E+02  0.30391628036E+02  0.44640537783E+02  0.95606313557E+02  0.41800000000E+01 0. -1.
        -11    1    1    2    0    0 -0.89951113422E+02 -0.33938903653E+02  0.67963753049E+02  0.11773752042E+03  0.00000000000E+00 0.  1.
         11    1    1    2    0    0  0.17735100749E+01 -0.61891866878E+02  0.29003634354E+02  0.68373674243E+02  0.00000000000E+00 0. -1.
</event>
<event>
 7    1  0.2499014E-009  0.1073109E+03  0.7561462E-02  0.1265632E+00
         -2   -1    0    0    0  501 -0.00000000000E+00  0.00000000000E+00  0.12669893810E+02  0.12669893810E+02  0.00000000000E+00 0.  1.
          2   -1    0    0  501    0  0.00000000000E+00 -0.00000000000E+00 -0.11471706343E+04  0.11471706343E+04  0.00000000000E+00 0. -1.
         25    2    1    2    0    0 -0.11916070843E+01 -0.26301381549E+02 -0.86860687079E+03  0.87796158812E+03  0.12508185969E+03 0.  0.
          5    1    3    3  502    0 -0.59388831322E+02 -0.25724367053E+02 -0.33884146337E+03  0.34499244346E+03  0.41800000000E+01 0.  1.
         -5    1    3    3    0  502  0.58197224237E+02 -0.57701449626E+00 -0.52976540743E+03  0.53296914466E+03  0.41800000000E+01 0.  1.
        -11    1    1    2    0    0 -0.41457248016E+02  0.25672894298E+02 -0.11139477606E+03  0.12160015234E+03  0.00000000000E+00 0.  1.
         11    1    1    2    0    0  0.42648855100E+02  0.62848725092E+00 -0.15449909361E+03  0.16027878763E+03  0.00000000000E+00 0. -1.
</event>
<event>
 7    1  0.2499014E-009  0.1649857E+03  0.7561462E-02  0.1183180E+00
          4   -1    0    0  501    0  0.00000000000E+00  0.00000000000E+00  0.39504926540E+03  0.39504926540E+03  0.00000000000E+00 0. -1.
         -4   -1    0    0    0  501 -0.00000000000E+00 -0.00000000000E+00 -0.12102730099E+03  0.12102730099E+03  0.00000000000E+00 0.  1.
         25    2    1    2    0    0 -0.14644422803E+03  0.44392451622E+02  0.27420375677E+03  0.33801248297E+03  0.12509251269E+03 0.  0.
          5    1    3    3  502    0 -0.11154991181E+03 -0.88723094712E+01  0.91900138428E+02  0.14486272309E+03  0.41800000000E+01 0.  1.
         -5    1    3    3    0  502 -0.34894316227E+02  0.53264761093E+02  0.18230361834E+03  0.19314975988E+03  0.41800000000E+01 0.  1.
        -11    1    1    2    0    0  0.55532286103E+02 -0.73838774480E+01  0.43205427144E+02  0.70746486703E+02  0.00000000000E+00 0.  1.
         11    1    1    2    0    0  0.90911941930E+02 -0.37008574174E+02 -0.43387219503E+02  0.10731759671E+03  0.00000000000E+00 0. -1.
</event>
<event>
 7    1  0.2499014E-009  0.7371181E+02  0.7561462E-02  0.1347907E+00
          1   -1    0    0  501    0  0.00000000000E+00  0.00000000000E+00  0.21677882188E+03  0.21677882188E+03  0.00000000000E+00 0. -1.
         -1   -1    0    0    0  501 -0.00000000000E+00 -0.00000000000E+00 -0.59811340713E+02  0.59811340713E+02  0.00000000000E+00 0.  1.
         25    2    1    2    0    0 -0.78192925927E+01 -0.48702238332E+01  0.11869420409E+03  0.17268632328E+03  0.12508953492E+03 0.  0.
          5    1    3    3  502    0  0.79629745557E+01 -0.30574283266E+02  0.13460707240E+03  0.13832834887E+03  0.41800000000E+01 0.  1.
         -5    1    3    3    0  502 -0.15782267148E+02  0.25704059432E+02 -0.15912868311E+02  0.34357974410E+02  0.41800000000E+01 0.  1.
        -11    1    1    2    0    0 -0.17745377916E+02  0.38773727663E+02 -0.54107517362E+01  0.42983445984E+02  0.00000000000E+00 0.  1.
         11    1    1    2    0    0  0.25564670509E+02 -0.33903503830E+02  0.43684028820E+02  0.60920393335E+02  0.00000000000E+00 0. -1.
</event>
<event>
 7    1  0.2499014E-009  0.8220000E+02  0.7561462E-02  0.1322922E+00
         -1   -1    0    0    0  501 -0.00000000000E+00  0.00000000000E+00  0.26009401649E+03  0.26009401649E+03  0.00000000000E+00 0.  1.
          1   -1    0    0  501    0  0.00000000000E+00 -0.00000000000E+00 -0.66120809649E+02  0.66120809649E+02  0.00000000000E+00 0. -1.
         25    2    1    2    0    0 -0.11197926462E+02 -0.73420350914E+02  0.11410773460E+03  0.18488007979E+03  0.12507648588E+03 0.  0.
          5    1    3    3  502    0 -0.40983845292E+01 -0.63723219133E+02  0.14115855293E+03  0.15498598284E+03  0.41800000000E+01 0. -1.
         -5    1    3    3    0  502 -0.70995419330E+01 -0.96971317804E+01 -0.27050818322E+02  0.29894096948E+02  0.41800000000E+01 0. -1.
        -11    1    1    2    0    0  0.19643710209E+02  0.71912809497E+01 -0.14705844770E+02  0.25570524885E+02  0.00000000000E+00 0. -1.
         11    1    1    2    0    0 -0.84457837469E+01  0.66229069964E+02  0.94571317001E+02  0.11576422146E+03  0.00000000000E+00 0.  1.
</event>
<event>
 7    1  0.2499014E-009  0.1103158E+03  0.7561462E-02  0.1259986E+00
         -4   -1    0    0    0  501 -0.00000000000E+00  0.00000000000E+00  0.17728240026E+02  0.17728240026E+02  0.00000000000E+00 0.  1.
          4   -1    0    0  501    0  0.00000000000E+00 -0.00000000000E+00 -0.91553007303E+03  0.91553007303E+03  0.00000000000E+00 0. -1.
         25    2    1    2    0    0 -0.25613555951E+02  0.58704058006E+02 -0.45208649004E+03  0.47342630761E+03  0.12509218037E+03 0.  0.
          5    1    3    3  502    0  0.26479401054E+02  0.60867708391E+02 -0.37113254045E+03  0.37704491985E+03  0.41800000000E+01 0. -1.
         -5    1    3    3    0  502 -0.52092957005E+02 -0.21636503853E+01 -0.80953949587E+02  0.96381387759E+02  0.41800000000E+01 0. -1.
        -11    1    1    2    0    0  0.53485398268E+02 -0.48300687789E+02 -0.39067074318E+03  0.39726222303E+03  0.00000000000E+00 0.  1.
         11    1    1    2    0    0 -0.27871842317E+02 -0.10403370217E+02 -0.55044599780E+02  0.62569782411E+02  0.00000000000E+00 0. -1.
</event>
<event>
 7    1  0.2537283E-009  0.1307843E+03  0.7561462E-02  0.1226297E+00
          2   -1    0    0  501    0  0.00000000000E+00  0.00000000000E+00  0.82297495164E+03  0.82297495164E+03  0.00000000000E+00 0. -1.
         -2   -1    0    0    0  501 -0.00000000000E+00 -0.00000000000E+00 -0.27745727331E+02  0.27745727331E+02  0.00000000000E+00 0.  1.
         25    2    1    2    0    0  0.47748140474E+02  0.92294795266E+02  0.44860832354E+03  0.47717180254E+03  0.12508112184E+03 0.  0.
          5    1    3    3  502    0 -0.11709791441E+02  0.68975353314E+02  0.36610250199E+03  0.37275089932E+03  0.41800000000E+01 0. -1.
         -5    1    3    3    0  502  0.59457931915E+02  0.23319441952E+02  0.82505821549E+02  0.10442090322E+03  0.41800000000E+01 0. -1.
        -11    1    1    2    0    0  0.42549179102E+01 -0.71251230364E+02  0.11598878637E+03  0.13619192604E+03  0.00000000000E+00 0.  1.
         11    1    1    2    0    0 -0.52003058384E+02 -0.21043564902E+02  0.23063211440E+03  0.23735695039E+03  0.00000000000E+00 0. -1.
</event>
<event>
 7    1  0.2499014E-009  0.1075370E+03  0.7561462E-02  0.1265200E+00
         -1   -1    0    0    0  501 -0.00000000000E+00  0.00000000000E+00  0.29840120805E+03  0.29840120805E+03  0.00000000000E+00 0.  1.
          1   -1    0    0  501    0  0.00000000000E+00 -0.00000000000E+00 -0.69972917824E+02  0.69972917824E+02  0.00000000000E+00 0. -1.
         25    2    1    2    0    0 -0.37347167270E+02 -0.21578540712E+02  0.23280432518E+03  0.26777874658E+03  0.12508860449E+03 0.  0.
          5    1    3    3  502    0 -0.50361495028E+02 -0.58940420302E+02  0.20508947016E+03  0.21929299236E+03  0.41800000000E+01 0.  1.
         -5    1    3    3    0  502  0.13014327757E+02  0.37361879590E+02  0.27714855016E+02  0.48485754217E+02  0.41800000000E+01 0.  1.
        -11    1    1    2    0    0  0.59112887262E+02 -0.93339697640E+01 -0.14254802815E+02  0.61519556527E+02  0.00000000000E+00 0.  1.
         11    1    1    2    0    0 -0.21765719991E+02  0.30912510476E+02  0.98787678645E+01  0.39075822771E+02  0.00000000000E+00 0. -1.
</event>
<event>
 7    1  0.2499014E-009  0.2252809E+03  0.7561462E-02  0.1130006E+00
          2   -1    0    0  501    0  0.00000000000E+00  0.00000000000E+00  0.11124111207E+04  0.11124111207E+04  0.00000000000E+00 0. -1.
         -2   -1    0    0    0  501 -0.00000000000E+00 -0.00000000000E+00 -0.59116437046E+02  0.59116437046E+02  0.00000000000E+00 0.  1.
         25    2    1    2    0    0 -0.19073576922E+03  0.56719005432E+02  0.81009626957E+03  0.84350487482E+03  0.12508928267E+03 0.  0.
          5    1    3    3  502    0  0.33621059280E+01 -0.20994135500E+02  0.13604846162E+03  0.13776325269E+03  0.41800000000E+01 0. -1.
         -5    1    3    3    0  502 -0.19409787515E+03  0.77713140931E+02  0.67404780795E+03  0.70574162214E+03  0.41800000000E+01 0. -1.
        -11    1    1    2    0    0  0.10699951433E+03  0.16840593968E+02  0.11065984817E+03  0.15484864761E+03  0.00000000000E+00 0.  1.
         11    1    1    2    0    0  0.83736254892E+02 -0.73559599400E+02  0.13253856588E+03  0.17317403527E+03  0.00000000000E+00 0. -1.
</event>
<event>
 7    1  0.2499014E-009  0.6878756E+02  0.7561462E-02  0.1364265E+00
         -1   -1    0    0    0  501 -0.00000000000E+00  0.00000000000E+00  0.29427236820E+03  0.29427236820E+03  0.00000000000E+00 0.  1.
          1   -1    0    0  501    0  0.00000000000E+00 -0.00000000000E+00 -0.50877649608E+02  0.50877649608E+02  0.00000000000E+00 0. -1.
         25    2    1    2    0    0  0.46944392513E+02 -0.29244210129E+02  0.12180745346E+03  0.18315649225E+03  0.12510093972E+03 0.  0.
          5    1    3    3  502    0  0.36757141739E+02 -0.10503597442E+02 -0.17437655396E+02  0.42225078493E+02  0.41800000000E+01 0. -1.
         -5    1    3    3    0  502  0.10187250774E+02 -0.18740612687E+02  0.13924510886E+03  0.14093141376E+03  0.41800000000E+01 0. -1.
        -11    1    1    2    0    0 -0.21475814587E+02 -0.15094438087E+02 -0.38538595355E+01  0.26531206280E+02  0.00000000000E+00 0. -1.
         11    1    1    2    0    0 -0.25468577926E+02  0.44338648217E+02  0.12544112466E+03  0.13546231928E+03  0.00000000000E+00 0.  1.
</event>
<event>
 7    1  0.2499014E-009  0.2006764E+03  0.7561462E-02  0.1149170E+00
          2   -1    0    0  501    0  0.00000000000E+00  0.00000000000E+00  0.11826769641E+04  0.11826769641E+04  0.00000000000E+00 0.  1.
         -2   -1    0    0    0  501 -0.00000000000E+00 -0.00000000000E+00 -0.62005874592E+02  0.62005874592E+02  0.00000000000E+00 0. -1.
         25    2    1    2    0    0 -0.13211734382E+03  0.10657640575E+03  0.98954859781E+03  0.10117646406E+04  0.12509091752E+03 0.  0.
          5    1    3    3  502    0  0.18225279389E+02  0.41651715087E+02  0.26730643028E+03  0.27117748109E+03  0.41800000000E+01 0.  1.
         -5    1    3    3    0  502 -0.15034262321E+03  0.64924690663E+02  0.72224216752E+03  0.74058715946E+03  0.41800000000E+01 0.  1.
        -11    1    1    2    0    0  0.42386620095E+02 -0.91569427388E+02  0.78281538476E+02  0.12770898505E+03  0.00000000000E+00 0.  1.
         11    1    1    2    0    0  0.89730723729E+02 -0.15006978363E+02  0.52840953206E+02  0.10520921308E+03  0.00000000000E+00 0. -1.
</event>
<event>
 7    1  0.2499014E-009  0.1187914E+03  0.7561462E-02  0.1245104E+00
         -1   -1    0    0    0  501 -0.00000000000E+00  0.00000000000E+00  0.29713181235E+03  0.29713181235E+03  0.00000000000E+00 0.  1.
          1   -1    0    0  501    0  0.00000000000E+00 -0.00000000000E+00 -0.50892072716E+02  0.50892072716E+02  0.00000000000E+00 0. -1.
         25    2    1    2    0    0  0.25448343683E+02 -0.51890728877E+02  0.14097218434E+03  0.19713468354E+03  0.12509460723E+03 0.  0.
          5    1    3    3  502    0  0.58092462579E+02 -0.72151005342E+02  0.69490638183E+02  0.11587460022E+03  0.41800000000E+01 0. -1.
         -5    1    3    3    0  502 -0.32644118896E+02  0.20260276465E+02  0.71481546154E+02  0.81260083322E+02  0.41800000000E+01 0. -1.
        -11    1    1    2    0    0  0.33244420325E+02  0.25293237218E+02  0.55534460308E+02  0.69491118953E+02  0.00000000000E+00 0.  1.
         11    1    1    2    0    0 -0.58692764008E+02  0.26597491658E+02  0.49733094985E+02  0.81398082570E+02  0.00000000000E+00 0. -1.
</event>
<event>
 7    1  0.2499014E-009  0.8396840E+02  0.7561462E-02  0.1318153E+00
          1   -1    0    0  501    0  0.00000000000E+00  0.00000000000E+00  0.22959559309E+03  0.22959559309E+03  0.00000000000E+00 0. -1.
         -1   -1    0    0    0  501 -0.00000000000E+00 -0.00000000000E+00 -0.54466760780E+02  0.54466760780E+02  0.00000000000E+00 0.  1.
         25    2    1    2    0    0  0.19927712062E+02  0.16138743126E+02  0.12858527122E+03  0.18121619779E+03  0.12509022996E+03 0.  0.
          5    1    3    3  502    0  0.42276458363E+02 -0.43455389674E+02  0.42859959855E+02  0.74364765730E+02  0.41800000000E+01 0.  1.
         -5    1    3    3    0  502 -0.22348746300E+02  0.59594132800E+02  0.85725311365E+02  0.10685143206E+03  0.41800000000E+01 0.  1.
        -11    1    1    2    0    0 -0.10565639061E+02  0.10651317502E+02 -0.23155617786E+02  0.27591047975E+02  0.00000000000E+00 0.  1.
         11    1    1    2    0    0 -0.93620730010E+01 -0.26790060628E+02  0.69699178874E+02  0.75255108099E+02  0.00000000000E+00 0. -1.
</event>
<event>
 7    1  0.2499014E-009  0.1660893E+03  0.7561462E-02  0.1181989E+00
          1   -1    0    0  501    0  0.00000000000E+00  0.00000000000E+00  0.70391893108E+03  0.70391893108E+03  0.00000000000E+00 0. -1.
         -1   -1    0    0    0  501 -0.00000000000E+00 -0.00000000000E+00 -0.44302915817E+02  0.44302915817E+02  0.00000000000E+00 0.  1.
         25    2    1    2    0    0  0.12966950965E+03 -0.49444364664E+02  0.32970345527E+03  0.37895721535E+03  0.12508107657E+03 0.  0.
          5    1    3    3  502    0  0.17790116867E+02 -0.69434535767E+02  0.10637204906E+03  0.12833599743E+03  0.41800000000E+01 0.  1.
         -5    1    3    3    0  502  0.11187939278E+03  0.19990171103E+02  0.22333140622E+03  0.25062121792E+03  0.41800000000E+01 0.  1.
        -11    1    1    2    0    0 -0.12737300307E+03  0.35095055275E+02  0.32919154237E+03  0.35471483812E+03  0.00000000000E+00 0. -1.
         11    1    1    2    0    0 -0.22965065822E+01  0.14349309389E+02  0.72101762117E+00  0.14549793429E+02  0.00000000000E+00 0.  1.
</event>
<event>
 7    1  0.2499014E-009  0.2227148E+03  0.7561462E-02  0.1131875E+00
         -2   -1    0    0    0  501 -0.00000000000E+00  0.00000000000E+00  0.57201086081E+02  0.57201086081E+02  0.00000000000E+00 0. -1.
          2   -1    0    0  501    0  0.00000000000E+00 -0.00000000000E+00 -0.91833150030E+03  0.91833150030E+03  0.00000000000E+00 0.  1.
         25    2    1    2    0    0  0.16173037550E+03  0.11857024955E+03 -0.48730837412E+03  0.54160168475E+03  0.12508922811E+03 0.  0.
          5    1    3    3  502    0  0.15047063788E+03  0.51338513220E+02 -0.40203453106E+03  0.43234973386E+03  0.41800000000E+01 0. -1.
         -5    1    3    3    0  502  0.11259737620E+02  0.67231736330E+02 -0.85273843062E+02  0.10925195088E+03  0.41800000000E+01 0. -1.
        -11    1    1    2    0    0 -0.14593738178E+03 -0.60619363256E+02 -0.24141387743E+03  0.28853611008E+03  0.00000000000E+00 0.  1.
         11    1    1    2    0    0 -0.15792993725E+02 -0.57950886295E+02 -0.13240816266E+03  0.14539479156E+03  0.00000000000E+00 0. -1.
</event>
<event>
 7    1  0.2499014E-009  0.1501562E+03  0.7561462E-02  0.1200281E+00
          2   -1    0    0  501    0  0.00000000000E+00  0.00000000000E+00  0.23798766970E+03  0.23798766970E+03  0.00000000000E+00 0.  1.
         -2   -1    0    0    0  501 -0.00000000000E+00 -0.00000000000E+00 -0.24709380968E+03  0.24709380968E+03  0.00000000000E+00 0. -1.
         25    2    1    2    0    0 -0.44992788883E+02  0.12029281423E+03 -0.17716640056E+03  0.25205922392E+03  0.12510478275E+03 0.  0.
          5    1    3    3  502    0  0.12303966844E+02 -0.98606906787E+01  0.83069858266E+01  0.18305715891E+02  0.41800000000E+01 0. -1.
         -5    1    3    3    0  502 -0.57296755726E+02  0.13015350491E+03 -0.18547338639E+03  0.23375350803E+03  0.41800000000E+01 0. -1.
        -11    1    1    2    0    0  0.79491656060E+01  0.61013244500E+01 -0.82272507943E+01  0.12965456009E+02  0.00000000000E+00 0. -1.
         11    1    1    2    0    0  0.37043623277E+02 -0.12639413868E+03  0.17628751138E+03  0.22005679945E+03  0.00000000000E+00 0.  1.
</event>
<event>
 7    1  0.2499014E-009  0.8351258E+02  0.7561462E-02  0.1319369E+00
         -2   -1    0    0    0  501 -0.00000000000E+00  0.00000000000E+00  0.17399696874E+02  0.17399696874E+02  0.00000000000E+00 0.  1.
          2   -1    0    0  501    0  0.00000000000E+00 -0.00000000000E+00 -0.88608656648E+03  0.88608656648E+03  0.00000000000E+00 0. -1.
         25    2    1    2    0    0  0.27070682096E+02 -0.11569405080E+02 -0.68656645014E+03  0.69848928890E+03  0.12508846184E+03 0.  0.
          5    1    3    3  502    0 -0.10055710537E+02  0.37191791528E+02 -0.80764293349E+02  0.89580634915E+02  0.41800000000E+01 0.  1.
         -5    1    3    3    0  502  0.37126392634E+02 -0.48761196608E+02 -0.60580215679E+03  0.60890865399E+03  0.41800000000E+01 0.  1.
        -11    1    1    2    0    0  0.18158639626E+02  0.11722069559E+02 -0.49885392357E+01  0.22181718408E+02  0.00000000000E+00 0.  1.
         11    1    1    2    0    0 -0.45229321723E+02 -0.15266447929E+00 -0.17713188023E+03  0.18281525605E+03  0.00000000000E+00 0. -1.
</event>
<event>
 7    1  0.2499014E-009  0.1114880E+03  0.7561462E-02  0.1257839E+00
         -1   -1    0    0    0  501 -0.00000000000E+00  0.00000000000E+00  0.34542896306E+02  0.34542896306E+02  0.00000000000E+00 0.  1.
          1   -1    0    0  501    0  0.00000000000E+00 -0.00000000000E+00 -0.47649088531E+03  0.47649088531E+03  0.00000000000E+00 0. -1.
         25    2    1    2    0    0 -0.30516504457E+02  0.55109626139E+02 -0.30040724148E+03  0.33145148127E+03  0.12508895140E+03 0.  0.
          5    1    3    3  502    0  0.46580733848E+01 -0.24746395835E+02 -0.18477105747E+03  0.18652586371E+03  0.41800000000E+01 0. -1.
         -5    1    3    3    0  502 -0.35174577842E+02  0.79856021973E+02 -0.11563618401E+03  0.14492561756E+03  0.41800000000E+01 0. -1.
        -11    1    1    2    0    0 -0.72932548090E+01 -0.69317224508E+02 -0.97138800691E+02  0.11955758353E+03  0.00000000000E+00 0. -1.
         11    1    1    2    0    0  0.37809759266E+02  0.14207598369E+02 -0.44401946837E+02  0.60024716826E+02  0.00000000000E+00 0.  1.
</event>
<event>
 7    1  0.2499014E-009  0.2189058E+03  0.7561462E-02  0.1134701E+00
         -2   -1    0    0    0  501 -0.00000000000E+00  0.00000000000E+00  0.54838586160E+02  0.54838586160E+02  0.00000000000E+00 0. -1.
          2   -1    0    0  501    0  0.00000000000E+00 -0.00000000000E+00 -0.15133527215E+04  0.15133527215E+04  0.00000000000E+00 0.  1.
         25    2    1    2    0    0  0.44208666987E+02 -0.20558917825E+03 -0.30038319086E+03  0.38742426608E+03  0.12508470788E+03 0.  0.
          5    1    3    3  502    0  0.59924385933E+01 -0.14982374878E+03 -0.11190497195E+03  0.18714502442E+03  0.41800000000E+01 0.  1.
         -5    1    3    3    0  502  0.38216228394E+02 -0.55765429475E+02 -0.18847821891E+03  0.20027924166E+03  0.41800000000E+01 0.  1.
        -11    1    1    2    0    0 -0.16503050328E+02  0.18455495165E+03 -0.10716766138E+04  0.10875769607E+04  0.00000000000E+00 0.  1.
         11    1    1    2    0    0 -0.27705616659E+02  0.21034226602E+02 -0.86454330653E+02  0.93190080867E+02  0.00000000000E+00 0. -1.
</event>
<event>
 7    1  0.2499014E-009  0.1155401E+03  0.7561462E-02  0.1250641E+00
          1   -1    0    0  501    0  0.00000000000E+00  0.00000000000E+00  0.73002673401E+02  0.73002673401E+02  0.00000000000E+00 0. -1.
         -1   -1    0    0    0  501 -0.00000000000E+00 -0.00000000000E+00 -0.33681851696E+03  0.33681851696E+03  0.00000000000E+00 0.  1.
         25    2    1    2    0    0 -0.47589192039E+02  0.85007600987E+02 -0.66897712833E+02  0.17208586362E+03  0.12508883663E+03 0.  0.
          5    1    3    3  502    0 -0.49570487827E+02  0.99636151623E+02 -0.84799533919E+01  0.11168696425E+03  0.41800000000E+01 0.  1.
         -5    1    3    3    0  502  0.19812957880E+01 -0.14628550636E+02 -0.58417759441E+02  0.60398899368E+02  0.41800000000E+01 0.  1.
        -11    1    1    2    0    0  0.46842280887E+02 -0.46994552166E+02 -0.18702837703E+03  0.19844974433E+03  0.00000000000E+00 0.  1.
         11    1    1    2    0    0  0.74691115230E+00 -0.38013048821E+02 -0.98897536935E+01  0.39285582407E+02  0.00000000000E+00 0. -1.
</event>
<event>
 7    1  0.2499014E-009  0.1571548E+03  0.7561462E-02  0.1191947E+00
         -2   -1    0    0    0  501 -0.00000000000E+00  0.00000000000E+00  0.15647118332E+02  0.15647118332E+02  0.00000000000E+00 0.  1.
          2   -1    0    0  501    0  0.00000000000E+00 -0.00000000000E+00 -0.17098810456E+04  0.17098810456E+04  0.00000000000E+00 0. -1.
         25    2    1    2    0    0  0.99889418744E+02 -0.75645332441E+02 -0.95487854994E+03  0.97115410159E+03  0.12508849510E+03 0.  0.
          5    1    3    3  502    0  0.10903161632E+03 -0.19322749167E+02 -0.76050456277E+03  0.76853492074E+03  0.41800000000E+01 0.  1.
         -5    1    3    3    0  502 -0.91421975763E+01 -0.56322583274E+02 -0.19437398717E+03  0.20261918086E+03  0.41800000000E+01 0.  1.
        -11    1    1    2    0    0 -0.21787332688E+01 -0.13708710956E+02 -0.34453995594E+02  0.37145032603E+02  0.00000000000E+00 0.  1.
         11    1    1    2    0    0 -0.97710685475E+02  0.89354043398E+02 -0.70490138177E+03  0.71722902978E+03  0.00000000000E+00 0. -1.
</event>
<event>
 7    1  0.2499014E-009  0.1004835E+03  0.7561462E-02  0.1279282E+00
          1   -1    0    0  501    0  0.00000000000E+00  0.00000000000E+00  0.27652047247E+03  0.27652047247E+03  0.00000000000E+00 0. -1.
         -1   -1    0    0    0  501 -0.00000000000E+00 -0.00000000000E+00 -0.64766337413E+02  0.64766337413E+02  0.00000000000E+00 0.  1.
         25    2    1    2    0    0 -0.17104861813E+02 -0.24778342428E+02  0.18939613687E+02  0.13004981035E+03  0.12509077366E+03 0.  0.
          5    1    3    3  502    0 -0.56664306936E+02  0.23614374820E+02  0.26416606164E+02  0.66961122003E+02  0.41800000000E+01 0. -1.
         -5    1    3    3    0  502  0.39559445123E+02 -0.48392717248E+02 -0.74769924762E+01  0.63088688349E+02  0.41800000000E+01 0. -1.
        -11    1    1    2    0    0  0.29059956154E+02 -0.16774884031E+02  0.38937673686E+02  0.51400585775E+02  0.00000000000E+00 0.  1.
         11    1    1    2    0    0 -0.11955094341E+02  0.41553226459E+02  0.15387684768E+03  0.15983641376E+03  0.00000000000E+00 0. -1.
</event>
<event>
 7    1  0.2499014E-009  0.1256300E+03  0.7561462E-02  0.1234088E+00
         -1   -1    0    0    0  501 -0.00000000000E+00  0.00000000000E+00  0.57468594203E+02  0.57468594203E+02  0.00000000000E+00 0.  1.
          1   -1    0    0  501    0  0.00000000000E+00 -0.00000000000E+00 -0.32103937797E+03  0.32103937797E+03  0.00000000000E+00 0. -1.
         25    2    1    2    0    0  0.15691255842E+02 -0.79946388862E+02 -0.15139725430E+03  0.21261697993E+03  0.12508881222E+03 0.  0.
          5    1    3    3  502    0  0.58054904806E+02 -0.60049755897E+02 -0.14185027981E+03  0.16466729924E+03  0.41800000000E+01 0. -1.
         -5    1    3    3    0  502 -0.42363648964E+02 -0.19896632966E+02 -0.95469744907E+01  0.47949680696E+02  0.41800000000E+01 0. -1.
        -11    1    1    2    0    0 -0.21761065695E+01 -0.19832380295E+02 -0.95467596754E+01  0.22117851800E+02  0.00000000000E+00 0. -1.
         11    1    1    2    0    0 -0.13515149272E+02  0.99778769157E+02 -0.10262676978E+03  0.14377314044E+03  0.00000000000E+00 0.  1.
</event>
<event>
 7    1  0.2499014E-009  0.3357570E+03  0.7561462E-02  0.1068618E+00
          1   -1    0    0  501    0  0.00000000000E+00  0.00000000000E+00  0.17480357727E+03  0.17480357727E+03  0.00000000000E+00 0. -1.
         -1   -1    0    0    0  501 -0.00000000000E+00 -0.00000000000E+00 -0.72222570908E+03  0.72222570908E+03  0.00000000000E+00 0.  1.
         25    2    1    2    0    0  0.19299212743E+03 -0.26312062253E+03 -0.38874952079E+03  0.52273537686E+03  0.12509061137E+03 0.  0.
          5    1    3    3  502    0  0.59383001443E+02 -0.37505837576E+02 -0.15983736662E+03  0.17463815414E+03  0.41800000000E+01 0.  1.
         -5    1    3    3    0  502  0.13360912599E+03 -0.22561478496E+03 -0.22891215417E+03  0.34809722272E+03  0.41800000000E+01 0.  1.
        -11    1    1    2    0    0 -0.10504020929E+03  0.21346991202E+03 -0.11519864046E+03  0.26433610360E+03  0.00000000000E+00 0.  1.
         11    1    1    2    0    0 -0.87951918144E+02  0.49650710515E+02 -0.43473970554E+02  0.10995780589E+03  0.00000000000E+00 0. -1.
</event>
<event>
 7    1  0.2499014E-009  0.1102590E+03  0.7561462E-02  0.1260091E+00
         -1   -1    0    0    0  501 -0.00000000000E+00  0.00000000000E+00  0.12600512606E+03  0.12600512606E+03  0.00000000000E+00 0.  1.
          1   -1    0    0  501    0  0.00000000000E+00 -0.00000000000E+00 -0.10059141132E+03  0.10059141132E+03  0.00000000000E+00 0. -1.
         25    2    1    2    0    0 -0.14011278478E+02 -0.10730861420E+02 -0.77653270954E+01  0.12656594519E+03  0.12508865203E+03 0.  0.
          5    1    3    3  502    0  0.30977522498E+01 -0.67031640018E+02 -0.66852408399E+01  0.67564796141E+02  0.41800000000E+01 0.  1.
         -5    1    3    3    0  502 -0.17109030728E+02  0.56300778598E+02 -0.10800862555E+01  0.59001149053E+02  0.41800000000E+01 0.  1.
        -11    1    1    2    0    0  0.22627294891E+02  0.49580576932E+02  0.17213042278E+02  0.57153450530E+02  0.00000000000E+00 0. -1.
         11    1    1    2    0    0 -0.86160164122E+01 -0.38849715512E+02  0.15965999557E+02  0.42877141649E+02  0.00000000000E+00 0.  1.
</event>
<event>
 7    1  0.2499014E-009  0.1412960E+03  0.7561462E-02  0.1211596E+00
          1   -1    0    0  501    0  0.00000000000E+00  0.00000000000E+00  0.14930051695E+03  0.14930051695E+03  0.00000000000E+00 0. -1.
         -1   -1    0    0    0  501 -0.00000000000E+00 -0.00000000000E+00 -0.21393476397E+03  0.21393476397E+03  0.00000000000E+00 0.  1.
         25    2    1    2    0    0  0.38874822341E+02 -0.10911528942E+03 -0.11536057029E+03  0.20584990006E+03  0.12509485194E+03 0.  0.
          5    1    3    3  502    0  0.51868672616E+02 -0.27494077772E+02  0.57849941088E+01  0.59137315363E+02  0.41800000000E+01 0.  1.
         -5    1    3    3    0  502 -0.12993850275E+02 -0.81621211645E+02 -0.12114556440E+03  0.14671258470E+03  0.41800000000E+01 0.  1.
        -11    1    1    2    0    0 -0.61937849554E+02  0.57774182338E+02  0.49639880017E+01  0.84845710139E+02  0.00000000000E+00 0.  1.
         11    1    1    2    0    0  0.23063027212E+02  0.51341107079E+02  0.45762335262E+02  0.72539670725E+02  0.00000000000E+00 0. -1.
</event>
<event>
 7    1  0.2499014E-009  0.7615197E+02  0.7561462E-02  0.1340340E+00
         -4   -1    0    0    0  501 -0.00000000000E+00  0.00000000000E+00  0.67580397143E+02  0.67580397143E+02  0.00000000000E+00 0.  1.
          4   -1    0    0  501    0  0.00000000000E+00 -0.00000000000E+00 -0.21156676500E+03  0.21156676500E+03  0.00000000000E+00 0. -1.
         25    2    1    2    0    0 -0.20509022869E+02  0.33724449373E+02 -0.11443765003E+03  0.17407502900E+03  0.12509269153E+03 0.  0.
          5    1    3    3  502    0 -0.36995726209E+02 -0.13403865957E+02 -0.11739466959E+03  0.12388433407E+03  0.41800000000E+01 0.  1.
         -5    1    3    3    0  502  0.16486703340E+02  0.47128315331E+02  0.29570195609E+01  0.50190694931E+02  0.41800000000E+01 0.  1.
        -11    1    1    2    0    0 -0.22610708045E+01  0.11647496138E+02  0.26751381969E+02  0.29264535615E+02  0.00000000000E+00 0.  1.
         11    1    1    2    0    0  0.22770093673E+02 -0.45371945511E+02 -0.56300099796E+02  0.75807597524E+02  0.00000000000E+00 0. -1.
</event>
<event>
 7    1  0.2499014E-009  0.1671658E+03  0.7561462E-02  0.1180836E+00
         -1   -1    0    0    0  501 -0.00000000000E+00  0.00000000000E+00  0.17310583748E+03  0.17310583748E+03  0.00000000000E+00 0.  1.
          1   -1    0    0  501    0  0.00000000000E+00 -0.00000000000E+00 -0.29862043682E+03  0.29862043682E+03  0.00000000000E+00 0. -1.
         25    2    1    2    0    0  0.14199009753E+03 -0.46050992421E+01 -0.19793193504E+03  0.27387436591E+03  0.12509085761E+03 0.  0.
          5    1    3    3  502    0  0.11771548048E+03 -0.33724819485E+02 -0.20122582886E+03  0.23559202956E+03  0.41800000000E+01 0. -1.
         -5    1    3    3    0  502  0.24274617055E+02  0.29119720243E+02  0.32938938131E+01  0.38282336353E+02  0.41800000000E+01 0. -1.
        -11    1    1    2    0    0 -0.77157736187E+02  0.52273707461E+02  0.57888134527E+01  0.93377551405E+02  0.00000000000E+00 0. -1.
         11    1    1    2    0    0 -0.64832361346E+02 -0.47668608218E+02  0.66628522254E+02  0.10447435697E+03  0.00000000000E+00 0.  1.
</event>
<event>
 7    1  0.2499014E-009  0.1170374E+03  0.7561462E-02  0.1248066E+00
         -2   -1    0    0    0  501 -0.00000000000E+00  0.00000000000E+00  0.49605074337E+03  0.49605074337E+03  0.00000000000E+00 0.  1.
          2   -1    0    0  501    0  0.00000000000E+00 -0.00000000000E+00 -0.32302982331E+02  0.32302982331E+02  0.00000000000E+00 0. -1.
         25    2    1    2    0    0 -0.57016337648E+02  0.12474395036E+02  0.21402003600E+03  0.25467565004E+03  0.12509451476E+03 0.  0.
          5    1    3    3  502    0  0.29380500319E+02  0.20988041252E+02  0.18669944032E+02  0.40862585390E+02  0.41800000000E+01 0.  1.
         -5    1    3    3    0  502 -0.86396837967E+02 -0.85136462165E+01  0.19535009197E+03  0.21381306465E+03  0.41800000000E+01 0.  1.
        -11    1    1    2    0    0 -0.24465872661E+02 -0.16032427764E+02  0.49814441876E+02  0.57767605840E+02  0.00000000000E+00 0. -1.
         11    1    1    2    0    0  0.81482210309E+02  0.35580327280E+01  0.19991328316E+03  0.21591046982E+03  0.00000000000E+00 0.  1.
</event>
<event>
 7    1  0.2499014E-009  0.8766406E+02  0.7561462E-02  0.1308609E+00
          2   -1    0    0  501    0  0.00000000000E+00  0.00000000000E+00  0.47813001502E+03  0.47813001502E+03  0.00000000000E+00 0. -1.
         -2   -1    0    0    0  501 -0.00000000000E+00 -0.00000000000E+00 -0.28139114238E+02  0.28139114238E+02  0.00000000000E+00 0.  1.
         25    2    1    2    0    0  0.18705672652E+02  0.37239508548E+02  0.28903251147E+03  0.31768476613E+03  0.12508850770E+03 0.  0.
          5    1    3    3  502    0  0.53866454170E+02  0.64411058517E+02  0.21961960642E+03  0.23516084553E+03  0.41800000000E+01 0.  1.
         -5    1    3    3    0  502 -0.35160781518E+02 -0.27171549969E+02  0.69412905042E+02  0.82523920599E+02  0.41800000000E+01 0.  1.
        -11    1    1    2    0    0  0.42881996595E+01 -0.10600415391E+02 -0.92925362866E+01  0.14734608696E+02  0.00000000000E+00 0.  1.
         11    1    1    2    0    0 -0.22993872312E+02 -0.26639093157E+02  0.17025092560E+03  0.17384975443E+03  0.00000000000E+00 0. -1.
</event>
<event>
 7    1  0.2499014E-009  0.6307278E+02  0.7561462E-02  0.1385371E+00
          1   -1    0    0  501    0  0.00000000000E+00  0.00000000000E+00  0.27865493627E+03  0.27865493627E+03  0.00000000000E+00 0. -1.
         -1   -1    0    0    0  501 -0.00000000000E+00 -0.00000000000E+00 -0.43912743586E+02  0.43912743586E+02  0.00000000000E+00 0.  1.
         25    2    1    2    0    0  0.22676815680E+02 -0.43611633557E+01  0.15302532902E+03  0.19899309896E+03  0.12509294303E+03 0.  0.
          5    1    3    3  502    0 -0.72641350638E+00 -0.28450706901E+02 -0.11532368869E+02  0.30990939506E+02  0.41800000000E+01 0. -1.
         -5    1    3    3    0  502  0.23403229186E+02  0.24089543545E+02  0.16455769789E+03  0.16800215945E+03  0.41800000000E+01 0. -1.
        -11    1    1    2    0    0 -0.28438137007E+02  0.27578070216E+02  0.12569610098E+01  0.39634045267E+02  0.00000000000E+00 0.  1.
         11    1    1    2    0    0  0.57613213269E+01 -0.23216906861E+02  0.80459902652E+02  0.83940535633E+02  0.00000000000E+00 0. -1.
</event>
<event>
 7    1  0.2499014E-009  0.6919208E+02  0.7561462E-02  0.1362862E+00
          2   -1    0    0  501    0  0.00000000000E+00  0.00000000000E+00  0.28581984475E+02  0.28581984475E+02  0.00000000000E+00 0. -1.
         -2   -1    0    0    0  501 -0.00000000000E+00 -0.00000000000E+00 -0.47608193304E+03  0.47608193304E+03  0.00000000000E+00 0.  1.
         25    2    1    2    0    0  0.35169436567E+02 -0.20423633262E+02 -0.28262692044E+03  0.31173407215E+03  0.12508453749E+03 0.  0.
          5    1    3    3  502    0 -0.94442796925E+01  0.83470282966E+01  0.85068534564E+01  0.15770423457E+02  0.41800000000E+01 0.  1.
         -5    1    3    3    0  502  0.44613716260E+02 -0.28770661558E+02 -0.29113377390E+03  0.29596364869E+03  0.41800000000E+01 0.  1.
        -11    1    1    2    0    0 -0.50668705303E+02  0.23818330391E+02 -0.16771263183E+03  0.17681107838E+03  0.00000000000E+00 0.  1.
         11    1    1    2    0    0  0.15499268736E+02 -0.33946971295E+01  0.28396037100E+01  0.16118766987E+02  0.00000000000E+00 0. -1.
</event>
<event>
 7    1  0.2499014E-009  0.1019316E+03  0.7561462E-02  0.1276286E+00
          2   -1    0    0  501    0  0.00000000000E+00  0.00000000000E+00  0.44421228183E+03  0.44421228183E+03  0.00000000000E+00 0. -1.
         -2   -1    0    0    0  501 -0.00000000000E+00 -0.00000000000E+00 -0.31186728976E+02  0.31186728976E+02  0.00000000000E+00 0.  1.
         25    2    1    2    0    0  0.22937410509E+02  0.39298553502E+02  0.25528994345E+03  0.28790452133E+03  0.12508220124E+03 0.  0.
          5    1    3    3  502    0  0.66973182011E+02  0.53943535344E+02  0.15464164455E+03  0.17699384945E+03  0.41800000000E+01 0.  1.
         -5    1    3    3    0  502 -0.44035771502E+02 -0.14644981843E+02  0.10064829890E+03  0.11091067188E+03  0.41800000000E+01 0.  1.
        -11    1    1    2    0    0 -0.14288097297E+02  0.12299406961E+02 -0.24225257793E+01  0.19007729141E+02  0.00000000000E+00 0.  1.
         11    1    1    2    0    0 -0.86493132112E+01 -0.51597960462E+02  0.16015813518E+03  0.16848676033E+03  0.00000000000E+00 0. -1.
</event>
<event>
 7    1  0.2499014E-009  0.1661786E+03  0.7561462E-02  0.1181893E+00
          2   -1    0    0  501    0  0.00000000000E+00  0.00000000000E+00  0.12308056223E+04  0.12308056223E+04  0.00000000000E+00 0.  1.
         -2   -1    0    0    0  501 -0.00000000000E+00 -0.00000000000E+00 -0.26952612443E+02  0.26952612443E+02  0.00000000000E+00 0. -1.
         25    2    1    2    0    0 -0.14366068955E+03  0.44615266085E+01  0.55770460522E+03  0.58935513849E+03  0.12508698430E+03 0.  0.
          5    1    3    3  502    0 -0.16859052204E+02  0.50056567591E+02  0.20578026210E+03  0.21249206167E+03  0.41800000000E+01 0. -1.
         -5    1    3    3    0  502 -0.12680163734E+03 -0.45595040983E+02  0.35192434312E+03  0.37686307683E+03  0.41800000000E+01 0. -1.
        -11    1    1    2    0    0  0.98018650685E+02 -0.10237626807E+02  0.57695221618E+03  0.58530874301E+03  0.00000000000E+00 0.  1.
         11    1    1    2    0    0  0.45642038863E+02  0.57761001983E+01  0.69196188487E+02  0.83094353274E+02  0.00000000000E+00 0. -1.
</event>
<event>
 7    1  0.2499014E-009  0.1521834E+03  0.7561462E-02  0.1197815E+00
         -2   -1    0    0    0  501 -0.00000000000E+00  0.00000000000E+00  0.20795588756E+02  0.20795588756E+02  0.00000000000E+00 0. -1.
          2   -1    0    0  501    0  0.00000000000E+00 -0.00000000000E+00 -0.12357511069E+04  0.12357511069E+04  0.00000000000E+00 0.  1.
         25    2    1    2    0    0  0.94848523613E+02 -0.66926032377E+02 -0.66908668783E+03  0.69050727519E+03  0.12509182635E+03 0.  0.
          5    1    3    3  502    0  0.81343605152E+02 -0.10149547153E+03 -0.45746834281E+03  0.47561840788E+03  0.41800000000E+01 0.  1.
         -5    1    3    3    0  502  0.13504918462E+02  0.34569439150E+02 -0.21161834502E+03  0.21488886731E+03  0.41800000000E+01 0.  1.
        -11    1    1    2    0    0 -0.29505094909E+02  0.65143610658E+02 -0.39789387347E+03  0.40426943389E+03  0.00000000000E+00 0.  1.
         11    1    1    2    0    0 -0.65343428704E+02  0.17824217190E+01 -0.14797495681E+03  0.16176998654E+03  0.00000000000E+00 0. -1.
</event>
<event>
 7    1  0.2499014E-009  0.8178798E+02  0.7561462E-02  0.1324053E+00
          1   -1    0    0  501    0  0.00000000000E+00  0.00000000000E+00  0.21632727505E+03  0.21632727505E+03  0.00000000000E+00 0. -1.
         -1   -1    0    0    0  501 -0.00000000000E+00 -0.00000000000E+00 -0.61412476033E+02  0.61412476033E+02  0.00000000000E+00 0.  1.
         25    2    1    2    0    0 -0.18836435981E+02  0.21187982942E+02  0.50660048908E+02  0.13791078878E+03  0.12509677520E+03 0.  0.
          5    1    3    3  502    0 -0.29074412282E+01 -0.38809403939E+02 -0.19840306440E+02  0.43883176825E+02  0.41800000000E+01 0. -1.
         -5    1    3    3    0  502 -0.15928994752E+02  0.59997386882E+02  0.70500355348E+02  0.94027611959E+02  0.41800000000E+01 0. -1.
        -11    1    1    2    0    0  0.24513735382E+02 -0.37580944336E+02  0.12681523428E+02  0.46626941097E+02  0.00000000000E+00 0.  1.
         11    1    1    2    0    0 -0.56772994014E+01  0.16392961394E+02  0.91573226679E+02  0.93202021202E+02  0.00000000000E+00 0. -1.
</event>
<event>
 7    1  0.2499014E-009  0.3425416E+03  0.7561462E-02  0.1065719E+00
          2   -1    0    0  501    0  0.00000000000E+00  0.00000000000E+00  0.85250801378E+03  0.85250801378E+03  0.00000000000E+00 0. -1.
         -2   -1    0    0    0  501 -0.00000000000E+00 -0.00000000000E+00 -0.17149173917E+03  0.17149173917E+03  0.00000000000E+00 0.  1.
         25    2    1    2    0    0  0.29706572050E+03 -0.15097458640E+03  0.14168701944E+03  0.38309863561E+03  0.12509190658E+03 0.  0.
          5    1    3    3  502    0  0.15731944416E+03 -0.11599272944E+03  0.23877013628E+02  0.19695508365E+03  0.41800000000E+01 0. -1.
         -5    1    3    3    0  502  0.13974627633E+03 -0.34981856960E+02  0.11781000581E+03  0.18614355196E+03  0.41800000000E+01 0. -1.
        -11    1    1    2    0    0 -0.21426366723E+03  0.15191624145E+03  0.42770493579E+03  0.50191530721E+03  0.00000000000E+00 0.  1.
         11    1    1    2    0    0 -0.82802053273E+02 -0.94165504641E+00  0.11162431938E+03  0.13898581013E+03  0.00000000000E+00 0. -1.
</event>
<event>
 7    1  0.2499014E-009  0.9444761E+02  0.7561462E-02  0.1292425E+00
          1   -1    0    0  501    0  0.00000000000E+00  0.00000000000E+00  0.76361525478E+03  0.76361525478E+03  0.00000000000E+00 0. -1.
         -1   -1    0    0    0  501 -0.00000000000E+00 -0.00000000000E+00 -0.18046376783E+02  0.18046376783E+02  0.00000000000E+00 0.  1.
         25    2    1    2    0    0 -0.29671843435E+01 -0.21427128492E+02  0.56937886120E+03  0.58335819802E+03  0.12508626465E+03 0.  0.
          5    1    3    3  502    0 -0.59903005178E+02  0.10410799206E+02  0.30386522203E+03  0.30991660221E+03  0.41800000000E+01 0.  1.
         -5    1    3    3    0  502  0.56935820834E+02 -0.31837927698E+02  0.26551363917E+03  0.27344159581E+03  0.41800000000E+01 0.  1.
        -11    1    1    2    0    0 -0.14089956422E+02  0.36934835773E+02  0.16985710081E+03  0.17439651276E+03  0.00000000000E+00 0. -1.
         11    1    1    2    0    0  0.17057140766E+02 -0.15507707282E+02  0.63329159837E+01  0.23906920778E+02  0.00000000000E+00 0.  1.
</event>
<event>
 7    1  0.2499014E-009  0.1365292E+03  0.7561462E-02  0.1218077E+00
         -2   -1    0    0    0  501 -0.00000000000E+00  0.00000000000E+00  0.29647556276E+02  0.29647556276E+02  0.00000000000E+00 0.  1.
          2   -1    0    0  501    0  0.00000000000E+00 -0.00000000000E+00 -0.84757080115E+03  0.84757080115E+03  0.00000000000E+00 0. -1.
         25    2    1    2    0    0  0.40701167557E+02  0.99356969958E+02 -0.55848061888E+03  0.58230324994E+03  0.12509228875E+03 0.  0.
          5    1    3    3  502    0  0.70148736053E+01  0.12179451724E+03 -0.37509513611E+03  0.39445778787E+03  0.41800000000E+01 0. -1.
         -5    1    3    3    0  502  0.33686293952E+02 -0.22437547277E+02 -0.18338548277E+03  0.18784546207E+03  0.41800000000E+01 0. -1.
        -11    1    1    2    0    0 -0.85860132989E+01 -0.54269686626E+02 -0.38366991902E+02  0.67014510208E+02  0.00000000000E+00 0.  1.
         11    1    1    2    0    0 -0.32115154258E+02 -0.45087283332E+02 -0.22107563410E+03  0.22790059729E+03  0.00000000000E+00 0. -1.
</event>
<event>
 7    1  0.2499014E-009  0.1309350E+03  0.7561462E-02  0.1226075E+00
          1   -1    0    0  501    0  0.00000000000E+00  0.00000000000E+00  0.13197745129E+04  0.13197745129E+04  0.00000000000E+00 0. -1.
         -1   -1    0    0    0  501 -0.00000000000E+00 -0.00000000000E+00 -0.15779629083E+02  0.15779629083E+02  0.00000000000E+00 0.  1.
         25    2    1    2    0    0  0.62384104180E+02  0.58641453208E+02  0.86918141350E+03  0.88230058094E+03  0.12508952419E+03 0.  0.
          5    1    3    3  502    0  0.56136768049E+02 -0.23427592080E+02  0.23476047062E+03  0.24254925224E+03  0.41800000000E+01 0. -1.
         -5    1    3    3    0  502  0.62473361303E+01  0.82069045289E+02  0.63442094288E+03  0.63975132870E+03  0.41800000000E+01 0. -1.
        -11    1    1    2    0    0  0.12561544103E+02  0.10609889346E+02  0.19114691691E+02  0.25213757765E+02  0.00000000000E+00 0.  1.
         11    1    1    2    0    0 -0.74945648283E+02 -0.69251342554E+02  0.41569877868E+03  0.42803980333E+03  0.00000000000E+00 0. -1.
</event>
<event>
 7    1  0.2499014E-009  0.1648483E+03  0.7561462E-02  0.1183329E+00
         -1   -1    0    0    0  501 -0.00000000000E+00  0.00000000000E+00  0.77175148351E+03  0.77175148351E+03  0.00000000000E+00 0.  1.
          1   -1    0    0  501    0  0.00000000000E+00 -0.00000000000E+00 -0.51433455966E+02  0.51433455966E+02  0.00000000000E+00 0. -1.
         25    2    1    2    0    0  0.11354050483E+03  0.74273821862E+02  0.56225070735E+03  0.59176148952E+03  0.12509098976E+03 0.  0.
          5    1    3    3  502    0  0.10278179188E+03  0.19044605934E+02  0.48467713454E+03  0.49583887595E+03  0.41800000000E+01 0.  1.
         -5    1    3    3    0  502  0.10758712947E+02  0.55229215928E+02  0.77573572803E+02  0.95922613568E+02  0.41800000000E+01 0.  1.
        -11    1    1    2    0    0 -0.42894447257E+01  0.22381826266E+02  0.26869168482E+02  0.35232054978E+02  0.00000000000E+00 0.  1.
         11    1    1    2    0    0 -0.10925106010E+03 -0.96655648128E+02  0.13119815171E+03  0.19619139497E+03  0.00000000000E+00 0. -1.
</event>
<event>
 7    1  0.2499014E-009  0.7463538E+02  0.7561462E-02  0.1345004E+00
          1   -1    0    0  501    0  0.00000000000E+00  0.00000000000E+00  0.25041097187E+03  0.25041097187E+03  0.00000000000E+00 0. -1.
         -1   -1    0    0    0  501 -0.00000000000E+00 -0.00000000000E+00 -0.44135947012E+02  0.44135947012E+02  0.00000000000E+00 0.  1.
         25    2    1    2    0    0 -0.77543973407E+01  0.67018652109E+01  0.12322570459E+03  0.17588823742E+03  0.12508817737E+03 0.  0.
          5    1    3    3  502    0 -0.11672433104E+02 -0.49255255263E+02  0.10520206717E+03  0.11682154425E+03  0.41800000000E+01 0. -1.
         -5    1    3    3    0  502  0.39180357632E+01  0.55957120474E+02  0.18023637423E+02  0.59066693170E+02  0.41800000000E+01 0. -1.
        -11    1    1    2    0    0 -0.10782019156E+02 -0.17663621501E+02 -0.10117647343E+02  0.23035239295E+02  0.00000000000E+00 0.  1.
         11    1    1    2    0    0  0.18536416497E+02  0.10961756290E+02  0.93166967616E+02  0.95623442169E+02  0.00000000000E+00 0. -1.
</event>
<event>
 7    1  0.2499014E-009  0.9317928E+02  0.7561462E-02  0.1295330E+00
         -2   -1    0    0    0  501 -0.00000000000E+00  0.00000000000E+00  0.38669648847E+02  0.38669648847E+02  0.00000000000E+00 0.  1.
          2   -1    0    0  501    0  0.00000000000E+00 -0.00000000000E+00 -0.33638916142E+03  0.33638916142E+03  0.00000000000E+00 0. -1.
         25    2    1    2    0    0 -0.14203361713E+02  0.14495467964E+02 -0.21623304872E+03  0.25063159145E+03  0.12509040411E+03 0.  0.
          5    1    3    3  502    0 -0.30630749646E+02  0.61272818154E+02 -0.78944017933E+02  0.10460512146E+03  0.41800000000E+01 0.  1.
         -5    1    3    3    0  502  0.16427387933E+02 -0.46777350189E+02 -0.13728903078E+03  0.14602646999E+03  0.41800000000E+01 0.  1.
        -11    1    1    2    0    0 -0.25830068932E+02 -0.14555185343E+01 -0.78001096876E+02  0.82179572335E+02  0.00000000000E+00 0.  1.
         11    1    1    2    0    0  0.40033430645E+02 -0.13039949430E+02 -0.34853669838E+01  0.42247646483E+02  0.00000000000E+00 0. -1.
</event>
<event>
 7    1  0.2499014E-009  0.1240345E+03  0.7561462E-02  0.1236586E+00
         -1   -1    0    0    0  501 -0.00000000000E+00  0.00000000000E+00  0.88177649962E+02  0.88177649962E+02  0.00000000000E+00 0.  1.
          1   -1    0    0  501    0  0.00000000000E+00 -0.00000000000E+00 -0.20476220047E+03  0.20476220047E+03  0.00000000000E+00 0. -1.
         25    2    1    2    0    0 -0.78986458578E+02  0.95951584900E+01 -0.59743016765E+02  0.15984366626E+03  0.12509932808E+03 0.  0.
          5    1    3    3  502    0 -0.10823406809E+03  0.59567544539E+01 -0.20191492212E+02  0.11034158408E+03  0.41800000000E+01 0. -1.
         -5    1    3    3    0  502  0.29247609511E+02  0.36384040361E+01 -0.39551524553E+02  0.49502082183E+02  0.41800000000E+01 0. -1.
        -11    1    1    2    0    0  0.72649863418E+02  0.23321641262E+02 -0.63079415313E+02  0.98999566878E+02  0.00000000000E+00 0.  1.
         11    1    1    2    0    0  0.63365951602E+01 -0.32916799752E+02  0.62378815735E+01  0.34096617290E+02  0.00000000000E+00 0. -1.
</event>
<event>
 7    1  0.2499014E-009  0.1581761E+03  0.7561462E-02  0.1190771E+00
         -3   -1    0    0    0  501 -0.00000000000E+00  0.00000000000E+00  0.31419430746E+02  0.31419430746E+02  0.00000000000E+00 0.  1.
          3   -1    0    0  501    0  0.00000000000E+00 -0.00000000000E+00 -0.88474452964E+03  0.88474452964E+03  0.00000000000E+00 0. -1.
         25    2    1    2    0    0  0.94087145404E+02 -0.82264922328E+02 -0.50664830067E+03  0.53661893529E+03  0.12508985875E+03 0.  0.
          5    1    3    3  502    0  0.23514322719E+02 -0.93298104444E+02 -0.37051670003E+03  0.38282836502E+03  0.41800000000E+01 0.  1.
         -5    1    3    3    0  502  0.70572822685E+02  0.11033182116E+02 -0.13613160064E+03  0.15379057026E+03  0.41800000000E+01 0.  1.
        -11    1    1    2    0    0 -0.21728688241E+01  0.51531275187E+02 -0.74361979181E+02  0.90498053178E+02  0.00000000000E+00 0.  1.
         11    1    1    2    0    0 -0.91914276580E+02  0.30733647141E+02 -0.27231481905E+03  0.28904697193E+03  0.00000000000E+00 0. -1.
</event>
<event>
 7    1  0.2499014E-009  0.1103919E+03  0.7561462E-02  0.1259846E+00
         -2   -1    0    0    0  501 -0.00000000000E+00  0.00000000000E+00  0.14137036333E+02  0.14137036333E+02  0.00000000000E+00 0. -1.
          2   -1    0    0  501    0  0.00000000000E+00 -0.00000000000E+00 -0.93727034790E+03  0.93727034790E+03  0.00000000000E+00 0.  1.
         25    2    1    2    0    0  0.23081003894E+01  0.37342745296E+02 -0.56887149650E+03  0.58366322092E+03  0.12509263758E+03 0.  0.
          5    1    3    3  502    0  0.52636290367E+02  0.54759460785E+02 -0.29652331813E+03  0.30612534721E+03  0.41800000000E+01 0.  1.
         -5    1    3    3    0  502 -0.50328189977E+02 -0.17416715489E+02 -0.27234817837E+03  0.27753787371E+03  0.41800000000E+01 0.  1.
        -11    1    1    2    0    0  0.28890758455E+02  0.13305317125E+02 -0.64223206565E+02  0.71668177383E+02  0.00000000000E+00 0. -1.
         11    1    1    2    0    0 -0.31198858845E+02 -0.50648062421E+02 -0.29003860850E+03  0.29607598593E+03  0.00000000000E+00 0.  1.
</event>
<event>
 7    1  0.2499014E-009  0.1310155E+03  0.7561462E-02  0.1225957E+00
         -1   -1    0    0    0  501 -0.00000000000E+00  0.00000000000E+00  0.57389295433E+03  0.57389295433E+03  0.00000000000E+00 0.  1.
          1   -1    0    0  501    0  0.00000000000E+00 -0.00000000000E+00 -0.43511610363E+02  0.43511610363E+02  0.00000000000E+00 0. -1.
         25    2    1    2    0    0 -0.62620681960E+02  0.76085057656E+02  0.17182450923E+03  0.23426826675E+03  0.12509065923E+03 0.  0.
          5    1    3    3  502    0  0.34579358576E+02  0.33723313395E+02  0.81916463881E+02  0.95188094637E+02  0.41800000000E+01 0. -1.
         -5    1    3    3    0  502 -0.97200040536E+02  0.42361744261E+02  0.89908045346E+02  0.13908017211E+03  0.41800000000E+01 0. -1.
        -11    1    1    2    0    0  0.43902333374E+02 -0.77065075956E+02  0.35242607589E+03  0.36341516173E+03  0.00000000000E+00 0.  1.
         11    1    1    2    0    0  0.18718348586E+02  0.98001830019E+00  0.61307588572E+01  0.19721136220E+02  0.00000000000E+00 0. -1.
</event>
<event>
 7    1  0.2499014E-009  0.1134023E+03  0.7561462E-02  0.1254396E+00
          2   -1    0    0  501    0  0.00000000000E+00  0.00000000000E+00  0.62919917169E+02  0.62919917169E+02  0.00000000000E+00 0.  1.
         -2   -1    0    0    0  501 -0.00000000000E+00 -0.00000000000E+00 -0.23399933208E+03  0.23399933208E+03  0.00000000000E+00 0. -1.
         25    2    1    2    0    0  0.47458286512E+01  0.47865404541E+02 -0.61385745970E+02  0.14740769269E+03  0.12508876134E+03 0.  0.
          5    1    3    3  502    0  0.31807832485E+02  0.79863548106E+02 -0.19996318552E+02  0.88358642357E+02  0.41800000000E+01 0.  1.
         -5    1    3    3    0  502 -0.27062003834E+02 -0.31998143565E+02 -0.41389427418E+02  0.59049050332E+02  0.41800000000E+01 0.  1.
        -11    1    1    2    0    0 -0.40359514937E+02 -0.18047079151E+01 -0.63169582037E+02  0.74983621620E+02  0.00000000000E+00 0.  1.
         11    1    1    2    0    0  0.35613686285E+02 -0.46060696626E+02 -0.46524086908E+02  0.74527934945E+02  0.00000000000E+00 0. -1.
</event>
<event>
 7    1  0.2499014E-009  0.9862068E+02  0.7561462E-02  0.1283223E+00
         -1   -1    0    0    0  501 -0.00000000000E+00  0.00000000000E+00  0.84661650634E+02  0.84661650634E+02  0.00000000000E+00 0.  1.
          1   -1    0    0  501    0  0.00000000000E+00 -0.00000000000E+00 -0.20378290563E+03  0.20378290563E+03  0.00000000000E+00 0. -1.
         25    2    1    2    0    0  0.52402279460E+02  0.32072482061E+02 -0.62941072897E+02  0.15291515975E+03  0.12508726724E+03 0.  0.
          5    1    3    3  502    0  0.61178234651E+01  0.30389785430E+02  0.33508855762E+02  0.45839749529E+02  0.41800000000E+01 0. -1.
         -5    1    3    3    0  502  0.46284455994E+02  0.16826966312E+01 -0.96449928659E+02  0.10707541022E+03  0.41800000000E+01 0. -1.
        -11    1    1    2    0    0 -0.83629323024E+02 -0.26579880263E+02 -0.55472681663E+02  0.10381508616E+03  0.00000000000E+00 0. -1.
         11    1    1    2    0    0  0.31227043564E+02 -0.54926017977E+01 -0.70750043314E+00  0.31714310352E+02  0.00000000000E+00 0.  1.
</event>
<event>
 7    1  0.2499014E-009  0.1507276E+03  0.7561462E-02  0.1199582E+00
         -3   -1    0    0    0  501 -0.00000000000E+00  0.00000000000E+00  0.96346424215E+02  0.96346424215E+02  0.00000000000E+00 0.  1.
          3   -1    0    0  501    0  0.00000000000E+00 -0.00000000000E+00 -0.35488847688E+03  0.35488847688E+03  0.00000000000E+00 0. -1.
         25    2    1    2    0    0  0.49115561474E+02  0.11863528674E+03 -0.22789963376E+03  0.28995277786E+03  0.12509076977E+03 0.  0.
          5    1    3    3  502    0 -0.31017422617E+02  0.36226010402E+02 -0.13127429851E+03  0.13973123553E+03  0.41800000000E+01 0. -1.
         -5    1    3    3    0  502  0.80132984091E+02  0.82409276341E+02 -0.96625335252E+02  0.15022154233E+03  0.41800000000E+01 0. -1.
        -11    1    1    2    0    0 -0.43052396530E+02 -0.37196056290E+02 -0.51775984419E+02  0.76927290431E+02  0.00000000000E+00 0. -1.
         11    1    1    2    0    0 -0.60631649446E+01 -0.81439230453E+02  0.21133565514E+02  0.84354832803E+02  0.00000000000E+00 0.  1.
</event>
<event>
 7    1  0.2499014E-009  0.8318757E+02  0.7561462E-02  0.1320241E+00
         -1   -1    0    0    0  501 -0.00000000000E+00  0.00000000000E+00  0.43835123529E+03  0.43835123529E+03  0.00000000000E+00 0.  1.
          1   -1    0    0  501    0  0.00000000000E+00 -0.00000000000E+00 -0.39104625629E+02  0.39104625629E+02  0.00000000000E+00 0. -1.
         25    2    1    2    0    0 -0.35475890061E+02 -0.21418533362E+02  0.33232255896E+03  0.35749541362E+03  0.12508954879E+03 0.  0.
          5    1    3    3  502    0 -0.26557491828E+01  0.16072441021E+02 -0.41542782237E+01  0.17323590611E+02  0.41800000000E+01 0.  1.
         -5    1    3    3    0  502 -0.32820140878E+02 -0.37490974383E+02  0.33647683718E+03  0.34017182300E+03  0.41800000000E+01 0.  1.
        -11    1    1    2    0    0 -0.22225932888E+02 -0.18889536687E+02  0.19224700938E+02  0.34934164011E+02  0.00000000000E+00 0.  1.
         11    1    1    2    0    0  0.57701822949E+02  0.40308070049E+02  0.47699349772E+02  0.85026283297E+02  0.00000000000E+00 0. -1.
</event>
<event>
 7    1  0.2499014E-009  0.1835802E+03  0.7561462E-02  0.1164382E+00
          1   -1    0    0  501    0  0.00000000000E+00  0.00000000000E+00  0.56392878440E+03  0.56392878440E+03  0.00000000000E+00 0. -1.
         -1   -1    0    0    0  501 -0.00000000000E+00 -0.00000000000E+00 -0.91633972449E+02  0.91633972449E+02  0.00000000000E+00 0.  1.
         25    2    1    2    0    0 -0.31784436806E+02  0.15597741046E+02  0.54230444175E+01  0.13011976155E+03  0.12509277751E+03 0.  0.
          5    1    3    3  502    0 -0.70996492225E+02  0.38128069420E+02 -0.11787225703E+02  0.81551595176E+02  0.41800000000E+01 0. -1.
         -5    1    3    3    0  502  0.39212055420E+02 -0.22530328374E+02  0.17210270120E+02  0.48568166369E+02  0.41800000000E+01 0. -1.
        -11    1    1    2    0    0 -0.10281997214E+03  0.12394261155E+02  0.20500905283E+03  0.22968299049E+03  0.00000000000E+00 0. -1.
         11    1    1    2    0    0  0.13460440894E+03 -0.27992002202E+02  0.26186271470E+03  0.29576000481E+03  0.00000000000E+00 0.  1.
</event>
<event>
 7    1  0.2499014E-009  0.1716769E+03  0.7561462E-02  0.1176110E+00
          2   -1    0    0  501    0  0.00000000000E+00  0.00000000000E+00  0.33634645390E+03  0.33634645390E+03  0.00000000000E+00 0. -1.
         -2   -1    0    0    0  501 -0.00000000000E+00 -0.00000000000E+00 -0.11515966856E+03  0.11515966856E+03  0.00000000000E+00 0.  1.
         25    2    1    2    0    0 -0.52953246045E+02 -0.13245518759E+03  0.20087111108E+03  0.27630641894E+03  0.12509041089E+03 0.  0.
          5    1    3    3  502    0 -0.81497542767E+02 -0.48561325878E+02  0.13822761332E+03  0.16770330149E+03  0.41800000000E+01 0. -1.
         -5    1    3    3    0  502  0.28544296721E+02 -0.83893861710E+02  0.62643497761E+02  0.10860311745E+03  0.41800000000E+01 0. -1.
        -11    1    1    2    0    0  0.66417731397E+02  0.72898232589E+02 -0.21832305976E+02  0.10100552927E+03  0.00000000000E+00 0.  1.
         11    1    1    2    0    0 -0.13464485352E+02  0.59556954999E+02  0.42147980244E+02  0.74194174254E+02  0.00000000000E+00 0. -1.
</event>
<event>
 7    1  0.2499014E-009  0.8276171E+02  0.7561462E-02  0.1321392E+00
         -3   -1    0    0    0  501 -0.00000000000E+00  0.00000000000E+00  0.38889628925E+02  0.38889628925E+02  0.00000000000E+00 0.  1.
          3   -1    0    0  501    0  0.00000000000E+00 -0.00000000000E+00 -0.30863062476E+03  0.30863062476E+03  0.00000000000E+00 0. -1.
         25    2    1    2    0    0 -0.89302616020E+00  0.80082894213E+01 -0.16446420638E+03  0.20678644840E+03  0.12508888785E+03 0.  0.
          5    1    3    3  502    0 -0.50837882263E+02 -0.16825221831E+02 -0.30861529074E+02  0.61947435293E+02  0.41800000000E+01 0. -1.
         -5    1    3    3    0  502  0.49944856103E+02  0.24833511252E+02 -0.13360267731E+03  0.14483901310E+03  0.41800000000E+01 0. -1.
        -11    1    1    2    0    0 -0.20179385121E+01 -0.31821695936E+02 -0.11148312962E+03  0.11595335527E+03  0.00000000000E+00 0. -1.
         11    1    1    2    0    0  0.29109646723E+01  0.23813406515E+02  0.62063401661E+01  0.24780450024E+02  0.00000000000E+00 0.  1.
</event>
<event>
 7    1  0.2499014E-009  0.1381004E+03  0.7561462E-02  0.1215908E+00
         -2   -1    0    0    0  501 -0.00000000000E+00  0.00000000000E+00  0.28460774666E+03  0.28460774666E+03  0.00000000000E+00 0.  1.
          2   -1    0    0  501    0  0.00000000000E+00 -0.00000000000E+00 -0.79691708868E+02  0.79691708868E+02  0.00000000000E+00 0. -1.
         25    2    1    2    0    0 -0.18429262598E+02 -0.10217928868E+03  0.10576422401E+03  0.19394247311E+03  0.12508943616E+03 0.  0.
          5    1    3    3  502    0  0.44445080310E+02 -0.15105030384E+02  0.63875808533E+01  0.47558392486E+02  0.41800000000E+01 0. -1.
         -5    1    3    3    0  502 -0.62874342907E+02 -0.87074258300E+02  0.99376643159E+02  0.14638408062E+03  0.41800000000E+01 0. -1.
        -11    1    1    2    0    0 -0.20833275901E+02  0.62026520044E+02  0.93212155136E+02  0.11388511948E+03  0.00000000000E+00 0.  1.
         11    1    1    2    0    0  0.39262538499E+02  0.40152768640E+02  0.59396586406E+01  0.56471862937E+02  0.00000000000E+00 0. -1.
</event>
<event>
 7    1  0.2982778E-009  0.1873945E+03  0.7561462E-02  0.1160833E+00
         -2   -1    0    0    0  501 -0.00000000000E+00  0.00000000000E+00  0.49607140478E+02  0.49607140478E+02  0.00000000000E+00 0.  1.
          2   -1    0    0  501    0  0.00000000000E+00 -0.00000000000E+00 -0.85499488915E+03  0.85499488915E+03  0.00000000000E+00 0. -1.
         25    2    1    2    0    0 -0.16650008052E+03  0.39946256602E+02 -0.34140947960E+03  0.40190304130E+03  0.12509053367E+03 0.  0.
          5    1    3    3  502    0 -0.41903957780E+02 -0.17625657269E+02 -0.15441908176E+02  0.48192638441E+02  0.41800000000E+01 0.  1.
         -5    1    3    3    0  502 -0.12459612274E+03  0.57571913871E+02 -0.32596757143E+03  0.35371040286E+03  0.41800000000E+01 0.  1.
        -11    1    1    2    0    0  0.83997367070E+02  0.24087281581E+02 -0.24434491742E+03  0.25949989110E+03  0.00000000000E+00 0. -1.
         11    1    1    2    0    0  0.82502713451E+02 -0.64033538183E+02 -0.21963335165E+03  0.24319909723E+03  0.00000000000E+00 0.  1.
</event>
<event>
 7    1  0.2499014E-009  0.9950131E+02  0.7561462E-02  0.1281348E+00
          1   -1    0    0  501    0  0.00000000000E+00  0.00000000000E+00  0.16793871575E+03  0.16793871575E+03  0.00000000000E+00 0. -1.
         -1   -1    0    0    0  501 -0.00000000000E+00 -0.00000000000E+00 -0.20712993859E+03  0.20712993859E+03  0.00000000000E+00 0.  1.
         25    2    1    2    0    0 -0.86138222607E+02 -0.28782940423E+02 -0.14322367210E+03  0.21073481102E+03  0.12509152358E+03 0.  0.
          5    1    3    3  502    0 -0.20031117357E+02  0.17653582019E+02 -0.12490041456E+03  0.12779076875E+03  0.41800000000E+01 0. -1.
         -5    1    3    3    0  502 -0.66107105251E+02 -0.46436522442E+02 -0.18323257540E+02  0.82944042269E+02  0.41800000000E+01 0. -1.
        -11    1    1    2    0    0  0.27335487041E+02  0.57754349330E+01 -0.13411726578E+02  0.30991271517E+02  0.00000000000E+00 0.  1.
         11    1    1    2    0    0  0.58802735567E+02  0.23007505490E+02  0.11744417584E+03  0.13334257181E+03  0.00000000000E+00 0. -1.
</event>
<event>
 7    1  0.2499014E-009  0.1024998E+03  0.7561462E-02  0.1275125E+00
         -2   -1    0    0    0  501 -0.00000000000E+00  0.00000000000E+00  0.69193318230E+02  0.69193318230E+02  0.00000000000E+00 0. -1.
          2   -1    0    0  501    0  0.00000000000E+00 -0.00000000000E+00 -0.20825209482E+03  0.20825209482E+03  0.00000000000E+00 0.  1.
         25    2    1    2    0    0 -0.53908750635E+02  0.45411415469E+01 -0.63291271748E+02  0.15026517590E+03  0.12508821946E+03 0.  0.
          5    1    3    3  502    0  0.26442791931E+02 -0.28377233026E+02  0.55107088212E+01  0.39399605468E+02  0.41800000000E+01 0.  1.
         -5    1    3    3    0  502 -0.80351542566E+02  0.32918374572E+02 -0.68801980570E+02  0.11086557043E+03  0.41800000000E+01 0.  1.
        -11    1    1    2    0    0  0.34991139968E+01 -0.24564796927E+02  0.91262279451E+01  0.26437872141E+02  0.00000000000E+00 0. -1.
         11    1    1    2    0    0  0.50409636639E+02  0.20023655380E+02 -0.84893732783E+02  0.10074236500E+03  0.00000000000E+00 0.  1.
</event>
<event>
 7    1  0.2499014E-009  0.1089058E+03  0.7561462E-02  0.1262610E+00
          2   -1    0    0  501    0  0.00000000000E+00  0.00000000000E+00  0.47982543710E+03  0.47982543710E+03  0.00000000000E+00 0. -1.
         -2   -1    0    0    0  501 -0.00000000000E+00 -0.00000000000E+00 -0.41674815734E+02  0.41674815734E+02  0.00000000000E+00 0.  1.
         25    2    1    2    0    0 -0.11991668708E+02  0.73384997992E+02  0.33580798673E+03  0.36598332810E+03  0.12509050504E+03 0.  0.
          5    1    3    3  502    0 -0.43608005562E+02  0.69247334757E+02  0.10621459020E+03  0.13414866042E+03  0.41800000000E+01 0.  1.
         -5    1    3    3    0  502  0.31616336854E+02  0.41376632356E+01  0.22959339652E+03  0.23183466768E+03  0.41800000000E+01 0.  1.
        -11    1    1    2    0    0  0.32818055410E+02 -0.62331923769E+01  0.26275890053E+01  0.33507934464E+02  0.00000000000E+00 0.  1.
         11    1    1    2    0    0 -0.20826386702E+02 -0.67151805615E+02  0.99715045637E+02  0.12200899027E+03  0.00000000000E+00 0. -1.
</event>
<event>
 7    1  0.2499014E-009  0.1160676E+03  0.7561462E-02  0.1249729E+00
          1   -1    0    0  501    0  0.00000000000E+00  0.00000000000E+00  0.62837433278E+03  0.62837433278E+03  0.00000000000E+00 0. -1.
         -1   -1    0    0    0  501 -0.00000000000E+00 -0.00000000000E+00 -0.23989209170E+02  0.23989209170E+02  0.00000000000E+00 0.  1.
         25    2    1    2    0    0 -0.35533234637E+02  0.34855446099E+02  0.41506180335E+03  0.43634474791E+03  0.12507168161E+03 0.  0.
          5    1    3    3  502    0 -0.78262069498E+02  0.39768645409E+02  0.32131733338E+03  0.33311979499E+03  0.41800000000E+01 0. -1.
         -5    1    3    3    0  502  0.42728834862E+02 -0.49131993104E+01  0.93744469966E+02  0.10322495292E+03  0.41800000000E+01 0. -1.
        -11    1    1    2    0    0  0.53742382732E+02  0.81290945453E+01  0.75814791239E+02  0.93285628317E+02  0.00000000000E+00 0. -1.
         11    1    1    2    0    0 -0.18209148095E+02 -0.42984540644E+02  0.11350852902E+03  0.12273316573E+03  0.00000000000E+00 0.  1.
</event>
<event>
 7    1  0.2499014E-009  0.1342498E+03  0.7561462E-02  0.1221283E+00
          2   -1    0    0  501    0  0.00000000000E+00  0.00000000000E+00  0.51027942963E+03  0.51027942963E+03  0.00000000000E+00 0. -1.
         -2   -1    0    0    0  501 -0.00000000000E+00 -0.00000000000E+00 -0.51391798870E+02  0.51391798870E+02  0.00000000000E+00 0.  1.
         25    2    1    2    0    0  0.12295859479E+02  0.12106582986E+03  0.27425254394E+03  0.32506943633E+03  0.12509019650E+03 0.  0.
          5    1    3    3  502    0  0.45925799064E+02  0.70270166638E+02  0.24164613942E+03  0.25584644698E+03  0.41800000000E+01 0. -1.
         -5    1    3    3    0  502 -0.33629939585E+02  0.50795663223E+02  0.32606404521E+02  0.69222989350E+02  0.41800000000E+01 0. -1.
        -11    1    1    2    0    0  0.56975658483E+01 -0.24032766697E+02 -0.27163514911E+01  0.24847830833E+02  0.00000000000E+00 0.  1.
         11    1    1    2    0    0 -0.17993425327E+02 -0.97033063165E+02  0.18735143831E+03  0.21175396133E+03  0.00000000000E+00 0. -1.
</event>
<event>
 7    1  0.2499014E-009  0.1006841E+03  0.7561462E-02  0.1278864E+00
          1   -1    0    0  501    0  0.00000000000E+00  0.00000000000E+00  0.30341597379E+03  0.30341597379E+03  0.00000000000E+00 0. -1.
         -1   -1    0    0    0  501 -0.00000000000E+00 -0.00000000000E+00 -0.44470075492E+02  0.44470075492E+02  0.00000000000E+00 0.  1.
         25    2    1    2    0    0  0.21631183631E+02  0.32942438780E+02  0.11657081026E+03  0.17546866869E+03  0.12508951798E+03 0.  0.
          5    1    3    3  502    0  0.25320607323E+02 -0.32263813422E+02 -0.63381511852E+00  0.41230582500E+02  0.41800000000E+01 0.  1.
         -5    1    3    3    0  502 -0.36894236919E+01  0.65206252201E+02  0.11720462538E+03  0.13423808619E+03  0.41800000000E+01 0.  1.
        -11    1    1    2    0    0 -0.21569557989E+02 -0.61997812818E+02  0.11543733942E+03  0.13279591092E+03  0.00000000000E+00 0. -1.
         11    1    1    2    0    0 -0.61625641557E-01  0.29055374038E+02  0.26937748627E+02  0.39621469676E+02  0.00000000000E+00 0.  1.
</event>
<event>
 7    1  0.2499014E-009  0.1172161E+03  0.7561462E-02  0.1247761E+00
          3   -1    0    0  501    0  0.00000000000E+00  0.00000000000E+00  0.67602720846E+02  0.67602720846E+02  0.00000000000E+00 0. -1.
         -3   -1    0    0    0  501 -0.00000000000E+00 -0.00000000000E+00 -0.23472762444E+03  0.23472762444E+03  0.00000000000E+00 0.  1.
         25    2    1    2    0    0  0.20409501209E+02 -0.42140934795E+02 -0.13937699632E+03  0.19304345412E+03  0.12508965565E+03 0.  0.
          5    1    3    3  502    0 -0.65883763546E+01 -0.82926205783E+02 -0.99769968057E+02  0.12996800081E+03  0.41800000000E+01 0.  1.
         -5    1    3    3    0  502  0.26997877564E+02  0.40785270988E+02 -0.39607028260E+02  0.63075453309E+02  0.41800000000E+01 0.  1.
        -11    1    1    2    0    0 -0.56288324221E+01 -0.28922857493E+02 -0.21416981017E+02  0.36426673138E+02  0.00000000000E+00 0.  1.
         11    1    1    2    0    0 -0.14780668787E+02  0.71063792288E+02 -0.63309262614E+01  0.72860218031E+02  0.00000000000E+00 0. -1.
</event>
<event>
 7    1  0.2499014E-009  0.1300813E+03  0.7561462E-02  0.1227335E+00
          3   -1    0    0  501    0  0.00000000000E+00  0.00000000000E+00  0.16505312889E+02  0.16505312889E+02  0.00000000000E+00 0. -1.
         -3   -1    0    0    0  501 -0.00000000000E+00 -0.00000000000E+00 -0.13239498660E+04  0.13239498660E+04  0.00000000000E+00 0.  1.
         25    2    1    2    0    0  0.81138212128E+01  0.84574425706E+02 -0.95259293357E+03  0.96451949320E+03  0.12508352450E+03 0.  0.
          5    1    3    3  502    0  0.50956167391E+02  0.77266169918E+02 -0.41792047677E+03  0.42806727195E+03  0.41800000000E+01 0.  1.
         -5    1    3    3    0  502 -0.42842346178E+02  0.73082557882E+01 -0.53467245680E+03  0.53645222126E+03  0.41800000000E+01 0.  1.
        -11    1    1    2    0    0 -0.32562478122E+02  0.32145557629E+01 -0.10522431516E+03  0.11019439574E+03  0.00000000000E+00 0.  1.
         11    1    1    2    0    0  0.24448656909E+02 -0.87788981469E+02 -0.24962730434E+03  0.26574128992E+03  0.00000000000E+00 0. -1.
</event>
<event>
 7    1  0.2499014E-009  0.8132641E+02  0.7561462E-02  0.1325329E+00
         -2   -1    0    0    0  501 -0.00000000000E+00  0.00000000000E+00  0.54989610381E+03  0.54989610381E+03  0.00000000000E+00 0.  1.
          2   -1    0    0  501    0  0.00000000000E+00 -0.00000000000E+00 -0.38681306046E+02  0.38681306046E+02  0.00000000000E+00 0. -1.
         25    2    1    2    0    0  0.52068690324E+01  0.36049535054E+02  0.95892118656E+02  0.16177122950E+03  0.12509177355E+03 0.  0.
          5    1    3    3  502    0  0.32469763005E+02  0.19758516553E+02  0.11721210553E+03  0.12329166464E+03  0.41800000000E+01 0.  1.
         -5    1    3    3    0  502 -0.27262893972E+02  0.16291018501E+02 -0.21319986875E+02  0.38479564861E+02  0.41800000000E+01 0.  1.
        -11    1    1    2    0    0  0.39847788990E+02 -0.14142901518E+02  0.11923936609E+03  0.12651440383E+03  0.00000000000E+00 0.  1.
         11    1    1    2    0    0 -0.45054658023E+02 -0.21906633536E+02  0.29608331302E+03  0.30029177653E+03  0.00000000000E+00 0. -1.
</event>
<event>
 7    1  0.2499014E-009  0.1698856E+03  0.7561462E-02  0.1177967E+00
         -2   -1    0    0    0  501 -0.00000000000E+00  0.00000000000E+00  0.12897963154E+03  0.12897963154E+03  0.00000000000E+00 0. -1.
          2   -1    0    0  501    0  0.00000000000E+00 -0.00000000000E+00 -0.28305773566E+03  0.28305773566E+03  0.00000000000E+00 0.  1.
         25    2    1    2    0    0  0.70046342894E+02  0.12970529469E+03 -0.13621202224E+03  0.23649800314E+03  0.12509051469E+03 0.  0.
          5    1    3    3  502    0  0.10116999281E+03  0.12458329842E+03 -0.12206208791E+03  0.20167546057E+03  0.41800000000E+01 0.  1.
         -5    1    3    3    0  502 -0.31123649915E+02  0.51219962696E+01 -0.14149934328E+02  0.34822542574E+02  0.41800000000E+01 0.  1.
        -11    1    1    2    0    0 -0.50436280925E+02 -0.93528500015E+02 -0.55406359867E+02  0.11983848907E+03  0.00000000000E+00 0.  1.
         11    1    1    2    0    0 -0.19610061970E+02 -0.36176794670E+02  0.37540277994E+02  0.55700874992E+02  0.00000000000E+00 0. -1.
</event>
<event>
 7    1  0.2499014E-009  0.2104476E+03  0.7561462E-02  0.1141212E+00
          2   -1    0    0  501    0  0.00000000000E+00  0.00000000000E+00  0.56855336224E+03  0.56855336224E+03  0.00000000000E+00 0. -1.
         -2   -1    0    0    0  501 -0.00000000000E+00 -0.00000000000E+00 -0.88967258503E+02  0.88967258503E+02  0.00000000000E+00 0.  1.
         25    2    1    2    0    0  0.19613443410E+03 -0.15872845407E+02  0.25110329191E+03  0.34266686092E+03  0.12508817253E+03 0.  0.
          5    1    3    3  502    0  0.29530146054E+02  0.18994767358E+02 -0.43966903840E+01  0.35631923879E+02  0.41800000000E+01 0.  1.
         -5    1    3    3    0  502  0.16660428805E+03 -0.34867612764E+02  0.25549998229E+03  0.30703493705E+03  0.41800000000E+01 0.  1.
        -11    1    1    2    0    0 -0.16967684180E+03  0.45378166456E+02  0.17181115452E+03  0.24569998260E+03  0.00000000000E+00 0. -1.
         11    1    1    2    0    0 -0.26457592305E+02 -0.29505321050E+02  0.56671657308E+02  0.69153777214E+02  0.00000000000E+00 0.  1.
</event>
<event>
 7    1  0.2499014E-009  0.9911352E+02  0.7561462E-02  0.1282171E+00
         -2   -1    0    0    0  501 -0.00000000000E+00  0.00000000000E+00  0.57888525991E+02  0.57888525991E+02  0.00000000000E+00 0.  1.
          2   -1    0    0  501    0  0.00000000000E+00 -0.00000000000E+00 -0.20787836549E+03  0.20787836549E+03  0.00000000000E+00 0. -1.
         25    2    1    2    0    0 -0.89757662439E+01  0.73921564006E+01 -0.85393162416E+02  0.15189978352E+03  0.12508534563E+03 0.  0.
          5    1    3    3  502    0 -0.49700644769E+02 -0.28265630224E+02 -0.87745830776E+01  0.57996255488E+02  0.41800000000E+01 0.  1.
         -5    1    3    3    0  502  0.40724878525E+02  0.35657786625E+02 -0.76618579339E+02  0.93903528037E+02  0.41800000000E+01 0.  1.
        -11    1    1    2    0    0  0.37957526690E+02  0.23184941733E+02 -0.54863112934E+02  0.70627731922E+02  0.00000000000E+00 0. -1.
         11    1    1    2    0    0 -0.28981760446E+02 -0.30577098134E+02 -0.97335641493E+01  0.43239376035E+02  0.00000000000E+00 0.  1.
</event>
<event>
 7    1  0.2499014E-009  0.2379929E+03  0.7561462E-02  0.1121137E+00
         -1   -1    0    0    0  501 -0.00000000000E+00  0.00000000000E+00  0.15834320022E+03  0.15834320022E+03  0.00000000000E+00 0.  1.
          1   -1    0    0  501    0  0.00000000000E+00 -0.00000000000E+00 -0.41791541279E+03  0.41791541279E+03  0.00000000000E+00 0. -1.
         25    2    1    2    0    0  0.13578666469E+03  0.17288495612E+03 -0.22069406340E+03  0.33567909144E+03  0.12508939385E+03 0.  0.
          5    1    3    3  502    0  0.11530118995E+03  0.47409987031E+02 -0.94446669753E+02  0.15645995367E+03  0.41800000000E+01 0.  1.
         -5    1    3    3    0  502  0.20485474743E+02  0.12547496909E+03 -0.12624739364E+03  0.17921913778E+03  0.41800000000E+01 0.  1.
        -11    1    1    2    0    0 -0.10024999397E+03 -0.93578538016E+02  0.15581809655E+02  0.13802100152E+03  0.00000000000E+00 0.  1.
         11    1    1    2    0    0 -0.35536670728E+02 -0.79306418103E+02 -0.54459958832E+02  0.10255852005E+03  0.00000000000E+00 0. -1.
</event>
<event>
 7    1  0.2499014E-009  0.1171907E+03  0.7561462E-02  0.1247805E+00
          1   -1    0    0  501    0  0.00000000000E+00  0.00000000000E+00  0.19607112155E+03  0.19607112155E+03  0.00000000000E+00 0. -1.
         -1   -1    0    0    0  501 -0.00000000000E+00 -0.00000000000E+00 -0.10301244624E+03  0.10301244624E+03  0.00000000000E+00 0.  1.
         25    2    1    2    0    0 -0.45979060142E+02  0.41876527010E+02  0.12245923229E+03  0.18577242627E+03  0.12508962108E+03 0.  0.
          5    1    3    3  502    0 -0.81372535800E+02  0.23046024113E+02  0.11797181541E+03  0.14521511782E+03  0.41800000000E+01 0.  1.
         -5    1    3    3    0  502  0.35393475658E+02  0.18830502897E+02  0.44874168740E+01  0.40557308450E+02  0.41800000000E+01 0.  1.
        -11    1    1    2    0    0  0.48345431425E+02 -0.67852032427E+02 -0.23583144336E+02  0.86587203101E+02  0.00000000000E+00 0.  1.
         11    1    1    2    0    0 -0.23663712827E+01  0.25975505417E+02 -0.58174126475E+01  0.26723938419E+02  0.00000000000E+00 0. -1.
</event>
<event>
 7    1  0.2499014E-009  0.1164438E+03  0.7561462E-02  0.1249082E+00
         -3   -1    0    0    0  501 -0.00000000000E+00  0.00000000000E+00  0.32836557351E+03  0.32836557351E+03  0.00000000000E+00 0.  1.
          3   -1    0    0  501    0  0.00000000000E+00 -0.00000000000E+00 -0.94634495435E+02  0.94634495435E+02  0.00000000000E+00 0. -1.
         25    2    1    2    0    0 -0.21795152529E+02 -0.96775340029E+02  0.10564017574E+02  0.16000176011E+03  0.12509384341E+03 0.  0.
          5    1    3    3  502    0 -0.50182967161E+01  0.78635029352E+01 -0.40870970125E+02  0.42129877513E+02  0.41800000000E+01 0.  1.
         -5    1    3    3    0  502 -0.16776855812E+02 -0.10463884296E+03  0.51434987699E+02  0.11787188260E+03  0.41800000000E+01 0.  1.
        -11    1    1    2    0    0 -0.17525541998E+02  0.60931235885E+02  0.19000399998E+03  0.20030297087E+03  0.00000000000E+00 0. -1.
         11    1    1    2    0    0  0.39320694526E+02  0.35844104144E+02  0.33163060524E+02  0.62695337970E+02  0.00000000000E+00 0.  1.
</event>
<event>
 7    1  0.2499014E-009  0.1046803E+03  0.7561462E-02  0.1270751E+00
         -1   -1    0    0    0  501 -0.00000000000E+00  0.00000000000E+00  0.20826084081E+03  0.20826084081E+03  0.00000000000E+00 0.  1.
          1   -1    0    0  501    0  0.00000000000E+00 -0.00000000000E+00 -0.72265071916E+02  0.72265071916E+02  0.00000000000E+00 0. -1.
         25    2    1    2    0    0  0.26662755890E+02 -0.37749018295E+02  0.39075088224E+02  0.13896682286E+03  0.12509606070E+03 0.  0.
          5    1    3    3  502    0 -0.32594935495E+02  0.85415363735E+01 -0.23299786704E+02  0.41179365269E+02  0.41800000000E+01 0. -1.
         -5    1    3    3    0  502  0.59257691385E+02 -0.46290554669E+02  0.62374874928E+02  0.97787457591E+02  0.41800000000E+01 0. -1.
        -11    1    1    2    0    0 -0.55996169044E+02  0.51353894811E+01  0.37052365008E+02  0.67341079033E+02  0.00000000000E+00 0. -1.
         11    1    1    2    0    0  0.29333413154E+02  0.32613628814E+02  0.59868315661E+02  0.74218010831E+02  0.00000000000E+00 0.  1.
</event>
<event>
 7    1  0.2499014E-009  0.1199437E+03  0.7561462E-02  0.1243190E+00
          2   -1    0    0  501    0  0.00000000000E+00  0.00000000000E+00  0.55061805254E+03  0.55061805254E+03  0.00000000000E+00 0.  1.
         -2   -1    0    0    0  501 -0.00000000000E+00 -0.00000000000E+00 -0.32286913452E+02  0.32286913452E+02  0.00000000000E+00 0. -1.
         25    2    1    2    0    0 -0.16671139723E+02  0.64008504189E+02  0.37422398908E+03  0.40008173155E+03  0.12508709927E+03 0.  0.
          5    1    3    3  502    0 -0.71068734596E+02  0.38056410347E+02  0.22796351076E+03  0.24183442692E+03  0.41800000000E+01 0.  1.
         -5    1    3    3    0  502  0.54397594873E+02  0.25952093842E+02  0.14626047832E+03  0.15824730462E+03  0.41800000000E+01 0.  1.
        -11    1    1    2    0    0  0.45198728484E+02 -0.48419802119E+02  0.49223177547E+02  0.82524684196E+02  0.00000000000E+00 0.  1.
         11    1    1    2    0    0 -0.28527588761E+02 -0.15588702070E+02  0.94883972463E+02  0.10029855025E+03  0.00000000000E+00 0. -1.
</event>
<event>
 7    1  0.2499014E-009  0.1059684E+03  0.7561462E-02  0.1268223E+00
          1   -1    0    0  501    0  0.00000000000E+00  0.00000000000E+00  0.99709831251E+02  0.99709831251E+02  0.00000000000E+00 0. -1.
         -1   -1    0    0    0  501 -0.00000000000E+00 -0.00000000000E+00 -0.12765845872E+03  0.12765845872E+03  0.00000000000E+00 0.  1.
         25    2    1    2    0    0 -0.82401158845E+01  0.16435093338E+02  0.56084610254E+01  0.12654540652E+03  0.12507706934E+03 0.  0.
          5    1    3    3  502    0 -0.44876277150E+02 -0.34871731148E+02  0.22301912993E+02  0.61194490007E+02  0.41800000000E+01 0. -1.
         -5    1    3    3    0  502  0.36636161266E+02  0.51306824486E+02 -0.16693451967E+02  0.65350916518E+02  0.41800000000E+01 0. -1.
        -11    1    1    2    0    0  0.22498242072E+02  0.33211611712E+02 -0.17314485154E+01  0.40151960884E+02  0.00000000000E+00 0. -1.
         11    1    1    2    0    0 -0.14258126188E+02 -0.49646705050E+02 -0.31825639983E+02  0.60670922566E+02  0.00000000000E+00 0.  1.
</event>
<event>
 7    1  0.2499014E-009  0.1148379E+03  0.7561462E-02  0.1251864E+00
         -1   -1    0    0    0  501 -0.00000000000E+00  0.00000000000E+00  0.25713558262E+02  0.25713558262E+02  0.00000000000E+00 0.  1.
          1   -1    0    0  501    0  0.00000000000E+00 -0.00000000000E+00 -0.54465589571E+03  0.54465589571E+03  0.00000000000E+00 0. -1.
         25    2    1    2    0    0  0.10908661629E+02  0.50879419343E+02 -0.26101590205E+03  0.29408240067E+03  0.12508973998E+03 0.  0.
          5    1    3    3  502    0  0.39235055148E+02 -0.29517478857E+02 -0.11194368459E+03  0.12230916576E+03  0.41800000000E+01 0. -1.
         -5    1    3    3    0  502 -0.28326393519E+02  0.80396898200E+02 -0.14907221747E+03  0.17177323491E+03  0.41800000000E+01 0. -1.
        -11    1    1    2    0    0 -0.43665392753E+02 -0.43173056629E+02 -0.20087352946E+03  0.21004940891E+03  0.00000000000E+00 0. -1.
         11    1    1    2    0    0  0.32756731123E+02 -0.77063627133E+01 -0.57052905934E+02  0.66237644400E+02  0.00000000000E+00 0.  1.
</event>
<event>
 7    1  0.2499014E-009  0.9579702E+02  0.7561462E-02  0.1289391E+00
         -4   -1    0    0    0  501 -0.00000000000E+00  0.00000000000E+00  0.86472578503E+02  0.86472578503E+02  0.00000000000E+00 0.  1.
          4   -1    0    0  501    0  0.00000000000E+00 -0.00000000000E+00 -0.16034985568E+03  0.16034985568E+03  0.00000000000E+00 0. -1.
         25    2    1    2    0    0 -0.34525983950E+02  0.35831718825E+02 -0.39795837677E+02  0.14038177639E+03  0.12508948319E+03 0.  0.
          5    1    3    3  502    0  0.35855882878E+02  0.33095446455E+02 -0.48936768433E+02  0.69233175701E+02  0.41800000000E+01 0. -1.
         -5    1    3    3    0  502 -0.70381866828E+02  0.27362723705E+01  0.91409307555E+01  0.71148600688E+02  0.41800000000E+01 0. -1.
        -11    1    1    2    0    0  0.15107406191E+02 -0.47200707899E+02 -0.56170749053E+02  0.74908568249E+02  0.00000000000E+00 0. -1.
         11    1    1    2    0    0  0.19418577759E+02  0.11368989073E+02  0.22089309551E+02  0.31532089547E+02  0.00000000000E+00 0.  1.
</event>
<event>
 7    1  0.2499014E-009  0.2570952E+03  0.7561462E-02  0.1108901E+00
         -2   -1    0    0    0  501 -0.00000000000E+00  0.00000000000E+00  0.13997005367E+03  0.13997005367E+03  0.00000000000E+00 0.  1.
          2   -1    0    0  501    0  0.00000000000E+00 -0.00000000000E+00 -0.82626558492E+03  0.82626558492E+03  0.00000000000E+00 0. -1.
         25    2    1    2    0    0 -0.55572850787E+02 -0.24020512740E+03 -0.56467150512E+02  0.28217791574E+03  0.12509593147E+03 0.  0.
          5    1    3    3  502    0 -0.38388113291E+02 -0.24467967651E+03 -0.29273348556E+02  0.24943173951E+03  0.41800000000E+01 0.  1.
         -5    1    3    3    0  502 -0.17184737496E+02  0.44745491147E+01 -0.27193801956E+02  0.32746176226E+02  0.41800000000E+01 0.  1.
        -11    1    1    2    0    0  0.53527588533E+02  0.17502851623E+03 -0.55700440195E+03  0.58630545625E+03  0.00000000000E+00 0.  1.
         11    1    1    2    0    0  0.20452622545E+01  0.65176611167E+02 -0.72823978780E+02  0.97752266604E+02  0.00000000000E+00 0. -1.
</event>
<event>
 7    1  0.2499014E-009  0.1435998E+03  0.7561462E-02  0.1208566E+00
          1   -1    0    0  501    0  0.00000000000E+00  0.00000000000E+00  0.33394777493E+03  0.33394777493E+03  0.00000000000E+00 0. -1.
         -1   -1    0    0    0  501 -0.00000000000E+00 -0.00000000000E+00 -0.75490722782E+02  0.75490722782E+02  0.00000000000E+00 0.  1.
         25    2    1    2    0    0 -0.57208121839E+00 -0.11230734863E+03  0.17538669150E+03  0.24294275747E+03  0.12508966391E+03 0.  0.
          5    1    3    3  502    0 -0.61396926944E+02 -0.42273536401E+02  0.68083361226E+02  0.10104182794E+03  0.41800000000E+01 0.  1.
         -5    1    3    3    0  502  0.60824845726E+02 -0.70033812232E+02  0.10730333027E+03  0.14190092953E+03  0.41800000000E+01 0.  1.
        -11    1    1    2    0    0  0.20970493126E+02  0.56111652870E+02  0.88061895779E+02  0.10650435042E+03  0.00000000000E+00 0. -1.
         11    1    1    2    0    0 -0.20398411907E+02  0.56195695763E+02 -0.49915351244E+01  0.59991389829E+02  0.00000000000E+00 0.  1.
</event>
<event>
 7    1  0.2499014E-009  0.1092106E+03  0.7561462E-02  0.1262039E+00
          2   -1    0    0  501    0  0.00000000000E+00  0.00000000000E+00  0.26976731553E+03  0.26976731553E+03  0.00000000000E+00 0. -1.
         -2   -1    0    0    0  501 -0.00000000000E+00 -0.00000000000E+00 -0.85082647739E+02  0.85082647739E+02  0.00000000000E+00 0.  1.
         25    2    1    2    0    0 -0.69323262081E+01 -0.79484310770E+02  0.18247261582E+03  0.23518217936E+03  0.12509432106E+03 0.  0.
          5    1    3    3  502    0  0.40983500928E+02 -0.41036668110E+02  0.15897420184E+03  0.16927470198E+03  0.41800000000E+01 0.  1.
         -5    1    3    3    0  502 -0.47915827136E+02 -0.38447642660E+02  0.23498413972E+02  0.65907477386E+02  0.41800000000E+01 0.  1.
        -11    1    1    2    0    0  0.29130036322E+02  0.67395534406E+02 -0.29490207484E+02  0.79122622628E+02  0.00000000000E+00 0.  1.
         11    1    1    2    0    0 -0.22197710114E+02  0.12088776363E+02  0.31702259458E+02  0.40545161277E+02  0.00000000000E+00 0. -1.
</event>
<event>
 7    1  0.2499014E-009  0.8987895E+02  0.7561462E-02  0.1303145E+00
         -1   -1    0    0    0  501 -0.00000000000E+00  0.00000000000E+00  0.34217008110E+02  0.34217008110E+02  0.00000000000E+00 0.  1.
          1   -1    0    0  501    0  0.00000000000E+00 -0.00000000000E+00 -0.53866826543E+03  0.53866826543E+03  0.00000000000E+00 0. -1.
         25    2    1    2    0    0  0.14382662681E+02  0.18849565440E+02 -0.11136100061E+03  0.16914932375E+03  0.12509218267E+03 0.  0.
          5    1    3    3  502    0 -0.90687001160E+01  0.49250906958E+02  0.10752774832E+01  0.50264518099E+02  0.41800000000E+01 0. -1.
         -5    1    3    3    0  502  0.23451362797E+02 -0.30401341518E+02 -0.11243627810E+03  0.11888480565E+03  0.41800000000E+01 0. -1.
        -11    1    1    2    0    0 -0.33578452696E+00  0.35116633146E+02 -0.12116379097E+03  0.12615052484E+03  0.00000000000E+00 0. -1.
         11    1    1    2    0    0 -0.14046878154E+02 -0.53966198587E+02 -0.27192646574E+03  0.27758542495E+03  0.00000000000E+00 0.  1.
</event>
<event>
 7    1  0.2499014E-009  0.2167809E+03  0.7561462E-02  0.1136306E+00
         -1   -1    0    0    0  501 -0.00000000000E+00  0.00000000000E+00  0.77330662850E+02  0.77330662850E+02  0.00000000000E+00 0.  1.
          1   -1    0    0  501    0  0.00000000000E+00 -0.00000000000E+00 -0.82998301200E+03  0.82998301200E+03  0.00000000000E+00 0. -1.
         25    2    1    2    0    0  0.97101862865E+02 -0.18827565711E+03 -0.23290108195E+03  0.33877455519E+03  0.12509512555E+03 0.  0.
          5    1    3    3  502    0  0.39902063320E+02 -0.55034372372E+02 -0.45677120686E+01  0.68259015471E+02  0.41800000000E+01 0.  1.
         -5    1    3    3    0  502  0.57199799546E+02 -0.13324128474E+03 -0.22833336988E+03  0.27051553972E+03  0.41800000000E+01 0.  1.
        -11    1    1    2    0    0 -0.51016008176E+02  0.39138154677E+02 -0.23693861871E+03  0.24550832426E+03  0.00000000000E+00 0. -1.
         11    1    1    2    0    0 -0.46085854689E+02  0.14913750244E+03 -0.28281264849E+03  0.32303079541E+03  0.00000000000E+00 0.  1.
</event>
<event>
 7    1  0.2499014E-009  0.1649960E+03  0.7561462E-02  0.1183169E+00
         -1   -1    0    0    0  501 -0.00000000000E+00  0.00000000000E+00  0.84101581963E+02  0.84101581963E+02  0.00000000000E+00 0.  1.
          1   -1    0    0  501    0  0.00000000000E+00 -0.00000000000E+00 -0.37046296664E+03  0.37046296664E+03  0.00000000000E+00 0. -1.
         25    2    1    2    0    0 -0.10324278798E+03  0.71607012640E+02 -0.75541057733E+02  0.19271893417E+03  0.12508996224E+03 0.  0.
          5    1    3    3  502    0  0.12754732854E+02  0.56177896903E+02 -0.10279739867E+02  0.58666726195E+02  0.41800000000E+01 0.  1.
         -5    1    3    3    0  502 -0.11599752084E+03  0.15429115736E+02 -0.65261317866E+02  0.13405220797E+03  0.41800000000E+01 0.  1.
        -11    1    1    2    0    0  0.47614892895E+02  0.16965249272E+02 -0.63188539370E+02  0.80918410859E+02  0.00000000000E+00 0.  1.
         11    1    1    2    0    0  0.55627895087E+02 -0.88572261912E+02 -0.14763178757E+03  0.18092720358E+03  0.00000000000E+00 0. -1.
</event>
<event>
 7    1  0.3550108E-009  0.1160316E+03  0.7561462E-02  0.1249791E+00
         -1   -1    0    0    0  501 -0.00000000000E+00  0.00000000000E+00  0.41521538702E+02  0.41521538702E+02  0.00000000000E+00 0.  1.
          1   -1    0    0  501    0  0.00000000000E+00 -0.00000000000E+00 -0.48176347165E+03  0.48176347165E+03  0.00000000000E+00 0. -1.
         25    2    1    2    0    0 -0.34446816265E+02 -0.57139481022E+02 -0.12676851943E+03  0.19018092871E+03  0.12508806771E+03 0.  0.
          5    1    3    3  502    0 -0.78072081357E+02 -0.12646874157E+02 -0.74706621796E+02  0.10887490553E+03  0.41800000000E+01 0.  1.
         -5    1    3    3    0  502  0.43625265092E+02 -0.44492606865E+02 -0.52061897637E+02  0.81306023181E+02  0.41800000000E+01 0.  1.
        -11    1    1    2    0    0  0.30560845966E+02 -0.24837281139E+01 -0.28257061750E+02  0.41696471676E+02  0.00000000000E+00 0.  1.
         11    1    1    2    0    0  0.38859702995E+01  0.59623209136E+02 -0.28521635177E+03  0.29140760997E+03  0.00000000000E+00 0. -1.
</event>
<event>
 7    1  0.2499014E-009  0.7578649E+02  0.7561462E-02  0.1341453E+00
         -2   -1    0    0    0  501 -0.00000000000E+00  0.00000000000E+00  0.60816698594E+03  0.60816698594E+03  0.00000000000E+00 0.  1.
          2   -1    0    0  501    0  0.00000000000E+00 -0.00000000000E+00 -0.24708962617E+02  0.24708962617E+02  0.00000000000E+00 0. -1.
         25    2    1    2    0    0  0.28559136913E+02 -0.30796435804E+02  0.23310857902E+03  0.26786314387E+03  0.12508800691E+03 0.  0.
          5    1    3    3  502    0  0.59517723103E+01 -0.28343879115E+02 -0.40845309275E+01  0.29545809683E+02  0.41800000000E+01 0.  1.
         -5    1    3    3    0  502  0.22607364603E+02 -0.24525566888E+01  0.23719310995E+03  0.23831733419E+03  0.41800000000E+01 0.  1.
        -11    1    1    2    0    0 -0.12124017943E+02 -0.32030795762E+02  0.16770966576E+03  0.17117095454E+03  0.00000000000E+00 0.  1.
         11    1    1    2    0    0 -0.16435118970E+02  0.62827231567E+02  0.18263977854E+03  0.19384185014E+03  0.00000000000E+00 0. -1.
</event>
<event>
 7    1  0.2499014E-009  0.1333141E+03  0.7561462E-02  0.1222619E+00
         -2   -1    0    0    0  501 -0.00000000000E+00  0.00000000000E+00  0.32641097141E+02  0.32641097141E+02  0.00000000000E+00 0.  1.
          2   -1    0    0  501    0  0.00000000000E+00 -0.00000000000E+00 -0.75205673031E+03  0.75205673031E+03  0.00000000000E+00 0. -1.
         25    2    1    2    0    0 -0.70961259081E+02  0.53962687666E+02 -0.20099320443E+03  0.25296926749E+03  0.12509080748E+03 0.  0.
          5    1    3    3  502    0 -0.84219045229E+02 -0.99884885804E+01 -0.87289945362E+02  0.12177694546E+03  0.41800000000E+01 0. -1.
         -5    1    3    3    0  502  0.13257786148E+02  0.63951176246E+02 -0.11370325907E+03  0.13119232203E+03  0.41800000000E+01 0. -1.
        -11    1    1    2    0    0  0.23380515303E+02 -0.63567468730E+02 -0.34791041199E+03  0.35444199293E+03  0.00000000000E+00 0. -1.
         11    1    1    2    0    0  0.47580743778E+02  0.96047810643E+01 -0.17051201674E+03  0.17728656704E+03  0.00000000000E+00 0.  1.
</event>
<event>
 7    1  0.2499014E-009  0.9300286E+02  0.7561462E-02  0.1295739E+00
         -1   -1    0    0    0  501 -0.00000000000E+00  0.00000000000E+00  0.46067294170E+03  0.46067294170E+03  0.00000000000E+00 0.  1.
          1   -1    0    0  501    0  0.00000000000E+00 -0.00000000000E+00 -0.30047376605E+02  0.30047376605E+02  0.00000000000E+00 0. -1.
         25    2    1    2    0    0 -0.88749628841E+01  0.53177328810E+01  0.15087763244E+03  0.19626207358E+03  0.12509076028E+03 0.  0.
          5    1    3    3  502    0 -0.20528642167E+02 -0.41675030514E+02  0.13845805154E+03  0.14610385948E+03  0.41800000000E+01 0.  1.
         -5    1    3    3    0  502  0.11653679283E+02  0.46992763395E+02  0.12419580895E+02  0.50158214102E+02  0.41800000000E+01 0.  1.
        -11    1    1    2    0    0 -0.34822781117E+02 -0.24971413962E+02  0.10916907205E+03  0.11727780648E+03  0.00000000000E+00 0. -1.
         11    1    1    2    0    0  0.43697744001E+02  0.19653681081E+02  0.17057886061E+03  0.17718043825E+03  0.00000000000E+00 0.  1.
</event>
<event>
 7    1  0.2499014E-009  0.1690067E+03  0.7561462E-02  0.1178888E+00
         -3   -1    0    0    0  501 -0.00000000000E+00  0.00000000000E+00  0.15395822206E+03  0.15395822206E+03  0.00000000000E+00 0.  1.
          3   -1    0    0  501    0  0.00000000000E+00 -0.00000000000E+00 -0.30131156848E+03  0.30131156848E+03  0.00000000000E+00 0. -1.
         25    2    1    2    0    0 -0.57271633469E+02  0.13388726437E+03  0.45184976355E+02  0.19721754580E+03  0.12508892326E+03 0.  0.
          5    1    3    3  502    0  0.11810499106E+02  0.73124009569E+02 -0.28291508628E+02  0.79400821942E+02  0.41800000000E+01 0.  1.
         -5    1    3    3    0  502 -0.69082132575E+02  0.60763254805E+02  0.73476484983E+02  0.11781672386E+03  0.41800000000E+01 0.  1.
        -11    1    1    2    0    0  0.79374621675E+02 -0.76538642323E+02 -0.12755001896E+03  0.16860457192E+03  0.00000000000E+00 0.  1.
         11    1    1    2    0    0 -0.22102988206E+02 -0.57348622052E+02 -0.64988303821E+02  0.89447672817E+02  0.00000000000E+00 0. -1.
</event>
<event>
 7    1  0.2499014E-009  0.2088782E+03  0.7561462E-02  0.1142457E+00
          1   -1    0    0  501    0  0.00000000000E+00  0.00000000000E+00  0.10595440009E+03  0.10595440009E+03  0.00000000000E+00 0. -1.
         -1   -1    0    0    0  501 -0.00000000000E+00 -0.00000000000E+00 -0.41731139349E+03  0.41731139349E+03  0.00000000000E+00 0.  1.
         25    2    1    2    0    0 -0.12995134707E+03  0.12443768912E+03 -0.16358885785E+03  0.27346200172E+03  0.12509220956E+03 0.  0.
          5    1    3    3  502    0 -0.13092474796E+03  0.14516755836E+03 -0.15846455407E+03  0.25168114138E+03  0.41800000000E+01 0. -1.
         -5    1    3    3    0  502  0.97340089242E+00 -0.20729869239E+02 -0.51243037799E+01  0.21780860341E+02  0.41800000000E+01 0. -1.
        -11    1    1    2    0    0  0.62931211855E+02 -0.37927344863E+01 -0.53316648742E+02  0.82567471158E+02  0.00000000000E+00 0.  1.
         11    1    1    2    0    0  0.67020135212E+02 -0.12064495463E+03 -0.94451486814E+02  0.16723632071E+03  0.00000000000E+00 0. -1.
</event>
<event>
 7    1  0.2499014E-009  0.7260615E+02  0.7561462E-02  0.1351448E+00
         -1   -1    0    0    0  501 -0.00000000000E+00  0.00000000000E+00  0.12714841083E+03  0.12714841083E+03  0.00000000000E+00 0.  1.
          1   -1    0    0  501    0  0.00000000000E+00 -0.00000000000E+00 -0.11940684100E+03  0.11940684100E+03  0.00000000000E+00 0. -1.
         25    2    1    2    0    0  0.11854549387E+02  0.53930661180E+02  0.52719243508E+01  0.13683534846E+03  0.12508826022E+03 0.  0.
          5    1    3    3  502    0  0.11391013286E+02  0.45115878360E+02  0.62918580052E+02  0.78367198366E+02  0.41800000000E+01 0.  1.
         -5    1    3    3    0  502  0.46353610074E+00  0.88147828202E+01 -0.57646655702E+02  0.58468150094E+02  0.41800000000E+01 0.  1.
        -11    1    1    2    0    0  0.28056410844E+02 -0.11070792252E+02  0.32133057369E+02  0.44071056334E+02  0.00000000000E+00 0.  1.
         11    1    1    2    0    0 -0.39910960231E+02 -0.42859868929E+02 -0.29663411891E+02  0.65648847029E+02  0.00000000000E+00 0. -1.
</event>
<event>
 7    1  0.2499014E-009  0.1571441E+03  0.7561462E-02  0.1191959E+00
         -2   -1    0    0    0  501 -0.00000000000E+00  0.00000000000E+00  0.11755040440E+03  0.11755040440E+03  0.00000000000E+00 0. -1.
          2   -1    0    0  501    0  0.00000000000E+00 -0.00000000000E+00 -0.26741138665E+03  0.26741138665E+03  0.00000000000E+00 0.  1.
         25    2    1    2    0    0  0.12596212160E+03  0.17885349096E+02 -0.16354643154E+02  0.17916965294E+03  0.12509175989E+03 0.  0.
          5    1    3    3  502    0  0.79375210328E+02  0.57059745976E+02 -0.49588178598E+02  0.10969365744E+03  0.41800000000E+01 0. -1.
         -5    1    3    3    0  502  0.46586911272E+02 -0.39174396880E+02  0.33233535444E+02  0.69475995502E+02  0.41800000000E+01 0. -1.
        -11    1    1    2    0    0 -0.45916398701E+02 -0.51161013880E+02 -0.46647241149E+02  0.83076652062E+02  0.00000000000E+00 0.  1.
         11    1    1    2    0    0 -0.80045722899E+02  0.33275664784E+02 -0.86859097942E+02  0.12271548605E+03  0.00000000000E+00 0. -1.
</event>
<event>
 7    1  0.2499014E-009  0.1406427E+03  0.7561462E-02  0.1212467E+00
          1   -1    0    0  501    0  0.00000000000E+00  0.00000000000E+00  0.47514441503E+02  0.47514441503E+02  0.00000000000E+00 0. -1.
         -1   -1    0    0    0  501 -0.00000000000E+00 -0.00000000000E+00 -0.45582880328E+03  0.45582880328E+03  0.00000000000E+00 0.  1.
         25    2    1    2    0    0 -0.13768241660E+02 -0.88350973430E+02 -0.26072887247E+03  0.30269164528E+03  0.12508888119E+03 0.  0.
          5    1    3    3  502    0  0.22184158561E+02  0.23827639904E+02 -0.84744517617E+02  0.90879034880E+02  0.41800000000E+01 0. -1.
         -5    1    3    3    0  502 -0.35952400221E+02 -0.11217861333E+03 -0.17598435486E+03  0.21181261040E+03  0.41800000000E+01 0. -1.
        -11    1    1    2    0    0 -0.34646450235E+02  0.71277656266E+02 -0.11562606617E+03  0.14017941352E+03  0.00000000000E+00 0.  1.
         11    1    1    2    0    0  0.48414691895E+02  0.17073317164E+02 -0.31959423133E+02  0.60472185981E+02  0.00000000000E+00 0. -1.
</event>
<event>
 7    1  0.2499014E-009  0.3706523E+03  0.7561462E-02  0.1054444E+00
         -1   -1    0    0    0  501 -0.00000000000E+00  0.00000000000E+00  0.12345876239E+03  0.12345876239E+03  0.00000000000E+00 0.  1.
          1   -1    0    0  501    0  0.00000000000E+00 -0.00000000000E+00 -0.26015432747E+04  0.26015432747E+04  0.00000000000E+00 0. -1.
         25    2    1    2    0    0 -0.30141276670E+03 -0.19157810620E+03 -0.22702314811E+04  0.23015540282E+04  0.12509252668E+03 0.  0.
          5    1    3    3  502    0 -0.15722615949E+03 -0.16659880514E+03 -0.15203478307E+04  0.15375143010E+04  0.41800000000E+01 0.  1.
         -5    1    3    3    0  502 -0.14418660721E+03 -0.24979301059E+02 -0.74988365037E+03  0.76403972715E+03  0.41800000000E+01 0.  1.
        -11    1    1    2    0    0  0.25268091995E+03  0.12132854542E+03 -0.13497746713E+03  0.31110638031E+03  0.00000000000E+00 0.  1.
         11    1    1    2    0    0  0.48731846752E+02  0.70249560772E+02 -0.72875564125E+02  0.11234162863E+03  0.00000000000E+00 0. -1.
</event>
<event>
 7    1  0.2499014E-009  0.1105973E+03  0.7561462E-02  0.1259468E+00
         -1   -1    0    0    0  501 -0.00000000000E+00  0.00000000000E+00  0.24564472062E+03  0.24564472062E+03  0.00000000000E+00 0.  1.
          1   -1    0    0  501    0  0.00000000000E+00 -0.00000000000E+00 -0.68252328277E+02  0.68252328277E+02  0.00000000000E+00 0. -1.
         25    2    1    2    0    0  0.61747904828E+02  0.26964614191E+02  0.73643932473E+02  0.16003274291E+03  0.12508859198E+03 0.  0.
          5    1    3    3  502    0  0.46551142396E+02  0.75302168097E+02  0.31714859704E+02  0.94131451197E+02  0.41800000000E+01 0.  1.
         -5    1    3    3    0  502  0.15196762432E+02 -0.48337553906E+02  0.41929072769E+02  0.65901291712E+02  0.41800000000E+01 0.  1.
        -11    1    1    2    0    0 -0.55436268880E+02 -0.14653562762E+01  0.11311344496E+03  0.12597610332E+03  0.00000000000E+00 0.  1.
         11    1    1    2    0    0 -0.63116359477E+01 -0.25499257915E+02 -0.93649850893E+01  0.27888202672E+02  0.00000000000E+00 0. -1.
</event>
<event>
 7    1  0.2854032E-009  0.8549001E+02  0.7561462E-02  0.1314156E+00
          4   -1    0    0  501    0  0.00000000000E+00  0.00000000000E+00  0.13730213279E+03  0.13730213279E+03  0.00000000000E+00 0. -1.
         -4   -1    0    0    0  501 -0.00000000000E+00 -0.00000000000E+00 -0.12075589942E+03  0.12075589942E+03  0.00000000000E+00 0.  1.
         25    2    1    2    0    0 -0.53384099616E+02  0.12499341843E+02 -0.33111216937E+02  0.14053215827E+03  0.12508732623E+03 0.  0.
          5    1    3    3  502    0  0.25747454637E+02 -0.15103858168E+02  0.24419516382E+02  0.38792307642E+02  0.41800000000E+01 0. -1.
         -5    1    3    3    0  502 -0.79131554253E+02  0.27603200012E+02 -0.57530733319E+02  0.10173985063E+03  0.41800000000E+01 0. -1.
        -11    1    1    2    0    0  0.44273264749E+02 -0.39782801126E+01  0.76188792460E+02  0.88208167313E+02  0.00000000000E+00 0. -1.
         11    1    1    2    0    0  0.91108348674E+01 -0.85210617308E+01 -0.26531342154E+02  0.29317706620E+02  0.00000000000E+00 0.  1.
</event>
<event>
 7    1  0.3634490E-009  0.9297251E+02  0.7561462E-02  0.1295809E+00
         -1   -1    0    0    0  501 -0.00000000000E+00  0.00000000000E+00  0.16479369685E+02  0.16479369685E+02  0.00000000000E+00 0.  1.
          1   -1    0    0  501    0  0.00000000000E+00 -0.00000000000E+00 -0.11564900221E+04  0.11564900221E+04  0.00000000000E+00 0. -1.
         25    2    1    2    0    0  0.92508199307E+01  0.55314391905E+02 -0.89532334380E+03  0.90575714880E+03  0.12508742152E+03 0.  0.
          5    1    3    3  502    0  0.11124850831E+02 -0.12707600490E+02 -0.67278375298E+03  0.67300868946E+03  0.41800000000E+01 0.  1.
         -5    1    3    3    0  502 -0.18740309005E+01  0.68021992395E+02 -0.22253959082E+03  0.23274845934E+03  0.41800000000E+01 0.  1.
        -11    1    1    2    0    0 -0.32555934141E+02 -0.66857727758E+02 -0.13144564922E+03  0.15102252583E+03  0.00000000000E+00 0.  1.
         11    1    1    2    0    0  0.23305114210E+02  0.11543335853E+02 -0.11324165942E+03  0.11618971718E+03  0.00000000000E+00 0. -1.
</event>
<event>
 7    1  0.2499014E-009  0.1354380E+03  0.7561462E-02  0.1219603E+00
         -1   -1    0    0    0  501 -0.00000000000E+00  0.00000000000E+00  0.53774196565E+02  0.53774196565E+02  0.00000000000E+00 0.  1.
          1   -1    0    0  501    0  0.00000000000E+00 -0.00000000000E+00 -0.49514028575E+03  0.49514028575E+03  0.00000000000E+00 0. -1.
         25    2    1    2    0    0  0.36855631410E+02  0.73764856944E+02 -0.38710094988E+03  0.41508322214E+03  0.12508934494E+03 0.  0.
          5    1    3    3  502    0  0.54908033739E+02  0.10191592365E+03 -0.31005961792E+03  0.33099272911E+03  0.41800000000E+01 0.  1.
         -5    1    3    3    0  502 -0.18052402329E+02 -0.28151066709E+02 -0.77041331968E+02  0.84090493030E+02  0.41800000000E+01 0.  1.
        -11    1    1    2    0    0 -0.33535424482E+02  0.11914184273E+02 -0.23902524719E+02  0.42870772911E+02  0.00000000000E+00 0.  1.
         11    1    1    2    0    0 -0.33202069288E+01 -0.85679041217E+02 -0.30362614578E+02  0.90960487257E+02  0.00000000000E+00 0. -1.
</event>
<event>
 7    1  0.2499014E-009  0.1270068E+03  0.7561462E-02  0.1231966E+00
          2   -1    0    0  501    0  0.00000000000E+00  0.00000000000E+00  0.99749596976E+03  0.99749596976E+03  0.00000000000E+00 0. -1.
         -2   -1    0    0    0  501 -0.00000000000E+00 -0.00000000000E+00 -0.38785133163E+02  0.38785133163E+02  0.00000000000E+00 0.  1.
         25    2    1    2    0    0 -0.41941170670E+02  0.10291082138E+03  0.81550659152E+03  0.83249497836E+03  0.12508872542E+03 0.  0.
          5    1    3    3  502    0 -0.35005911152E+02  0.44521364756E+02  0.70469554540E+03  0.70698009155E+03  0.41800000000E+01 0.  1.
         -5    1    3    3    0  502 -0.69352595180E+01  0.58389456624E+02  0.11081104611E+03  0.12551488681E+03  0.41800000000E+01 0.  1.
        -11    1    1    2    0    0 -0.23828136937E+02 -0.43727565036E+02  0.23853021737E+02  0.55216362610E+02  0.00000000000E+00 0.  1.
         11    1    1    2    0    0  0.65769307608E+02 -0.59183256344E+02  0.11935122335E+03  0.14856976196E+03  0.00000000000E+00 0. -1.
</event>
<event>
 7    1  0.3444576E-009  0.1166837E+03  0.7561462E-02  0.1248670E+00
         -1   -1    0    0    0  501 -0.00000000000E+00  0.00000000000E+00  0.66181188098E+02  0.66181188098E+02  0.00000000000E+00 0.  1.
          1   -1    0    0  501    0  0.00000000000E+00 -0.00000000000E+00 -0.29358307174E+03  0.29358307174E+03  0.00000000000E+00 0. -1.
         25    2    1    2    0    0  0.51530440759E+02  0.65419387782E+02 -0.92641854890E+02  0.17653882747E+03  0.12509341192E+03 0.  0.
          5    1    3    3  502    0  0.49854568956E+02 -0.27470558349E+02 -0.39723135430E+02  0.69537827908E+02  0.41800000000E+01 0.  1.
         -5    1    3    3    0  502  0.16758718032E+01  0.92889946131E+02 -0.52918719460E+02  0.10700099956E+03  0.41800000000E+01 0.  1.
        -11    1    1    2    0    0 -0.20040328602E+02 -0.24167264958E+02  0.70846036306E+01  0.32184826776E+02  0.00000000000E+00 0.  1.
         11    1    1    2    0    0 -0.31490112157E+02 -0.41252122824E+02 -0.14184463238E+03  0.15104060559E+03  0.00000000000E+00 0. -1.
</event>
<event>
 7    1  0.2499014E-009  0.1040817E+03  0.7561462E-02  0.1271940E+00
          1   -1    0    0  501    0  0.00000000000E+00  0.00000000000E+00  0.10914986151E+03  0.10914986151E+03  0.00000000000E+00 0. -1.
         -1   -1    0    0    0  501 -0.00000000000E+00 -0.00000000000E+00 -0.13755432031E+03  0.13755432031E+03  0.00000000000E+00 0.  1.
         25    2    1    2    0    0 -0.14694599890E+02 -0.11999106515E+02  0.39617532766E+02  0.13257740530E+03  0.12508920685E+03 0.  0.
          5    1    3    3  502    0 -0.24973306307E+02  0.53164757164E+02  0.84275476322E+01  0.59486581607E+02  0.41800000000E+01 0.  1.
         -5    1    3    3    0  502  0.10278706417E+02 -0.65163863679E+02  0.31189985133E+02  0.73090823691E+02  0.41800000000E+01 0.  1.
        -11    1    1    2    0    0 -0.21307205617E+02 -0.24116100748E+02 -0.51117342672E+02  0.60403361234E+02  0.00000000000E+00 0.  1.
         11    1    1    2    0    0  0.36001805507E+02  0.36115207263E+02 -0.16904648893E+02  0.53723415283E+02  0.00000000000E+00 0. -1.
</event>
<event>
 7    1  0.2499014E-009  0.1218654E+03  0.7561462E-02  0.1240051E+00
          4   -1    0    0  501    0  0.00000000000E+00  0.00000000000E+00  0.36517291883E+02  0.36517291883E+02  0.00000000000E+00 0.  1.
         -4   -1    0    0    0  501 -0.00000000000E+00 -0.00000000000E+00 -0.56489879931E+03  0.56489879931E+03  0.00000000000E+00 0. -1.
         25    2    1    2    0    0 -0.41148226899E+02  0.85119992223E+02 -0.30999126620E+03  0.34739164311E+03  0.12509108253E+03 0.  0.
          5    1    3    3  502    0 -0.61239933653E+02  0.23585862440E+02 -0.25181449907E+03  0.26025878799E+03  0.41800000000E+01 0.  1.
         -5    1    3    3    0  502  0.20091706754E+02  0.61534129783E+02 -0.58176767123E+02  0.87132855120E+02  0.41800000000E+01 0.  1.
        -11    1    1    2    0    0  0.57522300887E+02 -0.71792782500E+02 -0.21332127413E+03  0.23231225692E+03  0.00000000000E+00 0. -1.
         11    1    1    2    0    0 -0.16374073988E+02 -0.13327209724E+02 -0.50689671068E+01  0.21712191173E+02  0.00000000000E+00 0.  1.
</event>
<event>
 7    1  0.2499014E-009  0.1051962E+03  0.7561462E-02  0.1269733E+00
         -1   -1    0    0    0  501 -0.00000000000E+00  0.00000000000E+00  0.53066356380E+03  0.53066356380E+03  0.00000000000E+00 0.  1.
          1   -1    0    0  501    0  0.00000000000E+00 -0.00000000000E+00 -0.28534396492E+02  0.28534396492E+02  0.00000000000E+00 0. -1.
         25    2    1    2    0    0  0.38834375114E+02  0.26145175369E+02  0.35791789603E+03  0.38202738705E+03  0.12509206719E+03 0.  0.
          5    1    3    3  502    0  0.39935037453E+02  0.70290239413E+02  0.16136382999E+03  0.18053055974E+03  0.41800000000E+01 0.  1.
         -5    1    3    3    0  502 -0.11006623395E+01 -0.44145064044E+02  0.19655406604E+03  0.20149682731E+03  0.41800000000E+01 0.  1.
        -11    1    1    2    0    0 -0.49463426279E+02  0.72935773330E+01  0.31428105066E+02  0.59055504381E+02  0.00000000000E+00 0.  1.
         11    1    1    2    0    0  0.10629051165E+02 -0.33438752702E+02  0.11278316621E+03  0.11811506886E+03  0.00000000000E+00 0. -1.
</event>
<event>
 7    1  0.2499014E-009  0.1552749E+03  0.7561462E-02  0.1194137E+00
         -2   -1    0    0    0  501 -0.00000000000E+00  0.00000000000E+00  0.25217772644E+02  0.25217772644E+02  0.00000000000E+00 0.  1.
          2   -1    0    0  501    0  0.00000000000E+00 -0.00000000000E+00 -0.15235151545E+04  0.15235151545E+04  0.00000000000E+00 0. -1.
         25    2    1    2    0    0  0.12602088722E+03  0.75738815056E+02 -0.10585373166E+04  0.10759957504E+04  0.12509185466E+03 0.  0.
          5    1    3    3  502    0  0.19161350524E+02  0.13207240164E+02 -0.22701320901E+02  0.32778207964E+02  0.41800000000E+01 0.  1.
         -5    1    3    3    0  502  0.10685953669E+03  0.62531574893E+02 -0.10358359957E+04  0.10432175424E+04  0.41800000000E+01 0.  1.
        -11    1    1    2    0    0 -0.11666914650E+03 -0.35849158856E+02 -0.24505159235E+03  0.27376474362E+03  0.00000000000E+00 0.  1.
         11    1    1    2    0    0 -0.93517407140E+01 -0.39889656200E+02 -0.19470847295E+03  0.19897243318E+03  0.00000000000E+00 0. -1.
</event>
<event>
 7    1  0.2499014E-009  0.2272468E+03  0.7561462E-02  0.1128593E+00
          1   -1    0    0  501    0  0.00000000000E+00  0.00000000000E+00  0.15153437725E+03  0.15153437725E+03  0.00000000000E+00 0. -1.
         -1   -1    0    0    0  501 -0.00000000000E+00 -0.00000000000E+00 -0.44100407720E+03  0.44100407720E+03  0.00000000000E+00 0.  1.
         25    2    1    2    0    0  0.13153929861E+03 -0.17605274647E+03 -0.24189210384E+03  0.34993949410E+03  0.12509477612E+03 0.  0.
          5    1    3    3  502    0  0.41809745811E+02 -0.17566641978E+02 -0.12612416434E+03  0.13409481342E+03  0.41800000000E+01 0. -1.
         -5    1    3    3    0  502  0.89729552797E+02 -0.15848610449E+03 -0.11576793950E+03  0.21584468068E+03  0.41800000000E+01 0. -1.
        -11    1    1    2    0    0 -0.23007078214E+02  0.39960662558E+01 -0.30560621196E+02  0.38460964124E+02  0.00000000000E+00 0.  1.
         11    1    1    2    0    0 -0.10853222039E+03  0.17205668021E+03 -0.17016974916E+02  0.20413799623E+03  0.00000000000E+00 0. -1.
</event>
<event>
 7    1  0.2499014E-009  0.1014781E+03  0.7561462E-02  0.1277218E+00
         -1   -1    0    0    0  501 -0.00000000000E+00  0.00000000000E+00  0.37833028974E+02  0.37833028974E+02  0.00000000000E+00 0.  1.
          1   -1    0    0  501    0  0.00000000000E+00 -0.00000000000E+00 -0.55497199406E+03  0.55497199406E+03  0.00000000000E+00 0. -1.
         25    2    1    2    0    0  0.33513235484E+02  0.82045304596E+02 -0.20175875488E+03  0.25339268927E+03  0.12508673329E+03 0.  0.
          5    1    3    3  502    0 -0.10683553129E+02  0.24874068374E+02 -0.17356326724E+03  0.17571151846E+03  0.41800000000E+01 0. -1.
         -5    1    3    3    0  502  0.44196788613E+02  0.57171236221E+02 -0.28195487636E+02  0.77681170806E+02  0.41800000000E+01 0. -1.
        -11    1    1    2    0    0  0.13663224189E+02 -0.29826944885E+02 -0.26761447411E+02  0.42337990079E+02  0.00000000000E+00 0.  1.
         11    1    1    2    0    0 -0.47176459674E+02 -0.52218359711E+02 -0.28861876280E+03  0.29707434369E+03  0.00000000000E+00 0. -1.
</event>
<event>
 7    1  0.2499014E-009  0.1481990E+03  0.7561462E-02  0.1202704E+00
          1   -1    0    0  501    0  0.00000000000E+00  0.00000000000E+00  0.26515777024E+03  0.26515777024E+03  0.00000000000E+00 0. -1.
         -1   -1    0    0    0  501 -0.00000000000E+00 -0.00000000000E+00 -0.85607223445E+02  0.85607223445E+02  0.00000000000E+00 0.  1.
         25    2    1    2    0    0  0.48691020211E+02  0.88975325593E+02  0.86750255784E+02  0.18291318341E+03  0.12507678352E+03 0.  0.
          5    1    3    3  502    0  0.51696875437E+02 -0.16996550355E+02  0.35292927573E+02  0.64996252127E+02  0.41800000000E+01 0. -1.
         -5    1    3    3    0  502 -0.30058552258E+01  0.10597187595E+03  0.51457328212E+02  0.11791693129E+03  0.41800000000E+01 0. -1.
        -11    1    1    2    0    0 -0.66550669245E+02 -0.28028799132E+02  0.28963586391E+02  0.77804206148E+02  0.00000000000E+00 0.  1.
         11    1    1    2    0    0  0.17859649034E+02 -0.60946526461E+02  0.63836704620E+02  0.90047604122E+02  0.00000000000E+00 0. -1.
</event>
<event>
 7    1  0.2499014E-009  0.9213304E+02  0.7561462E-02  0.1297767E+00
         -1   -1    0    0    0  501 -0.00000000000E+00  0.00000000000E+00  0.90848002032E+02  0.90848002032E+02  0.00000000000E+00 0.  1.
          1   -1    0    0  501    0  0.00000000000E+00 -0.00000000000E+00 -0.25529346777E+03  0.25529346777E+03  0.00000000000E+00 0. -1.
         25    2    1    2    0    0 -0.69938925949E+02  0.36838476525E+02 -0.16872146956E+03  0.22441967395E+03  0.12509488018E+03 0.  0.
          5    1    3    3  502    0 -0.73480921974E+02  0.14445069622E+02 -0.18267396079E+03  0.19747241398E+03  0.41800000000E+01 0.  1.
         -5    1    3    3    0  502  0.35419960245E+01  0.22393406902E+02  0.13952491226E+02  0.26947259971E+02  0.41800000000E+01 0.  1.
        -11    1    1    2    0    0  0.53231162280E+02 -0.42970640112E+02  0.41814578788E+02  0.80177874433E+02  0.00000000000E+00 0.  1.
         11    1    1    2    0    0  0.16707763669E+02  0.61321635876E+01 -0.37538574962E+02  0.41543921424E+02  0.00000000000E+00 0. -1.
</event>
<event>
 7    1  0.2499014E-009  0.1480279E+03  0.7561462E-02  0.1202917E+00
          2   -1    0    0  501    0  0.00000000000E+00  0.00000000000E+00  0.34103043269E+03  0.34103043269E+03  0.00000000000E+00 0.  1.
         -2   -1    0    0    0  501 -0.00000000000E+00 -0.00000000000E+00 -0.10280295065E+03  0.10280295065E+03  0.00000000000E+00 0. -1.
         25    2    1    2    0    0 -0.77726250494E+02  0.11893802063E+03  0.19005579206E+03  0.26824685240E+03  0.12509015532E+03 0.  0.
          5    1    3    3  502    0 -0.18408170414E+02  0.80405978315E+02  0.21412951417E+02  0.85322734223E+02  0.41800000000E+01 0.  1.
         -5    1    3    3    0  502 -0.59318080080E+02  0.38532042315E+02  0.16864284064E+03  0.18292411817E+03  0.41800000000E+01 0.  1.
        -11    1    1    2    0    0  0.55455194131E+02 -0.94271773651E+02 -0.86983308865E+01  0.10971830669E+03  0.00000000000E+00 0. -1.
         11    1    1    2    0    0  0.22271056363E+02 -0.24666246980E+02  0.56870020871E+02  0.65868224247E+02  0.00000000000E+00 0.  1.
</event>
<event>
 7    1  0.2499014E-009  0.2030963E+03  0.7561462E-02  0.1147153E+00
         -2   -1    0    0    0  501 -0.00000000000E+00  0.00000000000E+00  0.11496551626E+03  0.11496551626E+03  0.00000000000E+00 0.  1.
          2   -1    0    0  501    0  0.00000000000E+00 -0.00000000000E+00 -0.42624092726E+03  0.42624092726E+03  0.00000000000E+00 0. -1.
         25    2    1    2    0    0 -0.11516854490E+03 -0.15464780952E+03 -0.14541231289E+03  0.27197689177E+03  0.12508776997E+03 0.  0.
          5    1    3    3  502    0 -0.93315030244E+02 -0.10451853244E+03 -0.16242967496E+03  0.21455230178E+03  0.41800000000E+01 0.  1.
         -5    1    3    3    0  502 -0.21853514652E+02 -0.50129277078E+02  0.17017362074E+02  0.57424589985E+02  0.41800000000E+01 0.  1.
        -11    1    1    2    0    0  0.82337833315E+01  0.80793071042E+02 -0.76001354249E+02  0.11122734090E+03  0.00000000000E+00 0. -1.
         11    1    1    2    0    0  0.10693476156E+03  0.73854738475E+02 -0.89861743862E+02  0.15800221086E+03  0.00000000000E+00 0.  1.
</event>
<event>
 7    1  0.2499014E-009  0.1363838E+03  0.7561462E-02  0.1218279E+00
         -2   -1    0    0    0  501 -0.00000000000E+00  0.00000000000E+00  0.74037711643E+02  0.74037711643E+02  0.00000000000E+00 0.  1.
          2   -1    0    0  501    0  0.00000000000E+00 -0.00000000000E+00 -0.41123808005E+03  0.41123808005E+03  0.00000000000E+00 0. -1.
         25    2    1    2    0    0  0.11351009658E+03  0.59593098975E+02 -0.23663681447E+03  0.29678471519E+03  0.12509318821E+03 0.  0.
          5    1    3    3  502    0  0.89234644396E+02  0.49625687634E+02 -0.24773724991E+03  0.26798646985E+03  0.41800000000E+01 0. -1.
         -5    1    3    3    0  502  0.24275452179E+02  0.99674113407E+01  0.11100435436E+02  0.28798245332E+02  0.41800000000E+01 0. -1.
        -11    1    1    2    0    0 -0.40461662617E+02 -0.58273469339E+02 -0.90111857907E+02  0.11468692299E+03  0.00000000000E+00 0. -1.
         11    1    1    2    0    0 -0.73048433958E+02 -0.13196296359E+01 -0.10451696033E+02  0.73804153515E+02  0.00000000000E+00 0.  1.
</event>
<event>
 7    1  0.2499014E-009  0.1122028E+03  0.7561462E-02  0.1256544E+00
          1   -1    0    0  501    0  0.00000000000E+00  0.00000000000E+00  0.47789140061E+03  0.47789140061E+03  0.00000000000E+00 0. -1.
         -1   -1    0    0    0  501 -0.00000000000E+00 -0.00000000000E+00 -0.44019526690E+02  0.44019526690E+02  0.00000000000E+00 0.  1.
         25    2    1    2    0    0  0.55276509680E+02  0.77187819472E+02  0.20522937897E+03  0.25841791310E+03  0.12508903959E+03 0.  0.
          5    1    3    3  502    0  0.60933295456E+02  0.89374512980E+02  0.21538989661E+03  0.24106212897E+03  0.41800000000E+01 0. -1.
         -5    1    3    3    0  502 -0.56567857763E+01 -0.12186693507E+02 -0.10160517641E+02  0.17355784128E+02  0.41800000000E+01 0. -1.
        -11    1    1    2    0    0 -0.66277276265E+01 -0.40794615677E+02  0.19488897472E+02  0.45694032065E+02  0.00000000000E+00 0.  1.
         11    1    1    2    0    0 -0.48648782053E+02 -0.36393203795E+02  0.20915359749E+03  0.21779898214E+03  0.00000000000E+00 0. -1.
</event>
<event>
 7    1  0.2499014E-009  0.1177318E+03  0.7561462E-02  0.1246886E+00
          2   -1    0    0  501    0  0.00000000000E+00  0.00000000000E+00  0.16920995832E+04  0.16920995832E+04  0.00000000000E+00 0. -1.
         -2   -1    0    0    0  501 -0.00000000000E+00 -0.00000000000E+00 -0.89206849549E+01  0.89206849549E+01  0.00000000000E+00 0.  1.
         25    2    1    2    0    0  0.49923197369E+02  0.30915104484E+01  0.11731965210E+04  0.11809062160E+04  0.12509009155E+03 0.  0.
          5    1    3    3  502    0 -0.21422143509E+02  0.45861253361E+02  0.38990757758E+03  0.39320167121E+03  0.41800000000E+01 0.  1.
         -5    1    3    3    0  502  0.71345340878E+02 -0.42769742912E+02  0.78328894341E+03  0.78770454476E+03  0.41800000000E+01 0.  1.
        -11    1    1    2    0    0 -0.28922858970E+02  0.42374298563E+02  0.22606874664E+03  0.23181715026E+03  0.00000000000E+00 0.  1.
         11    1    1    2    0    0 -0.21000338400E+02 -0.45465809011E+02  0.28391363061E+03  0.28829690191E+03  0.00000000000E+00 0. -1.
</event>
<event>
 7    1  0.2499014E-009  0.1193019E+03  0.7561462E-02  0.1244253E+00
          2   -1    0    0  501    0  0.00000000000E+00  0.00000000000E+00  0.24558596606E+03  0.24558596606E+03  0.00000000000E+00 0. -1.
         -2   -1    0    0    0  501 -0.00000000000E+00 -0.00000000000E+00 -0.75375179767E+02  0.75375179767E+02  0.00000000000E+00 0.  1.
         25    2    1    2    0    0 -0.62276272470E+01 -0.79823561896E+02  0.10562249221E+03  0.18224778771E+03  0.12509021101E+03 0.  0.
          5    1    3    3  502    0 -0.48099815982E+02 -0.52706491489E+02  0.11086901990E+03  0.13191276859E+03  0.41800000000E+01 0.  1.
         -5    1    3    3    0  502  0.41872188735E+02 -0.27117070408E+02 -0.52465276978E+01  0.50335019120E+02  0.41800000000E+01 0.  1.
        -11    1    1    2    0    0  0.32948155501E+02  0.63178946128E-01  0.48042322934E+00  0.32951718453E+02  0.00000000000E+00 0.  1.
         11    1    1    2    0    0 -0.26720528254E+02  0.79760382950E+02  0.64107870857E+02  0.10576163966E+03  0.00000000000E+00 0. -1.
</event>
<event>
 7    1  0.2499014E-009  0.1320121E+03  0.7561462E-02  0.1224500E+00
          1   -1    0    0  501    0  0.00000000000E+00  0.00000000000E+00  0.27644446986E+03  0.27644446986E+03  0.00000000000E+00 0. -1.
         -1   -1    0    0    0  501 -0.00000000000E+00 -0.00000000000E+00 -0.70003082054E+02  0.70003082054E+02  0.00000000000E+00 0.  1.
         25    2    1    2    0    0  0.75385234286E+02  0.36872866748E+02  0.83449758077E+02  0.17220386662E+03  0.12509103766E+03 0.  0.
          5    1    3    3  502    0  0.82831008540E+02 -0.20453560222E+02  0.23012424200E+02  0.88466763075E+02  0.41800000000E+01 0. -1.
         -5    1    3    3    0  502 -0.74457742534E+01  0.57326426969E+02  0.60437333877E+02  0.83737103541E+02  0.41800000000E+01 0. -1.
        -11    1    1    2    0    0  0.19727380549E+02 -0.73997260716E+01  0.37455418207E+02  0.42974804739E+02  0.00000000000E+00 0. -1.
         11    1    1    2    0    0 -0.95112614835E+02 -0.29473140676E+02  0.85536211524E+02  0.13126888056E+03  0.00000000000E+00 0.  1.
</event>
<event>
 7    1  0.2569490E-009  0.1643134E+03  0.7561462E-02  0.1183911E+00
         -2   -1    0    0    0  501 -0.00000000000E+00  0.00000000000E+00  0.16192022431E+03  0.16192022431E+03  0.00000000000E+00 0.  1.
          2   -1    0    0  501    0  0.00000000000E+00 -0.00000000000E+00 -0.19650955248E+03  0.19650955248E+03  0.00000000000E+00 0. -1.
         25    2    1    2    0    0 -0.80195220098E+02 -0.10236503170E+03 -0.73359022484E+02  0.19477496349E+03  0.12508344087E+03 0.  0.
          5    1    3    3  502    0 -0.10690368747E+03 -0.66172150176E+02 -0.80052199854E+02  0.14910727331E+03  0.41800000000E+01 0.  1.
         -5    1    3    3    0  502  0.26708467372E+02 -0.36192881528E+02  0.66931773694E+01  0.45667690176E+02  0.41800000000E+01 0.  1.
        -11    1    1    2    0    0  0.36846448842E+02 -0.91897032096E+01  0.41294112431E+00  0.37977387453E+02  0.00000000000E+00 0.  1.
         11    1    1    2    0    0  0.43348771256E+02  0.11155473491E+03  0.38356753194E+02  0.12567742584E+03  0.00000000000E+00 0. -1.
</event>
<event>
 7    1  0.2499014E-009  0.1029119E+03  0.7561462E-02  0.1274289E+00
          1   -1    0    0  501    0  0.00000000000E+00  0.00000000000E+00  0.84581211317E+03  0.84581211317E+03  0.00000000000E+00 0. -1.
         -1   -1    0    0    0  501 -0.00000000000E+00 -0.00000000000E+00 -0.20973984886E+02  0.20973984886E+02  0.00000000000E+00 0.  1.
         25    2    1    2    0    0  0.53614170297E+02  0.45178733843E+01  0.63270617683E+03  0.64719363337E+03  0.12509037708E+03 0.  0.
          5    1    3    3  502    0  0.46651161812E+02 -0.49490083206E+02  0.48404568606E+03  0.48881826667E+03  0.41800000000E+01 0.  1.
         -5    1    3    3    0  502  0.69630084849E+01  0.54007956590E+02  0.14866049077E+03  0.15837536670E+03  0.41800000000E+01 0.  1.
        -11    1    1    2    0    0 -0.41703971801E+02  0.26793000543E+02  0.39655763862E+02  0.63479648310E+02  0.00000000000E+00 0.  1.
         11    1    1    2    0    0 -0.11910198496E+02 -0.31310873928E+02  0.15247618759E+03  0.15611281638E+03  0.00000000000E+00 0. -1.
</event>
<event>
 7    1  0.2499014E-009  0.1310574E+03  0.7561462E-02  0.1225895E+00
         -2   -1    0    0    0  501 -0.00000000000E+00  0.00000000000E+00  0.12818885302E+03  0.12818885302E+03  0.00000000000E+00 0.  1.
          2   -1    0    0  501    0  0.00000000000E+00 -0.00000000000E+00 -0.18621657317E+03  0.18621657317E+03  0.00000000000E+00 0. -1.
         25    2    1    2    0    0 -0.11868860652E+02  0.82947873484E+02  0.42495461262E+02  0.15644497593E+03  0.12509175311E+03 0.  0.
          5    1    3    3  502    0  0.21318438114E+02 -0.21570221162E+02  0.34926063768E+02  0.46444080085E+02  0.41800000000E+01 0.  1.
         -5    1    3    3    0  502 -0.33187298766E+02  0.10451809465E+03  0.75693974942E+01  0.11000089584E+03  0.41800000000E+01 0.  1.
        -11    1    1    2    0    0  0.50501908688E+02 -0.46656665081E+02 -0.59695946098E+02  0.91054341786E+02  0.00000000000E+00 0.  1.
         11    1    1    2    0    0 -0.38633048036E+02 -0.36291208403E+02 -0.40827235320E+02  0.66906108479E+02  0.00000000000E+00 0. -1.
</event>
<event>
 7    1  0.2499014E-009  0.1164461E+03  0.7561462E-02  0.1249078E+00
         -1   -1    0    0    0  501 -0.00000000000E+00  0.00000000000E+00  0.10039933762E+04  0.10039933762E+04  0.00000000000E+00 0.  1.
          1   -1    0    0  501    0  0.00000000000E+00 -0.00000000000E+00 -0.14826958542E+02  0.14826958542E+02  0.00000000000E+00 0. -1.
         25    2    1    2    0    0 -0.16649921480E+02 -0.44749619657E+02  0.67338638739E+03  0.68656842142E+03  0.12508885730E+03 0.  0.
          5    1    3    3  502    0  0.50467426823E+02 -0.25140712281E+01  0.34563238455E+03  0.34933150355E+03  0.41800000000E+01 0. -1.
         -5    1    3    3    0  502 -0.67117348302E+02 -0.42235548429E+02  0.32775400284E+03  0.33723691787E+03  0.41800000000E+01 0. -1.
        -11    1    1    2    0    0 -0.11637884436E+02  0.66239556355E+02  0.22223281179E+03  0.23218643762E+03  0.00000000000E+00 0.  1.
         11    1    1    2    0    0  0.28287805916E+02 -0.21489936698E+02  0.93547218530E+02  0.10006547575E+03  0.00000000000E+00 0. -1.
</event>
<event>
 7    1  0.2499014E-009  0.8619060E+02  0.7561462E-02  0.1312348E+00
         -2   -1    0    0    0  501 -0.00000000000E+00  0.00000000000E+00  0.20593857359E+02  0.20593857359E+02  0.00000000000E+00 0.  1.
          2   -1    0    0  501    0  0.00000000000E+00 -0.00000000000E+00 -0.66536491451E+03  0.66536491451E+03  0.00000000000E+00 0. -1.
         25    2    1    2    0    0 -0.36960635511E+02 -0.14458766567E+02 -0.43740154649E+03  0.45666310001E+03  0.12508369012E+03 0.  0.
          5    1    3    3  502    0 -0.25663878161E+02  0.25378384332E+02 -0.39700224754E+03  0.39866145284E+03  0.41800000000E+01 0.  1.
         -5    1    3    3    0  502 -0.11296757350E+02 -0.39837150900E+02 -0.40399298951E+02  0.58001647168E+02  0.41800000000E+01 0.  1.
        -11    1    1    2    0    0  0.37128210356E+02 -0.31365890201E+02 -0.13656081109E+03  0.14495233078E+03  0.00000000000E+00 0. -1.
         11    1    1    2    0    0 -0.16757484533E+00  0.45824656768E+02 -0.70808699567E+02  0.84343341075E+02  0.00000000000E+00 0.  1.
</event>
<event>
 7    1  0.2499014E-009  0.1029036E+03  0.7561462E-02  0.1274306E+00
         -2   -1    0    0    0  501 -0.00000000000E+00  0.00000000000E+00  0.41209896599E+02  0.41209896599E+02  0.00000000000E+00 0.  1.
          2   -1    0    0  501    0  0.00000000000E+00 -0.00000000000E+00 -0.30288250270E+03  0.30288250270E+03  0.00000000000E+00 0. -1.
         25    2    1    2    0    0 -0.87559381020E+01 -0.49378920525E+01 -0.11335360678E+03  0.16910493217E+03  0.12508552548E+03 0.  0.
          5    1    3    3  502    0 -0.56439344928E+02 -0.26498484791E+02 -0.27061598614E+02  0.68098251606E+02  0.41800000000E+01 0. -1.
         -5    1    3    3    0  502  0.47683406826E+02  0.21560592739E+02 -0.86292008167E+02  0.10100668057E+03  0.41800000000E+01 0. -1.
        -11    1    1    2    0    0 -0.17175399861E+02  0.42120092056E+02 -0.56058301970E+02  0.72191618177E+02  0.00000000000E+00 0.  1.
         11    1    1    2    0    0  0.25931337963E+02 -0.37182200004E+02 -0.92260697348E+02  0.10279584895E+03  0.00000000000E+00 0. -1.
</event>
<event>
 7    1  0.2499014E-009  0.1062609E+03  0.7561462E-02  0.1267655E+00
         -2   -1    0    0    0  501 -0.00000000000E+00  0.00000000000E+00  0.16061572655E+03  0.16061572655E+03  0.00000000000E+00 0. -1.
          2   -1    0    0  501    0  0.00000000000E+00 -0.00000000000E+00 -0.80807564420E+02  0.80807564420E+02  0.00000000000E+00 0.  1.
         25    2    1    2    0    0  0.81566856970E+01  0.39659607468E+02  0.42944735801E+02  0.13831841255E+03  0.12509323296E+03 0.  0.
          5    1    3    3  502    0  0.21117421946E+02  0.75872251222E+02  0.56834517386E+02  0.97212030025E+02  0.41800000000E+01 0.  1.
         -5    1    3    3    0  502 -0.12960736249E+02 -0.36212643754E+02 -0.13889781586E+02  0.41106382525E+02  0.41800000000E+01 0.  1.
        -11    1    1    2    0    0 -0.85125251949E+01  0.26997659420E+02  0.19005128439E+02  0.34095917737E+02  0.00000000000E+00 0.  1.
         11    1    1    2    0    0  0.35583949791E+00 -0.66657266888E+02  0.17858297889E+02  0.69008960681E+02  0.00000000000E+00 0. -1.
</event>
<event>
 7    1  0.2499014E-009  0.1496668E+03  0.7561462E-02  0.1200883E+00
          3   -1    0    0  501    0  0.00000000000E+00  0.00000000000E+00  0.56714060873E+02  0.56714060873E+02  0.00000000000E+00 0. -1.
         -3   -1    0    0    0  501 -0.00000000000E+00 -0.00000000000E+00 -0.46518168322E+03  0.46518168322E+03  0.00000000000E+00 0.  1.
         25    2    1    2    0    0 -0.96129410832E+02 -0.72776470235E+02 -0.20168905178E+03  0.26619906840E+03  0.12508473993E+03 0.  0.
          5    1    3    3  502    0 -0.11093066370E+03 -0.80326636780E+02 -0.11817049947E+03  0.18094120611E+03  0.41800000000E+01 0. -1.
         -5    1    3    3    0  502  0.14801252868E+02  0.75501665443E+01 -0.83518552315E+02  0.85257862289E+02  0.41800000000E+01 0. -1.
        -11    1    1    2    0    0  0.14137538517E+02  0.60670519119E+02 -0.12285094351E+03  0.13774300784E+03  0.00000000000E+00 0.  1.
         11    1    1    2    0    0  0.81991872316E+02  0.12105951116E+02 -0.83927627054E+02  0.11795366786E+03  0.00000000000E+00 0. -1.
</event>
<event>
 7    1  0.2499014E-009  0.1135172E+03  0.7561462E-02  0.1254192E+00
          2   -1    0    0  501    0  0.00000000000E+00  0.00000000000E+00  0.46221232206E+02  0.46221232206E+02  0.00000000000E+00 0.  1.
         -2   -1    0    0    0  501 -0.00000000000E+00 -0.00000000000E+00 -0.31902521360E+03  0.31902521360E+03  0.00000000000E+00 0. -1.
         25    2    1    2    0    0 -0.36953178901E+02  0.82045092402E+01 -0.21414048737E+03  0.25087096080E+03  0.12508892532E+03 0.  0.
          5    1    3    3  502    0 -0.36651586648E+02 -0.55182253075E+02 -0.95635301751E+02  0.11641307143E+03  0.41800000000E+01 0. -1.
         -5    1    3    3    0  502 -0.30159225372E+00  0.63386762315E+02 -0.11850518562E+03  0.13445788937E+03  0.41800000000E+01 0. -1.
        -11    1    1    2    0    0  0.17500961594E+02  0.40807085469E+02 -0.18547414769E+02  0.48119730628E+02  0.00000000000E+00 0.  1.
         11    1    1    2    0    0  0.19452217307E+02 -0.49011594709E+02 -0.40116079254E+02  0.66255754382E+02  0.00000000000E+00 0. -1.
</event>
<event>
 7    1  0.2499014E-009  0.1590832E+03  0.7561462E-02  0.1189736E+00
          1   -1    0    0  501    0  0.00000000000E+00  0.00000000000E+00  0.16686603997E+03  0.16686603997E+03  0.00000000000E+00 0. -1.
         -1   -1    0    0    0  501 -0.00000000000E+00 -0.00000000000E+00 -0.16139417812E+03  0.16139417812E+03  0.00000000000E+00 0.  1.
         25    2    1    2    0    0 -0.12093748886E+03  0.35905235682E+01  0.26759971046E+02  0.17607272384E+03  0.12508692960E+03 0.  0.
          5    1    3    3  502    0 -0.28753304274E+02  0.54768134096E+02  0.33252736743E+02  0.70352810320E+02  0.41800000000E+01 0. -1.
         -5    1    3    3    0  502 -0.92184184591E+02 -0.51177610528E+02 -0.64927656971E+01  0.10571991352E+03  0.41800000000E+01 0. -1.
        -11    1    1    2    0    0  0.11085682990E+03  0.30599776651E+02 -0.17798077842E+02  0.11637162301E+03  0.00000000000E+00 0.  1.
         11    1    1    2    0    0  0.10080658962E+02 -0.34190300219E+02 -0.34900313539E+01  0.35815871245E+02  0.00000000000E+00 0. -1.
</event>
<event>
 7    1  0.2499014E-009  0.1259226E+03  0.7561462E-02  0.1233634E+00
         -1   -1    0    0    0  501 -0.00000000000E+00  0.00000000000E+00  0.81123398454E+02  0.81123398454E+02  0.00000000000E+00 0.  1.
          1   -1    0    0  501    0  0.00000000000E+00 -0.00000000000E+00 -0.31814302561E+03  0.31814302561E+03  0.00000000000E+00 0. -1.
         25    2    1    2    0    0  0.57988088563E+02  0.36782906307E+02 -0.24719334005E+03  0.28542533475E+03  0.12508986265E+03 0.  0.
          5    1    3    3  502    0  0.95942492071E+02  0.36470354231E+02 -0.19888581442E+03  0.22384835961E+03  0.41800000000E+01 0.  1.
         -5    1    3    3    0  502 -0.37954403508E+02  0.31255207661E+00 -0.48307525633E+02  0.61576975139E+02  0.41800000000E+01 0.  1.
        -11    1    1    2    0    0 -0.38460153277E+02  0.25178390916E+02 -0.73517642232E+01  0.46553014901E+02  0.00000000000E+00 0.  1.
         11    1    1    2    0    0 -0.19527935286E+02 -0.61961297223E+02  0.17525477120E+02  0.67288074414E+02  0.00000000000E+00 0. -1.
</event>
<event>
 7    1  0.2499014E-009  0.1473893E+03  0.7561462E-02  0.1203718E+00
          1   -1    0    0  501    0  0.00000000000E+00  0.00000000000E+00  0.62620348175E+03  0.62620348175E+03  0.00000000000E+00 0. -1.
         -1   -1    0    0    0  501 -0.00000000000E+00 -0.00000000000E+00 -0.50802119104E+02  0.50802119104E+02  0.00000000000E+00 0.  1.
         25    2    1    2    0    0  0.10282057205E+03 -0.95854820808E+02  0.35195738154E+03  0.39910220319E+03  0.12509337896E+03 0.  0.
          5    1    3    3  502    0  0.94094218587E+02 -0.96027797267E+02  0.36137656851E+03  0.38559766141E+03  0.41800000000E+01 0. -1.
         -5    1    3    3    0  502  0.87263534633E+01  0.17297645909E+00 -0.94191869637E+01  0.13504541780E+02  0.41800000000E+01 0. -1.
        -11    1    1    2    0    0 -0.84015290935E+02  0.42769901936E+02  0.19077149704E+03  0.21279473138E+03  0.00000000000E+00 0. -1.
         11    1    1    2    0    0 -0.18805281116E+02  0.53084918872E+02  0.32672484060E+02  0.65108666275E+02  0.00000000000E+00 0.  1.
</event>
<event>
 7    1  0.2499014E-009  0.1211991E+03  0.7561462E-02  0.1241132E+00
         -2   -1    0    0    0  501 -0.00000000000E+00  0.00000000000E+00  0.34522054113E+02  0.34522054113E+02  0.00000000000E+00 0.  1.
          2   -1    0    0  501    0  0.00000000000E+00 -0.00000000000E+00 -0.57457625532E+03  0.57457625532E+03  0.00000000000E+00 0. -1.
         25    2    1    2    0    0  0.71143340160E+02 -0.44102280495E+02 -0.22635386391E+03  0.27182903232E+03  0.12509422493E+03 0.  0.
          5    1    3    3  502    0 -0.11990420522E+02  0.12649477703E+02 -0.13389096356E+03  0.13508531376E+03  0.41800000000E+01 0.  1.
         -5    1    3    3    0  502  0.83133760681E+02 -0.56751758198E+02 -0.92462900343E+02  0.13674371855E+03  0.41800000000E+01 0.  1.
        -11    1    1    2    0    0 -0.71650728747E+02 -0.75754247574E+01 -0.17484571837E+03  0.18910906700E+03  0.00000000000E+00 0.  1.
         11    1    1    2    0    0  0.50738858766E+00  0.51677705253E+02 -0.13885461893E+03  0.14816021011E+03  0.00000000000E+00 0. -1.
</event>
<event>
 7    1  0.2499014E-009  0.1563309E+03  0.7561462E-02  0.1192903E+00
          1   -1    0    0  501    0  0.00000000000E+00  0.00000000000E+00  0.29179111323E+03  0.29179111323E+03  0.00000000000E+00 0. -1.
         -1   -1    0    0    0  501 -0.00000000000E+00 -0.00000000000E+00 -0.10074280697E+03  0.10074280697E+03  0.00000000000E+00 0.  1.
         25    2    1    2    0    0  0.61114958656E+01  0.13012411168E+03  0.78383912376E+02  0.19687473164E+03  0.12508392150E+03 0.  0.
          5    1    3    3  502    0 -0.28358734637E+02 -0.13443051361E+02  0.22970754292E+02  0.39115999449E+02  0.41800000000E+01 0. -1.
         -5    1    3    3    0  502  0.34470230503E+02  0.14356716304E+03  0.55413158084E+02  0.15775873220E+03  0.41800000000E+01 0. -1.
        -11    1    1    2    0    0 -0.16554783754E+02 -0.54683977079E+02 -0.29537934262E+01  0.57211214896E+02  0.00000000000E+00 0.  1.
         11    1    1    2    0    0  0.10443287889E+02 -0.75440134604E+02  0.11561818731E+03  0.13844797365E+03  0.00000000000E+00 0. -1.
</event>
<event>
 7    1  0.2499014E-009  0.1901383E+03  0.7561462E-02  0.1158337E+00
         -1   -1    0    0    0  501 -0.00000000000E+00  0.00000000000E+00  0.26315645089E+03  0.26315645089E+03  0.00000000000E+00 0.  1.
          1   -1    0    0  501    0  0.00000000000E+00 -0.00000000000E+00 -0.14869637645E+03  0.14869637645E+03  0.00000000000E+00 0. -1.
         25    2    1    2    0    0  0.86427627776E+02  0.13574948742E+03  0.21845786831E+02  0.20499278891E+03  0.12508855634E+03 0.  0.
          5    1    3    3  502    0  0.11450133447E+03  0.10564859352E+03  0.38267208406E+02  0.16048062981E+03  0.41800000000E+01 0.  1.
         -5    1    3    3    0  502 -0.28073706690E+02  0.30100893902E+02 -0.16421421575E+02  0.44512159098E+02  0.41800000000E+01 0.  1.
        -11    1    1    2    0    0  0.12270410184E+02 -0.52556791037E+02  0.14126472164E+02  0.55788318365E+02  0.00000000000E+00 0.  1.
         11    1    1    2    0    0 -0.98698037961E+02 -0.83192696380E+02  0.78487815445E+02  0.15107172006E+03  0.00000000000E+00 0. -1.
</event>
<event>
 7    1  0.2499014E-009  0.3254386E+03  0.7561462E-02  0.1073173E+00
          4   -1    0    0  501    0  0.00000000000E+00  0.00000000000E+00  0.94295636220E+03  0.94295636220E+03  0.00000000000E+00 0.  1.
         -4   -1    0    0    0  501 -0.00000000000E+00 -0.00000000000E+00 -0.14300456761E+03  0.14300456761E+03  0.00000000000E+00 0. -1.
         25    2    1    2    0    0  0.29947061051E+03  0.76036825618E+02  0.16065800187E+03  0.37002990952E+03  0.12508754920E+03 0.  0.
          5    1    3    3  502    0  0.26128426786E+03  0.21143195842E+02  0.15040250522E+03  0.30224971354E+03  0.41800000000E+01 0. -1.
         -5    1    3    3    0  502  0.38186342653E+02  0.54893629776E+02  0.10255496652E+02  0.67780195978E+02  0.41800000000E+01 0. -1.
        -11    1    1    2    0    0 -0.77369764184E+02 -0.62026583841E+02  0.17785537444E+03  0.20363180432E+03  0.00000000000E+00 0.  1.
         11    1    1    2    0    0 -0.22210084633E+03 -0.14010241777E+02  0.46143841828E+03  0.51229921597E+03  0.00000000000E+00 0. -1.
</event>
<event>
 7    1  0.2499014E-009  0.1547413E+03  0.7561462E-02  0.1194765E+00
         -2   -1    0    0    0  501 -0.00000000000E+00  0.00000000000E+00  0.72416059423E+02  0.72416059423E+02  0.00000000000E+00 0. -1.
          2   -1    0    0  501    0  0.00000000000E+00 -0.00000000000E+00 -0.42130374702E+03  0.42130374702E+03  0.00000000000E+00 0.  1.
         25    2    1    2    0    0  0.12738164802E+03  0.24092327024E+02 -0.12852669468E+03  0.22129867331E+03  0.12508983608E+03 0.  0.
          5    1    3    3  502    0  0.47457863456E+02 -0.51163265869E+02 -0.57069566184E+02  0.90245976988E+02  0.41800000000E+01 0. -1.
         -5    1    3    3    0  502  0.79923784559E+02  0.75255592893E+02 -0.71457128494E+02  0.13105269632E+03  0.41800000000E+01 0. -1.
        -11    1    1    2    0    0 -0.93682116884E+02 -0.19691969114E+02 -0.70849431549E+02  0.11909556928E+03  0.00000000000E+00 0. -1.
         11    1    1    2    0    0 -0.33699531131E+02 -0.44003579097E+01 -0.14951156137E+03  0.15332556386E+03  0.00000000000E+00 0.  1.
</event>
<event>
 7    1  0.2499014E-009  0.8053782E+02  0.7561462E-02  0.1327532E+00
         -2   -1    0    0    0  501 -0.00000000000E+00  0.00000000000E+00  0.33245028052E+03  0.33245028052E+03  0.00000000000E+00 0. -1.
          2   -1    0    0  501    0  0.00000000000E+00 -0.00000000000E+00 -0.46331647302E+02  0.46331647302E+02  0.00000000000E+00 0.  1.
         25    2    1    2    0    0  0.29361391488E+02 -0.44182552709E+02  0.16017177566E+03  0.21003995139E+03  0.12509034411E+03 0.  0.
          5    1    3    3  502    0  0.22511000035E+01  0.21882525883E+02  0.13081391180E+03  0.13271648093E+03  0.41800000000E+01 0.  1.
         -5    1    3    3    0  502  0.27110291484E+02 -0.66065078592E+02  0.29357863852E+02  0.77323470458E+02  0.41800000000E+01 0.  1.
        -11    1    1    2    0    0  0.10602277432E+02  0.94969249992E+01 -0.13484441535E+02  0.19606887430E+02  0.00000000000E+00 0.  1.
         11    1    1    2    0    0 -0.39963668920E+02  0.34685627710E+02  0.13943129910E+03  0.14913508900E+03  0.00000000000E+00 0. -1.
</event>
<event>
 7    1  0.2499014E-009  0.1037925E+03  0.7561462E-02  0.1272517E+00
         -2   -1    0    0    0  501 -0.00000000000E+00  0.00000000000E+00  0.27905732019E+03  0.27905732019E+03  0.00000000000E+00 0.  1.
          2   -1    0    0  501    0  0.00000000000E+00 -0.00000000000E+00 -0.58138263918E+02  0.58138263918E+02  0.00000000000E+00 0. -1.
         25    2    1    2    0    0  0.12415620468E+02  0.26023163132E+02  0.19937959364E+03  0.23713253524E+03  0.12509302243E+03 0.  0.
          5    1    3    3  502    0  0.57138105553E+02 -0.12763808685E+01  0.16412552664E+03  0.17384203505E+03  0.41800000000E+01 0. -1.
         -5    1    3    3    0  502 -0.44722485085E+02  0.27299544001E+02  0.35254066993E+02  0.63290500191E+02  0.41800000000E+01 0. -1.
        -11    1    1    2    0    0 -0.47825921106E+02  0.81396814840E+01  0.10759061686E+02  0.49692359097E+02  0.00000000000E+00 0.  1.
         11    1    1    2    0    0  0.35410300638E+02 -0.34162844616E+02  0.10780400951E+02  0.50370689773E+02  0.00000000000E+00 0. -1.
</event>
<event>
 7    1  0.2499014E-009  0.1358349E+03  0.7561462E-02  0.1219046E+00
         -3   -1    0    0    0  501 -0.00000000000E+00  0.00000000000E+00  0.10548710015E+03  0.10548710015E+03  0.00000000000E+00 0. -1.
          3   -1    0    0  501    0  0.00000000000E+00 -0.00000000000E+00 -0.22023340546E+03  0.22023340546E+03  0.00000000000E+00 0.  1.
         25    2    1    2    0    0  0.69668498265E+02  0.56660392999E+02 -0.12216814400E+03  0.19656444839E+03  0.12509367360E+03 0.  0.
          5    1    3    3  502    0 -0.45583591596E+01  0.68478163770E+02 -0.23933370563E+02  0.72803270380E+02  0.41800000000E+01 0. -1.
         -5    1    3    3    0  502  0.74226857425E+02 -0.11817770771E+02 -0.98234773441E+02  0.12376117801E+03  0.41800000000E+01 0. -1.
        -11    1    1    2    0    0  0.13312923319E+02 -0.41106402256E+02 -0.61555780520E+01  0.43644717606E+02  0.00000000000E+00 0.  1.
         11    1    1    2    0    0 -0.82981421584E+02 -0.15553990743E+02  0.13577416745E+02  0.85511339608E+02  0.00000000000E+00 0. -1.
</event>
<event>
 7    1  0.2499014E-009  0.1731247E+03  0.7561462E-02  0.1174628E+00
         -2   -1    0    0    0  501 -0.00000000000E+00  0.00000000000E+00  0.27887425049E+03  0.27887425049E+03  0.00000000000E+00 0.  1.
          2   -1    0    0  501    0  0.00000000000E+00 -0.00000000000E+00 -0.12888999241E+03  0.12888999241E+03  0.00000000000E+00 0. -1.
         25    2    1    2    0    0 -0.11086212312E+03 -0.10788526502E+03  0.94667820556E+02  0.22031960110E+03  0.12509632140E+03 0.  0.
          5    1    3    3  502    0 -0.12326137952E+03 -0.99786310410E+02  0.11418573214E+03  0.19546490542E+03  0.41800000000E+01 0. -1.
         -5    1    3    3    0  502  0.12399256397E+02 -0.80989546137E+01 -0.19517911582E+02  0.24854695684E+02  0.41800000000E+01 0. -1.
        -11    1    1    2    0    0  0.59921838359E+02  0.84802757942E+01  0.44713765966E+02  0.75245349735E+02  0.00000000000E+00 0.  1.
         11    1    1    2    0    0  0.50940284763E+02  0.99404989230E+02  0.10602671556E+02  0.11219929206E+03  0.00000000000E+00 0. -1.
</event>
<event>
 7    1  0.2499014E-009  0.5846808E+02  0.7561462E-02  0.1404375E+00
         -1   -1    0    0    0  501 -0.00000000000E+00  0.00000000000E+00  0.66396153171E+03  0.66396153171E+03  0.00000000000E+00 0.  1.
          1   -1    0    0  501    0  0.00000000000E+00 -0.00000000000E+00 -0.26068651399E+02  0.26068651399E+02  0.00000000000E+00 0. -1.
         25    2    1    2    0    0 -0.15120409003E+01 -0.37545604014E+01  0.54662512511E+03  0.56077134728E+03  0.12509633702E+03 0.  0.
          5    1    3    3  502    0  0.10880911051E+02 -0.26229182311E+02  0.23762409062E+02  0.37262430334E+02  0.41800000000E+01 0.  1.
         -5    1    3    3    0  502 -0.12392951951E+02  0.22474621909E+02  0.52286271604E+03  0.52350891694E+03  0.41800000000E+01 0.  1.
        -11    1    1    2    0    0  0.24147757545E+02 -0.18551327013E+02  0.92572986365E+02  0.97452674324E+02  0.00000000000E+00 0.  1.
         11    1    1    2    0    0 -0.22635716645E+02  0.22305887415E+02 -0.13052311623E+01  0.31806161507E+02  0.00000000000E+00 0. -1.
</event>
<event>
 7    1  0.2499014E-009  0.1133785E+03  0.7561462E-02  0.1254438E+00
         -2   -1    0    0    0  501 -0.00000000000E+00  0.00000000000E+00  0.31298182620E+03  0.31298182620E+03  0.00000000000E+00 0.  1.
          2   -1    0    0  501    0  0.00000000000E+00 -0.00000000000E+00 -0.41956221839E+02  0.41956221839E+02  0.00000000000E+00 0. -1.
         25    2    1    2    0    0 -0.88384383748E+00 -0.35626218293E+02  0.14821902877E+03  0.19719700184E+03  0.12509104058E+03 0.  0.
          5    1    3    3  502    0  0.57049611636E+02 -0.40564499629E+02  0.96351667099E+02  0.11916901011E+03  0.41800000000E+01 0.  1.
         -5    1    3    3    0  502 -0.57933455474E+02  0.49382813364E+01  0.51867361672E+02  0.78027991724E+02  0.41800000000E+01 0.  1.
        -11    1    1    2    0    0  0.45097374642E+02  0.69266616301E+01  0.66114973026E+02  0.80330202907E+02  0.00000000000E+00 0.  1.
         11    1    1    2    0    0 -0.44213530805E+02  0.28699556663E+02  0.56691602568E+02  0.77410843301E+02  0.00000000000E+00 0. -1.
</event>
<event>
 7    1  0.2499014E-009  0.1542738E+03  0.7561462E-02  0.1195318E+00
         -2   -1    0    0    0  501 -0.00000000000E+00  0.00000000000E+00  0.15261665511E+03  0.15261665511E+03  0.00000000000E+00 0.  1.
          2   -1    0    0  501    0  0.00000000000E+00 -0.00000000000E+00 -0.18676532170E+03  0.18676532170E+03  0.00000000000E+00 0. -1.
         25    2    1    2    0    0  0.25101307754E+02  0.12513471709E+03 -0.38550462671E+02  0.18281854687E+03  0.12509080635E+03 0.  0.
          5    1    3    3  502    0  0.20959446403E+02  0.14763892233E+03 -0.49410025104E+02  0.15714761456E+03  0.41800000000E+01 0. -1.
         -5    1    3    3    0  502  0.41418613513E+01 -0.22504205244E+02  0.10859562433E+02  0.25670932304E+02  0.41800000000E+01 0. -1.
        -11    1    1    2    0    0 -0.29507345221E+02 -0.34627469553E+02  0.38647201316E+02  0.59693812403E+02  0.00000000000E+00 0.  1.
         11    1    1    2    0    0  0.44060374672E+01 -0.90507247538E+02 -0.34245405233E+02  0.96869617542E+02  0.00000000000E+00 0. -1.
</event>
<event>
 7    1  0.2499014E-009  0.6700568E+02  0.7561462E-02  0.1370582E+00
         -2   -1    0    0    0  501 -0.00000000000E+00  0.00000000000E+00  0.32451497715E+02  0.32451497715E+02  0.00000000000E+00 0.  1.
          2   -1    0    0  501    0  0.00000000000E+00 -0.00000000000E+00 -0.47540427840E+03  0.47540427840E+03  0.00000000000E+00 0. -1.
         25    2    1    2    0    0  0.23741257676E+02 -0.63841962101E+01 -0.36091761097E+03  0.38277036500E+03  0.12508886898E+03 0.  0.
          5    1    3    3  502    0  0.27546274546E+02 -0.24225866003E+02 -0.36213774135E+03  0.36401498038E+03  0.41800000000E+01 0.  1.
         -5    1    3    3    0  502 -0.38050168702E+01  0.17841669793E+02  0.12201303879E+01  0.18755384628E+02  0.41800000000E+01 0.  1.
        -11    1    1    2    0    0 -0.50661616833E+02 -0.19512164282E+00 -0.15453191313E+02  0.52966391366E+02  0.00000000000E+00 0.  1.
         11    1    1    2    0    0  0.26920359158E+02  0.65793178529E+01 -0.66581978408E+02  0.72119019747E+02  0.00000000000E+00 0. -1.
</event>
<event>
 7    1  0.2499014E-009  0.2722775E+03  0.7561462E-02  0.1099983E+00
          1   -1    0    0  501    0  0.00000000000E+00  0.00000000000E+00  0.14747703202E+03  0.14747703202E+03  0.00000000000E+00 0. -1.
         -1   -1    0    0    0  501 -0.00000000000E+00 -0.00000000000E+00 -0.56962437784E+03  0.56962437784E+03  0.00000000000E+00 0.  1.
         25    2    1    2    0    0  0.22046898337E+03 -0.13831606161E+03 -0.29121869260E+03  0.41011579086E+03  0.12509488184E+03 0.  0.
          5    1    3    3  502    0  0.20360296219E+02  0.44865476150E+01  0.81043289781E+01  0.22755731581E+02  0.41800000000E+01 0. -1.
         -5    1    3    3    0  502  0.20010868715E+03 -0.14280260923E+03 -0.29932302158E+03  0.38736005928E+03  0.41800000000E+01 0. -1.
        -11    1    1    2    0    0 -0.19880083567E+03  0.78394816334E+02 -0.10623836477E+03  0.23865060159E+03  0.00000000000E+00 0.  1.
         11    1    1    2    0    0 -0.21668147699E+02  0.59921245277E+02 -0.24690288458E+02  0.68335017410E+02  0.00000000000E+00 0. -1.
</event>
<event>
 7    1  0.2499014E-009  0.1661069E+03  0.7561462E-02  0.1181970E+00
         -2   -1    0    0    0  501 -0.00000000000E+00  0.00000000000E+00  0.17313911734E+02  0.17313911734E+02  0.00000000000E+00 0.  1.
          2   -1    0    0  501    0  0.00000000000E+00 -0.00000000000E+00 -0.27307575521E+04  0.27307575521E+04  0.00000000000E+00 0. -1.
         25    2    1    2    0    0  0.12824828281E+03 -0.78556665719E+01 -0.22802623427E+04  0.22873024711E+04  0.12508760522E+03 0.  0.
          5    1    3    3  502    0  0.14919408943E+03  0.65738120771E+01 -0.17307741361E+04  0.17372100258E+04  0.41800000000E+01 0. -1.
         -5    1    3    3    0  502 -0.20945806613E+02 -0.14429478649E+02 -0.54948820664E+03  0.55009244524E+03  0.41800000000E+01 0. -1.
        -11    1    1    2    0    0 -0.14210760023E+03  0.23489418896E+01 -0.39257725654E+03  0.41751286199E+03  0.00000000000E+00 0.  1.
         11    1    1    2    0    0  0.13859317412E+02  0.55067246823E+01 -0.40604041066E+02  0.43256130742E+02  0.00000000000E+00 0. -1.
</event>
<event>
 7    1  0.2499014E-009  0.6112023E+02  0.7561462E-02  0.1393190E+00
         -2   -1    0    0    0  501 -0.00000000000E+00  0.00000000000E+00  0.79167475018E+02  0.79167475018E+02  0.00000000000E+00 0.  1.
          2   -1    0    0  501    0  0.00000000000E+00 -0.00000000000E+00 -0.19269071273E+03  0.19269071273E+03  0.00000000000E+00 0. -1.
         25    2    1    2    0    0 -0.15699372757E+02 -0.36193269895E+02 -0.13788762582E+02  0.13188420883E+03  0.12508753524E+03 0.  0.
          5    1    3    3  502    0 -0.22364563863E+01  0.17618222759E+01  0.53292053839E+02  0.53531496871E+02  0.41800000000E+01 0. -1.
         -5    1    3    3    0  502 -0.13462916370E+02 -0.37955092171E+02 -0.67080816421E+02  0.78352711955E+02  0.41800000000E+01 0. -1.
        -11    1    1    2    0    0 -0.17548010580E+02  0.39559839951E+02 -0.10279899727E+02  0.44481343849E+02  0.00000000000E+00 0.  1.
         11    1    1    2    0    0  0.33247383337E+02 -0.33665700555E+01 -0.89454575405E+02  0.95492635075E+02  0.00000000000E+00 0. -1.
</event>
<event>
 7    1  0.2499014E-009  0.1162670E+03  0.7561462E-02  0.1249386E+00
         -1   -1    0    0    0  501 -0.00000000000E+00  0.00000000000E+00  0.19160183086E+03  0.19160183086E+03  0.00000000000E+00 0.  1.
          1   -1    0    0  501    0  0.00000000000E+00 -0.00000000000E+00 -0.90302659448E+02  0.90302659448E+02  0.00000000000E+00 0. -1.
         25    2    1    2    0    0  0.19707809878E+02  0.56514657357E+02  0.96649914231E+02  0.16902650665E+03  0.12508576963E+03 0.  0.
          5    1    3    3  502    0 -0.42894112563E+02  0.15247373443E+02  0.79947963864E+02  0.92095258377E+02  0.41800000000E+01 0. -1.
         -5    1    3    3    0  502  0.62601922441E+02  0.41267283914E+02  0.16701950367E+02  0.76931248274E+02  0.41800000000E+01 0. -1.
        -11    1    1    2    0    0 -0.10539313978E+01 -0.80963378719E+02 -0.35610114901E+01  0.81048505648E+02  0.00000000000E+00 0. -1.
         11    1    1    2    0    0 -0.18653878481E+02  0.24448721362E+02  0.82102686702E+01  0.31829478008E+02  0.00000000000E+00 0.  1.
</event>
<event>
 7    1  0.2499014E-009  0.1036144E+03  0.7561462E-02  0.1272874E+00
         -1   -1    0    0    0  501 -0.00000000000E+00  0.00000000000E+00  0.27839148166E+02  0.27839148166E+02  0.00000000000E+00 0.  1.
          1   -1    0    0  501    0  0.00000000000E+00 -0.00000000000E+00 -0.50601519846E+03  0.50601519846E+03  0.00000000000E+00 0. -1.
         25    2    1    2    0    0  0.31738359279E+02 -0.97160517359E+01 -0.33930119627E+03  0.36314570129E+03  0.12509106067E+03 0.  0.
          5    1    3    3  502    0  0.15035801076E+02  0.47177234699E+02 -0.61550413626E+02  0.79105578851E+02  0.41800000000E+01 0. -1.
         -5    1    3    3    0  502  0.16702558203E+02 -0.56893286435E+02 -0.27775078265E+03  0.28404012244E+03  0.41800000000E+01 0. -1.
        -11    1    1    2    0    0 -0.26575322889E+02 -0.40048710045E+02 -0.54972148051E+02  0.73021120399E+02  0.00000000000E+00 0.  1.
         11    1    1    2    0    0 -0.51630363904E+01  0.49764761781E+02 -0.83902705965E+02  0.97687524936E+02  0.00000000000E+00 0. -1.
</event>
<event>
 7    1  0.2499014E-009  0.1160076E+03  0.7561462E-02  0.1249832E+00
          1   -1    0    0  501    0  0.00000000000E+00  0.00000000000E+00  0.67001547220E+03  0.67001547220E+03  0.00000000000E+00 0. -1.
         -1   -1    0    0    0  501 -0.00000000000E+00 -0.00000000000E+00 -0.27195872698E+02  0.27195872698E+02  0.00000000000E+00 0.  1.
         25    2    1    2    0    0  0.52458713300E+02  0.46961932253E+00  0.51397686361E+03  0.53157498844E+03  0.12509042674E+03 0.  0.
          5    1    3    3  502    0  0.84302052446E+02  0.30138587463E+02  0.29664206062E+03  0.30988571286E+03  0.41800000000E+01 0.  1.
         -5    1    3    3    0  502 -0.31843339147E+02 -0.29668968141E+02  0.21733480299E+03  0.22168927558E+03  0.41800000000E+01 0.  1.
        -11    1    1    2    0    0 -0.73705944871E+02 -0.11709064675E+02  0.71042759718E+02  0.10303757670E+03  0.00000000000E+00 0.  1.
         11    1    1    2    0    0  0.21247231571E+02  0.11239445352E+02  0.57799976172E+02  0.62598779755E+02  0.00000000000E+00 0. -1.
</event>
<event>
 7    1  0.2499014E-009  0.8588789E+02  0.7561462E-02  0.1313127E+00
          2   -1    0    0  501    0  0.00000000000E+00  0.00000000000E+00  0.10065692038E+04  0.10065692038E+04  0.00000000000E+00 0. -1.
         -2   -1    0    0    0  501 -0.00000000000E+00 -0.00000000000E+00 -0.13324057953E+02  0.13324057953E+02  0.00000000000E+00 0.  1.
         25    2    1    2    0    0 -0.95558643038E+01  0.21218289024E+02  0.71862111906E+03  0.72979818807E+03  0.12509017634E+03 0.  0.
          5    1    3    3  502    0 -0.33918780986E+00 -0.29173087313E+02  0.42461211962E+02  0.51687629013E+02  0.41800000000E+01 0.  1.
         -5    1    3    3    0  502 -0.92166764940E+01  0.50391376338E+02  0.67615990710E+03  0.67811055906E+03  0.41800000000E+01 0.  1.
        -11    1    1    2    0    0  0.10812734299E+02  0.33997287464E+02  0.14237788952E+03  0.14677940660E+03  0.00000000000E+00 0.  1.
         11    1    1    2    0    0 -0.12568699952E+01 -0.55215576488E+02  0.13224613724E+03  0.14331566706E+03  0.00000000000E+00 0. -1.
</event>
<event>
 7    1  0.2499014E-009  0.9267434E+02  0.7561462E-02  0.1296502E+00
         -2   -1    0    0    0  501 -0.00000000000E+00  0.00000000000E+00  0.22354631120E+03  0.22354631120E+03  0.00000000000E+00 0. -1.
          2   -1    0    0  501    0  0.00000000000E+00 -0.00000000000E+00 -0.55622385510E+02  0.55622385510E+02  0.00000000000E+00 0.  1.
         25    2    1    2    0    0 -0.38856160333E+01  0.21826690087E+02  0.80257103839E+02  0.15026650927E+03  0.12508924286E+03 0.  0.
          5    1    3    3  502    0  0.93100589018E+01 -0.33728414170E+02  0.85790983861E+02  0.92746150492E+02  0.41800000000E+01 0. -1.
         -5    1    3    3    0  502 -0.13195674935E+02  0.55555104257E+02 -0.55338800218E+01  0.57520358780E+02  0.41800000000E+01 0. -1.
        -11    1    1    2    0    0  0.85753106059E+01 -0.56863925621E+02  0.42297197296E+02  0.71386937798E+02  0.00000000000E+00 0.  1.
         11    1    1    2    0    0 -0.46896945726E+01  0.35037235534E+02  0.45369624559E+02  0.57515249645E+02  0.00000000000E+00 0. -1.
</event>
<event>
 7    1  0.2499014E-009  0.1009532E+03  0.7561462E-02  0.1278304E+00
          2   -1    0    0  501    0  0.00000000000E+00  0.00000000000E+00  0.66834300902E+03  0.66834300902E+03  0.00000000000E+00 0.  1.
         -2   -1    0    0    0  501 -0.00000000000E+00 -0.00000000000E+00 -0.33313397221E+02  0.33313397221E+02  0.00000000000E+00 0. -1.
         25    2    1    2    0    0 -0.10859675386E+02  0.61425929123E+02  0.53320070344E+03  0.55121793157E+03  0.12508853111E+03 0.  0.
          5    1    3    3  502    0 -0.53081596233E+02  0.70257369157E+02  0.25846069276E+03  0.27308085961E+03  0.41800000000E+01 0. -1.
         -5    1    3    3    0  502  0.42221920847E+02 -0.88314400341E+01  0.27474001068E+03  0.27813707196E+03  0.41800000000E+01 0. -1.
        -11    1    1    2    0    0  0.21404547055E+02 -0.27267630533E+02 -0.74535015232E+01  0.35457481502E+02  0.00000000000E+00 0. -1.
         11    1    1    2    0    0 -0.10544871669E+02 -0.34158298591E+02  0.10928240988E+03  0.11498099317E+03  0.00000000000E+00 0.  1.
</event>
<event>
 7    1  0.2499014E-009  0.1430530E+03  0.7561462E-02  0.1209279E+00
         -1   -1    0    0    0  501 -0.00000000000E+00  0.00000000000E+00  0.60614393200E+02  0.60614393200E+02  0.00000000000E+00 0.  1.
          1   -1    0    0  501    0  0.00000000000E+00 -0.00000000000E+00 -0.41977867616E+03  0.41977867616E+03  0.00000000000E+00 0. -1.
         25    2    1    2    0    0  0.73674913718E+02  0.49928311852E+02 -0.93552467832E+02  0.17977701065E+03  0.12508748972E+03 0.  0.
          5    1    3    3  502    0  0.88216731408E+02  0.77339018232E+02 -0.90678249191E+02  0.14833587805E+03  0.41800000000E+01 0.  1.
         -5    1    3    3    0  502 -0.14541817690E+02 -0.27410706380E+02 -0.28742186418E+01  0.31441132594E+02  0.41800000000E+01 0.  1.
        -11    1    1    2    0    0 -0.15420831859E+01 -0.63910074777E+02 -0.15668311655E+03  0.16922315057E+03  0.00000000000E+00 0. -1.
         11    1    1    2    0    0 -0.72132830532E+02  0.13981762925E+02 -0.10892869857E+03  0.13139290813E+03  0.00000000000E+00 0.  1.
</event>
<event>
 7    1  0.2499014E-009  0.8788368E+02  0.7561462E-02  0.1308059E+00
         -3   -1    0    0    0  501 -0.00000000000E+00  0.00000000000E+00  0.16721281881E+03  0.16721281881E+03  0.00000000000E+00 0.  1.
          3   -1    0    0  501    0  0.00000000000E+00 -0.00000000000E+00 -0.81690513473E+02  0.81690513473E+02  0.00000000000E+00 0. -1.
         25    2    1    2    0    0 -0.21532644450E+01  0.12632470585E+02  0.19884158453E+01  0.12575951779E+03  0.12508911486E+03 0.  0.
          5    1    3    3  502    0 -0.40502736143E+02 -0.18818846058E+02 -0.40411485115E+02  0.60375335455E+02  0.41800000000E+01 0.  1.
         -5    1    3    3    0  502  0.38349471698E+02  0.31451316643E+02  0.42399900961E+02  0.65384182335E+02  0.41800000000E+01 0.  1.
        -11    1    1    2    0    0  0.35444978142E+02 -0.27318624334E+02  0.72359275636E+02  0.85079483318E+02  0.00000000000E+00 0.  1.
         11    1    1    2    0    0 -0.33291713697E+02  0.14686153749E+02  0.11174613853E+02  0.38064331172E+02  0.00000000000E+00 0. -1.
</event>
<event>
 7    1  0.2499014E-009  0.1278914E+03  0.7561462E-02  0.1230618E+00
          2   -1    0    0  501    0  0.00000000000E+00  0.00000000000E+00  0.44687298110E+03  0.44687298110E+03  0.00000000000E+00 0. -1.
         -2   -1    0    0    0  501 -0.00000000000E+00 -0.00000000000E+00 -0.47648563989E+02  0.47648563989E+02  0.00000000000E+00 0.  1.
         25    2    1    2    0    0  0.35770339806E+02 -0.87937368067E+02  0.17258210791E+03  0.23333505856E+03  0.12509263636E+03 0.  0.
          5    1    3    3  502    0  0.79089091297E+02 -0.76672575900E+02  0.13797920808E+03  0.17660549969E+03  0.41800000000E+01 0. -1.
         -5    1    3    3    0  502 -0.43318751492E+02 -0.11264792167E+02  0.34602899824E+02  0.56729558870E+02  0.41800000000E+01 0. -1.
        -11    1    1    2    0    0  0.18322400688E+01  0.38200839584E+02  0.15907591296E+02  0.41421162580E+02  0.00000000000E+00 0.  1.
         11    1    1    2    0    0 -0.37602579875E+02  0.49736528483E+02  0.21073471790E+03  0.21976532394E+03  0.00000000000E+00 0. -1.
</event>
<event>
 7    1  0.2499014E-009  0.1208365E+03  0.7561462E-02  0.1241723E+00
         -3   -1    0    0    0  501 -0.00000000000E+00  0.00000000000E+00  0.31309506317E+03  0.31309506317E+03  0.00000000000E+00 0.  1.
          3   -1    0    0  501    0  0.00000000000E+00 -0.00000000000E+00 -0.62842971722E+02  0.62842971722E+02  0.00000000000E+00 0. -1.
         25    2    1    2    0    0  0.40363702018E+02  0.64808292519E+02  0.19775705520E+03  0.24613156721E+03  0.12507418710E+03 0.  0.
          5    1    3    3  502    0  0.11740243904E+02 -0.27853765459E+02  0.58499329941E+01  0.31070238062E+02  0.41800000000E+01 0. -1.
         -5    1    3    3    0  502  0.28623458115E+02  0.92662057979E+02  0.19190712220E+03  0.21506132915E+03  0.41800000000E+01 0. -1.
        -11    1    1    2    0    0 -0.78047742011E+01 -0.78411994004E+02  0.52195875900E+02  0.94518594810E+02  0.00000000000E+00 0. -1.
         11    1    1    2    0    0 -0.32558927817E+02  0.13603701484E+02  0.29916034806E+00  0.35287872869E+02  0.00000000000E+00 0.  1.
</event>
<event>
 7    1  0.2499014E-009  0.8300631E+02  0.7561462E-02  0.1320730E+00
         -1   -1    0    0    0  501 -0.00000000000E+00  0.00000000000E+00  0.20483826461E+03  0.20483826461E+03  0.00000000000E+00 0.  1.
          1   -1    0    0  501    0  0.00000000000E+00 -0.00000000000E+00 -0.74516616386E+02  0.74516616386E+02  0.00000000000E+00 0. -1.
         25    2    1    2    0    0  0.46281208251E+02  0.19839170477E+02  0.10588430560E+03  0.17145544347E+03  0.12509972023E+03 0.  0.
          5    1    3    3  502    0  0.50565197590E+02  0.21166400127E+02  0.13286363899E+03  0.14378829809E+03  0.41800000000E+01 0.  1.
         -5    1    3    3    0  502 -0.42839893389E+01 -0.13272296500E+01 -0.26979333392E+02  0.27667145380E+02  0.41800000000E+01 0.  1.
        -11    1    1    2    0    0 -0.13799951594E+02  0.36972836539E+02  0.60655557347E+01  0.39927688039E+02  0.00000000000E+00 0. -1.
         11    1    1    2    0    0 -0.32481256657E+02 -0.56812007016E+02  0.18371786897E+02  0.67971749492E+02  0.00000000000E+00 0.  1.
</event>
<event>
 7    1  0.2499014E-009  0.1382707E+03  0.7561462E-02  0.1215675E+00
          1   -1    0    0  501    0  0.00000000000E+00  0.00000000000E+00  0.70957252467E+03  0.70957252467E+03  0.00000000000E+00 0. -1.
         -1   -1    0    0    0  501 -0.00000000000E+00 -0.00000000000E+00 -0.35925287173E+02  0.35925287173E+02  0.00000000000E+00 0.  1.
         25    2    1    2    0    0 -0.84495576479E+02 -0.78071139660E+02  0.42842661647E+03  0.46090209013E+03  0.12508703249E+03 0.  0.
          5    1    3    3  502    0 -0.94009892699E+02 -0.60625031719E+02  0.42598701665E+03  0.44044939000E+03  0.41800000000E+01 0.  1.
         -5    1    3    3    0  502  0.95143162198E+01 -0.17446107940E+02  0.24395998177E+01  0.20452700131E+02  0.41800000000E+01 0.  1.
        -11    1    1    2    0    0  0.88527729910E+01  0.67309923971E+02  0.12167154281E+03  0.13933040509E+03  0.00000000000E+00 0.  1.
         11    1    1    2    0    0  0.75642803488E+02  0.10761215689E+02  0.12354907822E+03  0.14526531662E+03  0.00000000000E+00 0. -1.
</event>
<event>
 7    1  0.2499014E-009  0.1019259E+03  0.7561462E-02  0.1276297E+00
         -1   -1    0    0    0  501 -0.00000000000E+00  0.00000000000E+00  0.75796620761E+02  0.75796620761E+02  0.00000000000E+00 0.  1.
          1   -1    0    0  501    0  0.00000000000E+00 -0.00000000000E+00 -0.21095730629E+03  0.21095730629E+03  0.00000000000E+00 0. -1.
         25    2    1    2    0    0  0.61408815645E+02  0.14541963622E+02 -0.96486511855E+02  0.17011508453E+03  0.12508790377E+03 0.  0.
          5    1    3    3  502    0 -0.58548184538E+00 -0.22247434158E+02 -0.95239775541E+02  0.97894731016E+02  0.41800000000E+01 0.  1.
         -5    1    3    3    0  502  0.61994297491E+02  0.36789397781E+02 -0.12467363140E+01  0.72220353515E+02  0.41800000000E+01 0.  1.
        -11    1    1    2    0    0 -0.12206358477E+02 -0.47980130011E+02 -0.96234860241E+01  0.50435102323E+02  0.00000000000E+00 0.  1.
         11    1    1    2    0    0 -0.49202457169E+02  0.33438166389E+02 -0.29050687647E+02  0.66203740194E+02  0.00000000000E+00 0. -1.
</event>
<event>
 7    1  0.3011991E-009  0.1344565E+03  0.7561462E-02  0.1220989E+00
          2   -1    0    0  501    0  0.00000000000E+00  0.00000000000E+00  0.18471099289E+03  0.18471099289E+03  0.00000000000E+00 0. -1.
         -2   -1    0    0    0  501 -0.00000000000E+00 -0.00000000000E+00 -0.12855903074E+03  0.12855903074E+03  0.00000000000E+00 0.  1.
         25    2    1    2    0    0  0.82301048388E+02 -0.71441515328E+02  0.29501358527E+02  0.16851434408E+03  0.12509756724E+03 0.  0.
          5    1    3    3  502    0  0.10100385282E+02  0.17280250802E+02  0.48362121911E+02  0.52507067014E+02  0.41800000000E+01 0.  1.
         -5    1    3    3    0  502  0.72200663106E+02 -0.88721766129E+02 -0.18860763384E+02  0.11600727707E+03  0.41800000000E+01 0.  1.
        -11    1    1    2    0    0  0.67624859568E+01  0.38424860666E+02  0.30756476440E+02  0.49680599599E+02  0.00000000000E+00 0.  1.
         11    1    1    2    0    0 -0.89063534345E+02  0.33016654662E+02 -0.41058728087E+01  0.95075079945E+02  0.00000000000E+00 0. -1.
</event>
<event>
 7    1  0.2499014E-009  0.9293125E+02  0.7561462E-02  0.1295905E+00
         -1   -1    0    0    0  501 -0.00000000000E+00  0.00000000000E+00  0.54248238497E+02  0.54248238497E+02  0.00000000000E+00 0.  1.
          1   -1    0    0  501    0  0.00000000000E+00 -0.00000000000E+00 -0.22214043323E+03  0.22214043323E+03  0.00000000000E+00 0. -1.
         25    2    1    2    0    0  0.25341025166E+02 -0.71876008262E+00 -0.90533780262E+02  0.15648244107E+03  0.12509078633E+03 0.  0.
          5    1    3    3  502    0 -0.32143735713E+01 -0.53884581371E+02 -0.88860988003E+01  0.54866341767E+02  0.41800000000E+01 0. -1.
         -5    1    3    3    0  502  0.28555398737E+02  0.53165821289E+02 -0.81647681461E+02  0.10161609931E+03  0.41800000000E+01 0. -1.
        -11    1    1    2    0    0  0.14999383044E+02 -0.20692004159E+02  0.47091230822E+01  0.25986849906E+02  0.00000000000E+00 0.  1.
         11    1    1    2    0    0 -0.40340408210E+02  0.21410764242E+02 -0.82067537557E+02  0.93919380751E+02  0.00000000000E+00 0. -1.
</event>
<event>
 7    1  0.2499014E-009  0.1453430E+03  0.7561462E-02  0.1206315E+00
         -1   -1    0    0    0  501 -0.00000000000E+00  0.00000000000E+00  0.65533945990E+03  0.65533945990E+03  0.00000000000E+00 0.  1.
          1   -1    0    0  501    0  0.00000000000E+00 -0.00000000000E+00 -0.37334639825E+02  0.37334639825E+02  0.00000000000E+00 0. -1.
         25    2    1    2    0    0  0.10229663162E+03 -0.30826475436E+02  0.40990789152E+03  0.44168504507E+03  0.12508527922E+03 0.  0.
          5    1    3    3  502    0 -0.12875320886E+02  0.30736834974E+02  0.94159448317E+02  0.99970000597E+02  0.41800000000E+01 0. -1.
         -5    1    3    3    0  502  0.11517195251E+03 -0.61563310410E+02  0.31574844321E+03  0.34171504448E+03  0.41800000000E+01 0. -1.
        -11    1    1    2    0    0 -0.47142497478E+01 -0.17089754760E+02  0.84698924571E+02  0.86534338224E+02  0.00000000000E+00 0.  1.
         11    1    1    2    0    0 -0.97582381875E+02  0.47916230196E+02  0.12339800398E+03  0.16445471643E+03  0.00000000000E+00 0. -1.
</event>
<event>
 7    1  0.2499014E-009  0.1151116E+03  0.7561462E-02  0.1251386E+00
          2   -1    0    0  501    0  0.00000000000E+00  0.00000000000E+00  0.66472990857E+03  0.66472990857E+03  0.00000000000E+00 0. -1.
         -2   -1    0    0    0  501 -0.00000000000E+00 -0.00000000000E+00 -0.21536208821E+02  0.21536208821E+02  0.00000000000E+00 0.  1.
         25    2    1    2    0    0  0.19479359449E+02 -0.43636904195E+02  0.40190705292E+03  0.42362627719E+03  0.12508524568E+03 0.  0.
          5    1    3    3  502    0  0.18196066137E+02 -0.85610174582E+02  0.31585491055E+03  0.32778345860E+03  0.41800000000E+01 0.  1.
         -5    1    3    3    0  502  0.12832933124E+01  0.41973270387E+02  0.86052142376E+02  0.95842818595E+02  0.41800000000E+01 0.  1.
        -11    1    1    2    0    0 -0.40790820960E+02  0.60677448417E+02  0.14261000186E+03  0.16025996521E+03  0.00000000000E+00 0.  1.
         11    1    1    2    0    0  0.21311461510E+02 -0.17040544221E+02  0.98676644975E+02  0.10237987499E+03  0.00000000000E+00 0. -1.
</event>
<event>
 7    1  0.2999430E-009  0.8631804E+02  0.7561462E-02  0.1312021E+00
          2   -1    0    0  501    0  0.00000000000E+00  0.00000000000E+00  0.48927235705E+03  0.48927235705E+03  0.00000000000E+00 0. -1.
         -2   -1    0    0    0  501 -0.00000000000E+00 -0.00000000000E+00 -0.30076005434E+02  0.30076005434E+02  0.00000000000E+00 0.  1.
         25    2    1    2    0    0  0.14602009424E+02 -0.10218059692E+02  0.36984649372E+03  0.39083223941E+03  0.12508310448E+03 0.  0.
          5    1    3    3  502    0  0.73211980599E+00 -0.49102492501E+02  0.57458457344E+02  0.75700313669E+02  0.41800000000E+01 0.  1.
         -5    1    3    3    0  502  0.13869889618E+02  0.38884432810E+02  0.31238803637E+03  0.31513192574E+03  0.41800000000E+01 0.  1.
        -11    1    1    2    0    0 -0.32456607675E+02  0.37283254159E+02  0.22693016774E+02  0.54391593401E+02  0.00000000000E+00 0.  1.
         11    1    1    2    0    0  0.17854598251E+02 -0.27065194467E+02  0.66656841122E+02  0.74124529669E+02  0.00000000000E+00 0. -1.
</event>
<event>
 7    1  0.2499014E-009  0.2096126E+03  0.7561462E-02  0.1141873E+00
          1   -1    0    0  501    0  0.00000000000E+00  0.00000000000E+00  0.13244623736E+03  0.13244623736E+03  0.00000000000E+00 0. -1.
         -1   -1    0    0    0  501 -0.00000000000E+00 -0.00000000000E+00 -0.36671162059E+03  0.36671162059E+03  0.00000000000E+00 0.  1.
         25    2    1    2    0    0  0.18070907611E+03 -0.50811179859E+02 -0.78868200605E+02  0.23896726123E+03  0.12509041806E+03 0.  0.
          5    1    3    3  502    0 -0.21414712288E+01 -0.33976667819E+02 -0.37256607373E+02  0.50641159624E+02  0.41800000000E+01 0.  1.
         -5    1    3    3    0  502  0.18285054733E+03 -0.16834512040E+02 -0.41611593231E+02  0.18832610161E+03  0.41800000000E+01 0.  1.
        -11    1    1    2    0    0 -0.69658186938E+02  0.57034412595E+02 -0.35850728110E+02  0.96904395842E+02  0.00000000000E+00 0.  1.
         11    1    1    2    0    0 -0.11105088917E+03 -0.62232327352E+01 -0.11954645451E+03  0.16328620088E+03  0.00000000000E+00 0. -1.
</event>
<event>
 7    1  0.2499014E-009  0.1675288E+03  0.7561462E-02  0.1180450E+00
         -1   -1    0    0    0  501 -0.00000000000E+00  0.00000000000E+00  0.16544612848E+03  0.16544612848E+03  0.00000000000E+00 0.  1.
          1   -1    0    0  501    0  0.00000000000E+00 -0.00000000000E+00 -0.19236175179E+03  0.19236175179E+03  0.00000000000E+00 0. -1.
         25    2    1    2    0    0 -0.13449802139E+03  0.39051850642E+02 -0.14289246652E+02  0.18832686815E+03  0.12509221358E+03 0.  0.
          5    1    3    3  502    0 -0.15507227971E+03  0.17164778168E+02 -0.34304168265E+01  0.15611304142E+03  0.41800000000E+01 0. -1.
         -5    1    3    3    0  502  0.20574258317E+02  0.21887072474E+02 -0.10858829826E+02  0.32213826720E+02  0.41800000000E+01 0.  1.
        -11    1    1    2    0    0  0.60854796244E+02 -0.43613443064E+02  0.33969411815E+02  0.82215324489E+02  0.00000000000E+00 0.  1.
         11    1    1    2    0    0  0.73643225146E+02  0.45615924221E+01 -0.46595788465E+02  0.87265687633E+02  0.00000000000E+00 0. -1.
</event>
<event>
 7    1  0.2499014E-009  0.3045789E+03  0.7561462E-02  0.1082974E+00
         -1   -1    0    0    0  501 -0.00000000000E+00  0.00000000000E+00  0.37430886752E+03  0.37430886752E+03  0.00000000000E+00 0.  1.
          1   -1    0    0  501    0  0.00000000000E+00 -0.00000000000E+00 -0.32663676850E+03  0.32663676850E+03  0.00000000000E+00 0. -1.
         25    2    1    2    0    0 -0.20931679845E+03 -0.19868531931E+03  0.18916382968E+03  0.36704281648E+03  0.12509235168E+03 0.  0.
          5    1    3    3  502    0 -0.16197580265E+03 -0.74592958037E+02  0.81937843370E+02  0.19629455573E+03  0.41800000000E+01 0.  1.
         -5    1    3    3    0  502 -0.47340995800E+02 -0.12409236128E+03  0.10722598631E+03  0.17074826076E+03  0.41800000000E+01 0.  1.
        -11    1    1    2    0    0  0.11656921489E+03  0.60118289864E+02 -0.33924724483E+02  0.13547500717E+03  0.00000000000E+00 0. -1.
         11    1    1    2    0    0  0.92747583555E+02  0.13856702945E+03 -0.10756700618E+03  0.19842781237E+03  0.00000000000E+00 0.  1.
</event>
<event>
 7    1  0.2499014E-009  0.1217595E+03  0.7561462E-02  0.1240222E+00
          1   -1    0    0  501    0  0.00000000000E+00  0.00000000000E+00  0.10656670137E+04  0.10656670137E+04  0.00000000000E+00 0. -1.
         -1   -1    0    0    0  501 -0.00000000000E+00 -0.00000000000E+00 -0.40626607747E+02  0.40626607747E+02  0.00000000000E+00 0.  1.
         25    2    1    2    0    0  0.83729059558E+02  0.43435107552E+02  0.93648030147E+03  0.94949458352E+03  0.12508974817E+03 0.  0.
          5    1    3    3  502    0  0.57035524805E+02 -0.14769232385E+02  0.16325619536E+03  0.17361232398E+03  0.41800000000E+01 0.  1.
         -5    1    3    3    0  502  0.26693534753E+02  0.58204339937E+02  0.77322410611E+03  0.77588225953E+03  0.41800000000E+01 0.  1.
        -11    1    1    2    0    0 -0.55887428647E+02  0.12978376699E+02  0.13648177046E+02  0.58975551538E+02  0.00000000000E+00 0. -1.
         11    1    1    2    0    0 -0.27841630911E+02 -0.56413484251E+02  0.74911927415E+02  0.97823486373E+02  0.00000000000E+00 0.  1.
</event>
<event>
 7    1  0.2499014E-009  0.1096023E+03  0.7561462E-02  0.1261308E+00
         -1   -1    0    0    0  501 -0.00000000000E+00  0.00000000000E+00  0.86707679298E+02  0.86707679298E+02  0.00000000000E+00 0.  1.
          1   -1    0    0  501    0  0.00000000000E+00 -0.00000000000E+00 -0.30652106689E+03  0.30652106689E+03  0.00000000000E+00 0. -1.
         25    2    1    2    0    0 -0.72268182531E+02  0.37880391109E+02 -0.22410236140E+03  0.26930807521E+03  0.12508939506E+03 0.  0.
          5    1    3    3  502    0 -0.70584621687E+02 -0.24593719345E+02 -0.17288351003E+03  0.18839644447E+03  0.41800000000E+01 0.  1.
         -5    1    3    3    0  502 -0.16835608440E+01  0.62474110454E+02 -0.51218851368E+02  0.80911630743E+02  0.41800000000E+01 0.  1.
        -11    1    1    2    0    0  0.23032184805E+02 -0.98598406840E+01  0.46806078034E+02  0.53089612318E+02  0.00000000000E+00 0.  1.
         11    1    1    2    0    0  0.49235997726E+02 -0.28020550425E+02 -0.42517104231E+02  0.70831058656E+02  0.00000000000E+00 0. -1.
</event>
<event>
 7    1  0.2499014E-009  0.1153463E+03  0.7561462E-02  0.1250978E+00
          4   -1    0    0  501    0  0.00000000000E+00  0.00000000000E+00  0.34667626012E+03  0.34667626012E+03  0.00000000000E+00 0.  1.
         -4   -1    0    0    0  501 -0.00000000000E+00 -0.00000000000E+00 -0.41524797562E+02  0.41524797562E+02  0.00000000000E+00 0. -1.
         25    2    1    2    0    0 -0.37735262450E+02  0.25945709747E+02  0.14823256191E+03  0.19929370892E+03  0.12509180675E+03 0.  0.
          5    1    3    3  502    0  0.41766510821E+02  0.21596627729E+02  0.86181314297E+02  0.98262643407E+02  0.41800000000E+01 0. -1.
         -5    1    3    3    0  502 -0.79501773271E+02  0.43490820186E+01  0.62051247618E+02  0.10103106551E+03  0.41800000000E+01 0. -1.
        -11    1    1    2    0    0  0.75013442758E+01  0.34962345832E+02  0.69462507955E+02  0.78126025135E+02  0.00000000000E+00 0. -1.
         11    1    1    2    0    0  0.30233918175E+02 -0.60908055580E+02  0.87456392690E+02  0.11078132363E+03  0.00000000000E+00 0.  1.
</event>
<event>
 7    1  0.2499014E-009  0.2379071E+03  0.7561462E-02  0.1121195E+00
          2   -1    0    0  501    0  0.00000000000E+00  0.00000000000E+00  0.43683230022E+03  0.43683230022E+03  0.00000000000E+00 0. -1.
         -2   -1    0    0    0  501 -0.00000000000E+00 -0.00000000000E+00 -0.14712279977E+03  0.14712279977E+03  0.00000000000E+00 0.  1.
         25    2    1    2    0    0 -0.21861693437E+03  0.15820351411E+02  0.74104649628E+02  0.26301661175E+03  0.12507034601E+03 0.  0.
          5    1    3    3  502    0 -0.30589678822E+02 -0.44270334613E+02  0.66965579121E+01  0.54386646018E+02  0.41800000000E+01 0. -1.
         -5    1    3    3    0  502 -0.18802725554E+03  0.60090686024E+02  0.67408091716E+02  0.20862996574E+03  0.41800000000E+01 0. -1.
        -11    1    1    2    0    0  0.18912356869E+03  0.34775377930E+01  0.13330452056E+03  0.23140854069E+03  0.00000000000E+00 0.  1.
         11    1    1    2    0    0  0.29493365679E+02 -0.19297889204E+02  0.82300330262E+02  0.89529947549E+02  0.00000000000E+00 0. -1.
</event>
<event>
 7    1  0.2499014E-009  0.9770987E+02  0.7561462E-02  0.1285187E+00
          3   -1    0    0  501    0  0.00000000000E+00  0.00000000000E+00  0.31650178947E+03  0.31650178947E+03  0.00000000000E+00 0. -1.
         -3   -1    0    0    0  501 -0.00000000000E+00 -0.00000000000E+00 -0.41001763975E+02  0.41001763975E+02  0.00000000000E+00 0.  1.
         25    2    1    2    0    0 -0.17856656497E+02 -0.36260182280E+02  0.13099893234E+03  0.18558740204E+03  0.12509317535E+03 0.  0.
          5    1    3    3  502    0  0.41186060046E+02 -0.31174762360E+01  0.41290463845E+01  0.41719679100E+02  0.41800000000E+01 0.  1.
         -5    1    3    3    0  502 -0.59042716543E+02 -0.33142706044E+02  0.12686988595E+03  0.14386772294E+03  0.41800000000E+01 0.  1.
        -11    1    1    2    0    0  0.19080989198E+02 -0.21241081069E+02  0.82712500122E+02  0.87502144831E+02  0.00000000000E+00 0. -1.
         11    1    1    2    0    0 -0.12243327006E+01  0.57501263348E+02  0.61788593032E+02  0.84414006575E+02  0.00000000000E+00 0.  1.
</event>
<event>
 7    1  0.2499014E-009  0.1105529E+03  0.7561462E-02  0.1259549E+00
          1   -1    0    0  501    0  0.00000000000E+00  0.00000000000E+00  0.60188591638E+03  0.60188591638E+03  0.00000000000E+00 0.  1.
         -1   -1    0    0    0  501 -0.00000000000E+00 -0.00000000000E+00 -0.23051707559E+02  0.23051707559E+02  0.00000000000E+00 0. -1.
         25    2    1    2    0    0 -0.10638806299E+02 -0.49119402693E+02  0.36472511542E+03  0.38884182715E+03  0.12509059439E+03 0.  0.
          5    1    3    3  502    0 -0.57851505924E+02  0.71493360407E+01  0.12317015122E+03  0.13633146481E+03  0.41800000000E+01 0.  1.
         -5    1    3    3    0  502  0.47212699625E+02 -0.56268738734E+02  0.24155496419E+03  0.25251036234E+03  0.41800000000E+01 0.  1.
        -11    1    1    2    0    0  0.41836772603E+02  0.36208281326E+02  0.76542646840E+02  0.94446450244E+02  0.00000000000E+00 0.  1.
         11    1    1    2    0    0 -0.31197966305E+02  0.12911121367E+02  0.13756644656E+03  0.14164934655E+03  0.00000000000E+00 0. -1.
</event>
<event>
 7    1  0.2499014E-009  0.1279865E+03  0.7561462E-02  0.1230474E+00
         -1   -1    0    0    0  501 -0.00000000000E+00  0.00000000000E+00  0.63355483111E+02  0.63355483111E+02  0.00000000000E+00 0.  1.
          1   -1    0    0  501    0  0.00000000000E+00 -0.00000000000E+00 -0.49541785084E+03  0.49541785084E+03  0.00000000000E+00 0. -1.
         25    2    1    2    0    0 -0.92449794942E+02 -0.26785202492E+02 -0.70557725681E+02  0.17288842475E+03  0.12509037974E+03 0.  0.
          5    1    3    3  502    0 -0.80833686276E+02 -0.55784712949E+02 -0.30097463791E+01  0.98349123072E+02  0.41800000000E+01 0. -1.
         -5    1    3    3    0  502 -0.11616108666E+02  0.28999510457E+02 -0.67547979302E+02  0.74539301681E+02  0.41800000000E+01 0. -1.
        -11    1    1    2    0    0  0.69910979707E+02 -0.21269015513E+02 -0.27367527103E+03  0.28326325225E+03  0.00000000000E+00 0. -1.
         11    1    1    2    0    0  0.22538815235E+02  0.48054218005E+02 -0.87829371020E+02  0.10262165694E+03  0.00000000000E+00 0.  1.
</event>
<event>
 7    1  0.2499014E-009  0.1245253E+03  0.7561462E-02  0.1235813E+00
         -2   -1    0    0    0  501 -0.00000000000E+00  0.00000000000E+00  0.51536049844E+02  0.51536049844E+02  0.00000000000E+00 0.  1.
          2   -1    0    0  501    0  0.00000000000E+00 -0.00000000000E+00 -0.45946407815E+03  0.45946407815E+03  0.00000000000E+00 0. -1.
         25    2    1    2    0    0 -0.18050004580E+02 -0.64504950461E+02 -0.36103848545E+03  0.38792159526E+03  0.12509070626E+03 0.  0.
          5    1    3    3  502    0  0.41608138060E+02 -0.63794201155E+02 -0.14605859214E+03  0.16477718893E+03  0.41800000000E+01 0.  1.
         -5    1    3    3    0  502 -0.59658142640E+02 -0.71074930636E+00 -0.21497989331E+03  0.22314440633E+03  0.41800000000E+01 0.  1.
        -11    1    1    2    0    0  0.49974762609E+02  0.11808413205E+02 -0.13943087014E+02  0.53210198230E+02  0.00000000000E+00 0. -1.
         11    1    1    2    0    0 -0.31924758028E+02  0.52696537256E+02 -0.32946455841E+02  0.69868334505E+02  0.00000000000E+00 0.  1.
</event>
<event>
 7    1  0.2499014E-009  0.1104739E+03  0.7561462E-02  0.1259695E+00
          2   -1    0    0  501    0  0.00000000000E+00  0.00000000000E+00  0.47352415112E+02  0.47352415112E+02  0.00000000000E+00 0. -1.
         -2   -1    0    0    0  501 -0.00000000000E+00 -0.00000000000E+00 -0.57229532821E+03  0.57229532821E+03  0.00000000000E+00 0.  1.
         25    2    1    2    0    0 -0.20003354222E+00  0.10049272873E+03 -0.14720535985E+03  0.21774948763E+03  0.12508634160E+03 0.  0.
          5    1    3    3  502    0  0.27437269831E+02  0.80933368299E+02 -0.22509820672E+02  0.88471341726E+02  0.41800000000E+01 0.  1.
         -5    1    3    3    0  502 -0.27637303373E+02  0.19559360429E+02 -0.12469553918E+03  0.12927814591E+03  0.41800000000E+01 0.  1.
        -11    1    1    2    0    0 -0.61125579187E+01 -0.42531810132E+02 -0.38521412249E+02  0.57708036174E+02  0.00000000000E+00 0. -1.
         11    1    1    2    0    0  0.63125914609E+01 -0.57960918596E+02 -0.33921614100E+03  0.34419021952E+03  0.00000000000E+00 0.  1.
</event>
<event>
 7    1  0.2499014E-009  0.7914955E+02  0.7561462E-02  0.1331482E+00
          2   -1    0    0  501    0  0.00000000000E+00  0.00000000000E+00  0.95352343728E+02  0.95352343728E+02  0.00000000000E+00 0. -1.
         -2   -1    0    0    0  501 -0.00000000000E+00 -0.00000000000E+00 -0.14432632037E+03  0.14432632037E+03  0.00000000000E+00 0.  1.
         25    2    1    2    0    0  0.23665440242E+02 -0.85127695238E+01  0.13552991865E+02  0.12831228655E+03  0.12509132258E+03 0.  0.
          5    1    3    3  502    0  0.49515692356E+02 -0.28459733965E+02 -0.36861270025E+02  0.68102759671E+02  0.41800000000E+01 0.  1.
         -5    1    3    3    0  502 -0.25850252114E+02  0.19946964442E+02  0.50414261890E+02  0.60209526877E+02  0.41800000000E+01 0.  1.
        -11    1    1    2    0    0 -0.29566049641E+02 -0.22117369400E+02 -0.70133254284E+02  0.79259085770E+02  0.00000000000E+00 0.  1.
         11    1    1    2    0    0  0.59006093987E+01  0.30630138924E+02  0.76062857814E+01  0.32107291776E+02  0.00000000000E+00 0. -1.
</event>
<event>
 7    1  0.2499014E-009  0.1210306E+03  0.7561462E-02  0.1241406E+00
         -4   -1    0    0    0  501 -0.00000000000E+00  0.00000000000E+00  0.53623328759E+03  0.53623328759E+03  0.00000000000E+00 0.  1.
          4   -1    0    0  501    0  0.00000000000E+00 -0.00000000000E+00 -0.28058612399E+02  0.28058612399E+02  0.00000000000E+00 0. -1.
         25    2    1    2    0    0 -0.28631029779E+02 -0.52150631031E+02  0.27566247393E+03  0.30850764739E+03  0.12509094605E+03 0.  0.
          5    1    3    3  502    0 -0.57300795589E+02  0.19918867776E+02  0.12446952058E+03  0.13852897322E+03  0.41800000000E+01 0. -1.
         -5    1    3    3    0  502  0.28669765810E+02 -0.72069498807E+02  0.15119295335E+03  0.16997867417E+03  0.41800000000E+01 0. -1.
        -11    1    1    2    0    0 -0.27767112172E+02  0.34904439480E+02  0.13098650275E+03  0.13837194917E+03  0.00000000000E+00 0.  1.
         11    1    1    2    0    0  0.56398141951E+02  0.17246191550E+02  0.10152569851E+03  0.11741230343E+03  0.00000000000E+00 0. -1.
</event>
<event>
 7    1  0.2499014E-009  0.4516433E+03  0.7561462E-02  0.1027233E+00
          1   -1    0    0  501    0  0.00000000000E+00  0.00000000000E+00  0.25513587301E+04  0.25513587301E+04  0.00000000000E+00 0. -1.
         -1   -1    0    0    0  501 -0.00000000000E+00 -0.00000000000E+00 -0.93931666313E+02  0.93931666313E+02  0.00000000000E+00 0.  1.
         25    2    1    2    0    0  0.40835649937E+03 -0.16500804020E+03  0.74197716414E+03  0.87187204351E+03  0.12509222299E+03 0.  0.
          5    1    3    3  502    0  0.16434176120E+03 -0.13284659131E+03  0.32626426371E+03  0.38874448353E+03  0.41800000000E+01 0.  1.
         -5    1    3    3    0  502  0.24401473817E+03 -0.32161448888E+02  0.41571290043E+03  0.48312755999E+03  0.41800000000E+01 0.  1.
        -11    1    1    2    0    0 -0.24912432800E+03  0.64058235861E+02  0.87167372657E+03  0.90883522927E+03  0.00000000000E+00 0.  1.
         11    1    1    2    0    0 -0.15923217136E+03  0.10094980434E+03  0.84377617305E+03  0.86458312360E+03  0.00000000000E+00 0. -1.
</event>
<event>
 7    1  0.2499014E-009  0.1016925E+03  0.7561462E-02  0.1276776E+00
         -2   -1    0    0    0  501 -0.00000000000E+00  0.00000000000E+00  0.76471108782E+02  0.76471108782E+02  0.00000000000E+00 0.  1.
          2   -1    0    0  501    0  0.00000000000E+00 -0.00000000000E+00 -0.19201112977E+03  0.19201112977E+03  0.00000000000E+00 0. -1.
         25    2    1    2    0    0 -0.76802721667E+01  0.20807650759E+02 -0.76472013832E+01  0.12727173512E+03  0.12509064698E+03 0.  0.
          5    1    3    3  502    0 -0.47783528003E+02  0.46065418732E+02  0.23353321061E+02  0.70485022210E+02  0.41800000000E+01 0.  1.
         -5    1    3    3    0  502  0.40103255837E+02 -0.25257767973E+02 -0.31000522444E+02  0.56786712913E+02  0.41800000000E+01 0.  1.
        -11    1    1    2    0    0  0.36781187728E+02  0.17876259299E+02 -0.35671446589E+02  0.54266642783E+02  0.00000000000E+00 0.  1.
         11    1    1    2    0    0 -0.29100915561E+02 -0.38683910057E+02 -0.72221373020E+02  0.86943860650E+02  0.00000000000E+00 0. -1.
</event>
<event>
 7    1  0.2499014E-009  0.1172315E+03  0.7561462E-02  0.1247735E+00
         -1   -1    0    0    0  501 -0.00000000000E+00  0.00000000000E+00  0.30188432791E+02  0.30188432791E+02  0.00000000000E+00 0.  1.
          1   -1    0    0  501    0  0.00000000000E+00 -0.00000000000E+00 -0.73571496442E+03  0.73571496442E+03  0.00000000000E+00 0. -1.
         25    2    1    2    0    0  0.96732247297E+01 -0.93732173233E+02 -0.27263509532E+03  0.31441723340E+03  0.12509600265E+03 0.  0.
          5    1    3    3  502    0 -0.16228832675E+02 -0.66437571373E+02 -0.41296837022E+02  0.80001419037E+02  0.41800000000E+01 0. -1.
         -5    1    3    3    0  502  0.25902057405E+02 -0.27294601860E+02 -0.23133825830E+03  0.23441581436E+03  0.41800000000E+01 0. -1.
        -11    1    1    2    0    0  0.38643729607E+02  0.47232542558E+02 -0.21727992268E+03  0.22568742924E+03  0.00000000000E+00 0.  1.
         11    1    1    2    0    0 -0.48316954337E+02  0.46499630675E+02 -0.21561151362E+03  0.22579873457E+03  0.00000000000E+00 0. -1.
</event>
<event>
 7    1  0.2499014E-009  0.9242064E+02  0.7561462E-02  0.1297093E+00
          2   -1    0    0  501    0  0.00000000000E+00  0.00000000000E+00  0.77957590935E+03  0.77957590935E+03  0.00000000000E+00 0. -1.
         -2   -1    0    0    0  501 -0.00000000000E+00 -0.00000000000E+00 -0.21295564173E+02  0.21295564173E+02  0.00000000000E+00 0.  1.
         25    2    1    2    0    0 -0.19953235257E+02  0.66650291348E+02  0.41303836393E+03  0.43713521496E+03  0.12508442408E+03 0.  0.
          5    1    3    3  502    0 -0.10482026946E+02  0.76025748112E+01 -0.52413751487E+01  0.14581373258E+02  0.41800000000E+01 0. -1.
         -5    1    3    3    0  502 -0.94712083116E+01  0.59047716537E+02  0.41827973908E+03  0.42255384170E+03  0.41800000000E+01 0. -1.
        -11    1    1    2    0    0 -0.24182212509E+02 -0.62429387356E+02  0.16375672738E+03  0.17691374613E+03  0.00000000000E+00 0.  1.
         11    1    1    2    0    0  0.44135447766E+02 -0.42209039922E+01  0.18148525387E+03  0.18682251243E+03  0.00000000000E+00 0. -1.
</event>
<event>
 7    1  0.2499014E-009  0.1588413E+03  0.7561462E-02  0.1190011E+00
         -1   -1    0    0    0  501 -0.00000000000E+00  0.00000000000E+00  0.94907646226E+02  0.94907646226E+02  0.00000000000E+00 0.  1.
          1   -1    0    0  501    0  0.00000000000E+00 -0.00000000000E+00 -0.34938845643E+03  0.34938845643E+03  0.00000000000E+00 0. -1.
         25    2    1    2    0    0  0.13279067500E+03  0.58350486699E+02 -0.11703107349E+03  0.22446163330E+03  0.12509440433E+03 0.  0.
          5    1    3    3  502    0  0.33655605006E+02  0.48205953115E+02  0.13223360232E+02  0.60405656357E+02  0.41800000000E+01 0. -1.
         -5    1    3    3    0  502  0.99135069998E+02  0.10144533584E+02 -0.13025443373E+03  0.16405597694E+03  0.41800000000E+01 0. -1.
        -11    1    1    2    0    0 -0.43989804460E+02  0.12128495488E+02 -0.56434124783E+01  0.45978814727E+02  0.00000000000E+00 0. -1.
         11    1    1    2    0    0 -0.88800870544E+02 -0.70478982188E+02 -0.13180632423E+03  0.17385565463E+03  0.00000000000E+00 0.  1.
</event>
<event>
 7    1  0.2499014E-009  0.9582727E+02  0.7561462E-02  0.1289324E+00
          2   -1    0    0  501    0  0.00000000000E+00  0.00000000000E+00  0.12245121794E+03  0.12245121794E+03  0.00000000000E+00 0. -1.
         -2   -1    0    0    0  501 -0.00000000000E+00 -0.00000000000E+00 -0.12684012629E+03  0.12684012629E+03  0.00000000000E+00 0.  1.
         25    2    1    2    0    0 -0.61788542572E+02  0.13685502901E+01 -0.61270609371E+01  0.13965598993E+03  0.12508620118E+03 0.  0.
          5    1    3    3  502    0 -0.50030727695E+01  0.31262508054E+02  0.46601257189E+02  0.56493581216E+02  0.41800000000E+01 0.  1.
         -5    1    3    3    0  502 -0.56785469802E+02 -0.29893957764E+02 -0.52728318126E+02  0.83162408718E+02  0.41800000000E+01 0.  1.
        -11    1    1    2    0    0  0.32698258085E+02 -0.37022171222E+02 -0.26088090000E+02  0.55860591508E+02  0.00000000000E+00 0.  1.
         11    1    1    2    0    0  0.29090284487E+02  0.35653620932E+02  0.27826242581E+02  0.53774762791E+02  0.00000000000E+00 0. -1.
</event>
<event>
 7    1  0.2499014E-009  0.9933220E+02  0.7561462E-02  0.1281707E+00
          2   -1    0    0  501    0  0.00000000000E+00  0.00000000000E+00  0.18519805704E+03  0.18519805704E+03  0.00000000000E+00 0.  1.
         -2   -1    0    0    0  501 -0.00000000000E+00 -0.00000000000E+00 -0.70946669609E+02  0.70946669609E+02  0.00000000000E+00 0. -1.
         25    2    1    2    0    0 -0.15171089560E+02 -0.10922246882E+01  0.12850956244E+02  0.12666311872E+03  0.12508814354E+03 0.  0.
          5    1    3    3  502    0 -0.51882606213E+02  0.43629985588E+02  0.46744362593E+01  0.68078654689E+02  0.41800000000E+01 0. -1.
         -5    1    3    3    0  502  0.36711516653E+02 -0.44722210276E+02  0.81765199852E+01  0.58584464033E+02  0.41800000000E+01 0. -1.
        -11    1    1    2    0    0  0.37916580248E+02  0.20260423122E+02  0.85626841365E+02  0.95812878909E+02  0.00000000000E+00 0.  1.
         11    1    1    2    0    0 -0.22745490688E+02 -0.19168198434E+02  0.15773589822E+02  0.33668729019E+02  0.00000000000E+00 0. -1.
</event>
<event>
 7    1  0.2499014E-009  0.9342106E+02  0.7561462E-02  0.1294772E+00
         -1   -1    0    0    0  501 -0.00000000000E+00  0.00000000000E+00  0.31104317531E+02  0.31104317531E+02  0.00000000000E+00 0.  1.
          1   -1    0    0  501    0  0.00000000000E+00 -0.00000000000E+00 -0.54152022287E+03  0.54152022287E+03  0.00000000000E+00 0. -1.
         25    2    1    2    0    0  0.59120172875E+02  0.16888617713E+02 -0.36709166762E+03  0.39266245711E+03  0.12508833893E+03 0.  0.
          5    1    3    3  502    0  0.23868568595E+02  0.34933903311E+02 -0.34402544142E+03  0.34664255785E+03  0.41800000000E+01 0.  1.
         -5    1    3    3    0  502  0.35251604280E+02 -0.18045285597E+02 -0.23066226202E+02  0.46019899259E+02  0.41800000000E+01 0.  1.
        -11    1    1    2    0    0 -0.74014637706E+02  0.90785011086E+01 -0.76971188252E+02  0.10716879022E+03  0.00000000000E+00 0.  1.
         11    1    1    2    0    0  0.14894464830E+02 -0.25967118822E+02 -0.66353049459E+02  0.72793293063E+02  0.00000000000E+00 0. -1.
</event>
<event>
 7    1  0.2499014E-009  0.1022752E+03  0.7561462E-02  0.1275583E+00
         -1   -1    0    0    0  501 -0.00000000000E+00  0.00000000000E+00  0.28488494792E+03  0.28488494792E+03  0.00000000000E+00 0.  1.
          1   -1    0    0  501    0  0.00000000000E+00 -0.00000000000E+00 -0.78210542730E+02  0.78210542730E+02  0.00000000000E+00 0. -1.
         25    2    1    2    0    0  0.47662337216E+02 -0.77757210505E+02  0.55439224168E+02  0.16443604780E+03  0.12509126295E+03 0.  0.
          5    1    3    3  502    0  0.45819334630E+02 -0.25666421992E+02 -0.32660421533E+02  0.61986709693E+02  0.41800000000E+01 0. -1.
         -5    1    3    3    0  502  0.18430025860E+01 -0.52090788513E+02  0.88099645702E+02  0.10244933811E+03  0.41800000000E+01 0. -1.
        -11    1    1    2    0    0 -0.45107734405E+02  0.35925990918E+02  0.14530913035E+03  0.15633338699E+03  0.00000000000E+00 0.  1.
         11    1    1    2    0    0 -0.25546028111E+01  0.41831219587E+02  0.59260506750E+01  0.42326055855E+02  0.00000000000E+00 0. -1.
</event>
<event>
 7    1  0.2499014E-009  0.1295878E+03  0.7561462E-02  0.1228069E+00
          2   -1    0    0  501    0  0.00000000000E+00  0.00000000000E+00  0.33839922500E+03  0.33839922500E+03  0.00000000000E+00 0.  1.
         -2   -1    0    0    0  501 -0.00000000000E+00 -0.00000000000E+00 -0.93570200547E+02  0.93570200547E+02  0.00000000000E+00 0. -1.
         25    2    1    2    0    0  0.85508926944E+02 -0.77758599849E+02  0.34955167660E+02  0.17387170340E+03  0.12510527192E+03 0.  0.
          5    1    3    3  502    0  0.80939189728E+01 -0.67388469119E+01  0.63838881556E+02  0.64836708587E+02  0.41800000000E+01 0.  1.
         -5    1    3    3    0  502  0.77415007971E+02 -0.71019752937E+02 -0.28883713896E+02  0.10903499482E+03  0.41800000000E+01 0.  1.
        -11    1    1    2    0    0  0.17039006318E+02  0.12840616824E+02  0.84788212123E+01  0.22958649479E+02  0.00000000000E+00 0.  1.
         11    1    1    2    0    0 -0.10254793326E+03  0.64917983025E+02  0.20139503558E+03  0.23513907266E+03  0.00000000000E+00 0. -1.
</event>
<event>
 7    1  0.2499014E-009  0.6722744E+02  0.7561462E-02  0.1369783E+00
          2   -1    0    0  501    0  0.00000000000E+00  0.00000000000E+00  0.47912582113E+03  0.47912582113E+03  0.00000000000E+00 0.  1.
         -2   -1    0    0    0  501 -0.00000000000E+00 -0.00000000000E+00 -0.25348321921E+02  0.25348321921E+02  0.00000000000E+00 0. -1.
         25    2    1    2    0    0 -0.17637762439E+02  0.11966982520E+02  0.25823073725E+03  0.28772288594E+03  0.12508815331E+03 0.  0.
          5    1    3    3  502    0 -0.31131038600E+02  0.73419349866E+01  0.33739588420E+01  0.32433032111E+02  0.41800000000E+01 0.  1.
         -5    1    3    3    0  502  0.13493276160E+02  0.46250475339E+01  0.25485677841E+03  0.25528985383E+03  0.41800000000E+01 0.  1.
        -11    1    1    2    0    0  0.49963321252E+02  0.60471799698E+01  0.72470590639E+02  0.88232014392E+02  0.00000000000E+00 0.  1.
         11    1    1    2    0    0 -0.32325558813E+02 -0.18014162490E+02  0.12307617131E+03  0.12851924272E+03  0.00000000000E+00 0. -1.
</event>
<event>
 7    1  0.2912197E-009  0.1132324E+03  0.7561462E-02  0.1254698E+00
          1   -1    0    0  501    0  0.00000000000E+00  0.00000000000E+00  0.13008764704E+03  0.13008764704E+03  0.00000000000E+00 0. -1.
         -1   -1    0    0    0  501 -0.00000000000E+00 -0.00000000000E+00 -0.10742943773E+03  0.10742943773E+03  0.00000000000E+00 0.  1.
         25    2    1    2    0    0  0.15681379040E+02 -0.35512478979E+02 -0.14280218715E+02  0.13174975007E+03  0.12508808971E+03 0.  0.
          5    1    3    3  502    0  0.26364183651E+02  0.43551631689E+02 -0.54120317453E+01  0.51367083720E+02  0.41800000000E+01 0. -1.
         -5    1    3    3    0  502 -0.10682804611E+02 -0.79064110668E+02 -0.88681869698E+01  0.80382666354E+02  0.41800000000E+01 0. -1.
        -11    1    1    2    0    0 -0.49978249504E+02  0.61736975881E+01  0.33541794085E+02  0.60506131225E+02  0.00000000000E+00 0. -1.
         11    1    1    2    0    0  0.34296870464E+02  0.29338781391E+02  0.33966339367E+01  0.45261203467E+02  0.00000000000E+00 0.  1.
</event>
<event>
 7    1  0.2499014E-009  0.2449382E+03  0.7561462E-02  0.1116546E+00
          2   -1    0    0  501    0  0.00000000000E+00  0.00000000000E+00  0.11042266518E+04  0.11042266518E+04  0.00000000000E+00 0. -1.
         -2   -1    0    0    0  501 -0.00000000000E+00 -0.00000000000E+00 -0.60266541460E+02  0.60266541460E+02  0.00000000000E+00 0.  1.
         25    2    1    2    0    0  0.13120677007E+03 -0.19350723225E+03  0.52184719009E+03  0.58534760718E+03  0.12508823278E+03 0.  0.
          5    1    3    3  502    0 -0.20542999485E+01 -0.19508756522E+02  0.16737107214E+03  0.16856856148E+03  0.41800000000E+01 0. -1.
         -5    1    3    3    0  502  0.13326107002E+03 -0.17399847573E+03  0.35447611795E+03  0.41677904570E+03  0.41800000000E+01 0. -1.
        -11    1    1    2    0    0 -0.79246765439E+01  0.87973637568E+02  0.18503764979E+03  0.20503924806E+03  0.00000000000E+00 0. -1.
         11    1    1    2    0    0 -0.12328209353E+03  0.10553359468E+03  0.33707527045E+03  0.37410633801E+03  0.00000000000E+00 0.  1.
</event>
<event>
 7    1  0.2499014E-009  0.1240462E+03  0.7561462E-02  0.1236568E+00
         -2   -1    0    0    0  501 -0.00000000000E+00  0.00000000000E+00  0.15804614622E+02  0.15804614622E+02  0.00000000000E+00 0.  1.
          2   -1    0    0  501    0  0.00000000000E+00 -0.00000000000E+00 -0.10288319542E+04  0.10288319542E+04  0.00000000000E+00 0. -1.
         25    2    1    2    0    0  0.68093864512E+02 -0.31680060865E+01 -0.57198424461E+03  0.58945746708E+03  0.12508924322E+03 0.  0.
          5    1    3    3  502    0  0.59593316293E+02  0.56330437952E+02 -0.31892458377E+03  0.32932483070E+03  0.41800000000E+01 0. -1.
         -5    1    3    3    0  502  0.85005482189E+01 -0.59498444038E+02 -0.25305966084E+03  0.26013263637E+03  0.41800000000E+01 0. -1.
        -11    1    1    2    0    0 -0.21894616470E+02  0.40697636711E+02 -0.11854877995E+03  0.12723790745E+03  0.00000000000E+00 0.  1.
         11    1    1    2    0    0 -0.46199248042E+02 -0.37529630624E+02 -0.32249431501E+03  0.32794119429E+03  0.00000000000E+00 0. -1.
</event>
<event>
 7    1  0.2499014E-009  0.1488405E+03  0.7561462E-02  0.1201905E+00
          2   -1    0    0  501    0  0.00000000000E+00  0.00000000000E+00  0.82997715787E+03  0.82997715787E+03  0.00000000000E+00 0. -1.
         -2   -1    0    0    0  501 -0.00000000000E+00 -0.00000000000E+00 -0.33438470540E+02  0.33438470540E+02  0.00000000000E+00 0.  1.
         25    2    1    2    0    0  0.61166644526E+02  0.10850688188E+03  0.47719289759E+03  0.50879769541E+03  0.12508769534E+03 0.  0.
          5    1    3    3  502    0 -0.18540798496E+02  0.39691280300E+02  0.41319757271E+02  0.60365169441E+02  0.41800000000E+01 0.  1.
         -5    1    3    3    0  502  0.79707443022E+02  0.68815601581E+02  0.43587314032E+03  0.44843252597E+03  0.41800000000E+01 0.  1.
        -11    1    1    2    0    0 -0.34031047509E+02  0.23936486317E+01  0.38434059303E+02  0.51390842208E+02  0.00000000000E+00 0.  1.
         11    1    1    2    0    0 -0.27135597018E+02 -0.11090053051E+03  0.28091173044E+03  0.30322709079E+03  0.00000000000E+00 0. -1.
</event>
<event>
 7    1  0.2499014E-009  0.2547371E+03  0.7561462E-02  0.1110347E+00
         -2   -1    0    0    0  501 -0.00000000000E+00  0.00000000000E+00  0.17842369181E+03  0.17842369181E+03  0.00000000000E+00 0.  1.
          2   -1    0    0  501    0  0.00000000000E+00 -0.00000000000E+00 -0.39812484792E+03  0.39812484792E+03  0.00000000000E+00 0. -1.
         25    2    1    2    0    0 -0.42663418240E+02  0.23629216134E+03 -0.73184955925E+02  0.28045719760E+03  0.12508416823E+03 0.  0.
          5    1    3    3  502    0 -0.40156997577E+02  0.95513807165E+01  0.19720413029E+01  0.41535222100E+02  0.41800000000E+01 0.  1.
         -5    1    3    3    0  502 -0.25064206631E+01  0.22674078063E+03 -0.75156997228E+02  0.23892197550E+03  0.41800000000E+01 0.  1.
        -11    1    1    2    0    0  0.25927814436E+01 -0.73349465110E+02 -0.10059667380E+00  0.73395344997E+02  0.00000000000E+00 0.  1.
         11    1    1    2    0    0  0.40070636797E+02 -0.16294269623E+03 -0.14641560351E+03  0.22269599714E+03  0.00000000000E+00 0. -1.
</event>
<event>
 7    1  0.2499014E-009  0.1184079E+03  0.7561462E-02  0.1245747E+00
          1   -1    0    0  501    0  0.00000000000E+00  0.00000000000E+00  0.75176285841E+03  0.75176285841E+03  0.00000000000E+00 0. -1.
         -1   -1    0    0    0  501 -0.00000000000E+00 -0.00000000000E+00 -0.19068995775E+02  0.19068995775E+02  0.00000000000E+00 0.  1.
         25    2    1    2    0    0 -0.48146787002E+02 -0.14346334249E+02  0.42378300136E+03  0.44470571651E+03  0.12508881506E+03 0.  0.
          5    1    3    3  502    0  0.39428101479E+02  0.11326207469E+02  0.17161578491E+03  0.17650016485E+03  0.41800000000E+01 0.  1.
         -5    1    3    3    0  502 -0.87574888481E+02 -0.25672541718E+02  0.25216721645E+03  0.26820555166E+03  0.41800000000E+01 0.  1.
        -11    1    1    2    0    0  0.24077493959E+02  0.53270922825E+02  0.18605708570E+03  0.19502501397E+03  0.00000000000E+00 0.  1.
         11    1    1    2    0    0  0.24069293042E+02 -0.38924588576E+02  0.12285377557E+03  0.13110112370E+03  0.00000000000E+00 0. -1.
</event>
<event>
 7    1  0.2499014E-009  0.1050886E+03  0.7561462E-02  0.1269945E+00
          1   -1    0    0  501    0  0.00000000000E+00  0.00000000000E+00  0.21790213798E+03  0.21790213798E+03  0.00000000000E+00 0. -1.
         -1   -1    0    0    0  501 -0.00000000000E+00 -0.00000000000E+00 -0.65649900347E+02  0.65649900347E+02  0.00000000000E+00 0.  1.
         25    2    1    2    0    0 -0.15650271319E+02  0.47721167914E+02  0.94723870452E+02  0.16474430147E+03  0.12508330174E+03 0.  0.
          5    1    3    3  502    0  0.26456621121E+02 -0.32960570704E+02  0.40711243696E+02  0.58832217241E+02  0.41800000000E+01 0. -1.
         -5    1    3    3    0  502 -0.42106892439E+02  0.80681738618E+02  0.54012626756E+02  0.10591208423E+03  0.41800000000E+01 0. -1.
        -11    1    1    2    0    0  0.36800167831E+02 -0.20484536481E+02  0.70369318726E+02  0.82010423759E+02  0.00000000000E+00 0. -1.
         11    1    1    2    0    0 -0.21149896512E+02 -0.27236631433E+02 -0.12840951545E+02  0.36797313093E+02  0.00000000000E+00 0.  1.
</event>
<event>
 7    1  0.2499014E-009  0.1085236E+03  0.7561462E-02  0.1263329E+00
         -1   -1    0    0    0  501 -0.00000000000E+00  0.00000000000E+00  0.22229045534E+03  0.22229045534E+03  0.00000000000E+00 0.  1.
          1   -1    0    0  501    0  0.00000000000E+00 -0.00000000000E+00 -0.59823147761E+02  0.59823147761E+02  0.00000000000E+00 0. -1.
         25    2    1    2    0    0  0.29655891773E+01  0.39145365770E+02  0.10380859663E+03  0.16722954062E+03  0.12509332572E+03 0.  0.
          5    1    3    3  502    0  0.50315132716E+01 -0.45320996283E+02  0.28249961396E+02  0.53803731736E+02  0.41800000000E+01 0. -1.
         -5    1    3    3    0  502 -0.20659240943E+01  0.84466362053E+02  0.75558635238E+02  0.11342580888E+03  0.41800000000E+01 0. -1.
        -11    1    1    2    0    0  0.21978626368E+02  0.15296261598E+02 -0.52670818058E+01  0.27290617190E+02  0.00000000000E+00 0. -1.
         11    1    1    2    0    0 -0.24944215545E+02 -0.54441627368E+02  0.63925792750E+02  0.87593445293E+02  0.00000000000E+00 0.  1.
</event>
<event>
 7    1  0.2499014E-009  0.9452661E+02  0.7561462E-02  0.1292246E+00
         -1   -1    0    0    0  501 -0.00000000000E+00  0.00000000000E+00  0.11077125786E+03  0.11077125786E+03  0.00000000000E+00 0.  1.
          1   -1    0    0  501    0  0.00000000000E+00 -0.00000000000E+00 -0.12050908478E+03  0.12050908478E+03  0.00000000000E+00 0. -1.
         25    2    1    2    0    0  0.30912029367E+02  0.15134498954E+02 -0.77012426173E+00  0.12974107569E+03  0.12509015554E+03 0.  0.
          5    1    3    3  502    0  0.32994051618E+02 -0.52387159830E+02 -0.84364782134E+00  0.62058086491E+02  0.41800000000E+01 0.  1.
         -5    1    3    3    0  502 -0.20820222509E+01  0.67521658785E+02  0.73523559614E-01  0.67682989203E+02  0.41800000000E+01 0.  1.
        -11    1    1    2    0    0 -0.43124710038E+02 -0.49347094839E+01  0.34374396120E+02  0.55368683226E+02  0.00000000000E+00 0.  1.
         11    1    1    2    0    0  0.12212680671E+02 -0.10199789470E+02 -0.43342098775E+02  0.46170583716E+02  0.00000000000E+00 0. -1.
</event>
<event>
 7    1  0.2499014E-009  0.1297487E+03  0.7561462E-02  0.1227829E+00
         -1   -1    0    0    0  501 -0.00000000000E+00  0.00000000000E+00  0.19102376117E+02  0.19102376117E+02  0.00000000000E+00 0.  1.
          1   -1    0    0  501    0  0.00000000000E+00 -0.00000000000E+00 -0.89247097586E+03  0.89247097586E+03  0.00000000000E+00 0. -1.
         25    2    1    2    0    0  0.10331749579E+02 -0.64383978606E+02 -0.46354544104E+03  0.48453540399E+03  0.12509252599E+03 0.  0.
          5    1    3    3  502    0  0.54560809537E+02  0.72902581463E+01 -0.21935364122E+03  0.22619355013E+03  0.41800000000E+01 0. -1.
         -5    1    3    3    0  502 -0.44229059958E+02 -0.71674236752E+02 -0.24419179982E+03  0.25834185386E+03  0.41800000000E+01 0. -1.
        -11    1    1    2    0    0 -0.44761546201E+02 -0.24050657304E+01 -0.14668489201E+03  0.15338134796E+03  0.00000000000E+00 0. -1.
         11    1    1    2    0    0  0.34429796622E+02  0.66789044336E+02 -0.26313826669E+03  0.27365660002E+03  0.00000000000E+00 0.  1.
</event>
<event>
 7    1  0.2499014E-009  0.1157363E+03  0.7561462E-02  0.1250301E+00
         -2   -1    0    0    0  501 -0.00000000000E+00  0.00000000000E+00  0.29041626579E+03  0.29041626579E+03  0.00000000000E+00 0.  1.
          2   -1    0    0  501    0  0.00000000000E+00 -0.00000000000E+00 -0.79975518029E+02  0.79975518029E+02  0.00000000000E+00 0. -1.
         25    2    1    2    0    0 -0.46286998528E+02 -0.85020932569E+02  0.60768965272E+02  0.16944578624E+03  0.12509181479E+03 0.  0.
          5    1    3    3  502    0 -0.25939509307E+02 -0.62234317784E+02  0.99297957732E+02  0.12009798193E+03  0.41800000000E+01 0.  1.
         -5    1    3    3    0  502 -0.20347489221E+02 -0.22786614785E+02 -0.38528992459E+02  0.49347804317E+02  0.41800000000E+01 0.  1.
        -11    1    1    2    0    0 -0.51673457387E+01  0.81335451672E+02  0.79497106008E+02  0.11385054688E+03  0.00000000000E+00 0. -1.
         11    1    1    2    0    0  0.51454344266E+02  0.36854808972E+01  0.70174676480E+02  0.87095450699E+02  0.00000000000E+00 0.  1.
</event>
<event>
 7    1  0.2499014E-009  0.1051872E+03  0.7561462E-02  0.1269751E+00
          2   -1    0    0  501    0  0.00000000000E+00  0.00000000000E+00  0.74383347862E+03  0.74383347862E+03  0.00000000000E+00 0.  1.
         -2   -1    0    0    0  501 -0.00000000000E+00 -0.00000000000E+00 -0.22128320426E+02  0.22128320426E+02  0.00000000000E+00 0. -1.
         25    2    1    2    0    0  0.56406623904E+02  0.32802657875E+02  0.31024998021E+03  0.34082188793E+03  0.12508711960E+03 0.  0.
          5    1    3    3  502    0 -0.28216156118E+02  0.16853751304E+01  0.18060661312E+03  0.18285298209E+03  0.41800000000E+01 0.  1.
         -5    1    3    3    0  502  0.84622780022E+02  0.31117282744E+02  0.12964336709E+03  0.15796890585E+03  0.41800000000E+01 0.  1.
        -11    1    1    2    0    0  0.81940800167E+01 -0.25194874719E+02  0.39645664687E+02  0.47683365945E+02  0.00000000000E+00 0. -1.
         11    1    1    2    0    0 -0.64600703920E+02 -0.76077831557E+01  0.37180951329E+03  0.37745654516E+03  0.00000000000E+00 0.  1.
</event>
<event>
 7    1  0.2499014E-009  0.1925439E+03  0.7561462E-02  0.1156187E+00
          2   -1    0    0  501    0  0.00000000000E+00  0.00000000000E+00  0.19420921124E+04  0.19420921124E+04  0.00000000000E+00 0. -1.
         -2   -1    0    0    0  501 -0.00000000000E+00 -0.00000000000E+00 -0.25742237274E+02  0.25742237274E+02  0.00000000000E+00 0.  1.
         25    2    1    2    0    0 -0.15119266395E+03  0.11491377150E+03  0.11811218954E+04  0.12028134144E+04  0.12508709659E+03 0.  0.
          5    1    3    3  502    0 -0.15478754296E+02  0.31841350581E+02  0.55304664066E+02  0.65799253102E+02  0.41800000000E+01 0. -1.
         -5    1    3    3    0  502 -0.13571390966E+03  0.83072420914E+02  0.11258172313E+04  0.11370141613E+04  0.41800000000E+01 0. -1.
        -11    1    1    2    0    0  0.22798661199E+02 -0.12326474012E+02  0.24941373703E+02  0.35969334665E+02  0.00000000000E+00 0.  1.
         11    1    1    2    0    0  0.12839400275E+03 -0.10258729748E+03  0.71028660607E+03  0.72905160058E+03  0.00000000000E+00 0. -1.
</event>
<event>
 7    1  0.2499014E-009  0.8080397E+02  0.7561462E-02  0.1326785E+00
         -1   -1    0    0    0  501 -0.00000000000E+00  0.00000000000E+00  0.39642771775E+02  0.39642771775E+02  0.00000000000E+00 0.  1.
          1   -1    0    0  501    0  0.00000000000E+00 -0.00000000000E+00 -0.33340959074E+03  0.33340959074E+03  0.00000000000E+00 0. -1.
         25    2    1    2    0    0 -0.52201255601E+01 -0.38755761387E+02 -0.16868735889E+03  0.21361214230E+03  0.12508182737E+03 0.  0.
          5    1    3    3  502    0 -0.26561006792E+02 -0.15987219957E+02  0.94780310498E+01  0.32686140126E+02  0.41800000000E+01 0.  1.
         -5    1    3    3    0  502  0.21340881232E+02 -0.22768541430E+02 -0.17816538994E+03  0.18092600218E+03  0.41800000000E+01 0.  1.
        -11    1    1    2    0    0 -0.32636941658E+02  0.49678171119E+02 -0.73156756448E+02  0.94260286762E+02  0.00000000000E+00 0.  1.
         11    1    1    2    0    0  0.37857067218E+02 -0.10922409733E+02 -0.51922703621E+02  0.65179933446E+02  0.00000000000E+00 0. -1.
</event>
<event>
 7    1  0.2499014E-009  0.1107047E+03  0.7561462E-02  0.1259270E+00
          2   -1    0    0  501    0  0.00000000000E+00  0.00000000000E+00  0.53410871325E+02  0.53410871325E+02  0.00000000000E+00 0.  1.
         -2   -1    0    0    0  501 -0.00000000000E+00 -0.00000000000E+00 -0.32329313459E+03  0.32329313459E+03  0.00000000000E+00 0. -1.
         25    2    1    2    0    0 -0.31870355422E+02  0.56568483171E+02 -0.20145753468E+03  0.24586050105E+03  0.12508610976E+03 0.  0.
          5    1    3    3  502    0 -0.59687962217E+02  0.60873041889E+02 -0.19989986558E+03  0.21736055006E+03  0.41800000000E+01 0. -1.
         -5    1    3    3    0  502  0.27817606795E+02 -0.43045587184E+01 -0.15576690991E+01  0.28499950993E+02  0.41800000000E+01 0. -1.
        -11    1    1    2    0    0  0.24692342850E+02  0.19330154459E+02 -0.36689483711E+02  0.48264737457E+02  0.00000000000E+00 0. -1.
         11    1    1    2    0    0  0.71780125722E+01 -0.75898637630E+02 -0.31735244866E+02  0.82578767400E+02  0.00000000000E+00 0.  1.
</event>
<event>
 7    1  0.2499014E-009  0.8954407E+02  0.7561462E-02  0.1303960E+00
         -3   -1    0    0    0  501 -0.00000000000E+00  0.00000000000E+00  0.68735423771E+02  0.68735423771E+02  0.00000000000E+00 0.  1.
          3   -1    0    0  501    0  0.00000000000E+00 -0.00000000000E+00 -0.26685126831E+03  0.26685126831E+03  0.00000000000E+00 0. -1.
         25    2    1    2    0    0  0.54458969543E+02  0.37986922548E+02 -0.16663498390E+03  0.21868457721E+03  0.12508773242E+03 0.  0.
          5    1    3    3  502    0  0.27179192910E+02  0.24753126416E+02 -0.18109343815E+03  0.18483433538E+03  0.41800000000E+01 0. -1.
         -5    1    3    3    0  502  0.27279776633E+02  0.13233796132E+02  0.14458454243E+02  0.33850241836E+02  0.41800000000E+01 0. -1.
        -11    1    1    2    0    0 -0.66228132123E+02 -0.58151282271E+02 -0.31379165200E+02  0.93554204197E+02  0.00000000000E+00 0. -1.
         11    1    1    2    0    0  0.11769162580E+02  0.20164359722E+02 -0.10169543703E+00  0.23347910673E+02  0.00000000000E+00 0.  1.
</event>
<event>
 7    1  0.2499014E-009  0.3123606E+03  0.7561462E-02  0.1079220E+00
         -1   -1    0    0    0  501 -0.00000000000E+00  0.00000000000E+00  0.17199267053E+03  0.17199267053E+03  0.00000000000E+00 0.  1.
          1   -1    0    0  501    0  0.00000000000E+00 -0.00000000000E+00 -0.10836191053E+04  0.10836191053E+04  0.00000000000E+00 0. -1.
         25    2    1    2    0    0 -0.25857916358E+03 -0.14088375993E+03 -0.29727504556E+02  0.32131155524E+03  0.12508386528E+03 0.  0.
          5    1    3    3  502    0  0.13193643973E+02 -0.17792777101E+01 -0.55710713795E+01  0.15024889576E+02  0.41800000000E+01 0. -1.
         -5    1    3    3    0  502 -0.27177280755E+03 -0.13910448222E+03 -0.24156433176E+02  0.30628666566E+03  0.41800000000E+01 0. -1.
        -11    1    1    2    0    0  0.62679636960E+02 -0.24028958222E+01 -0.13291008879E+03  0.14696803224E+03  0.00000000000E+00 0.  1.
         11    1    1    2    0    0  0.19589952662E+03  0.14328665576E+03 -0.74898884139E+03  0.78733218832E+03  0.00000000000E+00 0. -1.
</event>
<event>
 7    1  0.2499014E-009  0.1753187E+03  0.7561462E-02  0.1172412E+00
         -1   -1    0    0    0  501 -0.00000000000E+00  0.00000000000E+00  0.11529941135E+03  0.11529941135E+03  0.00000000000E+00 0.  1.
          1   -1    0    0  501    0  0.00000000000E+00 -0.00000000000E+00 -0.35629142615E+03  0.35629142615E+03  0.00000000000E+00 0. -1.
         25    2    1    2    0    0  0.14663922195E+03  0.81939764115E+02 -0.16169962728E+03  0.26459741992E+03  0.12509132188E+03 0.  0.
          5    1    3    3  502    0  0.15512813318E-01  0.18334343069E+02  0.16621578107E+02  0.25097761557E+02  0.41800000000E+01 0. -1.
         -5    1    3    3    0  502  0.14662370914E+03  0.63605421047E+02 -0.17832120539E+03  0.23949965837E+03  0.41800000000E+01 0. -1.
        -11    1    1    2    0    0 -0.13005994511E+03 -0.56993373438E+02 -0.23865775578E+02  0.14399100382E+03  0.00000000000E+00 0.  1.
         11    1    1    2    0    0 -0.16579276837E+02 -0.24946390677E+02 -0.55426611932E+02  0.63002413751E+02  0.00000000000E+00 0. -1.
</event>
<event>
 7    1  0.2499014E-009  0.1150809E+03  0.7561462E-02  0.1251440E+00
          2   -1    0    0  501    0  0.00000000000E+00  0.00000000000E+00  0.24310439049E+03  0.24310439049E+03  0.00000000000E+00 0. -1.
         -2   -1    0    0    0  501 -0.00000000000E+00 -0.00000000000E+00 -0.62719615591E+02  0.62719615591E+02  0.00000000000E+00 0.  1.
         25    2    1    2    0    0 -0.48236037195E+02  0.69399849264E+01  0.61265999466E+02  0.14756586058E+03  0.12508909562E+03 0.  0.
          5    1    3    3  502    0  0.37935572832E+02  0.22072567045E+02  0.73081570227E+01  0.44689903347E+02  0.41800000000E+01 0.  1.
         -5    1    3    3    0  502 -0.86171610027E+02 -0.15132582119E+02  0.53957842443E+02  0.10287595724E+03  0.41800000000E+01 0.  1.
        -11    1    1    2    0    0 -0.18099857170E+02  0.19921013560E+02  0.58777424421E+02  0.64647020290E+02  0.00000000000E+00 0. -1.
         11    1    1    2    0    0  0.66335894364E+02 -0.26860998487E+02  0.60341351015E+02  0.93611125210E+02  0.00000000000E+00 0.  1.
</event>
<event>
 7    1  0.2499014E-009  0.1311012E+03  0.7561462E-02  0.1225831E+00
         -1   -1    0    0    0  501 -0.00000000000E+00  0.00000000000E+00  0.48934320892E+02  0.48934320892E+02  0.00000000000E+00 0.  1.
          1   -1    0    0  501    0  0.00000000000E+00 -0.00000000000E+00 -0.60259618566E+03  0.60259618566E+03  0.00000000000E+00 0. -1.
         25    2    1    2    0    0  0.52525174694E+02  0.88222938406E+02 -0.13897121367E+03  0.21331182100E+03  0.12508698539E+03 0.  0.
          5    1    3    3  502    0  0.35332194962E+02 -0.29954009448E+01 -0.11050605881E+03  0.11613095135E+03  0.41800000000E+01 0.  1.
         -5    1    3    3    0  502  0.17192979732E+02  0.91218339351E+02 -0.28465154859E+02  0.97180869656E+02  0.41800000000E+01 0.  1.
        -11    1    1    2    0    0  0.20814446848E+02 -0.42038743754E+02 -0.22247561356E+03  0.22736731472E+03  0.00000000000E+00 0. -1.
         11    1    1    2    0    0 -0.73339621543E+02 -0.46184194652E+02 -0.19221503754E+03  0.21085137083E+03  0.00000000000E+00 0.  1.
</event>
<event>
 7    1  0.2499014E-009  0.1570458E+03  0.7561462E-02  0.1192073E+00
         -2   -1    0    0    0  501 -0.00000000000E+00  0.00000000000E+00  0.24365010051E+02  0.24365010051E+02  0.00000000000E+00 0.  1.
          2   -1    0    0  501    0  0.00000000000E+00 -0.00000000000E+00 -0.12864435899E+04  0.12864435899E+04  0.00000000000E+00 0. -1.
         25    2    1    2    0    0 -0.10165863823E+03 -0.62441054817E+02 -0.93836915559E+03  0.95415792436E+03  0.12508920182E+03 0.  0.
          5    1    3    3  502    0 -0.81763807713E+02 -0.95731492023E+02 -0.81757263506E+03  0.82721963517E+03  0.41800000000E+01 0. -1.
         -5    1    3    3    0  502 -0.19894830512E+02  0.33290437207E+02 -0.12079652053E+03  0.12693828919E+03  0.41800000000E+01 0. -1.
        -11    1    1    2    0    0  0.61838979691E+02  0.83632510845E+02 -0.23979091944E+03  0.26137739253E+03  0.00000000000E+00 0.  1.
         11    1    1    2    0    0  0.39819658535E+02 -0.21191456028E+02 -0.83918504847E+02  0.95273283087E+02  0.00000000000E+00 0. -1.
</event>
<event>
 7    1  0.2499014E-009  0.1419671E+03  0.7561462E-02  0.1210706E+00
         -2   -1    0    0    0  501 -0.00000000000E+00  0.00000000000E+00  0.71425966813E+02  0.71425966813E+02  0.00000000000E+00 0.  1.
          2   -1    0    0  501    0  0.00000000000E+00 -0.00000000000E+00 -0.30267953825E+03  0.30267953825E+03  0.00000000000E+00 0. -1.
         25    2    1    2    0    0 -0.80985447595E+02 -0.42439798963E+02 -0.17019940037E+03  0.23015961334E+03  0.12508330212E+03 0.  0.
          5    1    3    3  502    0  0.20605078583E+02 -0.48696946694E+02 -0.56254926606E+02  0.77317857239E+02  0.41800000000E+01 0. -1.
         -5    1    3    3    0  502 -0.10159052618E+03  0.62571477306E+01 -0.11394447377E+03  0.15284175610E+03  0.41800000000E+01 0. -1.
        -11    1    1    2    0    0  0.45572047198E+02  0.70427371780E+02 -0.29706130217E+02  0.88990338543E+02  0.00000000000E+00 0.  1.
         11    1    1    2    0    0  0.35413400398E+02 -0.27987572817E+02 -0.31348040849E+02  0.54955553176E+02  0.00000000000E+00 0. -1.
</event>
<event>
 7    1  0.2499014E-009  0.1546511E+03  0.7561462E-02  0.1194871E+00
         -1   -1    0    0    0  501 -0.00000000000E+00  0.00000000000E+00  0.16101733506E+03  0.16101733506E+03  0.00000000000E+00 0.  1.
          1   -1    0    0  501    0  0.00000000000E+00 -0.00000000000E+00 -0.37585261229E+03  0.37585261229E+03  0.00000000000E+00 0. -1.
         25    2    1    2    0    0  0.73005932622E+02 -0.10242828426E+03 -0.30786841754E+03  0.35531542313E+03  0.12507864641E+03 0.  0.
          5    1    3    3  502    0 -0.18118938281E+02 -0.46328916627E+02 -0.18828038178E+03  0.19478613658E+03  0.41800000000E+01 0. -1.
         -5    1    3    3    0  502  0.91124870903E+02 -0.56099367629E+02 -0.11958803575E+03  0.16052928655E+03  0.41800000000E+01 0. -1.
        -11    1    1    2    0    0 -0.88828412545E+02  0.60495277005E+02  0.46976993695E+02  0.11729025259E+03  0.00000000000E+00 0. -1.
         11    1    1    2    0    0  0.15822479923E+02  0.41933007251E+02  0.46056146607E+02  0.64264271631E+02  0.00000000000E+00 0.  1.
</event>
<event>
 7    1  0.2499014E-009  0.1518145E+03  0.7561462E-02  0.1198261E+00
         -2   -1    0    0    0  501 -0.00000000000E+00  0.00000000000E+00  0.13576730016E+02  0.13576730016E+02  0.00000000000E+00 0.  1.
          2   -1    0    0  501    0  0.00000000000E+00 -0.00000000000E+00 -0.23595408099E+04  0.23595408099E+04  0.00000000000E+00 0. -1.
         25    2    1    2    0    0 -0.13059220395E+03  0.11335770058E+02 -0.16955282158E+04  0.17051820312E+04  0.12508799052E+03 0.  0.
          5    1    3    3  502    0 -0.11726270948E+03 -0.26528036159E+02 -0.82562255323E+03  0.83434066936E+03  0.41800000000E+01 0.  1.
         -5    1    3    3    0  502 -0.13329494465E+02  0.37863806217E+02 -0.86990566257E+03  0.87084136180E+03  0.41800000000E+01 0.  1.
        -11    1    1    2    0    0  0.95290283554E+02  0.18116562684E+02 -0.53425630718E+03  0.54299010097E+03  0.00000000000E+00 0. -1.
         11    1    1    2    0    0  0.35301920392E+02 -0.29452332742E+02 -0.11617955686E+03  0.12494540776E+03  0.00000000000E+00 0.  1.
</event>
<event>
 7    1  0.2499014E-009  0.1331702E+03  0.7561462E-02  0.1222826E+00
         -4   -1    0    0    0  501 -0.00000000000E+00  0.00000000000E+00  0.35359288511E+03  0.35359288511E+03  0.00000000000E+00 0.  1.
          4   -1    0    0  501    0  0.00000000000E+00 -0.00000000000E+00 -0.62189557299E+02  0.62189557299E+02  0.00000000000E+00 0. -1.
         25    2    1    2    0    0  0.71449584071E+02 -0.28926762827E+02  0.66990390435E+02  0.16148383496E+03  0.12509003106E+03 0.  0.
          5    1    3    3  502    0  0.90889971623E+02  0.20685004191E+02  0.38757802459E+02  0.10103710205E+03  0.41800000000E+01 0.  1.
         -5    1    3    3    0  502 -0.19440387552E+02 -0.49611767018E+02  0.28232587977E+02  0.60446732904E+02  0.41800000000E+01 0.  1.
        -11    1    1    2    0    0 -0.40442718543E+02 -0.31768101818E+02  0.99142456314E+02  0.11168729749E+03  0.00000000000E+00 0. -1.
         11    1    1    2    0    0 -0.31006865528E+02  0.60694864645E+02  0.12527048106E+03  0.14261130996E+03  0.00000000000E+00 0.  1.
</event>
<event>
 7    1  0.2499014E-009  0.1750258E+03  0.7561462E-02  0.1172706E+00
         -1   -1    0    0    0  501 -0.00000000000E+00  0.00000000000E+00  0.17861564570E+03  0.17861564570E+03  0.00000000000E+00 0.  1.
          1   -1    0    0  501    0  0.00000000000E+00 -0.00000000000E+00 -0.29684518464E+03  0.29684518464E+03  0.00000000000E+00 0. -1.
         25    2    1    2    0    0 -0.14866034449E+03  0.40846997840E+02  0.73724568460E+02  0.21178202118E+03  0.12509171533E+03 0.  0.
          5    1    3    3  502    0 -0.12332299365E+03 -0.23334570305E+02  0.66976944727E+02  0.14232514345E+03  0.41800000000E+01 0. -1.
         -5    1    3    3    0  502 -0.25337350837E+02  0.64181568145E+02  0.67476237324E+01  0.69456877723E+02  0.41800000000E+01 0. -1.
        -11    1    1    2    0    0  0.21150791776E+02 -0.13003408581E+02  0.69457565617E+01  0.25781546922E+02  0.00000000000E+00 0.  1.
         11    1    1    2    0    0  0.12750955271E+03 -0.27843589259E+02 -0.19889986397E+03  0.23789726224E+03  0.00000000000E+00 0. -1.
</event>
<event>
 7    1  0.2499014E-009  0.1297872E+03  0.7561462E-02  0.1227772E+00
         -2   -1    0    0    0  501 -0.00000000000E+00  0.00000000000E+00  0.19552547961E+03  0.19552547961E+03  0.00000000000E+00 0.  1.
          2   -1    0    0  501    0  0.00000000000E+00 -0.00000000000E+00 -0.88314769413E+02  0.88314769413E+02  0.00000000000E+00 0. -1.
         25    2    1    2    0    0 -0.56715846852E+02 -0.44144084515E+02  0.75848537439E+02  0.16298991297E+03  0.12508926260E+03 0.  0.
          5    1    3    3  502    0 -0.58727137999E+02 -0.84719810549E+02  0.58667615788E+02  0.11868312677E+03  0.41800000000E+01 0. -1.
         -5    1    3    3    0  502  0.20112911477E+01  0.40575726034E+02  0.17180921651E+02  0.44306786208E+02  0.41800000000E+01 0. -1.
        -11    1    1    2    0    0 -0.12374186751E+02  0.44794707391E+02  0.43903432676E+01  0.46679346846E+02  0.00000000000E+00 0. -1.
         11    1    1    2    0    0  0.69090033602E+02 -0.65062287556E+00  0.26971829492E+02  0.74170989203E+02  0.00000000000E+00 0.  1.
</event>
<event>
 7    1  0.2499014E-009  0.1087073E+03  0.7561462E-02  0.1262983E+00
          1   -1    0    0  501    0  0.00000000000E+00  0.00000000000E+00  0.92667774244E+02  0.92667774244E+02  0.00000000000E+00 0. -1.
         -1   -1    0    0    0  501 -0.00000000000E+00 -0.00000000000E+00 -0.19822680275E+03  0.19822680275E+03  0.00000000000E+00 0.  1.
         25    2    1    2    0    0  0.28734982638E+02 -0.67750052765E+02 -0.97713266749E+02  0.17495902734E+03  0.12508800850E+03 0.  0.
          5    1    3    3  502    0  0.71129635142E+02 -0.23452124352E+02 -0.82782811264E+02  0.11171344312E+03  0.41800000000E+01 0.  1.
         -5    1    3    3    0  502 -0.42394652504E+02 -0.44297928413E+02 -0.14930455484E+02  0.63245584222E+02  0.41800000000E+01 0.  1.
        -11    1    1    2    0    0 -0.36429794345E+02  0.53088125965E+02  0.32646020758E+02  0.72188930632E+02  0.00000000000E+00 0. -1.
         11    1    1    2    0    0  0.76948117063E+01  0.14661926800E+02 -0.40491782512E+02  0.43746619020E+02  0.00000000000E+00 0.  1.
</event>
<event>
 7    1  0.2499014E-009  0.1442846E+03  0.7561462E-02  0.1207677E+00
         -2   -1    0    0    0  501 -0.00000000000E+00  0.00000000000E+00  0.99254710126E+02  0.99254710126E+02  0.00000000000E+00 0.  1.
          2   -1    0    0  501    0  0.00000000000E+00 -0.00000000000E+00 -0.38186088877E+03  0.38186088877E+03  0.00000000000E+00 0. -1.
         25    2    1    2    0    0 -0.12208431161E+03  0.50410589643E+02 -0.26379398799E+03  0.32043749238E+03  0.12508841566E+03 0.  0.
          5    1    3    3  502    0 -0.10654600973E+03  0.47206925053E+02 -0.27624007927E+03  0.29984429252E+03  0.41800000000E+01 0.  1.
         -5    1    3    3    0  502 -0.15538301885E+02  0.32036645895E+01  0.12446091279E+02  0.20593199858E+02  0.41800000000E+01 0.  1.
        -11    1    1    2    0    0  0.11208223275E+03 -0.84325497129E+01 -0.29530925473E+02  0.11621364099E+03  0.00000000000E+00 0. -1.
         11    1    1    2    0    0  0.10002078863E+02 -0.41978039930E+02  0.10718734826E+02  0.44464465523E+02  0.00000000000E+00 0.  1.
</event>
<event>
 7    1  0.2499014E-009  0.2668834E+03  0.7561462E-02  0.1103077E+00
         -3   -1    0    0    0  501 -0.00000000000E+00  0.00000000000E+00  0.93370078212E+03  0.93370078212E+03  0.00000000000E+00 0.  1.
          3   -1    0    0  501    0  0.00000000000E+00 -0.00000000000E+00 -0.13713637781E+03  0.13713637781E+03  0.00000000000E+00 0. -1.
         25    2    1    2    0    0 -0.26089354498E+03  0.11882037907E+02  0.77184114137E+02  0.29968609948E+03  0.12509095135E+03 0.  0.
          5    1    3    3  502    0 -0.53330975850E+01 -0.12051954639E+02  0.37444570409E+02  0.39915658501E+02  0.41800000000E+01 0. -1.
         -5    1    3    3    0  502 -0.25556044739E+03  0.23933992546E+02  0.39739543729E+02  0.25977044098E+03  0.41800000000E+01 0. -1.
        -11    1    1    2    0    0  0.75918525797E+02  0.11486417940E+02  0.33832234040E+03  0.34692588023E+03  0.00000000000E+00 0.  1.
         11    1    1    2    0    0  0.18497501918E+03 -0.23368455847E+02  0.38105794977E+03  0.42422518022E+03  0.00000000000E+00 0. -1.
</event>
<event>
 7    1  0.2499014E-009  0.1120040E+03  0.7561462E-02  0.1256903E+00
         -3   -1    0    0    0  501 -0.00000000000E+00  0.00000000000E+00  0.34905610261E+03  0.34905610261E+03  0.00000000000E+00 0.  1.
          3   -1    0    0  501    0  0.00000000000E+00 -0.00000000000E+00 -0.52318664696E+02  0.52318664696E+02  0.00000000000E+00 0. -1.
         25    2    1    2    0    0  0.81243023982E+02  0.36107837718E+01  0.20381551783E+03  0.25258946039E+03  0.12508878240E+03 0.  0.
          5    1    3    3  502    0 -0.27555816399E+02 -0.32051618740E+01  0.92738404468E+01  0.29547801892E+02  0.41800000000E+01 0.  1.
         -5    1    3    3    0  502  0.10879884038E+03  0.68159456458E+01  0.19454167739E+03  0.22304165849E+03  0.41800000000E+01 0.  1.
        -11    1    1    2    0    0 -0.33086936765E+02  0.13528376679E+02 -0.71139537615E+01  0.36446820138E+02  0.00000000000E+00 0.  1.
         11    1    1    2    0    0 -0.48156087217E+02 -0.17139160451E+02  0.10003587384E+03  0.11233848678E+03  0.00000000000E+00 0. -1.
</event>
<event>
 7    1  0.3038491E-009  0.8111497E+02  0.7561462E-02  0.1325917E+00
          2   -1    0    0  501    0  0.00000000000E+00  0.00000000000E+00  0.12267674200E+03  0.12267674200E+03  0.00000000000E+00 0. -1.
         -2   -1    0    0    0  501 -0.00000000000E+00 -0.00000000000E+00 -0.10558416458E+03  0.10558416458E+03  0.00000000000E+00 0.  1.
         25    2    1    2    0    0 -0.11629800025E+02 -0.13501993569E+02 -0.21048751170E+02  0.12808605192E+03  0.12508169607E+03 0.  0.
          5    1    3    3  502    0  0.41170574854E+02 -0.84101577735E+01 -0.51641321234E+02  0.66708660954E+02  0.41800000000E+01 0. -1.
         -5    1    3    3    0  502 -0.52800374879E+02 -0.50918357957E+01  0.30592570064E+02  0.61377390970E+02  0.41800000000E+01 0. -1.
        -11    1    1    2    0    0 -0.18145064804E+02  0.28241767236E+02 -0.15581819438E+02  0.37008565094E+02  0.00000000000E+00 0.  1.
         11    1    1    2    0    0  0.29774864829E+02 -0.14739773667E+02  0.53723148025E+02  0.63166289562E+02  0.00000000000E+00 0. -1.
</event>
<event>
 7    1  0.3837411E-009  0.8192523E+02  0.7561462E-02  0.1323675E+00
          4   -1    0    0  501    0  0.00000000000E+00  0.00000000000E+00  0.81407079787E+03  0.81407079787E+03  0.00000000000E+00 0. -1.
         -4   -1    0    0    0  501 -0.00000000000E+00 -0.00000000000E+00 -0.18945322912E+02  0.18945322912E+02  0.00000000000E+00 0.  1.
         25    2    1    2    0    0 -0.35197259707E+00 -0.49337302777E+02  0.55974527537E+03  0.57567050033E+03  0.12508980101E+03 0.  0.
          5    1    3    3  502    0 -0.32334597978E+02 -0.12529736244E+01  0.45350222563E+03  0.45467442991E+03  0.41800000000E+01 0.  1.
         -5    1    3    3    0  502  0.31982625381E+02 -0.48084329153E+02  0.10624304975E+03  0.12099607042E+03  0.41800000000E+01 0.  1.
        -11    1    1    2    0    0  0.16420155020E+02 -0.45919584579E+01  0.18718738313E+01  0.17152594118E+02  0.00000000000E+00 0.  1.
         11    1    1    2    0    0 -0.16068182423E+02  0.53929261235E+02  0.23350832575E+03  0.24019302633E+03  0.00000000000E+00 0. -1.
</event>
<event>
 7    1  0.2499014E-009  0.1482374E+03  0.7561462E-02  0.1202656E+00
          2   -1    0    0  501    0  0.00000000000E+00  0.00000000000E+00  0.74757031615E+03  0.74757031615E+03  0.00000000000E+00 0.  1.
         -2   -1    0    0    0  501 -0.00000000000E+00 -0.00000000000E+00 -0.36238141726E+02  0.36238141726E+02  0.00000000000E+00 0. -1.
         25    2    1    2    0    0  0.33770968147E+02 -0.10777240601E+03  0.47696466316E+03  0.50586386154E+03  0.12509031428E+03 0.  0.
          5    1    3    3  502    0 -0.23639395035E+02 -0.83879537074E+02  0.15450881474E+03  0.17744025465E+03  0.41800000000E+01 0.  1.
         -5    1    3    3    0  502  0.57410363182E+02 -0.23892868934E+02  0.32245584842E+03  0.32842360689E+03  0.41800000000E+01 0.  1.
        -11    1    1    2    0    0 -0.61032783564E+02  0.37756274885E+02  0.13995637881E+03  0.15728421705E+03  0.00000000000E+00 0.  1.
         11    1    1    2    0    0  0.27261815417E+02  0.70016131123E+02  0.94411132450E+02  0.12066037928E+03  0.00000000000E+00 0. -1.
</event>
<event>
 7    1  0.2499014E-009  0.1359092E+03  0.7561462E-02  0.1218942E+00
         -2   -1    0    0    0  501 -0.00000000000E+00  0.00000000000E+00  0.21779570704E+02  0.21779570704E+02  0.00000000000E+00 0.  1.
          2   -1    0    0  501    0  0.00000000000E+00 -0.00000000000E+00 -0.11754294157E+04  0.11754294157E+04  0.00000000000E+00 0. -1.
         25    2    1    2    0    0 -0.11022324013E+03  0.30150794637E+02 -0.71491834832E+03  0.73471996630E+03  0.12508777335E+03 0.  0.
          5    1    3    3  502    0 -0.87400282584E+02 -0.27195260780E+01 -0.20109402088E+03  0.21932278234E+03  0.41800000000E+01 0. -1.
         -5    1    3    3    0  502 -0.22822957550E+02  0.32870320715E+02 -0.51382432744E+03  0.51539718397E+03  0.41800000000E+01 0. -1.
        -11    1    1    2    0    0  0.78484245410E+02  0.23306802590E+02 -0.20812573596E+03  0.22364996265E+03  0.00000000000E+00 0.  1.
         11    1    1    2    0    0  0.31738994724E+02 -0.53457597227E+02 -0.23060576072E+03  0.23883905745E+03  0.00000000000E+00 0. -1.
</event>
<event>
 7    1  0.2499014E-009  0.1086070E+03  0.7561462E-02  0.1263171E+00
          2   -1    0    0  501    0  0.00000000000E+00  0.00000000000E+00  0.20887257400E+03  0.20887257400E+03  0.00000000000E+00 0. -1.
         -2   -1    0    0    0  501 -0.00000000000E+00 -0.00000000000E+00 -0.61293947871E+02  0.61293947871E+02  0.00000000000E+00 0.  1.
         25    2    1    2    0    0 -0.31070410080E+01 -0.50114238331E+01  0.11633670183E+03  0.17092778083E+03  0.12508920814E+03 0.  0.
          5    1    3    3  502    0 -0.17722888663E+02 -0.62043088506E+02  0.74124998190E+02  0.98363780787E+02  0.41800000000E+01 0.  1.
         -5    1    3    3    0  502  0.14615847655E+02  0.57031664673E+02  0.42211703635E+02  0.72564000040E+02  0.41800000000E+01 0.  1.
        -11    1    1    2    0    0  0.23540151440E+02  0.43779996193E+02  0.10730421692E+02  0.50852421242E+02  0.00000000000E+00 0.  1.
         11    1    1    2    0    0 -0.20433110432E+02 -0.38768572359E+02  0.20511502613E+02  0.48386319804E+02  0.00000000000E+00 0. -1.
</event>
<event>
 7    1  0.2499014E-009  0.1102328E+03  0.7561462E-02  0.1260139E+00
          1   -1    0    0  501    0  0.00000000000E+00  0.00000000000E+00  0.38807735303E+03  0.38807735303E+03  0.00000000000E+00 0. -1.
         -1   -1    0    0    0  501 -0.00000000000E+00 -0.00000000000E+00 -0.69935931729E+02  0.69935931729E+02  0.00000000000E+00 0.  1.
         25    2    1    2    0    0  0.75810709890E+02  0.47528163925E+02  0.52508243729E+02  0.16251344235E+03  0.12508922090E+03 0.  0.
          5    1    3    3  502    0  0.50967166076E+01 -0.33914754736E+01  0.72610355346E+02  0.72987771096E+02  0.41800000000E+01 0.  1.
         -5    1    3    3    0  502  0.70713993283E+02  0.50919639399E+02 -0.20102111617E+02  0.89525671257E+02  0.41800000000E+01 0.  1.
        -11    1    1    2    0    0 -0.66071268386E+02  0.10563732171E+02  0.17554369487E+03  0.18786323150E+03  0.00000000000E+00 0. -1.
         11    1    1    2    0    0 -0.97394415045E+01 -0.58091896096E+02  0.90089482707E+02  0.10763661091E+03  0.00000000000E+00 0.  1.
</event>
<event>
 7    1  0.2499014E-009  0.1519528E+03  0.7561462E-02  0.1198094E+00
         -2   -1    0    0    0  501 -0.00000000000E+00  0.00000000000E+00  0.85501003075E+02  0.85501003075E+02  0.00000000000E+00 0.  1.
          2   -1    0    0  501    0  0.00000000000E+00 -0.00000000000E+00 -0.35227832264E+03  0.35227832264E+03  0.00000000000E+00 0. -1.
         25    2    1    2    0    0  0.11987591334E+03  0.28254438945E+02 -0.21126374469E+03  0.27467947471E+03  0.12509155082E+03 0.  0.
          5    1    3    3  502    0  0.12847851619E+03  0.86890348655E+01 -0.21681312740E+03  0.25220553734E+03  0.41800000000E+01 0.  1.
         -5    1    3    3    0  502 -0.86026028466E+01  0.19565404079E+02  0.55493827129E+01  0.22473937372E+02  0.41800000000E+01 0.  1.
        -11    1    1    2    0    0  0.68825653741E+01 -0.25591902674E+02 -0.76984649749E+01  0.27596767050E+02  0.00000000000E+00 0. -1.
         11    1    1    2    0    0 -0.12675847872E+03 -0.26625362705E+01 -0.47815109898E+02  0.13550308395E+03  0.00000000000E+00 0.  1.
</event>
<event>
 7    1  0.2499014E-009  0.1600041E+03  0.7561462E-02  0.1188692E+00
         -1   -1    0    0    0  501 -0.00000000000E+00  0.00000000000E+00  0.14276128700E+03  0.14276128700E+03  0.00000000000E+00 0.  1.
          1   -1    0    0  501    0  0.00000000000E+00 -0.00000000000E+00 -0.19990418668E+03  0.19990418668E+03  0.00000000000E+00 0. -1.
         25    2    1    2    0    0 -0.25187451669E+02  0.11696929725E+03  0.17371945586E+02  0.17397365779E+03  0.12509526327E+03 0.  0.
          5    1    3    3  502    0 -0.51118405021E+02  0.16124295375E+01 -0.10611212526E+02  0.52400014238E+02  0.41800000000E+01 0.  1.
         -5    1    3    3    0  502  0.25930953352E+02  0.11535686771E+03  0.27983158112E+02  0.12157364355E+03  0.41800000000E+01 0.  1.
        -11    1    1    2    0    0 -0.18086111285E+02  0.67583848310E+01 -0.35284047182E+01  0.19627348950E+02  0.00000000000E+00 0.  1.
         11    1    1    2    0    0  0.43273562954E+02 -0.12372768208E+03 -0.70986440544E+02  0.14906446694E+03  0.00000000000E+00 0. -1.
</event>
<event>
 7    1  0.2499014E-009  0.8730171E+02  0.7561462E-02  0.1309521E+00
         -1   -1    0    0    0  501 -0.00000000000E+00  0.00000000000E+00  0.30117341716E+02  0.30117341716E+02  0.00000000000E+00 0.  1.
          1   -1    0    0  501    0  0.00000000000E+00 -0.00000000000E+00 -0.57566944608E+03  0.57566944608E+03  0.00000000000E+00 0. -1.
         25    2    1    2    0    0 -0.59739739923E+02 -0.66571196165E+01 -0.40298874498E+03  0.42621578786E+03  0.12508723146E+03 0.  0.
          5    1    3    3  502    0  0.20048231434E+02  0.21069186839E+02 -0.24095467615E+02  0.37998765470E+02  0.41800000000E+01 0.  1.
         -5    1    3    3    0  502 -0.79787971357E+02 -0.27726306456E+02 -0.37889327736E+03  0.38821702239E+03  0.41800000000E+01 0.  1.
        -11    1    1    2    0    0  0.20744425619E+02 -0.15422332914E+01  0.91402601789E+01  0.22721224305E+02  0.00000000000E+00 0.  1.
         11    1    1    2    0    0  0.38995314304E+02  0.81993529079E+01 -0.15170361957E+03  0.15684977563E+03  0.00000000000E+00 0. -1.
</event>
<event>
 7    1  0.2499014E-009  0.1090751E+03  0.7561462E-02  0.1262292E+00
          2   -1    0    0  501    0  0.00000000000E+00  0.00000000000E+00  0.29999910209E+02  0.29999910209E+02  0.00000000000E+00 0. -1.
         -2   -1    0    0    0  501 -0.00000000000E+00 -0.00000000000E+00 -0.75386061832E+03  0.75386061832E+03  0.00000000000E+00 0.  1.
         25    2    1    2    0    0  0.64769518014E+02  0.52857661669E+02 -0.23319765070E+03  0.27752597111E+03  0.12510194838E+03 0.  0.
          5    1    3    3  502    0  0.39576499176E+02 -0.90086708054E+01 -0.19750072693E+03  0.20167167619E+03  0.41800000000E+01 0. -1.
         -5    1    3    3    0  502  0.25193018837E+02  0.61866332474E+02 -0.35696923766E+02  0.75854294923E+02  0.41800000000E+01 0. -1.
        -11    1    1    2    0    0  0.12378861650E+02 -0.25879135968E+02 -0.45921066378E+02  0.54145269706E+02  0.00000000000E+00 0. -1.
         11    1    1    2    0    0 -0.77148379664E+02 -0.26978525700E+02 -0.44474199104E+03  0.45218928772E+03  0.00000000000E+00 0.  1.
</event>
<event>
 7    1  0.2499014E-009  0.6498898E+02  0.7561462E-02  0.1378013E+00
         -2   -1    0    0    0  501 -0.00000000000E+00  0.00000000000E+00  0.12596755367E+02  0.12596755367E+02  0.00000000000E+00 0.  1.
          2   -1    0    0  501    0  0.00000000000E+00 -0.00000000000E+00 -0.98974746131E+03  0.98974746131E+03  0.00000000000E+00 0. -1.
         25    2    1    2    0    0 -0.13929213355E+02 -0.19782993805E+02 -0.53313266598E+03  0.54814534275E+03  0.12508991733E+03 0.  0.
          5    1    3    3  502    0 -0.17852633109E+02 -0.21674386436E+02 -0.19417877524E+02  0.34395085460E+02  0.41800000000E+01 0. -1.
         -5    1    3    3    0  502  0.39234197535E+01  0.18913926311E+01 -0.51371478845E+03  0.51375025729E+03  0.41800000000E+01 0. -1.
        -11    1    1    2    0    0  0.38562130633E+02 -0.23924350487E+02 -0.20186785160E+03  0.20690587710E+03  0.00000000000E+00 0.  1.
         11    1    1    2    0    0 -0.24632917277E+02  0.43707344292E+02 -0.24215018836E+03  0.24729299683E+03  0.00000000000E+00 0. -1.
</event>
<event>
 7    1  0.2499014E-009  0.2055234E+03  0.7561462E-02  0.1145161E+00
         -2   -1    0    0    0  501 -0.00000000000E+00  0.00000000000E+00  0.46426548387E+02  0.46426548387E+02  0.00000000000E+00 0.  1.
          2   -1    0    0  501    0  0.00000000000E+00 -0.00000000000E+00 -0.10464411705E+04  0.10464411705E+04  0.00000000000E+00 0. -1.
         25    2    1    2    0    0 -0.17961842580E+03  0.49280858930E+02 -0.63405128927E+03  0.67257676270E+03  0.12508829824E+03 0.  0.
          5    1    3    3  502    0 -0.18878664937E+03  0.19857033422E+02 -0.57911571514E+03  0.60944826251E+03  0.41800000000E+01 0.  1.
         -5    1    3    3    0  502  0.91682235717E+01  0.29423825508E+02 -0.54935574128E+02  0.63128500186E+02  0.41800000000E+01 0.  1.
        -11    1    1    2    0    0  0.81978315973E+02 -0.30385230752E+01 -0.24368440410E+03  0.25712208329E+03  0.00000000000E+00 0. -1.
         11    1    1    2    0    0  0.97640109827E+02 -0.46242335855E+02 -0.12227892878E+03  0.16316887294E+03  0.00000000000E+00 0.  1.
</event>
<event>
 7    1  0.2499014E-009  0.8366404E+02  0.7561462E-02  0.1318964E+00
         -1   -1    0    0    0  501 -0.00000000000E+00  0.00000000000E+00  0.13565119743E+03  0.13565119743E+03  0.00000000000E+00 0.  1.
          1   -1    0    0  501    0  0.00000000000E+00 -0.00000000000E+00 -0.15623782825E+03  0.15623782825E+03  0.00000000000E+00 0. -1.
         25    2    1    2    0    0 -0.29825926012E+02  0.68472095291E+01 -0.10136320914E+03  0.16388561664E+03  0.12509006768E+03 0.  0.
          5    1    3    3  502    0 -0.18669764033E+02  0.58983527122E+02 -0.89866487849E+02  0.10918367368E+03  0.41800000000E+01 0.  1.
         -5    1    3    3    0  502 -0.11156161979E+02 -0.52136317593E+02 -0.11496721295E+02  0.54701942953E+02  0.41800000000E+01 0.  1.
        -11    1    1    2    0    0 -0.10102897237E+02 -0.63006349241E+01 -0.17931121454E+02  0.21524210778E+02  0.00000000000E+00 0. -1.
         11    1    1    2    0    0  0.39928823249E+02 -0.54657460507E+00  0.98707699777E+02  0.10647919827E+03  0.00000000000E+00 0.  1.
</event>
<event>
 7    1  0.2499014E-009  0.2416831E+03  0.7561462E-02  0.1118677E+00
          2   -1    0    0  501    0  0.00000000000E+00  0.00000000000E+00  0.11701856173E+04  0.11701856173E+04  0.00000000000E+00 0.  1.
         -2   -1    0    0    0  501 -0.00000000000E+00 -0.00000000000E+00 -0.67688466785E+02  0.67688466785E+02  0.00000000000E+00 0. -1.
         25    2    1    2    0    0  0.13667603758E+03 -0.17841517903E+03  0.85962326495E+03  0.89728032537E+03  0.12509000479E+03 0.  0.
          5    1    3    3  502    0  0.13663170138E+03 -0.19592011645E+03  0.81000676814E+03  0.84450065168E+03  0.41800000000E+01 0.  1.
         -5    1    3    3    0  502  0.44336200949E-01  0.17504937416E+02  0.49616496812E+02  0.52779673696E+02  0.41800000000E+01 0.  1.
        -11    1    1    2    0    0 -0.55689772654E+02  0.95632952352E+02  0.17290885115E+03  0.20529121550E+03  0.00000000000E+00 0.  1.
         11    1    1    2    0    0 -0.80986264929E+02  0.82782226679E+02  0.69965034421E+02  0.13530254322E+03  0.00000000000E+00 0. -1.
</event>
<event>
 7    1  0.2865887E-009  0.1014557E+03  0.7561462E-02  0.1277264E+00
          1   -1    0    0  501    0  0.00000000000E+00  0.00000000000E+00  0.33081763979E+03  0.33081763979E+03  0.00000000000E+00 0. -1.
         -1   -1    0    0    0  501 -0.00000000000E+00 -0.00000000000E+00 -0.46890999539E+02  0.46890999539E+02  0.00000000000E+00 0.  1.
         25    2    1    2    0    0  0.28175358705E+02 -0.40897701800E+02  0.21237670916E+03  0.25143866407E+03  0.12510420593E+03 0.  0.
          5    1    3    3  502    0  0.58495361395E+02 -0.40621229813E+02  0.20876592360E+03  0.22061839197E+03  0.41800000000E+01 0.  1.
         -5    1    3    3    0  502 -0.30320002690E+02 -0.27647198728E+00  0.36107855587E+01  0.30820272099E+02  0.41800000000E+01 0.  1.
        -11    1    1    2    0    0  0.25792364312E+02  0.39256711798E+02  0.48639713626E+02  0.67617728589E+02  0.00000000000E+00 0. -1.
         11    1    1    2    0    0 -0.53967723016E+02  0.16409900029E+01  0.22910217464E+02  0.58652246675E+02  0.00000000000E+00 0.  1.
</event>
<event>
 7    1  0.2499014E-009  0.6125291E+02  0.7561462E-02  0.1392648E+00
          1   -1    0    0  501    0  0.00000000000E+00  0.00000000000E+00  0.57827431163E+02  0.57827431163E+02  0.00000000000E+00 0. -1.
         -1   -1    0    0    0  501 -0.00000000000E+00 -0.00000000000E+00 -0.20889062191E+03  0.20889062191E+03  0.00000000000E+00 0.  1.
         25    2    1    2    0    0 -0.15776809662E+02  0.12428565903E+02 -0.84541113260E+02  0.15231012001E+03  0.12509115017E+03 0.  0.
          5    1    3    3  502    0  0.10684874112E+02  0.13815827778E+02  0.29838962055E+02  0.34826422275E+02  0.41800000000E+01 0. -1.
         -5    1    3    3    0  502 -0.26461683774E+02 -0.13872618754E+01 -0.11438007531E+03  0.11748369773E+03  0.41800000000E+01 0. -1.
        -11    1    1    2    0    0  0.13502561985E+02  0.31219379279E+02  0.93720218323E+00  0.34027153432E+02  0.00000000000E+00 0. -1.
         11    1    1    2    0    0  0.22742476771E+01 -0.43647945182E+02 -0.67459279669E+02  0.80380779634E+02  0.00000000000E+00 0.  1.
</event>
<event>
 7    1  0.2499014E-009  0.1697180E+03  0.7561462E-02  0.1178142E+00
         -1   -1    0    0    0  501 -0.00000000000E+00  0.00000000000E+00  0.93106721035E+02  0.93106721035E+02  0.00000000000E+00 0.  1.
          1   -1    0    0  501    0  0.00000000000E+00 -0.00000000000E+00 -0.40068768091E+03  0.40068768091E+03  0.00000000000E+00 0. -1.
         25    2    1    2    0    0  0.10413125300E+03 -0.11522623869E+03 -0.21100406481E+03  0.29032796669E+03  0.12508880422E+03 0.  0.
          5    1    3    3  502    0  0.11586735894E+03 -0.72218412649E+02 -0.20325057659E+03  0.24488571473E+03  0.41800000000E+01 0.  1.
         -5    1    3    3    0  502 -0.11736105943E+02 -0.43007826041E+02 -0.77534882195E+01  0.45442251958E+02  0.41800000000E+01 0.  1.
        -11    1    1    2    0    0 -0.24159810095E+02  0.10618586111E+02  0.15453526147E+02  0.30582057896E+02  0.00000000000E+00 0.  1.
         11    1    1    2    0    0 -0.79971442903E+02  0.10460765258E+03 -0.11203042121E+03  0.17288437736E+03  0.00000000000E+00 0. -1.
</event>
<event>
 7    1  0.2499014E-009  0.2083842E+03  0.7561462E-02  0.1142852E+00
         -1   -1    0    0    0  501 -0.00000000000E+00  0.00000000000E+00  0.15477136331E+04  0.15477136331E+04  0.00000000000E+00 0.  1.
          1   -1    0    0  501    0  0.00000000000E+00 -0.00000000000E+00 -0.40043989959E+02  0.40043989959E+02  0.00000000000E+00 0. -1.
         25    2    1    2    0    0  0.14306178401E+03 -0.11373941839E+03  0.11856983490E+04  0.12062055469E+04  0.12509163583E+03 0.  0.
          5    1    3    3  502    0  0.10761487232E+03 -0.13977666674E+03  0.90345958104E+03  0.92052982803E+03  0.41800000000E+01 0.  1.
         -5    1    3    3    0  502  0.35446911681E+02  0.26037248350E+02  0.28223876792E+03  0.28567571889E+03  0.41800000000E+01 0.  1.
        -11    1    1    2    0    0 -0.80390672863E+02  0.19105296050E+02  0.19181715068E+03  0.20885758765E+03  0.00000000000E+00 0.  1.
         11    1    1    2    0    0 -0.62671111142E+02  0.94634122338E+02  0.13015414345E+03  0.17269448845E+03  0.00000000000E+00 0. -1.
</event>
<event>
 7    1  0.2499014E-009  0.1217666E+03  0.7561462E-02  0.1240211E+00
          2   -1    0    0  501    0  0.00000000000E+00  0.00000000000E+00  0.89773501761E+03  0.89773501761E+03  0.00000000000E+00 0.  1.
         -2   -1    0    0    0  501 -0.00000000000E+00 -0.00000000000E+00 -0.27194044660E+02  0.27194044660E+02  0.00000000000E+00 0. -1.
         25    2    1    2    0    0  0.86426532895E+02 -0.71200623874E+02  0.50535582315E+03  0.53251429064E+03  0.12509151577E+03 0.  0.
          5    1    3    3  502    0  0.15635880690E+02  0.67364653886E+01  0.13182019922E+01  0.17580409192E+02  0.41800000000E+01 0. -1.
         -5    1    3    3    0  502  0.70790652206E+02 -0.77937089263E+02  0.50403762115E+03  0.51493388145E+03  0.41800000000E+01 0. -1.
        -11    1    1    2    0    0 -0.28202558057E+02  0.52295190556E+02  0.74183789188E+02  0.95044230833E+02  0.00000000000E+00 0. -1.
         11    1    1    2    0    0 -0.58223974839E+02  0.18905433318E+02  0.29100136062E+03  0.29737054080E+03  0.00000000000E+00 0.  1.
</event>
<event>
 7    1  0.2499014E-009  0.5500483E+02  0.7561462E-02  0.1420076E+00
         -3   -1    0    0    0  501 -0.00000000000E+00  0.00000000000E+00  0.41091835478E+03  0.41091835478E+03  0.00000000000E+00 0.  1.
          3   -1    0    0  501    0  0.00000000000E+00 -0.00000000000E+00 -0.34506772597E+02  0.34506772597E+02  0.00000000000E+00 0. -1.
         25    2    1    2    0    0  0.25944975109E+02  0.12757045215E+02  0.28899349947E+03  0.31623569942E+03  0.12510751740E+03 0.  0.
          5    1    3    3  502    0 -0.20288414517E+02  0.13046562671E+02  0.26074907117E+03  0.26189574849E+03  0.41800000000E+01 0.  1.
         -5    1    3    3    0  502  0.46233389626E+02 -0.28951745652E+00  0.28244428309E+02  0.54339950931E+02  0.41800000000E+01 0.  1.
        -11    1    1    2    0    0 -0.57377352792E+01 -0.17443154311E+02  0.10212414673E+03  0.10376187442E+03  0.00000000000E+00 0.  1.
         11    1    1    2    0    0 -0.20207239830E+02  0.46861090956E+01 -0.14706064020E+02  0.25427553538E+02  0.00000000000E+00 0. -1.
</event>
<event>
 7    1  0.2499014E-009  0.1075942E+03  0.7561462E-02  0.1265091E+00
          3   -1    0    0  501    0  0.00000000000E+00  0.00000000000E+00  0.51640508834E+03  0.51640508834E+03  0.00000000000E+00 0. -1.
         -3   -1    0    0    0  501 -0.00000000000E+00 -0.00000000000E+00 -0.23705053772E+02  0.23705053772E+02  0.00000000000E+00 0.  1.
         25    2    1    2    0    0 -0.19233377952E+02 -0.14611707040E+02  0.24567252701E+03  0.27674269326E+03  0.12509237760E+03 0.  0.
          5    1    3    3  502    0  0.97452729958E+01  0.52792898475E+02  0.10833611376E+03  0.12098035551E+03  0.41800000000E+01 0.  1.
         -5    1    3    3    0  502 -0.28978650948E+02 -0.67404605515E+02  0.13733641325E+03  0.15576233774E+03  0.41800000000E+01 0.  1.
        -11    1    1    2    0    0  0.36689198908E+02 -0.25113483592E+02  0.16086008074E+03  0.16689143162E+03  0.00000000000E+00 0.  1.
         11    1    1    2    0    0 -0.17455820956E+02  0.39725190632E+02  0.86167426816E+02  0.96476017228E+02  0.00000000000E+00 0. -1.
</event>
<event>
 7    1  0.2499014E-009  0.1059431E+03  0.7561462E-02  0.1268272E+00
         -2   -1    0    0    0  501 -0.00000000000E+00  0.00000000000E+00  0.25056515069E+02  0.25056515069E+02  0.00000000000E+00 0. -1.
          2   -1    0    0  501    0  0.00000000000E+00 -0.00000000000E+00 -0.47945126310E+03  0.47945126310E+03  0.00000000000E+00 0.  1.
         25    2    1    2    0    0  0.15202567719E+02  0.10431259746E+01 -0.24435787776E+03  0.27493565373E+03  0.12508651045E+03 0.  0.
          5    1    3    3  502    0 -0.31188109338E+02 -0.48462432520E+02 -0.12104432322E+03  0.13412869235E+03  0.41800000000E+01 0. -1.
         -5    1    3    3    0  502  0.46390677057E+02  0.49505558494E+02 -0.12331355454E+03  0.14080696138E+03  0.41800000000E+01 0. -1.
        -11    1    1    2    0    0  0.96506847628E+01  0.38354006612E+02 -0.55377819806E+02  0.68050484686E+02  0.00000000000E+00 0. -1.
         11    1    1    2    0    0 -0.24853252482E+02 -0.39397132587E+02 -0.15465905047E+03  0.16152163975E+03  0.00000000000E+00 0.  1.
</event>
<event>
 7    1  0.2499014E-009  0.9325197E+02  0.7561462E-02  0.1295162E+00
          2   -1    0    0  501    0  0.00000000000E+00  0.00000000000E+00  0.44762350340E+02  0.44762350340E+02  0.00000000000E+00 0.  1.
         -2   -1    0    0    0  501 -0.00000000000E+00 -0.00000000000E+00 -0.37563334263E+03  0.37563334263E+03  0.00000000000E+00 0. -1.
         25    2    1    2    0    0 -0.29040403704E+02  0.65719019088E+02 -0.19499962614E+03  0.24255856987E+03  0.12508985213E+03 0.  0.
          5    1    3    3  502    0 -0.80886345237E+01 -0.54451722403E+01 -0.16013040834E+03  0.16048145059E+03  0.41800000000E+01 0.  1.
         -5    1    3    3    0  502 -0.20951769180E+02  0.71164191329E+02 -0.34869217804E+02  0.82077119281E+02  0.41800000000E+01 0.  1.
        -11    1    1    2    0    0 -0.21659515578E+02 -0.45290129263E+01 -0.73673724088E+02  0.76925055698E+02  0.00000000000E+00 0. -1.
         11    1    1    2    0    0  0.50699919282E+02 -0.61190006162E+02 -0.62197642066E+02  0.10091206740E+03  0.00000000000E+00 0.  1.
</event>
<event>
 7    1  0.2499014E-009  0.3561390E+03  0.7561462E-02  0.1060123E+00
          2   -1    0    0  501    0  0.00000000000E+00  0.00000000000E+00  0.23260759078E+04  0.23260759078E+04  0.00000000000E+00 0.  1.
         -2   -1    0    0    0  501 -0.00000000000E+00 -0.00000000000E+00 -0.60098198342E+02  0.60098198342E+02  0.00000000000E+00 0. -1.
         25    2    1    2    0    0 -0.27348761693E+03 -0.21040174422E+03  0.14424956261E+04  0.14884575560E+04  0.12509154320E+03 0.  0.
          5    1    3    3  502    0 -0.27092176881E+03 -0.18222616146E+03  0.13975119938E+04  0.14351523347E+04  0.41800000000E+01 0. -1.
         -5    1    3    3    0  502 -0.25658481284E+01 -0.28175582757E+02  0.44983632339E+02  0.53305221309E+02  0.41800000000E+01 0. -1.
        -11    1    1    2    0    0  0.64398395295E+02  0.58855219057E+01  0.13527475367E+03  0.14993682558E+03  0.00000000000E+00 0.  1.
         11    1    1    2    0    0  0.20908922164E+03  0.20451622232E+03  0.68820732973E+03  0.74777972458E+03  0.00000000000E+00 0. -1.
</event>
<event>
 7    1  0.2499014E-009  0.1295395E+03  0.7561462E-02  0.1228141E+00
          4   -1    0    0  501    0  0.00000000000E+00  0.00000000000E+00  0.77559219832E+02  0.77559219832E+02  0.00000000000E+00 0. -1.
         -4   -1    0    0    0  501 -0.00000000000E+00 -0.00000000000E+00 -0.25008217350E+03  0.25008217350E+03  0.00000000000E+00 0.  1.
         25    2    1    2    0    0  0.68286444395E+02 -0.52666548765E+02 -0.10138043326E+03  0.18265340369E+03  0.12508984685E+03 0.  0.
          5    1    3    3  502    0  0.15821967228E+00 -0.77686654830E+02 -0.39846411459E+02  0.87409669249E+02  0.41800000000E+01 0. -1.
         -5    1    3    3    0  502  0.68128224723E+02  0.25020106065E+02 -0.61534021798E+02  0.95243734440E+02  0.41800000000E+01 0. -1.
        -11    1    1    2    0    0 -0.78314032494E+02  0.57783844210E+02 -0.83525858963E+02  0.12825221032E+03  0.00000000000E+00 0.  1.
         11    1    1    2    0    0  0.10027588098E+02 -0.51172954450E+01  0.12383338552E+02  0.16735779320E+02  0.00000000000E+00 0. -1.
</event>
<event>
 7    1  0.2499014E-009  0.1015657E+03  0.7561462E-02  0.1277037E+00
          2   -1    0    0  501    0  0.00000000000E+00  0.00000000000E+00  0.44126824285E+03  0.44126824285E+03  0.00000000000E+00 0. -1.
         -2   -1    0    0    0  501 -0.00000000000E+00 -0.00000000000E+00 -0.39362266123E+02  0.39362266123E+02  0.00000000000E+00 0.  1.
         25    2    1    2    0    0  0.56480736138E+02 -0.40813977194E+02  0.28992872269E+03  0.32335895253E+03  0.12508594506E+03 0.  0.
          5    1    3    3  502    0  0.76928561675E+02 -0.36821943054E+02  0.28979094060E+03  0.30210945160E+03  0.41800000000E+01 0. -1.
         -5    1    3    3    0  502 -0.20447825537E+02 -0.39920341406E+01  0.13778208644E+00  0.21249500928E+02  0.41800000000E+01 0. -1.
        -11    1    1    2    0    0 -0.50465354887E+02  0.58824073665E+02  0.49478146712E+02  0.91951675833E+02  0.00000000000E+00 0.  1.
         11    1    1    2    0    0 -0.60153812512E+01 -0.18010096470E+02  0.62499107328E+02  0.65319880612E+02  0.00000000000E+00 0. -1.
</event>
<event>
 7    1  0.2499014E-009  0.4887122E+02  0.7561462E-02  0.1451527E+00
          1   -1    0    0  501    0  0.00000000000E+00  0.00000000000E+00  0.31870914151E+02  0.31870914151E+02  0.00000000000E+00 0. -1.
         -1   -1    0    0    0  501 -0.00000000000E+00 -0.00000000000E+00 -0.41465276363E+03  0.41465276363E+03  0.00000000000E+00 0.  1.
         25    2    1    2    0    0 -0.23214624172E+02  0.18182344614E+02 -0.28278515290E+03  0.31061828343E+03  0.12508700520E+03 0.  0.
          5    1    3    3  502    0 -0.20685772015E+02  0.23134099125E+01  0.54392693164E+01  0.21916000547E+02  0.41800000000E+01 0. -1.
         -5    1    3    3    0  502 -0.25288521576E+01  0.15868934702E+02 -0.28822442222E+03  0.28870228288E+03  0.41800000000E+01 0. -1.
        -11    1    1    2    0    0  0.31388279717E+02  0.80731369188E+01 -0.10324820069E+03  0.10821548220E+03  0.00000000000E+00 0.  1.
         11    1    1    2    0    0 -0.81736555441E+01 -0.26255481533E+02  0.32515041108E+01  0.27689912143E+02  0.00000000000E+00 0. -1.
</event>
<event>
 7    1  0.2499014E-009  0.1322630E+03  0.7561462E-02  0.1224136E+00
         -1   -1    0    0    0  501 -0.00000000000E+00  0.00000000000E+00  0.28831137233E+02  0.28831137233E+02  0.00000000000E+00 0.  1.
          1   -1    0    0  501    0  0.00000000000E+00 -0.00000000000E+00 -0.83594641220E+03  0.83594641220E+03  0.00000000000E+00 0. -1.
         25    2    1    2    0    0 -0.39830898121E+02  0.74342054872E+02 -0.63413965358E+03  0.65183915923E+03  0.12509175709E+03 0.  0.
          5    1    3    3  502    0 -0.59679462223E+02 -0.85969404932E+01 -0.34882641080E+03  0.35402384505E+03  0.41800000000E+01 0. -1.
         -5    1    3    3    0  502  0.19848564102E+02  0.82938995365E+02 -0.28531324279E+03  0.29781531418E+03  0.41800000000E+01 0. -1.
        -11    1    1    2    0    0  0.13741580800E+02  0.18056820929E+02 -0.62932894250E+02  0.66898647248E+02  0.00000000000E+00 0. -1.
         11    1    1    2    0    0  0.26089317320E+02 -0.92398875801E+02 -0.11004272714E+03  0.14603974296E+03  0.00000000000E+00 0.  1.
</event>
<event>
 7    1  0.2499014E-009  0.1168273E+03  0.7561462E-02  0.1248425E+00
         -2   -1    0    0    0  501 -0.00000000000E+00  0.00000000000E+00  0.99867913627E+02  0.99867913627E+02  0.00000000000E+00 0.  1.
          2   -1    0    0  501    0  0.00000000000E+00 -0.00000000000E+00 -0.23768125349E+03  0.23768125349E+03  0.00000000000E+00 0. -1.
         25    2    1    2    0    0 -0.80237126176E+02 -0.64964238946E+02 -0.11070689154E+03  0.19637197828E+03  0.12509032440E+03 0.  0.
          5    1    3    3  502    0 -0.37904852616E+02 -0.48316394973E+02  0.14375906320E+02  0.63209105021E+02  0.41800000000E+01 0. -1.
         -5    1    3    3    0  502 -0.42332273560E+02 -0.16647843973E+02 -0.12508279786E+03  0.13316287326E+03  0.41800000000E+01 0. -1.
        -11    1    1    2    0    0  0.46889981759E+02 -0.67123334321E+01  0.17391609302E+02  0.50459824451E+02  0.00000000000E+00 0.  1.
         11    1    1    2    0    0  0.33347144417E+02  0.71676572378E+02 -0.44498057623E+02  0.90717364384E+02  0.00000000000E+00 0. -1.
</event>
<event>
 7    1  0.2499014E-009  0.1444055E+03  0.7561462E-02  0.1207521E+00
         -2   -1    0    0    0  501 -0.00000000000E+00  0.00000000000E+00  0.33227637387E+02  0.33227637387E+02  0.00000000000E+00 0.  1.
          2   -1    0    0  501    0  0.00000000000E+00 -0.00000000000E+00 -0.75618298103E+03  0.75618298103E+03  0.00000000000E+00 0. -1.
         25    2    1    2    0    0 -0.15181898155E+02  0.98396547222E+02 -0.24551975948E+03  0.29298453697E+03  0.12509043157E+03 0.  0.
          5    1    3    3  502    0 -0.47904768221E+02 -0.76711601492E+01 -0.70100325073E+02  0.85353626119E+02  0.41800000000E+01 0. -1.
         -5    1    3    3    0  502  0.32722870066E+02  0.10606770737E+03 -0.17541943441E+03  0.20763091085E+03  0.41800000000E+01 0. -1.
        -11    1    1    2    0    0 -0.24262817333E+02 -0.13729457228E+01 -0.41557703991E+02  0.48141583334E+02  0.00000000000E+00 0.  1.
         11    1    1    2    0    0  0.39444715488E+02 -0.97023601499E+02 -0.43587788017E+03  0.44828449812E+03  0.00000000000E+00 0. -1.
</event>
<event>
 7    1  0.2499014E-009  0.1378982E+03  0.7561462E-02  0.1216185E+00
         -2   -1    0    0    0  501 -0.00000000000E+00  0.00000000000E+00  0.10933205373E+03  0.10933205373E+03  0.00000000000E+00 0. -1.
          2   -1    0    0  501    0  0.00000000000E+00 -0.00000000000E+00 -0.31539993083E+03  0.31539993083E+03  0.00000000000E+00 0.  1.
         25    2    1    2    0    0 -0.10580282564E+03 -0.53959688272E+02 -0.10699944011E+02  0.17282755522E+03  0.12509591987E+03 0.  0.
          5    1    3    3  502    0 -0.35578700802E+02  0.16607300174E+02  0.44031687733E+02  0.59143117050E+02  0.41800000000E+01 0.  1.
         -5    1    3    3    0  502 -0.70224124842E+02 -0.70566988445E+02 -0.54731631744E+02  0.11368443817E+03  0.41800000000E+01 0.  1.
        -11    1    1    2    0    0  0.84253312231E+02  0.64498836244E+01 -0.17779870903E+03  0.19685680723E+03  0.00000000000E+00 0.  1.
         11    1    1    2    0    0  0.21549513413E+02  0.47509804648E+02 -0.17569224062E+02  0.55047622112E+02  0.00000000000E+00 0. -1.
</event>
<event>
 7    1  0.2499014E-009  0.1350770E+03  0.7561462E-02  0.1220111E+00
          2   -1    0    0  501    0  0.00000000000E+00  0.00000000000E+00  0.10932935111E+04  0.10932935111E+04  0.00000000000E+00 0.  1.
         -2   -1    0    0    0  501 -0.00000000000E+00 -0.00000000000E+00 -0.19423433250E+02  0.19423433250E+02  0.00000000000E+00 0. -1.
         25    2    1    2    0    0 -0.21699729183E+02  0.93717162922E+02  0.62757733162E+03  0.64711068816E+03  0.12508057679E+03 0.  0.
          5    1    3    3  502    0 -0.16804728316E+02  0.12058211050E+03  0.57451161652E+03  0.58728486629E+03  0.41800000000E+01 0. -1.
         -5    1    3    3    0  502 -0.48950008669E+01 -0.26864947580E+02  0.53065715102E+02  0.59825821861E+02  0.41800000000E+01 0. -1.
        -11    1    1    2    0    0  0.41135008781E+02 -0.92502389963E+02  0.42439434530E+03  0.43630189252E+03  0.00000000000E+00 0.  1.
         11    1    1    2    0    0 -0.19435279598E+02 -0.12147729590E+01  0.21898400901E+02  0.29304363641E+02  0.00000000000E+00 0. -1.
</event>
<event>
 7    1  0.2499014E-009  0.1006228E+03  0.7561462E-02  0.1278992E+00
         -2   -1    0    0    0  501 -0.00000000000E+00  0.00000000000E+00  0.65564637806E+02  0.65564637806E+02  0.00000000000E+00 0.  1.
          2   -1    0    0  501    0  0.00000000000E+00 -0.00000000000E+00 -0.23509898362E+03  0.23509898362E+03  0.00000000000E+00 0. -1.
         25    2    1    2    0    0 -0.35390352393E+02  0.19693057438E+02 -0.15111440419E+03  0.20030723394E+03  0.12508849372E+03 0.  0.
          5    1    3    3  502    0  0.39164356975E+02 -0.12389267501E+02 -0.88683490219E+02  0.97824202751E+02  0.41800000000E+01 0. -1.
         -5    1    3    3    0  502 -0.74554709368E+02  0.32082324940E+02 -0.62430913975E+02  0.10248303119E+03  0.41800000000E+01 0. -1.
        -11    1    1    2    0    0  0.55748123954E+02 -0.15951619639E+02  0.16035372322E+02  0.60161787365E+02  0.00000000000E+00 0.  1.
         11    1    1    2    0    0 -0.20357771561E+02 -0.37414377992E+01 -0.34455313937E+02  0.40194600113E+02  0.00000000000E+00 0. -1.
</event>
<event>
 7    1  0.2749760E-009  0.1288505E+03  0.7561462E-02  0.1229171E+00
          1   -1    0    0  501    0  0.00000000000E+00  0.00000000000E+00  0.42639734778E+03  0.42639734778E+03  0.00000000000E+00 0. -1.
         -1   -1    0    0    0  501 -0.00000000000E+00 -0.00000000000E+00 -0.51082794493E+02  0.51082794493E+02  0.00000000000E+00 0.  1.
         25    2    1    2    0    0 -0.85822869311E+02  0.44187073200E+01  0.12147712526E+03  0.19439335856E+03  0.12508795314E+03 0.  0.
          5    1    3    3  502    0  0.14578156371E+02  0.30637642149E+02  0.71263255387E+02  0.79038672358E+02  0.41800000000E+01 0.  1.
         -5    1    3    3    0  502 -0.10040102568E+03 -0.26218934829E+02  0.50213869876E+02  0.11535468621E+03  0.41800000000E+01 0.  1.
        -11    1    1    2    0    0  0.25825055658E+02  0.38170664458E+02  0.59317242557E+02  0.75116365657E+02  0.00000000000E+00 0. -1.
         11    1    1    2    0    0  0.59997813653E+02 -0.42589371778E+02  0.19452018547E+03  0.20797041806E+03  0.00000000000E+00 0.  1.
</event>
<event>
 7    1  0.2499014E-009  0.9754705E+02  0.7561462E-02  0.1285540E+00
         -2   -1    0    0    0  501 -0.00000000000E+00  0.00000000000E+00  0.45268388257E+03  0.45268388257E+03  0.00000000000E+00 0.  1.
          2   -1    0    0  501    0  0.00000000000E+00 -0.00000000000E+00 -0.26592614411E+02  0.26592614411E+02  0.00000000000E+00 0. -1.
         25    2    1    2    0    0 -0.76721947395E+01  0.27180023080E+01  0.23942707161E+03  0.27025797058E+03  0.12509115850E+03 0.  0.
          5    1    3    3  502    0 -0.19978642364E+02  0.54403258797E+02  0.18571311917E+03  0.19459109885E+03  0.41800000000E+01 0. -1.
         -5    1    3    3    0  502  0.12306447625E+02 -0.51685256490E+02  0.53713952436E+02  0.75666871733E+02  0.41800000000E+01 0. -1.
        -11    1    1    2    0    0 -0.37638976805E+02  0.41413079951E+01  0.13380430231E+03  0.13905910370E+03  0.00000000000E+00 0.  1.
         11    1    1    2    0    0  0.45311171545E+02 -0.68593103031E+01  0.52859894247E+02  0.69959422699E+02  0.00000000000E+00 0. -1.
</event>
<event>
 7    1  0.2499014E-009  0.1371549E+03  0.7561462E-02  0.1217209E+00
          2   -1    0    0  501    0  0.00000000000E+00  0.00000000000E+00  0.12314224053E+03  0.12314224053E+03  0.00000000000E+00 0.  1.
         -2   -1    0    0    0  501 -0.00000000000E+00 -0.00000000000E+00 -0.21636690737E+03  0.21636690737E+03  0.00000000000E+00 0. -1.
         25    2    1    2    0    0 -0.12164107531E+03 -0.10473438361E+02 -0.55633861536E+02  0.18343625089E+03  0.12508991757E+03 0.  0.
          5    1    3    3  502    0 -0.78511687064E+02  0.58394753500E+01  0.31392692424E+02  0.84859637141E+02  0.41800000000E+01 0. -1.
         -5    1    3    3    0  502 -0.43129388250E+02 -0.16312913711E+02 -0.87026553960E+02  0.98576613752E+02  0.41800000000E+01 0. -1.
        -11    1    1    2    0    0  0.15248462858E+02  0.36571580104E+02 -0.22290528740E+02  0.45462773368E+02  0.00000000000E+00 0. -1.
         11    1    1    2    0    0  0.10639261246E+03 -0.26098141743E+02 -0.15300276570E+02  0.11061012364E+03  0.00000000000E+00 0.  1.
</event>
<event>
 7    1  0.2499014E-009  0.1147542E+03  0.7561462E-02  0.1252011E+00
          2   -1    0    0  501    0  0.00000000000E+00  0.00000000000E+00  0.54937402556E+03  0.54937402556E+03  0.00000000000E+00 0. -1.
         -2   -1    0    0    0  501 -0.00000000000E+00 -0.00000000000E+00 -0.31843961548E+02  0.31843961548E+02  0.00000000000E+00 0.  1.
         25    2    1    2    0    0  0.67769582890E+02 -0.30111301374E+02  0.31557060651E+03  0.34746520966E+03  0.12509139619E+03 0.  0.
          5    1    3    3  502    0  0.77736075395E+02 -0.48048694976E+02  0.31332075034E+03  0.32640303231E+03  0.41800000000E+01 0. -1.
         -5    1    3    3    0  502 -0.99664925049E+01  0.17937393602E+02  0.22498561647E+01  0.21062177353E+02  0.41800000000E+01 0. -1.
        -11    1    1    2    0    0 -0.60750047684E+02 -0.21918396880E+02  0.12314574779E+03  0.13905344157E+03  0.00000000000E+00 0. -1.
         11    1    1    2    0    0 -0.70195352069E+01  0.52029698253E+02  0.78813709721E+02  0.94699335873E+02  0.00000000000E+00 0.  1.
</event>
<event>
 7    1  0.2499014E-009  0.1201496E+03  0.7561462E-02  0.1242850E+00
          2   -1    0    0  501    0  0.00000000000E+00  0.00000000000E+00  0.43957347381E+03  0.43957347381E+03  0.00000000000E+00 0. -1.
         -2   -1    0    0    0  501 -0.00000000000E+00 -0.00000000000E+00 -0.51995256320E+02  0.51995256320E+02  0.00000000000E+00 0.  1.
         25    2    1    2    0    0  0.78965968391E+02 -0.18248865213E+02  0.98753712953E+02  0.17878475029E+03  0.12507216265E+03 0.  0.
          5    1    3    3  502    0  0.10325559522E+03 -0.11779460714E+02  0.10959505604E+03  0.15109276073E+03  0.41800000000E+01 0. -1.
         -5    1    3    3    0  502 -0.24289626824E+02 -0.64694044981E+01 -0.10841343085E+02  0.27691989558E+02  0.41800000000E+01 0. -1.
        -11    1    1    2    0    0 -0.53769770105E+02  0.47820416879E+02  0.12330193486E+03  0.14276325713E+03  0.00000000000E+00 0.  1.
         11    1    1    2    0    0 -0.25196198287E+02 -0.29571551667E+02  0.16552256968E+03  0.17002072270E+03  0.00000000000E+00 0. -1.
</event>
<event>
 7    1  0.2499014E-009  0.1216106E+03  0.7561462E-02  0.1240464E+00
         -1   -1    0    0    0  501 -0.00000000000E+00  0.00000000000E+00  0.16345704651E+02  0.16345704651E+02  0.00000000000E+00 0.  1.
          1   -1    0    0  501    0  0.00000000000E+00 -0.00000000000E+00 -0.13000544688E+04  0.13000544688E+04  0.00000000000E+00 0. -1.
         25    2    1    2    0    0 -0.26016531405E+02 -0.84225146908E+02 -0.89786480483E+03  0.91081215776E+03  0.12508734432E+03 0.  0.
          5    1    3    3  502    0  0.30781489427E+02  0.16972980747E+02 -0.16029124134E+03  0.16415339356E+03  0.41800000000E+01 0.  1.
         -5    1    3    3    0  502 -0.56798020831E+02 -0.10119812765E+03 -0.73757356349E+03  0.74665876421E+03  0.41800000000E+01 0.  1.
        -11    1    1    2    0    0  0.30872737448E+02  0.66424869756E+02 -0.37883393501E+03  0.38585041085E+03  0.00000000000E+00 0. -1.
         11    1    1    2    0    0 -0.48562060429E+01  0.17800277153E+02 -0.70100243184E+01  0.19737604839E+02  0.00000000000E+00 0.  1.
</event>
<event>
 7    1  0.2499014E-009  0.1839576E+03  0.7561462E-02  0.1164027E+00
         -1   -1    0    0    0  501 -0.00000000000E+00  0.00000000000E+00  0.19939128367E+03  0.19939128367E+03  0.00000000000E+00 0.  1.
          1   -1    0    0  501    0  0.00000000000E+00 -0.00000000000E+00 -0.32559104631E+03  0.32559104631E+03  0.00000000000E+00 0. -1.
         25    2    1    2    0    0 -0.15743174282E+03 -0.79975886155E+01 -0.23785983546E+03  0.31156662856E+03  0.12509095744E+03 0.  0.
          5    1    3    3  502    0 -0.95681742139E+02  0.55906797208E+02 -0.14989800107E+03  0.18646031448E+03  0.41800000000E+01 0.  1.
         -5    1    3    3    0  502 -0.61750000683E+02 -0.63904385824E+02 -0.87961834395E+02  0.12510631408E+03  0.41800000000E+01 0.  1.
        -11    1    1    2    0    0  0.77918402302E+02 -0.25198370738E+02  0.95404911734E+02  0.12573119139E+03  0.00000000000E+00 0.  1.
         11    1    1    2    0    0  0.79513340520E+02  0.33195959354E+02  0.16255161092E+02  0.87684510036E+02  0.00000000000E+00 0. -1.
</event>
<event>
 7    1  0.2499014E-009  0.1581787E+03  0.7561462E-02  0.1190768E+00
          1   -1    0    0  501    0  0.00000000000E+00  0.00000000000E+00  0.24807229206E+03  0.24807229206E+03  0.00000000000E+00 0. -1.
         -1   -1    0    0    0  501 -0.00000000000E+00 -0.00000000000E+00 -0.13084182437E+03  0.13084182437E+03  0.00000000000E+00 0.  1.
         25    2    1    2    0    0 -0.14701987616E+02  0.11683759497E+03  0.13763342388E+03  0.22013016787E+03  0.12508860621E+03 0.  0.
          5    1    3    3  502    0 -0.11817142607E+02  0.14375650307E+03  0.11284579362E+03  0.18318630563E+03  0.41800000000E+01 0. -1.
         -5    1    3    3    0  502 -0.28848450092E+01 -0.26918908096E+02  0.24787630254E+02  0.36943862243E+02  0.41800000000E+01 0. -1.
        -11    1    1    2    0    0  0.32917686867E+02 -0.74270262784E+01 -0.32945103723E+02  0.47160520431E+02  0.00000000000E+00 0.  1.
         11    1    1    2    0    0 -0.18215699251E+02 -0.10941056869E+03  0.12542147540E+02  0.11162342812E+03  0.00000000000E+00 0. -1.
</event>
<event>
 7    1  0.2499014E-009  0.1006303E+03  0.7561462E-02  0.1278976E+00
          1   -1    0    0  501    0  0.00000000000E+00  0.00000000000E+00  0.57466430885E+02  0.57466430885E+02  0.00000000000E+00 0. -1.
         -1   -1    0    0    0  501 -0.00000000000E+00 -0.00000000000E+00 -0.23747085034E+03  0.23747085034E+03  0.00000000000E+00 0.  1.
         25    2    1    2    0    0  0.38459245323E+02  0.11481905710E+02 -0.12363105307E+03  0.18039752376E+03  0.12509069345E+03 0.  0.
          5    1    3    3  502    0  0.76905279841E+02  0.14996503745E+01 -0.11674258353E+03  0.13986770259E+03  0.41800000000E+01 0. -1.
         -5    1    3    3    0  502 -0.38446034517E+02  0.99822553354E+01 -0.68884695352E+01  0.40529821172E+02  0.41800000000E+01 0. -1.
        -11    1    1    2    0    0 -0.71418560007E+01  0.30829770446E+02  0.67388904511E+01  0.32355733610E+02  0.00000000000E+00 0. -1.
         11    1    1    2    0    0 -0.31317389323E+02 -0.42311676156E+02 -0.63112256839E+02  0.82184023852E+02  0.00000000000E+00 0.  1.
</event>
<event>
 7    1  0.2499014E-009  0.1970961E+03  0.7561462E-02  0.1152212E+00
          1   -1    0    0  501    0  0.00000000000E+00  0.00000000000E+00  0.46486728218E+03  0.46486728218E+03  0.00000000000E+00 0. -1.
         -1   -1    0    0    0  501 -0.00000000000E+00 -0.00000000000E+00 -0.87511897985E+02  0.87511897985E+02  0.00000000000E+00 0.  1.
         25    2    1    2    0    0  0.13688294802E+03  0.96450393234E+02  0.23531414293E+03  0.31473820737E+03  0.12509106085E+03 0.  0.
          5    1    3    3  502    0 -0.19466501473E+02  0.31131460040E+02  0.62965742645E+02  0.73008695582E+02  0.41800000000E+01 0.  1.
         -5    1    3    3    0  502  0.15634944949E+03  0.65318933194E+02  0.17234840028E+03  0.24172951179E+03  0.41800000000E+01 0.  1.
        -11    1    1    2    0    0 -0.14889993854E+03 -0.91339811426E+02  0.14109471511E+03  0.22454814959E+03  0.00000000000E+00 0.  1.
         11    1    1    2    0    0  0.12016990526E+02 -0.51105818086E+01  0.94652615207E+00  0.13092823205E+02  0.00000000000E+00 0. -1.
</event>
<event>
 7    1  0.2499014E-009  0.1524138E+03  0.7561462E-02  0.1197538E+00
          1   -1    0    0  501    0  0.00000000000E+00  0.00000000000E+00  0.27216129306E+03  0.27216129306E+03  0.00000000000E+00 0. -1.
         -1   -1    0    0    0  501 -0.00000000000E+00 -0.00000000000E+00 -0.90290114657E+02  0.90290114657E+02  0.00000000000E+00 0.  1.
         25    2    1    2    0    0  0.94869896170E+02 -0.61668696385E+02  0.84888622828E+02  0.18883236830E+03  0.12509300427E+03 0.  0.
          5    1    3    3  502    0 -0.24767551795E+02 -0.25975085066E+02 -0.27498817626E+01  0.36237700201E+02  0.41800000000E+01 0. -1.
         -5    1    3    3    0  502  0.11963744797E+03 -0.35693611319E+02  0.87638504590E+02  0.15259466810E+03  0.41800000000E+01 0. -1.
        -11    1    1    2    0    0 -0.16880963875E+02  0.63560635198E+02  0.39478904560E+02  0.76704010282E+02  0.00000000000E+00 0.  1.
         11    1    1    2    0    0 -0.77988932295E+02 -0.18919388135E+01  0.57503651018E+02  0.96915029141E+02  0.00000000000E+00 0. -1.
</event>
<event>
 7    1  0.2499014E-009  0.1523816E+03  0.7561462E-02  0.1197577E+00
         -1   -1    0    0    0  501 -0.00000000000E+00  0.00000000000E+00  0.20335484862E+02  0.20335484862E+02  0.00000000000E+00 0. -1.
          1   -1    0    0  501    0  0.00000000000E+00 -0.00000000000E+00 -0.12104108298E+04  0.12104108298E+04  0.00000000000E+00 0.  1.
         25    2    1    2    0    0  0.41148724816E+02 -0.10394096173E+03 -0.72911904714E+03  0.74817000668E+03  0.12508730112E+03 0.  0.
          5    1    3    3  502    0  0.84774505722E+02 -0.50989140331E+02 -0.43436289739E+03  0.44550556482E+03  0.41800000000E+01 0. -1.
         -5    1    3    3    0  502 -0.43625780906E+02 -0.52951821401E+02 -0.29475614975E+03  0.30266444186E+03  0.41800000000E+01 0. -1.
        -11    1    1    2    0    0 -0.55747579972E+02  0.33423829184E+02 -0.28768094314E+03  0.29493265345E+03  0.00000000000E+00 0.  1.
         11    1    1    2    0    0  0.14598855156E+02  0.70517132548E+02 -0.17327535467E+03  0.18764365455E+03  0.00000000000E+00 0. -1.
</event>
<event>
 7    1  0.2499014E-009  0.1126417E+03  0.7561462E-02  0.1255755E+00
         -2   -1    0    0    0  501 -0.00000000000E+00  0.00000000000E+00  0.26304508860E+02  0.26304508860E+02  0.00000000000E+00 0.  1.
          2   -1    0    0  501    0  0.00000000000E+00 -0.00000000000E+00 -0.76717395438E+03  0.76717395438E+03  0.00000000000E+00 0. -1.
         25    2    1    2    0    0  0.65929323164E+02 -0.56426788294E+02 -0.48784567696E+03  0.51104823237E+03  0.12508490391E+03 0.  0.
          5    1    3    3  502    0 -0.19097114655E+02  0.14163514443E+02 -0.21927708363E+03  0.22060194182E+03  0.41800000000E+01 0.  1.
         -5    1    3    3    0  502  0.85026437819E+02 -0.70590302738E+02 -0.26856859334E+03  0.29044629055E+03  0.41800000000E+01 0.  1.
        -11    1    1    2    0    0 -0.22843983600E+02  0.48584859427E+01 -0.30158975791E+01  0.23548845206E+02  0.00000000000E+00 0.  1.
         11    1    1    2    0    0 -0.43085339565E+02  0.51568302352E+02 -0.25000787098E+03  0.25888138566E+03  0.00000000000E+00 0. -1.
</event>
<event>
 7    1  0.2499014E-009  0.7107473E+02  0.7561462E-02  0.1356476E+00
          2   -1    0    0  501    0  0.00000000000E+00  0.00000000000E+00  0.40288211510E+03  0.40288211510E+03  0.00000000000E+00 0. -1.
         -2   -1    0    0    0  501 -0.00000000000E+00 -0.00000000000E+00 -0.36351376539E+02  0.36351376539E+02  0.00000000000E+00 0.  1.
         25    2    1    2    0    0  0.29718129682E+01  0.27084961000E-01  0.30029178652E+03  0.32531663149E+03  0.12508765434E+03 0.  0.
          5    1    3    3  502    0  0.19898487772E+02 -0.19942471207E+02  0.50956053153E+01  0.28932500185E+02  0.41800000000E+01 0. -1.
         -5    1    3    3    0  502 -0.16926674804E+02  0.19969556168E+02  0.29519618120E+03  0.29638413131E+03  0.41800000000E+01 0. -1.
        -11    1    1    2    0    0  0.41716540058E+02 -0.57317392937E+01  0.12776994724E+02  0.44004251430E+02  0.00000000000E+00 0.  1.
         11    1    1    2    0    0 -0.44688353026E+02  0.57046543327E+01  0.53461957316E+02  0.69912608715E+02  0.00000000000E+00 0. -1.
</event>
<event>
 7    1  0.4651134E-009  0.9045280E+02  0.7561462E-02  0.1301759E+00
         -1   -1    0    0    0  501 -0.00000000000E+00  0.00000000000E+00  0.41864692520E+02  0.41864692520E+02  0.00000000000E+00 0.  1.
          1   -1    0    0  501    0  0.00000000000E+00 -0.00000000000E+00 -0.49353413081E+03  0.49353413081E+03  0.00000000000E+00 0. -1.
         25    2    1    2    0    0 -0.68883186141E+02 -0.30931347766E+02 -0.35148171838E+03  0.38064268840E+03  0.12509123177E+03 0.  0.
          5    1    3    3  502    0 -0.64065666356E+02 -0.24128048878E+02 -0.36091732712E+03  0.36737632172E+03  0.41800000000E+01 0.  1.
         -5    1    3    3    0  502 -0.48175197854E+01 -0.68032988886E+01  0.94356087335E+01  0.13266366678E+02  0.41800000000E+01 0.  1.
        -11    1    1    2    0    0  0.47073203738E+02 -0.17227620475E+02 -0.11377937647E+02  0.51401701163E+02  0.00000000000E+00 0.  1.
         11    1    1    2    0    0  0.21809982403E+02  0.48158968242E+02 -0.88809782264E+02  0.10335443377E+03  0.00000000000E+00 0. -1.
</event>
<event>
 7    1  0.2499014E-009  0.5198663E+03  0.7561462E-02  0.1008720E+00
         -1   -1    0    0    0  501 -0.00000000000E+00  0.00000000000E+00  0.29880653205E+03  0.29880653205E+03  0.00000000000E+00 0.  1.
          1   -1    0    0  501    0  0.00000000000E+00 -0.00000000000E+00 -0.15363002047E+04  0.15363002047E+04  0.00000000000E+00 0. -1.
         25    2    1    2    0    0  0.45500917402E+03 -0.24104222519E+03 -0.11986326893E+04  0.13105360871E+04  0.12509919630E+03 0.  0.
          5    1    3    3  502    0  0.37252696479E+03 -0.21694076306E+03 -0.10886320979E+04  0.11708872496E+04  0.41800000000E+01 0.  1.
         -5    1    3    3    0  502  0.82482209236E+02 -0.24101462131E+02 -0.11000059141E+03  0.13964883755E+03  0.41800000000E+01 0.  1.
        -11    1    1    2    0    0 -0.48506673193E+02  0.61168734339E+02  0.26775427637E+01  0.78113255214E+02  0.00000000000E+00 0. -1.
         11    1    1    2    0    0 -0.40650250083E+03  0.17987349085E+03 -0.41538526088E+02  0.44645739443E+03  0.00000000000E+00 0.  1.
</event>
<event>
 7    1  0.2499014E-009  0.1905680E+03  0.7561462E-02  0.1157950E+00
          2   -1    0    0  501    0  0.00000000000E+00  0.00000000000E+00  0.12135831085E+04  0.12135831085E+04  0.00000000000E+00 0. -1.
         -2   -1    0    0    0  501 -0.00000000000E+00 -0.00000000000E+00 -0.42233727623E+02  0.42233727623E+02  0.00000000000E+00 0.  1.
         25    2    1    2    0    0  0.10513188401E+03  0.12416552906E+03  0.92003126410E+03  0.94264296608E+03  0.12509373657E+03 0.  0.
          5    1    3    3  502    0 -0.20169910150E+02  0.45770760623E+02  0.35735498896E+03  0.36086264469E+03  0.41800000000E+01 0.  1.
         -5    1    3    3    0  502  0.12530179416E+03  0.78394768439E+02  0.56267627514E+03  0.58178032138E+03  0.41800000000E+01 0.  1.
        -11    1    1    2    0    0 -0.73552491249E+02 -0.13148851633E+03  0.17929840883E+03  0.23419461630E+03  0.00000000000E+00 0.  1.
         11    1    1    2    0    0 -0.31579392758E+02  0.73229872668E+01  0.72019707930E+02  0.78979253731E+02  0.00000000000E+00 0. -1.
</event>
<event>
 7    1  0.2499014E-009  0.1632909E+03  0.7561462E-02  0.1185031E+00
         -1   -1    0    0    0  501 -0.00000000000E+00  0.00000000000E+00  0.16949756272E+02  0.16949756272E+02  0.00000000000E+00 0.  1.
          1   -1    0    0  501    0  0.00000000000E+00 -0.00000000000E+00 -0.18171199039E+04  0.18171199039E+04  0.00000000000E+00 0. -1.
         25    2    1    2    0    0  0.64831661681E+02 -0.11260877035E+03 -0.11918020107E+04  0.12053728529E+04  0.12509117542E+03 0.  0.
          5    1    3    3  502    0  0.48918282958E+02  0.12712472034E+02 -0.45380401432E+03  0.45662912869E+03  0.41800000000E+01 0.  1.
         -5    1    3    3    0  502  0.15913378724E+02 -0.12532124238E+03 -0.73799799638E+03  0.74874372417E+03  0.41800000000E+01 0.  1.
        -11    1    1    2    0    0 -0.67669787444E+02  0.43812519245E+02 -0.43017409097E+03  0.43766252469E+03  0.00000000000E+00 0. -1.
         11    1    1    2    0    0  0.28381257623E+01  0.68796251104E+02 -0.17819404590E+03  0.19103428257E+03  0.00000000000E+00 0.  1.
</event>
<event>
 7    1  0.2499014E-009  0.1207858E+03  0.7561462E-02  0.1241806E+00
         -2   -1    0    0    0  501 -0.00000000000E+00  0.00000000000E+00  0.13745934509E+03  0.13745934509E+03  0.00000000000E+00 0.  1.
          2   -1    0    0  501    0  0.00000000000E+00 -0.00000000000E+00 -0.27369637249E+03  0.27369637249E+03  0.00000000000E+00 0. -1.
         25    2    1    2    0    0  0.92906136205E+02  0.33222455669E+02  0.58324101173E+02  0.16965905468E+03  0.12508881785E+03 0.  0.
          5    1    3    3  502    0  0.78625769400E+02  0.44122967250E+02 -0.17229285695E+02  0.91886715788E+02  0.41800000000E+01 0. -1.
         -5    1    3    3    0  502  0.14280366805E+02 -0.10900511580E+02  0.75553386868E+02  0.77772338888E+02  0.41800000000E+01 0. -1.
        -11    1    1    2    0    0 -0.80401035074E+02 -0.61975409129E+02 -0.18059772868E+03  0.20717339931E+03  0.00000000000E+00 0. -1.
         11    1    1    2    0    0 -0.12505101131E+02  0.28752953460E+02 -0.13963399900E+02  0.34323263594E+02  0.00000000000E+00 0.  1.
</event>
<event>
 7    1  0.2499014E-009  0.3686426E+03  0.7561462E-02  0.1055213E+00
         -1   -1    0    0    0  501 -0.00000000000E+00  0.00000000000E+00  0.11449586989E+03  0.11449586989E+03  0.00000000000E+00 0.  1.
          1   -1    0    0  501    0  0.00000000000E+00 -0.00000000000E+00 -0.12914552681E+04  0.12914552681E+04  0.00000000000E+00 0. -1.
         25    2    1    2    0    0  0.27934788400E+03  0.22431076973E+03 -0.75598612704E+03  0.84588009325E+03  0.12509015216E+03 0.  0.
          5    1    3    3  502    0 -0.90944671682E+01  0.19786751574E+02 -0.79639732269E+02  0.82669124991E+02  0.41800000000E+01 0.  1.
         -5    1    3    3    0  502  0.28844235117E+03  0.20452401816E+03 -0.67634639477E+03  0.76321096826E+03  0.41800000000E+01 0.  1.
        -11    1    1    2    0    0 -0.14490166163E+03 -0.85504034905E+02 -0.25407439472E+03  0.30473140564E+03  0.00000000000E+00 0. -1.
         11    1    1    2    0    0 -0.13444622237E+03 -0.13880673483E+03 -0.16689887645E+03  0.25533963911E+03  0.00000000000E+00 0.  1.
</event>
<event>
 7    1  0.2499014E-009  0.1422821E+03  0.7561462E-02  0.1210291E+00
         -1   -1    0    0    0  501 -0.00000000000E+00  0.00000000000E+00  0.27228856198E+03  0.27228856198E+03  0.00000000000E+00 0.  1.
          1   -1    0    0  501    0  0.00000000000E+00 -0.00000000000E+00 -0.95385687052E+02  0.95385687052E+02  0.00000000000E+00 0. -1.
         25    2    1    2    0    0  0.68494937595E+02  0.63508584909E+02  0.11034820848E+02  0.15650779326E+03  0.12509206708E+03 0.  0.
          5    1    3    3  502    0  0.24349020776E+02 -0.36884979950E+02  0.14500671478E+02  0.46702445675E+02  0.41800000000E+01 0. -1.
         -5    1    3    3    0  502  0.44145916819E+02  0.10039356486E+03 -0.34658506297E+01  0.10980534758E+03  0.41800000000E+01 0. -1.
        -11    1    1    2    0    0 -0.25669760306E+02  0.22631051860E+02  0.37738171805E+02  0.50943799561E+02  0.00000000000E+00 0. -1.
         11    1    1    2    0    0 -0.42825177289E+02 -0.86139636770E+02  0.12812988228E+03  0.16022265622E+03  0.00000000000E+00 0.  1.
</event>
<event>
 7    1  0.2499014E-009  0.1109034E+03  0.7561462E-02  0.1258906E+00
         -1   -1    0    0    0  501 -0.00000000000E+00  0.00000000000E+00  0.40119849645E+02  0.40119849645E+02  0.00000000000E+00 0.  1.
          1   -1    0    0  501    0  0.00000000000E+00 -0.00000000000E+00 -0.60965257398E+03  0.60965257398E+03  0.00000000000E+00 0. -1.
         25    2    1    2    0    0  0.39684713728E+02  0.30412214255E+02 -0.51487919893E+03  0.53221047715E+03  0.12509046012E+03 0.  0.
          5    1    3    3  502    0 -0.15155706013E+02  0.66209448726E+02 -0.22906447933E+03  0.23895898103E+03  0.41800000000E+01 0. -1.
         -5    1    3    3    0  502  0.54840419741E+02 -0.35797234471E+02 -0.28581471960E+03  0.29325149612E+03  0.41800000000E+01 0. -1.
        -11    1    1    2    0    0 -0.10571536852E+01  0.22553526792E+02  0.10708948648E+02  0.24989212189E+02  0.00000000000E+00 0.  1.
         11    1    1    2    0    0 -0.38627560043E+02 -0.52965741047E+02 -0.65362474055E+02  0.92572734291E+02  0.00000000000E+00 0. -1.
</event>
<event>
 7    1  0.2499014E-009  0.1141536E+03  0.7561462E-02  0.1253066E+00
          2   -1    0    0  501    0  0.00000000000E+00  0.00000000000E+00  0.31245990674E+02  0.31245990674E+02  0.00000000000E+00 0. -1.
         -2   -1    0    0    0  501 -0.00000000000E+00 -0.00000000000E+00 -0.67874116706E+03  0.67874116706E+03  0.00000000000E+00 0.  1.
         25    2    1    2    0    0  0.14782856490E+02 -0.91656201968E+02 -0.28236299603E+03  0.32248386362E+03  0.12509032162E+03 0.  0.
          5    1    3    3  502    0 -0.13551712608E+02 -0.75304127507E+02 -0.27900079758E+03  0.28933246963E+03  0.41800000000E+01 0. -1.
         -5    1    3    3    0  502  0.28334569098E+02 -0.16352074461E+02 -0.33621984546E+01  0.33151393991E+02  0.41800000000E+01 0. -1.
        -11    1    1    2    0    0 -0.44998074054E+02  0.50454525964E+02 -0.12618157249E+03  0.14315123155E+03  0.00000000000E+00 0. -1.
         11    1    1    2    0    0  0.30215217564E+02  0.41201676004E+02 -0.23895060787E+03  0.24435206256E+03  0.00000000000E+00 0.  1.
</event>
<event>
 7    1  0.2499014E-009  0.1024092E+03  0.7561462E-02  0.1275310E+00
         -3   -1    0    0    0  501 -0.00000000000E+00  0.00000000000E+00  0.11761572407E+03  0.11761572407E+03  0.00000000000E+00 0.  1.
          3   -1    0    0  501    0  0.00000000000E+00 -0.00000000000E+00 -0.14296748003E+03  0.14296748003E+03  0.00000000000E+00 0. -1.
         25    2    1    2    0    0  0.22610758546E+02  0.34314186009E+02 -0.69789938402E+02  0.14902215622E+03  0.12509299653E+03 0.  0.
          5    1    3    3  502    0  0.58947822856E+02  0.58632100923E+02 -0.63392641941E+02  0.10463588548E+03  0.41800000000E+01 0. -1.
         -5    1    3    3    0  502 -0.36337064310E+02 -0.24317914914E+02 -0.63972964614E+01  0.44386270742E+02  0.41800000000E+01 0. -1.
        -11    1    1    2    0    0  0.16407682503E+02  0.95157553970E+01  0.49157853609E+02  0.52690190903E+02  0.00000000000E+00 0.  1.
         11    1    1    2    0    0 -0.39018441049E+02 -0.43829941406E+02 -0.47196711641E+01  0.58870856979E+02  0.00000000000E+00 0. -1.
</event>
<event>
 7    1  0.2499014E-009  0.1157718E+03  0.7561462E-02  0.1250240E+00
         -3   -1    0    0    0  501 -0.00000000000E+00  0.00000000000E+00  0.42459776217E+02  0.42459776217E+02  0.00000000000E+00 0.  1.
          3   -1    0    0  501    0  0.00000000000E+00 -0.00000000000E+00 -0.35315082417E+03  0.35315082417E+03  0.00000000000E+00 0. -1.
         25    2    1    2    0    0 -0.39517899132E+02  0.36664573402E+02 -0.15185837904E+03  0.20400133829E+03  0.12509845500E+03 0.  0.
          5    1    3    3  502    0 -0.82590359689E+02  0.26232462383E+02 -0.72723173506E+02  0.11320530889E+03  0.41800000000E+01 0.  1.
         -5    1    3    3    0  502  0.43072460557E+02  0.10432111019E+02 -0.79135205535E+02  0.90796029395E+02  0.41800000000E+01 0.  1.
        -11    1    1    2    0    0  0.53154669586E+02  0.78359282292E+01 -0.11814694887E+03  0.12979030086E+03  0.00000000000E+00 0. -1.
         11    1    1    2    0    0 -0.13636770454E+02 -0.44500501631E+02 -0.40685720047E+02  0.61818961246E+02  0.00000000000E+00 0.  1.
</event>
<event>
 7    1  0.2499014E-009  0.1181620E+03  0.7561462E-02  0.1246160E+00
          2   -1    0    0  501    0  0.00000000000E+00  0.00000000000E+00  0.35166661949E+03  0.35166661949E+03  0.00000000000E+00 0.  1.
         -2   -1    0    0    0  501 -0.00000000000E+00 -0.00000000000E+00 -0.48593574834E+02  0.48593574834E+02  0.00000000000E+00 0. -1.
         25    2    1    2    0    0  0.25479017529E+01 -0.49403704991E+02  0.24669176368E+03  0.28098556595E+03  0.12509534017E+03 0.  0.
          5    1    3    3  502    0 -0.16385517115E+02 -0.87582031275E+02  0.19039952187E+03  0.21025828806E+03  0.41800000000E+01 0. -1.
         -5    1    3    3    0  502  0.18933418868E+02  0.38178326284E+02  0.56292241817E+02  0.70727277883E+02  0.41800000000E+01 0. -1.
        -11    1    1    2    0    0 -0.45206769840E+02  0.40567374615E+02  0.25503558201E+02  0.65877123521E+02  0.00000000000E+00 0. -1.
         11    1    1    2    0    0  0.42658868088E+02  0.88363303759E+01  0.30877722773E+02  0.53397504854E+02  0.00000000000E+00 0.  1.
</event>
<event>
 7    1  0.2499014E-009  0.6163763E+02  0.7561462E-02  0.1391085E+00
         -2   -1    0    0    0  501 -0.00000000000E+00  0.00000000000E+00  0.41221224216E+02  0.41221224216E+02  0.00000000000E+00 0.  1.
          2   -1    0    0  501    0  0.00000000000E+00 -0.00000000000E+00 -0.37692368045E+03  0.37692368045E+03  0.00000000000E+00 0. -1.
         25    2    1    2    0    0  0.66042434499E+01 -0.24424259373E+02 -0.29371844398E+03  0.32024746324E+03  0.12509097849E+03 0.  0.
          5    1    3    3  502    0  0.25433721248E+02 -0.21305128077E+02 -0.86911533864E+01  0.34551283711E+02  0.41800000000E+01 0.  1.
         -5    1    3    3    0  502 -0.18829477798E+02 -0.31191312959E+01 -0.28502729059E+03  0.28569617952E+03  0.41800000000E+01 0.  1.
        -11    1    1    2    0    0  0.15648928243E+02  0.40120636132E+02 -0.53200515528E+02  0.68445958619E+02  0.00000000000E+00 0. -1.
         11    1    1    2    0    0 -0.22253171693E+02 -0.15696376759E+02  0.11216503275E+02  0.29451482806E+02  0.00000000000E+00 0.  1.
</event>
<event>
 7    1  0.2499014E-009  0.3207941E+03  0.7561462E-02  0.1075284E+00
         -2   -1    0    0    0  501 -0.00000000000E+00  0.00000000000E+00  0.79160236915E+02  0.79160236915E+02  0.00000000000E+00 0.  1.
          2   -1    0    0  501    0  0.00000000000E+00 -0.00000000000E+00 -0.15097416920E+04  0.15097416920E+04  0.00000000000E+00 0. -1.
         25    2    1    2    0    0 -0.30731857853E+03 -0.62285366015E+02 -0.94832413208E+03  0.10066254604E+04  0.12510788326E+03 0.  0.
          5    1    3    3  502    0 -0.16482452124E+03 -0.76671144286E+02 -0.66106410609E+03  0.68561564446E+03  0.41800000000E+01 0. -1.
         -5    1    3    3    0  502 -0.14249405729E+03  0.14385778271E+02 -0.28726002599E+03  0.32100981591E+03  0.41800000000E+01 0. -1.
        -11    1    1    2    0    0  0.23123544426E+03  0.65474600525E+02 -0.42007864414E+03  0.48396572323E+03  0.00000000000E+00 0.  1.
         11    1    1    2    0    0  0.76083134277E+02 -0.31892345098E+01 -0.62178678849E+02  0.98310745300E+02  0.00000000000E+00 0. -1.
</event>
<event>
 7    1  0.2499014E-009  0.1583552E+03  0.7561462E-02  0.1190566E+00
         -2   -1    0    0    0  501 -0.00000000000E+00  0.00000000000E+00  0.59901544929E+02  0.59901544929E+02  0.00000000000E+00 0. -1.
          2   -1    0    0  501    0  0.00000000000E+00 -0.00000000000E+00 -0.11222313111E+04  0.11222313111E+04  0.00000000000E+00 0.  1.
         25    2    1    2    0    0 -0.13696005348E+03  0.22084754797E+01 -0.98840739625E+03  0.10056637907E+04  0.12509014878E+03 0.  0.
          5    1    3    3  502    0 -0.75428236572E+02  0.55848138384E+02 -0.68607811594E+03  0.69248038745E+03  0.41800000000E+01 0.  1.
         -5    1    3    3    0  502 -0.61531816913E+02 -0.53639662905E+02 -0.30232928031E+03  0.31318340324E+03  0.41800000000E+01 0.  1.
        -11    1    1    2    0    0  0.31686310947E+02  0.13768649264E+02 -0.59792934668E+02  0.69056448216E+02  0.00000000000E+00 0.  1.
         11    1    1    2    0    0  0.10527374254E+03 -0.15977124744E+02 -0.14129435282E+02  0.10741261716E+03  0.00000000000E+00 0. -1.
</event>
<event>
 7    1  0.2499014E-009  0.1286614E+03  0.7561462E-02  0.1229456E+00
         -1   -1    0    0    0  501 -0.00000000000E+00  0.00000000000E+00  0.31235700324E+02  0.31235700324E+02  0.00000000000E+00 0.  1.
          1   -1    0    0  501    0  0.00000000000E+00 -0.00000000000E+00 -0.15910929172E+04  0.15910929172E+04  0.00000000000E+00 0. -1.
         25    2    1    2    0    0  0.16002386911E+02  0.11876367297E+03 -0.13668103916E+04  0.13777443485E+04  0.12509179365E+03 0.  0.
          5    1    3    3  502    0  0.18780402810E+02  0.12665178974E+03 -0.74991604415E+03  0.76077915656E+03  0.41800000000E+01 0. -1.
         -5    1    3    3    0  502 -0.27780158986E+01 -0.78881167734E+01 -0.61689434745E+03  0.61696519195E+03  0.41800000000E+01 0. -1.
        -11    1    1    2    0    0 -0.46219698433E+01 -0.25795404734E+02 -0.12774380290E+03  0.13040415902E+03  0.00000000000E+00 0. -1.
         11    1    1    2    0    0 -0.11380417068E+02 -0.92968268235E+02 -0.65303022408E+02  0.11418011003E+03  0.00000000000E+00 0.  1.
</event>
<event>
 7    1  0.2499014E-009  0.5364444E+02  0.7561462E-02  0.1426620E+00
          1   -1    0    0  501    0  0.00000000000E+00  0.00000000000E+00  0.33103720109E+03  0.33103720109E+03  0.00000000000E+00 0. -1.
         -1   -1    0    0    0  501 -0.00000000000E+00 -0.00000000000E+00 -0.36838334853E+02  0.36838334853E+02  0.00000000000E+00 0.  1.
         25    2    1    2    0    0 -0.19133465590E+02 -0.24659320210E+02  0.15700957953E+03  0.20316950589E+03  0.12510662845E+03 0.  0.
          5    1    3    3  502    0  0.61210581568E+01 -0.20538124159E+02  0.17189259439E+03  0.17327382463E+03  0.41800000000E+01 0. -1.
         -5    1    3    3    0  502 -0.25254523747E+02 -0.41211960510E+01 -0.14883014861E+02  0.29895681258E+02  0.41800000000E+01 0. -1.
        -11    1    1    2    0    0 -0.39776588253E+01  0.34267538401E+02  0.11223033344E+02  0.36277299172E+02  0.00000000000E+00 0.  1.
         11    1    1    2    0    0  0.23111124415E+02 -0.96082181913E+01  0.12596625337E+03  0.12842873088E+03  0.00000000000E+00 0. -1.
</event>
<event>
 7    1  0.2499014E-009  0.1019368E+03  0.7561462E-02  0.1276275E+00
          1   -1    0    0  501    0  0.00000000000E+00  0.00000000000E+00  0.68411262311E+02  0.68411262311E+02  0.00000000000E+00 0. -1.
         -1   -1    0    0    0  501 -0.00000000000E+00 -0.00000000000E+00 -0.22175090727E+03  0.22175090727E+03  0.00000000000E+00 0.  1.
         25    2    1    2    0    0 -0.25132514241E+02  0.34295294120E+02 -0.13476180040E+03  0.18872218423E+03  0.12509000562E+03 0.  0.
          5    1    3    3  502    0  0.37942410932E+02  0.84387691003E+01 -0.10887990018E+03  0.11568554117E+03  0.41800000000E+01 0.  1.
         -5    1    3    3    0  502 -0.63074925173E+02  0.25856525020E+02 -0.25881900214E+02  0.73036643066E+02  0.41800000000E+01 0.  1.
        -11    1    1    2    0    0  0.27219024863E+02  0.25115272863E+02 -0.19767224434E+02  0.41980893360E+02  0.00000000000E+00 0.  1.
         11    1    1    2    0    0 -0.20865106221E+01 -0.59410566983E+02  0.11893798704E+01  0.59459091990E+02  0.00000000000E+00 0. -1.
</event>
<event>
 7    1  0.2499014E-009  0.1187135E+03  0.7561462E-02  0.1245235E+00
          2   -1    0    0  501    0  0.00000000000E+00  0.00000000000E+00  0.11281875024E+03  0.11281875024E+03  0.00000000000E+00 0. -1.
         -2   -1    0    0    0  501 -0.00000000000E+00 -0.00000000000E+00 -0.22028702896E+03  0.22028702896E+03  0.00000000000E+00 0.  1.
         25    2    1    2    0    0  0.21118260111E+02  0.10057035724E+03 -0.56470937885E+01  0.16198606963E+03  0.12508884611E+03 0.  0.
          5    1    3    3  502    0  0.51924514143E+02  0.80800968345E+02 -0.46654086963E+02  0.10685985160E+03  0.41800000000E+01 0. -1.
         -5    1    3    3    0  502 -0.30806254033E+02  0.19769388899E+02  0.41006993174E+02  0.55126218029E+02  0.41800000000E+01 0. -1.
        -11    1    1    2    0    0  0.29132634790E+01 -0.24475571018E+02 -0.86395968118E+02  0.89843218931E+02  0.00000000000E+00 0.  1.
         11    1    1    2    0    0 -0.24031523590E+02 -0.76094786226E+02 -0.15425216819E+02  0.81276490640E+02  0.00000000000E+00 0. -1.
</event>
<event>
 7    1  0.2499014E-009  0.9393706E+02  0.7561462E-02  0.1293588E+00
          2   -1    0    0  501    0  0.00000000000E+00  0.00000000000E+00  0.11173410459E+03  0.11173410459E+03  0.00000000000E+00 0. -1.
         -2   -1    0    0    0  501 -0.00000000000E+00 -0.00000000000E+00 -0.16011738209E+03  0.16011738209E+03  0.00000000000E+00 0.  1.
         25    2    1    2    0    0  0.56110850710E+02 -0.40870561597E+02 -0.56320854095E+02  0.15375187221E+03  0.12509504079E+03 0.  0.
          5    1    3    3  502    0  0.96614309887E+01 -0.11150751953E+02 -0.88466695807E+02  0.89785918633E+02  0.41800000000E+01 0.  1.
         -5    1    3    3    0  502  0.46449419721E+02 -0.29719809645E+02  0.32145841712E+02  0.63965953578E+02  0.41800000000E+01 0.  1.
        -11    1    1    2    0    0 -0.76965790577E+02  0.67668530751E+01 -0.40369651702E+00  0.77263744347E+02  0.00000000000E+00 0.  1.
         11    1    1    2    0    0  0.20854939867E+02  0.34103708522E+02  0.83412731118E+01  0.40835870126E+02  0.00000000000E+00 0. -1.
</event>
<event>
 7    1  0.2499014E-009  0.1172489E+03  0.7561462E-02  0.1247706E+00
          3   -1    0    0  501    0  0.00000000000E+00  0.00000000000E+00  0.37063978921E+03  0.37063978921E+03  0.00000000000E+00 0. -1.
         -3   -1    0    0    0  501 -0.00000000000E+00 -0.00000000000E+00 -0.66640502767E+02  0.66640502767E+02  0.00000000000E+00 0.  1.
         25    2    1    2    0    0  0.10950024987E+03 -0.30675226904E+02  0.18374635400E+03  0.24968043025E+03  0.12508525243E+03 0.  0.
          5    1    3    3  502    0  0.33300953859E+02  0.74125494572E+01 -0.11802234652E+02  0.36340948807E+02  0.41800000000E+01 0. -1.
         -5    1    3    3    0  502  0.76199296012E+02 -0.38087776361E+02  0.19554858865E+03  0.21333948145E+03  0.41800000000E+01 0. -1.
        -11    1    1    2    0    0 -0.99340809282E+02  0.22652012801E+02  0.13424799006E+03  0.16853555384E+03  0.00000000000E+00 0. -1.
         11    1    1    2    0    0 -0.10159440590E+02  0.80232141027E+01 -0.13995057612E+02  0.19064307887E+02  0.00000000000E+00 0.  1.
</event>
<event>
 7    1  0.2499014E-009  0.9534137E+02  0.7561462E-02  0.1290409E+00
          1   -1    0    0  501    0  0.00000000000E+00  0.00000000000E+00  0.55165665834E+03  0.55165665834E+03  0.00000000000E+00 0. -1.
         -1   -1    0    0    0  501 -0.00000000000E+00 -0.00000000000E+00 -0.22100746975E+02  0.22100746975E+02  0.00000000000E+00 0.  1.
         25    2    1    2    0    0  0.72413358195E+01  0.10926320502E+02  0.34854892436E+03  0.37054646704E+03  0.12508601096E+03 0.  0.
          5    1    3    3  502    0 -0.53147174440E+02  0.30481485303E+02  0.19140573571E+03  0.20101584803E+03  0.41800000000E+01 0.  1.
         -5    1    3    3    0  502  0.60388510260E+02 -0.19555164800E+02  0.15714318865E+03  0.16953061901E+03  0.41800000000E+01 0.  1.
        -11    1    1    2    0    0 -0.11882485358E+02  0.25924164705E+02  0.13347415814E+02  0.31486652455E+02  0.00000000000E+00 0.  1.
         11    1    1    2    0    0  0.46411495384E+01 -0.36850485207E+02  0.16765957119E+03  0.17172428582E+03  0.00000000000E+00 0. -1.
</event>
<event>
 7    1  0.2499014E-009  0.8428020E+02  0.7561462E-02  0.1317326E+00
          1   -1    0    0  501    0  0.00000000000E+00  0.00000000000E+00  0.17352414526E+03  0.17352414526E+03  0.00000000000E+00 0. -1.
         -1   -1    0    0    0  501 -0.00000000000E+00 -0.00000000000E+00 -0.80426283808E+02  0.80426283808E+02  0.00000000000E+00 0.  1.
         25    2    1    2    0    0  0.30161283276E+02  0.15515994614E+02  0.43914145561E+02  0.13684562853E+03  0.12509126577E+03 0.  0.
          5    1    3    3  502    0 -0.48797760882E+02 -0.56527797428E-01  0.14891123079E+02  0.51190258927E+02  0.41800000000E+01 0. -1.
         -5    1    3    3    0  502  0.78959044157E+02  0.15572522412E+02  0.29023022483E+02  0.85655369607E+02  0.41800000000E+01 0. -1.
        -11    1    1    2    0    0 -0.15297104862E+02 -0.18322372789E+02 -0.28949677590E+02  0.37520588939E+02  0.00000000000E+00 0.  1.
         11    1    1    2    0    0 -0.14864178414E+02  0.28063781742E+01  0.78133393481E+02  0.79584211595E+02  0.00000000000E+00 0. -1.
</event>
<event>
 7    1  0.2499014E-009  0.1609593E+03  0.7561462E-02  0.1187618E+00
         -2   -1    0    0    0  501 -0.00000000000E+00  0.00000000000E+00  0.23417630227E+03  0.23417630227E+03  0.00000000000E+00 0.  1.
          2   -1    0    0  501    0  0.00000000000E+00 -0.00000000000E+00 -0.26284129739E+03  0.26284129739E+03  0.00000000000E+00 0. -1.
         25    2    1    2    0    0 -0.51016116698E+02 -0.11630259801E+03 -0.19966234993E+03  0.26765747113E+03  0.12508608797E+03 0.  0.
          5    1    3    3  502    0  0.33404010711E+02 -0.67622949775E+02 -0.11964551191E+03  0.14149633278E+03  0.41800000000E+01 0. -1.
         -5    1    3    3    0  502 -0.84420127409E+02 -0.48679648236E+02 -0.80016838019E+02  0.12616113835E+03  0.41800000000E+01 0. -1.
        -11    1    1    2    0    0 -0.66783251873E+01  0.80846118568E+02  0.66773897917E+02  0.10506877918E+03  0.00000000000E+00 0. -1.
         11    1    1    2    0    0  0.57694441885E+02  0.35456479443E+02  0.10422345689E+03  0.12429134936E+03  0.00000000000E+00 0.  1.
</event>
<event>
 7    1  0.2499014E-009  0.1481678E+03  0.7561462E-02  0.1202743E+00
          2   -1    0    0  501    0  0.00000000000E+00  0.00000000000E+00  0.24577004598E+03  0.24577004598E+03  0.00000000000E+00 0.  1.
         -2   -1    0    0    0  501 -0.00000000000E+00 -0.00000000000E+00 -0.10429647578E+03  0.10429647578E+03  0.00000000000E+00 0. -1.
         25    2    1    2    0    0  0.32152319055E+02 -0.10505605124E+03  0.27439627407E+02  0.16873786796E+03  0.12509592083E+03 0.  0.
          5    1    3    3  502    0  0.79855430561E+02 -0.68262180257E+02  0.26119605389E+02  0.10833430310E+03  0.41800000000E+01 0. -1.
         -5    1    3    3    0  502 -0.47703111506E+02 -0.36793870984E+02  0.13200220187E+01  0.60403564858E+02  0.41800000000E+01 0. -1.
        -11    1    1    2    0    0 -0.34441314256E+02  0.10193920215E+02  0.41703462855E+01  0.36159534361E+02  0.00000000000E+00 0. -1.
         11    1    1    2    0    0  0.22889952013E+01  0.94862131026E+02  0.10986359651E+03  0.14516911944E+03  0.00000000000E+00 0.  1.
</event>
<event>
 7    1  0.2499014E-009  0.1081472E+03  0.7561462E-02  0.1264040E+00
         -2   -1    0    0    0  501 -0.00000000000E+00  0.00000000000E+00  0.43847875958E+02  0.43847875958E+02  0.00000000000E+00 0.  1.
          2   -1    0    0  501    0  0.00000000000E+00 -0.00000000000E+00 -0.33719826589E+03  0.33719826589E+03  0.00000000000E+00 0. -1.
         25    2    1    2    0    0  0.19004807869E+02  0.21668897269E+02 -0.23781659571E+03  0.27024954939E+03  0.12508941569E+03 0.  0.
          5    1    3    3  502    0  0.66572274164E+02  0.29375938465E+02 -0.18389872147E+03  0.19781563539E+03  0.41800000000E+01 0. -1.
         -5    1    3    3    0  502 -0.47567466296E+02 -0.77070411960E+01 -0.53917874245E+02  0.72433913997E+02  0.41800000000E+01 0. -1.
        -11    1    1    2    0    0  0.36758490352E+02 -0.77669151107E+01 -0.14920708501E+02  0.40424486707E+02  0.00000000000E+00 0.  1.
         11    1    1    2    0    0 -0.55763298221E+02 -0.13901982159E+02 -0.40613085720E+02  0.70372105753E+02  0.00000000000E+00 0. -1.
</event>
<event>
 7    1  0.2499014E-009  0.1230583E+03  0.7561462E-02  0.1238135E+00
         -2   -1    0    0    0  501 -0.00000000000E+00  0.00000000000E+00  0.15540607204E+03  0.15540607204E+03  0.00000000000E+00 0.  1.
          2   -1    0    0  501    0  0.00000000000E+00 -0.00000000000E+00 -0.16551768648E+03  0.16551768648E+03  0.00000000000E+00 0. -1.
         25    2    1    2    0    0  0.69395634140E+02  0.36059049503E+02  0.81314195400E+02  0.16845016806E+03  0.12508977438E+03 0.  0.
          5    1    3    3  502    0  0.99927502420E+02  0.49063933565E+02  0.48196265338E+02  0.12138009602E+03  0.41800000000E+01 0. -1.
         -5    1    3    3    0  502 -0.30531868279E+02 -0.13004884062E+02  0.33117930063E+02  0.47070072039E+02  0.41800000000E+01 0. -1.
        -11    1    1    2    0    0 -0.85702854799E+01  0.17970902398E+02  0.10137889197E+02  0.22342334784E+02  0.00000000000E+00 0.  1.
         11    1    1    2    0    0 -0.60825348660E+02 -0.54029951901E+02 -0.10156369904E+03  0.13013125568E+03  0.00000000000E+00 0. -1.
</event>
<event>
 7    1  0.2499014E-009  0.1248489E+03  0.7561462E-02  0.1235306E+00
          2   -1    0    0  501    0  0.00000000000E+00  0.00000000000E+00  0.61077519264E+03  0.61077519264E+03  0.00000000000E+00 0. -1.
         -2   -1    0    0    0  501 -0.00000000000E+00 -0.00000000000E+00 -0.35272060028E+02  0.35272060028E+02  0.00000000000E+00 0.  1.
         25    2    1    2    0    0  0.85646135439E+02  0.24650539855E+02  0.39153204067E+03  0.42058246729E+03  0.12509741522E+03 0.  0.
          5    1    3    3  502    0  0.72107984038E+02 -0.18855525303E+02  0.35287160155E+03  0.36068120519E+03  0.41800000000E+01 0. -1.
         -5    1    3    3    0  502  0.13538151402E+02  0.43506065158E+02  0.38660439120E+02  0.59901262105E+02  0.41800000000E+01 0. -1.
        -11    1    1    2    0    0 -0.21157357716E+01  0.29610439360E+02  0.30992489400E+02  0.42916067576E+02  0.00000000000E+00 0.  1.
         11    1    1    2    0    0 -0.83530399668E+02 -0.54260979215E+02  0.15297860254E+03  0.18254871780E+03  0.00000000000E+00 0. -1.
</event>
<event>
 7    1  0.2499014E-009  0.1006623E+03  0.7561462E-02  0.1278909E+00
         -2   -1    0    0    0  501 -0.00000000000E+00  0.00000000000E+00  0.13613228958E+03  0.13613228958E+03  0.00000000000E+00 0.  1.
          2   -1    0    0  501    0  0.00000000000E+00 -0.00000000000E+00 -0.14114559760E+03  0.14114559760E+03  0.00000000000E+00 0. -1.
         25    2    1    2    0    0 -0.62042187407E+02 -0.38132630417E+02 -0.50875316777E+02  0.15342588084E+03  0.12509145667E+03 0.  0.
          5    1    3    3  502    0 -0.72764718921E+02 -0.63501429807E+02 -0.70246571826E+02  0.11949556126E+03  0.41800000000E+01 0.  1.
         -5    1    3    3    0  502  0.10722531515E+02  0.25368799390E+02  0.19371255049E+02  0.33930319579E+02  0.41800000000E+01 0.  1.
        -11    1    1    2    0    0  0.60381977961E+02  0.28045863688E+02  0.70626826836E+02  0.97060302912E+02  0.00000000000E+00 0.  1.
         11    1    1    2    0    0  0.16602094453E+01  0.10086766729E+02 -0.24764818078E+02  0.26791703434E+02  0.00000000000E+00 0. -1.
</event>
<event>
 7    1  0.2499014E-009  0.1172022E+03  0.7561462E-02  0.1247785E+00
         -3   -1    0    0    0  501 -0.00000000000E+00  0.00000000000E+00  0.58631671573E+03  0.58631671573E+03  0.00000000000E+00 0.  1.
          3   -1    0    0  501    0  0.00000000000E+00 -0.00000000000E+00 -0.27824482020E+02  0.27824482020E+02  0.00000000000E+00 0. -1.
         25    2    1    2    0    0 -0.48070829311E+02  0.33827634928E+02  0.22847215995E+03  0.26702090938E+03  0.12508207169E+03 0.  0.
          5    1    3    3  502    0 -0.85790090482E+02  0.32350356662E+01  0.17299165656E+03  0.19316829636E+03  0.41800000000E+01 0. -1.
         -5    1    3    3    0  502  0.37719261171E+02  0.30592599261E+02  0.55480503393E+02  0.73852613018E+02  0.41800000000E+01 0. -1.
        -11    1    1    2    0    0  0.68150661640E+02 -0.10546423470E+02  0.28033264046E+03  0.28869036880E+03  0.00000000000E+00 0.  1.
         11    1    1    2    0    0 -0.20079832329E+02 -0.23281211457E+02  0.49687433303E+02  0.58429919575E+02  0.00000000000E+00 0. -1.
</event>
<event>
 7    1  0.2640595E-009  0.1296176E+03  0.7561462E-02  0.1228024E+00
          1   -1    0    0  501    0  0.00000000000E+00  0.00000000000E+00  0.13124240220E+03  0.13124240220E+03  0.00000000000E+00 0. -1.
         -1   -1    0    0    0  501 -0.00000000000E+00 -0.00000000000E+00 -0.18617998396E+03  0.18617998396E+03  0.00000000000E+00 0.  1.
         25    2    1    2    0    0  0.86807268353E+02  0.48345890613E+02  0.22545401796E+02  0.16132847175E+03  0.12508298716E+03 0.  0.
          5    1    3    3  502    0  0.85075016425E+02  0.86408475950E+02  0.14919540338E+02  0.12224666956E+03  0.41800000000E+01 0. -1.
         -5    1    3    3    0  502  0.17322519274E+01 -0.38062585337E+02  0.76258614585E+01  0.39081802188E+02  0.41800000000E+01 0. -1.
        -11    1    1    2    0    0 -0.28122216564E+02 -0.19167054699E+02  0.19363276878E+02  0.39155734468E+02  0.00000000000E+00 0. -1.
         11    1    1    2    0    0 -0.58685051789E+02 -0.29178835914E+02 -0.96846260430E+02  0.11693817994E+03  0.00000000000E+00 0.  1.
</event>
<event>
 7    1  0.2499014E-009  0.1651864E+03  0.7561462E-02  0.1182963E+00
          2   -1    0    0  501    0  0.00000000000E+00  0.00000000000E+00  0.52796221977E+03  0.52796221977E+03  0.00000000000E+00 0.  1.
         -2   -1    0    0    0  501 -0.00000000000E+00 -0.00000000000E+00 -0.77755496202E+02  0.77755496202E+02  0.00000000000E+00 0. -1.
         25    2    1    2    0    0 -0.12333779152E+03 -0.88510817066E+02  0.12283852629E+03  0.23190934615E+03  0.12508503402E+03 0.  0.
          5    1    3    3  502    0 -0.28108900069E+02 -0.45925902087E+02  0.11519799740E+03  0.12722951603E+03  0.41800000000E+01 0.  1.
         -5    1    3    3    0  502 -0.95228891453E+02 -0.42584914980E+02  0.76405288862E+01  0.10467983011E+03  0.41800000000E+01 0.  1.
        -11    1    1    2    0    0  0.38618460069E+02  0.77427210282E+02  0.22126248527E+03  0.23757829391E+03  0.00000000000E+00 0.  1.
         11    1    1    2    0    0  0.84719331453E+02  0.11083606784E+02  0.10610571202E+03  0.13623007592E+03  0.00000000000E+00 0. -1.
</event>
<event>
 7    1  0.2499014E-009  0.1000389E+03  0.7561462E-02  0.1280214E+00
         -2   -1    0    0    0  501 -0.00000000000E+00  0.00000000000E+00  0.54493904192E+02  0.54493904192E+02  0.00000000000E+00 0.  1.
          2   -1    0    0  501    0  0.00000000000E+00 -0.00000000000E+00 -0.21806218136E+03  0.21806218136E+03  0.00000000000E+00 0. -1.
         25    2    1    2    0    0  0.15210536734E+02 -0.17309455665E+01 -0.93045473689E+02  0.15664748615E+03  0.12508644269E+03 0.  0.
          5    1    3    3  502    0 -0.34975317137E+02 -0.35791397257E+02 -0.61456128281E+01  0.50591875667E+02  0.41800000000E+01 0. -1.
         -5    1    3    3    0  502  0.50185853871E+02  0.34060451691E+02 -0.86899860861E+02  0.10605561049E+03  0.41800000000E+01 0. -1.
        -11    1    1    2    0    0 -0.48818013034E+01  0.44651903554E+02 -0.21058843239E+02  0.49609468386E+02  0.00000000000E+00 0.  1.
         11    1    1    2    0    0 -0.10328735431E+02 -0.42920957988E+02 -0.49463960237E+02  0.66299131009E+02  0.00000000000E+00 0. -1.
</event>
<event>
 7    1  0.2499014E-009  0.1560770E+03  0.7561462E-02  0.1193198E+00
          1   -1    0    0  501    0  0.00000000000E+00  0.00000000000E+00  0.43088122009E+02  0.43088122009E+02  0.00000000000E+00 0. -1.
         -1   -1    0    0    0  501 -0.00000000000E+00 -0.00000000000E+00 -0.66835392450E+03  0.66835392450E+03  0.00000000000E+00 0.  1.
         25    2    1    2    0    0  0.51089039063E+02 -0.10520736031E+03 -0.24810273528E+03  0.30146450084E+03  0.12508876621E+03 0.  0.
          5    1    3    3  502    0 -0.35769382159E+02 -0.46756559613E+02 -0.49962026906E+02  0.77325940664E+02  0.41800000000E+01 0.  1.
         -5    1    3    3    0  502  0.86858421223E+02 -0.58450800695E+02 -0.19814070838E+03  0.22413856017E+03  0.41800000000E+01 0.  1.
        -11    1    1    2    0    0  0.23599485343E+02  0.50612093434E+02 -0.72114960114E+02  0.91209030158E+02  0.00000000000E+00 0.  1.
         11    1    1    2    0    0 -0.74688524406E+02  0.54595266874E+02 -0.30504810710E+03  0.31876851552E+03  0.00000000000E+00 0. -1.
</event>
<event>
 7    1  0.2499014E-009  0.1109809E+03  0.7561462E-02  0.1258764E+00
         -2   -1    0    0    0  501 -0.00000000000E+00  0.00000000000E+00  0.16221298438E+03  0.16221298438E+03  0.00000000000E+00 0.  1.
          2   -1    0    0  501    0  0.00000000000E+00 -0.00000000000E+00 -0.11566767930E+03  0.11566767930E+03  0.00000000000E+00 0. -1.
         25    2    1    2    0    0  0.53318339715E+02 -0.61038204133E+02  0.10059980064E+02  0.14939154621E+03  0.12509245847E+03 0.  0.
          5    1    3    3  502    0  0.53543194493E+02 -0.31237622909E+01 -0.44422927949E+02  0.69767474477E+02  0.41800000000E+01 0. -1.
         -5    1    3    3    0  502 -0.22485477741E+00 -0.57914441842E+02  0.54482908013E+02  0.79624071731E+02  0.41800000000E+01 0. -1.
        -11    1    1    2    0    0  0.16503839476E+02  0.28800681429E+02 -0.14495096688E+02  0.36221040794E+02  0.00000000000E+00 0.  1.
         11    1    1    2    0    0 -0.69822179191E+02  0.32237522704E+02  0.50980421700E+02  0.92268076678E+02  0.00000000000E+00 0. -1.
</event>
<event>
 7    1  0.2499014E-009  0.7575683E+02  0.7561462E-02  0.1341543E+00
         -1   -1    0    0    0  501 -0.00000000000E+00  0.00000000000E+00  0.23329072715E+03  0.23329072715E+03  0.00000000000E+00 0.  1.
          1   -1    0    0  501    0  0.00000000000E+00 -0.00000000000E+00 -0.73356196655E+02  0.73356196655E+02  0.00000000000E+00 0. -1.
         25    2    1    2    0    0  0.39887762366E+02  0.30362621483E+02  0.15433383324E+03  0.20488835885E+03  0.12508950851E+03 0.  0.
          5    1    3    3  502    0 -0.12368361358E+02  0.68054749593E+01  0.14608694335E+03  0.14682696710E+03  0.41800000000E+01 0. -1.
         -5    1    3    3    0  502  0.52256123724E+02  0.23557146523E+02  0.82468898954E+01  0.58061391749E+02  0.41800000000E+01 0. -1.
        -11    1    1    2    0    0 -0.23534375236E+02  0.17117145058E+02  0.33449266648E+02  0.44336406169E+02  0.00000000000E+00 0. -1.
         11    1    1    2    0    0 -0.16353387130E+02 -0.47479766541E+02 -0.27848569400E+02  0.57422158780E+02  0.00000000000E+00 0.  1.
</event>
<event>
 7    1  0.2499014E-009  0.1083651E+03  0.7561462E-02  0.1263628E+00
         -1   -1    0    0    0  501 -0.00000000000E+00  0.00000000000E+00  0.35171506646E+02  0.35171506646E+02  0.00000000000E+00 0.  1.
          1   -1    0    0  501    0  0.00000000000E+00 -0.00000000000E+00 -0.67498348323E+03  0.67498348323E+03  0.00000000000E+00 0. -1.
         25    2    1    2    0    0 -0.12238332263E+02  0.46478653125E+02 -0.57072286685E+03  0.58624422639E+03  0.12509060818E+03 0.  0.
          5    1    3    3  502    0 -0.50658779227E+02  0.57271096948E+02 -0.21430998037E+03  0.22757972350E+03  0.41800000000E+01 0. -1.
         -5    1    3    3    0  502  0.38420446964E+02 -0.10792443823E+02 -0.35641288648E+03  0.35866450289E+03  0.41800000000E+01 0. -1.
        -11    1    1    2    0    0 -0.34283200629E+02 -0.40598801883E+02 -0.22171372107E+02  0.57577515584E+02  0.00000000000E+00 0. -1.
         11    1    1    2    0    0  0.46521532892E+02 -0.58798512417E+01 -0.46917737619E+02  0.66333247897E+02  0.00000000000E+00 0.  1.
</event>
<event>
 7    1  0.2499014E-009  0.1282732E+03  0.7561462E-02  0.1230041E+00
          1   -1    0    0  501    0  0.00000000000E+00  0.00000000000E+00  0.32749779344E+03  0.32749779344E+03  0.00000000000E+00 0. -1.
         -1   -1    0    0    0  501 -0.00000000000E+00 -0.00000000000E+00 -0.71060240497E+02  0.71060240497E+02  0.00000000000E+00 0.  1.
         25    2    1    2    0    0  0.10220217561E+03 -0.27193011166E+02  0.15882423942E+03  0.22816121792E+03  0.12509059828E+03 0.  0.
          5    1    3    3  502    0  0.77601188146E+02 -0.64778623744E+02  0.55448808919E+02  0.11537008844E+03  0.41800000000E+01 0. -1.
         -5    1    3    3    0  502  0.24600987467E+02  0.37585612578E+02  0.10337543050E+03  0.11279112948E+03  0.41800000000E+01 0. -1.
        -11    1    1    2    0    0 -0.72030080741E+02  0.38873670088E+01  0.10891093100E+03  0.13063320805E+03  0.00000000000E+00 0. -1.
         11    1    1    2    0    0 -0.30172094872E+02  0.23305644158E+02 -0.11297617476E+02  0.39763607975E+02  0.00000000000E+00 0.  1.
</event>
<event>
 7    1  0.2499014E-009  0.9693757E+02  0.7561462E-02  0.1286871E+00
          2   -1    0    0  501    0  0.00000000000E+00  0.00000000000E+00  0.64688199139E+03  0.64688199139E+03  0.00000000000E+00 0. -1.
         -2   -1    0    0    0  501 -0.00000000000E+00 -0.00000000000E+00 -0.30829861378E+02  0.30829861378E+02  0.00000000000E+00 0.  1.
         25    2    1    2    0    0  0.24881200001E+02 -0.35152105390E+02  0.52995323280E+03  0.54621716925E+03  0.12509205568E+03 0.  0.
          5    1    3    3  502    0 -0.32113517693E+02  0.30620453974E+02  0.20467015692E+03  0.20946655044E+03  0.41800000000E+01 0.  1.
         -5    1    3    3    0  502  0.56994717694E+02 -0.65772559364E+02  0.32528307588E+03  0.33675061880E+03  0.41800000000E+01 0.  1.
        -11    1    1    2    0    0 -0.33232486543E+02  0.85811000756E+01  0.95987105420E+02  0.10193899081E+03  0.00000000000E+00 0. -1.
         11    1    1    2    0    0  0.83512865423E+01  0.26571005314E+02 -0.98882082076E+01  0.29555692715E+02  0.00000000000E+00 0.  1.
</event>
<event>
 7    1  0.2499014E-009  0.1753739E+03  0.7561462E-02  0.1172357E+00
          2   -1    0    0  501    0  0.00000000000E+00  0.00000000000E+00  0.10320708038E+04  0.10320708038E+04  0.00000000000E+00 0. -1.
         -2   -1    0    0    0  501 -0.00000000000E+00 -0.00000000000E+00 -0.53617748567E+02  0.53617748567E+02  0.00000000000E+00 0.  1.
         25    2    1    2    0    0 -0.14252316928E+03  0.50144237513E+02  0.83510273291E+03  0.85782803221E+03  0.12508021420E+03 0.  0.
          5    1    3    3  502    0 -0.13094606726E+03  0.71415855259E+02  0.80618724406E+03  0.81987952883E+03  0.41800000000E+01 0. -1.
         -5    1    3    3    0  502 -0.11577102025E+02 -0.21271617746E+02  0.28915488850E+02  0.37948503373E+02  0.41800000000E+01 0. -1.
        -11    1    1    2    0    0  0.76648765591E+01 -0.41087751520E+02  0.29809187208E+02  0.51337523310E+02  0.00000000000E+00 0.  1.
         11    1    1    2    0    0  0.13485829273E+03 -0.90564859933E+01  0.11354113512E+03  0.17652299686E+03  0.00000000000E+00 0. -1.
</event>
<event>
 7    1  0.2499014E-009  0.1250283E+03  0.7561462E-02  0.1235025E+00
          1   -1    0    0  501    0  0.00000000000E+00  0.00000000000E+00  0.24587155832E+03  0.24587155832E+03  0.00000000000E+00 0. -1.
         -1   -1    0    0    0  501 -0.00000000000E+00 -0.00000000000E+00 -0.10386513721E+03  0.10386513721E+03  0.00000000000E+00 0.  1.
         25    2    1    2    0    0  0.10189758086E+03  0.21900658297E+02  0.13326284777E+03  0.21039850260E+03  0.12508312229E+03 0.  0.
          5    1    3    3  502    0  0.86960352738E+02  0.51016781515E+02  0.35095710902E+02  0.10683630595E+03  0.41800000000E+01 0. -1.
         -5    1    3    3    0  502  0.14937228126E+02 -0.29116123218E+02  0.98167136867E+02  0.10356219665E+03  0.41800000000E+01 0. -1.
        -11    1    1    2    0    0 -0.64563626127E+02  0.12071313223E+02 -0.33303318658E+02  0.73642986463E+02  0.00000000000E+00 0.  1.
         11    1    1    2    0    0 -0.37333954736E+02 -0.33971971520E+02  0.42046892008E+02  0.65695206467E+02  0.00000000000E+00 0. -1.
</event>
<event>
 7    1  0.2499014E-009  0.8976461E+02  0.7561462E-02  0.1303423E+00
          2   -1    0    0  501    0  0.00000000000E+00  0.00000000000E+00  0.22401537914E+03  0.22401537914E+03  0.00000000000E+00 0. -1.
         -2   -1    0    0    0  501 -0.00000000000E+00 -0.00000000000E+00 -0.76955147941E+02  0.76955147941E+02  0.00000000000E+00 0.  1.
         25    2    1    2    0    0  0.17388800310E+02 -0.40672668992E+02  0.14787110164E+03  0.19867009886E+03  0.12508920457E+03 0.  0.
          5    1    3    3  502    0  0.53680511841E+02 -0.50637469577E+02  0.14236049998E+03  0.16040490962E+03  0.41800000000E+01 0.  1.
         -5    1    3    3    0  502 -0.36291711531E+02  0.99648005850E+01  0.55106016601E+01  0.38265189235E+02  0.41800000000E+01 0.  1.
        -11    1    1    2    0    0 -0.24528652515E+02  0.50183144042E+02  0.34083916904E+02  0.65434823540E+02  0.00000000000E+00 0. -1.
         11    1    1    2    0    0  0.71398522053E+01 -0.95104750507E+01 -0.34894787342E+02  0.36865604686E+02  0.00000000000E+00 0.  1.
</event>
<event>
 7    1  0.2499014E-009  0.8024527E+02  0.7561462E-02  0.1328357E+00
         -3   -1    0    0    0  501 -0.00000000000E+00  0.00000000000E+00  0.30011428092E+02  0.30011428092E+02  0.00000000000E+00 0.  1.
          3   -1    0    0  501    0  0.00000000000E+00 -0.00000000000E+00 -0.39905353266E+03  0.39905353266E+03  0.00000000000E+00 0. -1.
         25    2    1    2    0    0 -0.19767756368E+02 -0.18026632280E+02 -0.16985011148E+03  0.21263882054E+03  0.12510189435E+03 0.  0.
          5    1    3    3  502    0  0.11332065985E+02 -0.37222014406E+02 -0.17141054786E+03  0.17582076781E+03  0.41800000000E+01 0.  1.
         -5    1    3    3    0  502 -0.31099822353E+02  0.19195382126E+02  0.15604363793E+01  0.36818052733E+02  0.41800000000E+01 0.  1.
        -11    1    1    2    0    0 -0.31262180079E+02  0.31599269264E+01 -0.77998947617E+02  0.84090099720E+02  0.00000000000E+00 0. -1.
         11    1    1    2    0    0  0.51029936448E+02  0.14866705354E+02 -0.12119304548E+03  0.13233604049E+03  0.00000000000E+00 0.  1.
</event>
<event>
 7    1  0.2499014E-009  0.9734667E+02  0.7561462E-02  0.1285977E+00
          2   -1    0    0  501    0  0.00000000000E+00  0.00000000000E+00  0.88852661388E+03  0.88852661388E+03  0.00000000000E+00 0. -1.
         -2   -1    0    0    0  501 -0.00000000000E+00 -0.00000000000E+00 -0.20547974998E+02  0.20547974998E+02  0.00000000000E+00 0.  1.
         25    2    1    2    0    0 -0.35721777873E+02 -0.39387342287E+01  0.71870853660E+03  0.73039799697E+03  0.12509082444E+03 0.  0.
          5    1    3    3  502    0 -0.61909869305E+02 -0.48090273441E+02  0.45053463931E+03  0.45732312421E+03  0.41800000000E+01 0.  1.
         -5    1    3    3    0  502  0.26188091432E+02  0.44151539213E+02  0.26817389728E+03  0.27307487276E+03  0.41800000000E+01 0.  1.
        -11    1    1    2    0    0  0.45375666475E+02 -0.11193037476E+02  0.15331269044E+03  0.16027793437E+03  0.00000000000E+00 0. -1.
         11    1    1    2    0    0 -0.96538886025E+01  0.15131771705E+02 -0.40425881581E+01  0.18398657535E+02  0.00000000000E+00 0.  1.
</event>
<event>
 7    1  0.2499014E-009  0.1148120E+03  0.7561462E-02  0.1251910E+00
          1   -1    0    0  501    0  0.00000000000E+00  0.00000000000E+00  0.19131946499E+03  0.19131946499E+03  0.00000000000E+00 0. -1.
         -1   -1    0    0    0  501 -0.00000000000E+00 -0.00000000000E+00 -0.98495553730E+02  0.98495553730E+02  0.00000000000E+00 0.  1.
         25    2    1    2    0    0 -0.30333308633E+01  0.82862067874E+02  0.67732570308E+02  0.16465243833E+03  0.12508957182E+03 0.  0.
          5    1    3    3  502    0  0.50796473465E+02  0.65228224790E+02  0.95268770484E+01  0.83326087224E+02  0.41800000000E+01 0. -1.
         -5    1    3    3    0  502 -0.53829804329E+02  0.17633843084E+02  0.58205693259E+02  0.81326351103E+02  0.41800000000E+01 0. -1.
        -11    1    1    2    0    0  0.19056831219E+02 -0.40663939713E+02  0.55007475121E+02  0.71010852187E+02  0.00000000000E+00 0. -1.
         11    1    1    2    0    0 -0.16023500356E+02 -0.42198128161E+02 -0.29916134169E+02  0.54151728205E+02  0.00000000000E+00 0.  1.
</event>
<event>
 7    1  0.2499014E-009  0.1060472E+03  0.7561462E-02  0.1268070E+00
         -1   -1    0    0    0  501 -0.00000000000E+00  0.00000000000E+00  0.66410383115E+02  0.66410383115E+02  0.00000000000E+00 0.  1.
          1   -1    0    0  501    0  0.00000000000E+00 -0.00000000000E+00 -0.24456207007E+03  0.24456207007E+03  0.00000000000E+00 0. -1.
         25    2    1    2    0    0  0.14711988985E+02  0.40120407867E+02 -0.16238030161E+03  0.20938207607E+03  0.12508957464E+03 0.  0.
          5    1    3    3  502    0 -0.45047698428E+02  0.25098979792E+02 -0.22391121964E+02  0.56374539139E+02  0.41800000000E+01 0.  1.
         -5    1    3    3    0  502  0.59759687414E+02  0.15021428075E+02 -0.13998917965E+03  0.15300753694E+03  0.41800000000E+01 0.  1.
        -11    1    1    2    0    0  0.37192383294E+02 -0.97058293998E+01 -0.15460018954E+02  0.41430528424E+02  0.00000000000E+00 0.  1.
         11    1    1    2    0    0 -0.51904372280E+02 -0.30414578467E+02 -0.31136639322E+00  0.60159848688E+02  0.00000000000E+00 0. -1.
</event>
<event>
 7    1  0.2499014E-009  0.1043704E+03  0.7561462E-02  0.1271365E+00
         -2   -1    0    0    0  501 -0.00000000000E+00  0.00000000000E+00  0.10360478917E+03  0.10360478917E+03  0.00000000000E+00 0. -1.
          2   -1    0    0  501    0  0.00000000000E+00 -0.00000000000E+00 -0.14742275259E+03  0.14742275259E+03  0.00000000000E+00 0.  1.
         25    2    1    2    0    0 -0.42221720147E+02  0.75510674941E+01 -0.67003308774E+02  0.14825137286E+03  0.12509729771E+03 0.  0.
          5    1    3    3  502    0 -0.84399743077E+02  0.17731495784E+02 -0.31082560924E+02  0.91767753421E+02  0.41800000000E+01 0.  1.
         -5    1    3    3    0  502  0.42178022930E+02 -0.10180428290E+02 -0.35920747850E+02  0.56483619436E+02  0.41800000000E+01 0.  1.
        -11    1    1    2    0    0  0.46307810721E+02  0.20369104569E+02 -0.17266373097E+02  0.53455040872E+02  0.00000000000E+00 0.  1.
         11    1    1    2    0    0 -0.40860905736E+01 -0.27920172063E+02  0.40451718449E+02  0.49321128025E+02  0.00000000000E+00 0. -1.
</event>
<event>
 7    1  0.2499014E-009  0.1154057E+03  0.7561462E-02  0.1250875E+00
          2   -1    0    0  501    0  0.00000000000E+00  0.00000000000E+00  0.35002859343E+03  0.35002859343E+03  0.00000000000E+00 0. -1.
         -2   -1    0    0    0  501 -0.00000000000E+00 -0.00000000000E+00 -0.62808916820E+02  0.62808916820E+02  0.00000000000E+00 0.  1.
         25    2    1    2    0    0  0.68698167378E+02  0.11153828772E+02  0.25800845090E+03  0.29505906035E+03  0.12509053627E+03 0.  0.
          5    1    3    3  502    0 -0.32052048461E+02  0.24688549969E+02  0.60759165449E+02  0.73116392801E+02  0.41800000000E+01 0. -1.
         -5    1    3    3    0  502  0.10075021584E+03 -0.13534721197E+02  0.19724928545E+03  0.22194266755E+03  0.41800000000E+01 0. -1.
        -11    1    1    2    0    0 -0.65366395090E+02  0.10746943459E+02 -0.15363715964E+02  0.68002251205E+02  0.00000000000E+00 0.  1.
         11    1    1    2    0    0 -0.33317722883E+01 -0.21900772231E+02  0.44574941679E+02  0.49776198696E+02  0.00000000000E+00 0. -1.
</event>
<event>
 7    1  0.2499014E-009  0.2296461E+03  0.7561462E-02  0.1126889E+00
          1   -1    0    0  501    0  0.00000000000E+00  0.00000000000E+00  0.14959221990E+04  0.14959221990E+04  0.00000000000E+00 0. -1.
         -1   -1    0    0    0  501 -0.00000000000E+00 -0.00000000000E+00 -0.40371533843E+02  0.40371533843E+02  0.00000000000E+00 0.  1.
         25    2    1    2    0    0  0.60430537194E+02 -0.19719401332E+03  0.99148961628E+03  0.10204103714E+04  0.12509331739E+03 0.  0.
          5    1    3    3  502    0  0.63773959144E+02 -0.21311353297E+03  0.94875730895E+03  0.97449597202E+03  0.41800000000E+01 0.  1.
         -5    1    3    3    0  502 -0.33434219503E+01  0.15919519647E+02  0.42732307327E+02  0.45914399328E+02  0.41800000000E+01 0.  1.
        -11    1    1    2    0    0 -0.23712101917E+02  0.48678501381E+01  0.23342754578E+02  0.33628023040E+02  0.00000000000E+00 0.  1.
         11    1    1    2    0    0 -0.36718435277E+02  0.19232616319E+03  0.44071829430E+03  0.48225533845E+03  0.00000000000E+00 0. -1.
</event>
<event>
 7    1  0.2499014E-009  0.8673381E+02  0.7561462E-02  0.1310960E+00
         -2   -1    0    0    0  501 -0.00000000000E+00  0.00000000000E+00  0.25270549241E+02  0.25270549241E+02  0.00000000000E+00 0.  1.
          2   -1    0    0  501    0  0.00000000000E+00 -0.00000000000E+00 -0.60080314518E+03  0.60080314518E+03  0.00000000000E+00 0. -1.
         25    2    1    2    0    0  0.13475759199E+02  0.34327495857E+02 -0.20714343727E+03  0.24477619457E+03  0.12508800408E+03 0.  0.
          5    1    3    3  502    0  0.33859299633E+02 -0.48671156704E+01 -0.19602215986E+03  0.19902839130E+03  0.41800000000E+01 0.  1.
         -5    1    3    3    0  502 -0.20383540434E+02  0.39194611527E+02 -0.11121277418E+02  0.45747803278E+02  0.41800000000E+01 0.  1.
        -11    1    1    2    0    0  0.51752799644E+01  0.28565334174E+02 -0.16667850382E+03  0.16918772258E+03  0.00000000000E+00 0. -1.
         11    1    1    2    0    0 -0.18651039163E+02 -0.62892830031E+02 -0.20171065485E+03  0.21210977726E+03  0.00000000000E+00 0.  1.
</event>
<event>
 7    1  0.2499014E-009  0.1162295E+03  0.7561462E-02  0.1249450E+00
          2   -1    0    0  501    0  0.00000000000E+00  0.00000000000E+00  0.14776546367E+03  0.14776546367E+03  0.00000000000E+00 0. -1.
         -2   -1    0    0    0  501 -0.00000000000E+00 -0.00000000000E+00 -0.21232399284E+03  0.21232399284E+03  0.00000000000E+00 0.  1.
         25    2    1    2    0    0 -0.33923501231E+01  0.87211733927E+02  0.76801457158E+02  0.17077399568E+03  0.12509156328E+03 0.  0.
          5    1    3    3  502    0  0.45151574913E+02  0.15156881522E+01  0.52220412239E+02  0.69176628149E+02  0.41800000000E+01 0. -1.
         -5    1    3    3    0  502 -0.48543925036E+02  0.85696045775E+02  0.24581044919E+02  0.10159736753E+03  0.41800000000E+01 0. -1.
        -11    1    1    2    0    0  0.83097486168E+01 -0.31360234673E+02 -0.12749645725E+03  0.13155935106E+03  0.00000000000E+00 0.  1.
         11    1    1    2    0    0 -0.49173984938E+01 -0.55851499254E+02 -0.13863529085E+02  0.57756109768E+02  0.00000000000E+00 0. -1.
</event>
<event>
 7    1  0.2499014E-009  0.5966717E+02  0.7561462E-02  0.1399234E+00
         -1   -1    0    0    0  501 -0.00000000000E+00  0.00000000000E+00  0.36923329599E+02  0.36923329599E+02  0.00000000000E+00 0.  1.
          1   -1    0    0  501    0  0.00000000000E+00 -0.00000000000E+00 -0.26708030384E+03  0.26708030384E+03  0.00000000000E+00 0. -1.
         25    2    1    2    0    0  0.26730913518E+02 -0.44370275154E+01 -0.97262409906E+02  0.16075617344E+03  0.12509333303E+03 0.  0.
          5    1    3    3  502    0  0.43818165882E+02  0.97492952210E+01 -0.12030884612E+03  0.12847868023E+03  0.41800000000E+01 0. -1.
         -5    1    3    3    0  502 -0.17087252364E+02 -0.14186322736E+02  0.23046436211E+02  0.32277493214E+02  0.41800000000E+01 0. -1.
        -11    1    1    2    0    0 -0.86031807715E+01  0.23692370157E+02 -0.83464648469E+02  0.87187674973E+02  0.00000000000E+00 0.  1.
         11    1    1    2    0    0 -0.18127732747E+02 -0.19255342642E+02 -0.49429915865E+02  0.56059785027E+02  0.00000000000E+00 0. -1.
</event>
<event>
 7    1  0.2499014E-009  0.1008368E+03  0.7561462E-02  0.1278546E+00
          1   -1    0    0  501    0  0.00000000000E+00  0.00000000000E+00  0.20610522524E+03  0.20610522524E+03  0.00000000000E+00 0. -1.
         -1   -1    0    0    0  501 -0.00000000000E+00 -0.00000000000E+00 -0.82482626519E+02  0.82482626519E+02  0.00000000000E+00 0.  1.
         25    2    1    2    0    0  0.72924450765E+02  0.86922742798E+01  0.47324501087E+02  0.15256913836E+03  0.12507678612E+03 0.  0.
          5    1    3    3  502    0  0.26723063415E+02  0.31097566585E+02  0.81096693981E+02  0.90968824003E+02  0.41800000000E+01 0. -1.
         -5    1    3    3    0  502  0.46201387350E+02 -0.22405292305E+02 -0.33772192894E+02  0.61600314359E+02  0.41800000000E+01 0. -1.
        -11    1    1    2    0    0  0.17823813340E+02 -0.22415433312E+01  0.11198099020E+01  0.17999078107E+02  0.00000000000E+00 0.  1.
         11    1    1    2    0    0 -0.90748264105E+02 -0.64507309485E+01  0.75178287729E+02  0.11801963529E+03  0.00000000000E+00 0. -1.
</event>
<event>
 7    1  0.2499014E-009  0.1706205E+03  0.7561462E-02  0.1177202E+00
          1   -1    0    0  501    0  0.00000000000E+00  0.00000000000E+00  0.30027210190E+03  0.30027210190E+03  0.00000000000E+00 0. -1.
         -1   -1    0    0    0  501 -0.00000000000E+00 -0.00000000000E+00 -0.11316548126E+03  0.11316548126E+03  0.00000000000E+00 0.  1.
         25    2    1    2    0    0  0.25358406149E+02  0.14425673190E+03  0.71558081918E+02  0.20547896059E+03  0.12509192898E+03 0.  0.
          5    1    3    3  502    0 -0.67588745730E+01 -0.19974297478E+02  0.22330343583E+02  0.30996315745E+02  0.41800000000E+01 0.  1.
         -5    1    3    3    0  502  0.32117280722E+02  0.16423102937E+03  0.49227738335E+02  0.17448264484E+03  0.41800000000E+01 0.  1.
        -11    1    1    2    0    0 -0.10781530571E+01 -0.11185496805E+03  0.12357221617E+03  0.16668169935E+03  0.00000000000E+00 0. -1.
         11    1    1    2    0    0 -0.24280253092E+02 -0.32401763848E+02 -0.80236774462E+01  0.41276923219E+02  0.00000000000E+00 0.  1.
</event>
<event>
 7    1  0.2499014E-009  0.1178874E+03  0.7561462E-02  0.1246623E+00
         -2   -1    0    0    0  501 -0.00000000000E+00  0.00000000000E+00  0.40228706256E+03  0.40228706256E+03  0.00000000000E+00 0.  1.
          2   -1    0    0  501    0  0.00000000000E+00 -0.00000000000E+00 -0.49557636396E+02  0.49557636396E+02  0.00000000000E+00 0. -1.
         25    2    1    2    0    0  0.54993118232E+02  0.55719645808E+02  0.26484852454E+03  0.30318433747E+03  0.12508828704E+03 0.  0.
          5    1    3    3  502    0  0.61769530032E+02  0.76480876716E+02  0.26307874751E+03  0.28087844192E+03  0.41800000000E+01 0.  1.
         -5    1    3    3    0  502 -0.67764117998E+01 -0.20761230908E+02  0.17697770353E+01  0.22305895554E+02  0.41800000000E+01 0.  1.
        -11    1    1    2    0    0 -0.40777567848E+01 -0.63503050372E+02  0.68843174607E+02  0.93747790358E+02  0.00000000000E+00 0.  1.
         11    1    1    2    0    0 -0.50915361448E+02  0.77834045639E+01  0.19037727014E+02  0.54912571127E+02  0.00000000000E+00 0. -1.
</event>
<event>
 7    1  0.2499014E-009  0.1343911E+03  0.7561462E-02  0.1221082E+00
          1   -1    0    0  501    0  0.00000000000E+00  0.00000000000E+00  0.18087855859E+02  0.18087855859E+02  0.00000000000E+00 0. -1.
         -1   -1    0    0    0  501 -0.00000000000E+00 -0.00000000000E+00 -0.11949288040E+04  0.11949288040E+04  0.00000000000E+00 0.  1.
         25    2    1    2    0    0 -0.60031683652E+02 -0.63781880210E+02 -0.84478824909E+03  0.85847898750E+03  0.12508818845E+03 0.  0.
          5    1    3    3  502    0  0.36513836679E+02 -0.23802634421E+02 -0.16581638777E+03  0.17150035722E+03  0.41800000000E+01 0. -1.
         -5    1    3    3    0  502 -0.96545520331E+02 -0.39979245789E+02 -0.67897186133E+03  0.68697863028E+03  0.41800000000E+01 0. -1.
        -11    1    1    2    0    0  0.19561171040E+02  0.75732236993E+02 -0.17085224837E+03  0.18790556645E+03  0.00000000000E+00 0. -1.
         11    1    1    2    0    0  0.40470512612E+02 -0.11950356782E+02 -0.16120045069E+03  0.16663210591E+03  0.00000000000E+00 0.  1.
</event>
<event>
 7    1  0.2499014E-009  0.1180505E+03  0.7561462E-02  0.1246348E+00
          2   -1    0    0  501    0  0.00000000000E+00  0.00000000000E+00  0.66722942416E+03  0.66722942416E+03  0.00000000000E+00 0. -1.
         -2   -1    0    0    0  501 -0.00000000000E+00 -0.00000000000E+00 -0.23430425748E+02  0.23430425748E+02  0.00000000000E+00 0.  1.
         25    2    1    2    0    0 -0.54804601187E+02 -0.23228503849E+02  0.41768618415E+03  0.44005923865E+03  0.12508907780E+03 0.  0.
          5    1    3    3  502    0 -0.62492495502E+02 -0.64725985371E+02  0.33794731670E+03  0.34974365819E+03  0.41800000000E+01 0. -1.
         -5    1    3    3    0  502  0.76878943153E+01  0.41497481523E+02  0.79738867447E+02  0.90315580458E+02  0.41800000000E+01 0. -1.
        -11    1    1    2    0    0 -0.16311900929E+01  0.43594437398E+02  0.61555774536E+02  0.75446995513E+02  0.00000000000E+00 0.  1.
         11    1    1    2    0    0  0.56435791280E+02 -0.20365933549E+02  0.16455703972E+03  0.17515361574E+03  0.00000000000E+00 0. -1.
</event>
<event>
 7    1  0.2499014E-009  0.9483674E+02  0.7561462E-02  0.1291544E+00
          2   -1    0    0  501    0  0.00000000000E+00  0.00000000000E+00  0.84242298891E+03  0.84242298891E+03  0.00000000000E+00 0. -1.
         -2   -1    0    0    0  501 -0.00000000000E+00 -0.00000000000E+00 -0.21930271613E+02  0.21930271613E+02  0.00000000000E+00 0.  1.
         25    2    1    2    0    0 -0.27795876714E+02  0.73322117707E+02  0.53213641237E+03  0.55223697500E+03  0.12509105273E+03 0.  0.
          5    1    3    3  502    0 -0.26291915367E+02  0.34889191906E+02  0.42558644056E+02  0.61132897113E+02  0.41800000000E+01 0. -1.
         -5    1    3    3    0  502 -0.15039613471E+01  0.38432925801E+02  0.48957776831E+03  0.49110407788E+03  0.41800000000E+01 0. -1.
        -11    1    1    2    0    0  0.44862420097E+02 -0.16551820120E+02  0.20055349339E+03  0.20617541851E+03  0.00000000000E+00 0. -1.
         11    1    1    2    0    0 -0.17066543383E+02 -0.56770297587E+02  0.87802811538E+02  0.10594086702E+03  0.00000000000E+00 0.  1.
</event>
<event>
 7    1  0.2499014E-009  0.1179306E+03  0.7561462E-02  0.1246550E+00
          1   -1    0    0  501    0  0.00000000000E+00  0.00000000000E+00  0.29359767142E+02  0.29359767142E+02  0.00000000000E+00 0. -1.
         -1   -1    0    0    0  501 -0.00000000000E+00 -0.00000000000E+00 -0.57367745235E+03  0.57367745235E+03  0.00000000000E+00 0.  1.
         25    2    1    2    0    0  0.62619358795E+02  0.21955348443E+02 -0.24326587489E+03  0.28147363705E+03  0.12508357625E+03 0.  0.
          5    1    3    3  502    0  0.76385557266E+02 -0.19792057851E+02 -0.21495928806E+03  0.22902280855E+03  0.41800000000E+01 0.  1.
         -5    1    3    3    0  502 -0.13766198471E+02  0.41747406294E+02 -0.28306586829E+02  0.52450828502E+02  0.41800000000E+01 0.  1.
        -11    1    1    2    0    0 -0.80592625007E+02  0.44822703370E+01 -0.22623067520E+03  0.24019904320E+03  0.00000000000E+00 0. -1.
         11    1    1    2    0    0  0.17973266212E+02 -0.26437618780E+02 -0.74821135120E+02  0.81364539240E+02  0.00000000000E+00 0.  1.
</event>
<event>
 7    1  0.2499014E-009  0.9045045E+02  0.7561462E-02  0.1301765E+00
          1   -1    0    0  501    0  0.00000000000E+00  0.00000000000E+00  0.66132500359E+02  0.66132500359E+02  0.00000000000E+00 0. -1.
         -1   -1    0    0    0  501 -0.00000000000E+00 -0.00000000000E+00 -0.23600738388E+03  0.23600738388E+03  0.00000000000E+00 0.  1.
         25    2    1    2    0    0  0.15741092985E+02  0.12128083842E+02 -0.16634105715E+03  0.20907291065E+03  0.12508901730E+03 0.  0.
          5    1    3    3  502    0  0.56237916622E+02 -0.29045238435E+02 -0.56695394595E+02  0.85077431262E+02  0.41800000000E+01 0. -1.
         -5    1    3    3    0  502 -0.40496823637E+02  0.41173322277E+02 -0.10964566256E+03  0.12399547939E+03  0.41800000000E+01 0. -1.
        -11    1    1    2    0    0  0.21100163473E+02 -0.11878993278E+01  0.33556390050E+02  0.39656768862E+02  0.00000000000E+00 0. -1.
         11    1    1    2    0    0 -0.36841256458E+02 -0.10940184514E+02 -0.37090216421E+02  0.53410204725E+02  0.00000000000E+00 0.  1.
</event>
<event>
 7    1  0.2499014E-009  0.1260650E+03  0.7561462E-02  0.1233414E+00
          1   -1    0    0  501    0  0.00000000000E+00  0.00000000000E+00  0.73987666048E+02  0.73987666048E+02  0.00000000000E+00 0. -1.
         -1   -1    0    0    0  501 -0.00000000000E+00 -0.00000000000E+00 -0.30613217202E+03  0.30613217202E+03  0.00000000000E+00 0.  1.
         25    2    1    2    0    0  0.22065353959E+01  0.90040448468E+02 -0.59625705469E+02  0.16527246574E+03  0.12509041538E+03 0.  0.
          5    1    3    3  502    0 -0.56297012135E+02  0.74092840292E+02 -0.31830369497E+02  0.98436514466E+02  0.41800000000E+01 0.  1.
         -5    1    3    3    0  502  0.58503547531E+02  0.15947608176E+02 -0.27795335972E+02  0.66835951269E+02  0.41800000000E+01 0.  1.
        -11    1    1    2    0    0 -0.20650164118E+02 -0.44101999916E+02 -0.16902419862E+02  0.51547138349E+02  0.00000000000E+00 0. -1.
         11    1    1    2    0    0  0.18443628723E+02 -0.45938448552E+02 -0.15561638064E+03  0.16330023399E+03  0.00000000000E+00 0.  1.
</event>
<event>
 7    1  0.2499014E-009  0.7278876E+02  0.7561462E-02  0.1350859E+00
         -2   -1    0    0    0  501 -0.00000000000E+00  0.00000000000E+00  0.32556128127E+02  0.32556128127E+02  0.00000000000E+00 0.  1.
          2   -1    0    0  501    0  0.00000000000E+00 -0.00000000000E+00 -0.43305817950E+03  0.43305817950E+03  0.00000000000E+00 0. -1.
         25    2    1    2    0    0 -0.39925417680E+02  0.11413642014E+02 -0.25867476620E+03  0.29031772320E+03  0.12508970996E+03 0.  0.
          5    1    3    3  502    0 -0.36574664002E+02  0.24881756317E+02 -0.26892121321E+03  0.27256723787E+03  0.41800000000E+01 0. -1.
         -5    1    3    3    0  502 -0.33507536774E+01 -0.13468114303E+02  0.10246447016E+02  0.17750485333E+02  0.41800000000E+01 0. -1.
        -11    1    1    2    0    0 -0.22854719618E+02 -0.78058725154E-01 -0.90719232019E+02  0.93553852728E+02  0.00000000000E+00 0. -1.
         11    1    1    2    0    0  0.62780137298E+02 -0.11335583289E+02 -0.51108053155E+02  0.81742731695E+02  0.00000000000E+00 0.  1.
</event>
<event>
 7    1  0.2499014E-009  0.2080435E+03  0.7561462E-02  0.1143125E+00
         -1   -1    0    0    0  501 -0.00000000000E+00  0.00000000000E+00  0.89481547020E+02  0.89481547020E+02  0.00000000000E+00 0.  1.
          1   -1    0    0  501    0  0.00000000000E+00 -0.00000000000E+00 -0.50556183223E+03  0.50556183223E+03  0.00000000000E+00 0. -1.
         25    2    1    2    0    0  0.10379282567E+03 -0.14859554473E+03 -0.18532658670E+03  0.28783367897E+03  0.12509474984E+03 0.  0.
          5    1    3    3  502    0  0.13099330971E+03 -0.11641247256E+03 -0.13039418177E+03  0.21847477198E+03  0.41800000000E+01 0.  1.
         -5    1    3    3    0  502 -0.27200484040E+02 -0.32183072170E+02 -0.54932404931E+02  0.69358906983E+02  0.41800000000E+01 0.  1.
        -11    1    1    2    0    0  0.56530799608E+01  0.52490871516E+02 -0.35521571420E+02  0.63631996210E+02  0.00000000000E+00 0.  1.
         11    1    1    2    0    0 -0.10944590563E+03  0.96104673214E+02 -0.19523212709E+03  0.24357770407E+03  0.00000000000E+00 0. -1.
</event>
<event>
 7    1  0.2499014E-009  0.1864024E+03  0.7561462E-02  0.1161747E+00
         -3   -1    0    0    0  501 -0.00000000000E+00  0.00000000000E+00  0.60620403109E+02  0.60620403109E+02  0.00000000000E+00 0.  1.
          3   -1    0    0  501    0  0.00000000000E+00 -0.00000000000E+00 -0.14940675217E+04  0.14940675217E+04  0.00000000000E+00 0. -1.
         25    2    1    2    0    0 -0.16439460241E+03 -0.46181068848E+01 -0.13206816593E+04  0.13367478471E+04  0.12509136460E+03 0.  0.
          5    1    3    3  502    0  0.11957636588E+02  0.22681435731E+02 -0.11314594426E+03  0.11609009304E+03  0.41800000000E+01 0. -1.
         -5    1    3    3    0  502 -0.17635223900E+03 -0.27299542616E+02 -0.12075357150E+04  0.12206577541E+04  0.41800000000E+01 0. -1.
        -11    1    1    2    0    0  0.12561882892E+03  0.18837707456E+02 -0.38102039199E+02  0.13261491165E+03  0.00000000000E+00 0.  1.
         11    1    1    2    0    0  0.38775773494E+02 -0.14219600571E+02 -0.74663420107E+02  0.85325165997E+02  0.00000000000E+00 0. -1.
</event>
<event>
 7    1  0.3078066E-009  0.1284924E+03  0.7561462E-02  0.1229710E+00
         -2   -1    0    0    0  501 -0.00000000000E+00  0.00000000000E+00  0.95053843222E+01  0.95053843222E+01  0.00000000000E+00 0. -1.
          2   -1    0    0  501    0  0.00000000000E+00 -0.00000000000E+00 -0.20425964746E+04  0.20425964746E+04  0.00000000000E+00 0.  1.
         25    2    1    2    0    0 -0.78246472154E+02  0.99268595341E+01 -0.13893320342E+04  0.13971799868E+04  0.12508941321E+03 0.  0.
          5    1    3    3  502    0 -0.24502731753E+02 -0.50090103701E+02 -0.32332707860E+03  0.32812691829E+03  0.41800000000E+01 0. -1.
         -5    1    3    3    0  502 -0.53743740401E+02  0.60016963235E+02 -0.10660049556E+04  0.10690530685E+04  0.41800000000E+01 0. -1.
        -11    1    1    2    0    0  0.30430466802E+02 -0.49648587998E+02 -0.31523687630E+03  0.32057024781E+03  0.00000000000E+00 0.  1.
         11    1    1    2    0    0  0.47816005352E+02  0.39721728464E+02 -0.32852217976E+03  0.33435162430E+03  0.00000000000E+00 0. -1.
</event>
<event>
 7    1  0.2499014E-009  0.1120279E+03  0.7561462E-02  0.1256860E+00
         -1   -1    0    0    0  501 -0.00000000000E+00  0.00000000000E+00  0.24724543271E+02  0.24724543271E+02  0.00000000000E+00 0.  1.
          1   -1    0    0  501    0  0.00000000000E+00 -0.00000000000E+00 -0.52980491538E+03  0.52980491538E+03  0.00000000000E+00 0. -1.
         25    2    1    2    0    0 -0.86767270836E+01 -0.34285624617E+02 -0.25294107915E+03  0.28438919732E+03  0.12508891390E+03 0.  0.
          5    1    3    3  502    0  0.49160776721E+02  0.15248090499E+02 -0.12781970500E+03  0.13785730164E+03  0.41800000000E+01 0.  1.
         -5    1    3    3    0  502 -0.57837503804E+02 -0.49533715116E+02 -0.12512137416E+03  0.14653189568E+03  0.41800000000E+01 0.  1.
        -11    1    1    2    0    0  0.46966001242E+02  0.33790332626E+02 -0.16836764554E+03  0.17803161494E+03  0.00000000000E+00 0.  1.
         11    1    1    2    0    0 -0.38289274159E+02  0.49529199046E+00 -0.83771647413E+02  0.92108646391E+02  0.00000000000E+00 0. -1.
</event>
<event>
 7    1  0.2499014E-009  0.9239974E+02  0.7561462E-02  0.1297142E+00
          2   -1    0    0  501    0  0.00000000000E+00  0.00000000000E+00  0.50375453644E+02  0.50375453644E+02  0.00000000000E+00 0. -1.
         -2   -1    0    0    0  501 -0.00000000000E+00 -0.00000000000E+00 -0.25039297031E+03  0.25039297031E+03  0.00000000000E+00 0.  1.
         25    2    1    2    0    0 -0.15304841594E+02  0.18298287900E+02 -0.13427425972E+03  0.18505630587E+03  0.12508874450E+03 0.  0.
          5    1    3    3  502    0 -0.26477653363E+02 -0.42175084489E+02 -0.10610860860E+03  0.11728731005E+03  0.41800000000E+01 0. -1.
         -5    1    3    3    0  502  0.11172811769E+02  0.60473372388E+02 -0.28165651115E+02  0.67768995814E+02  0.41800000000E+01 0. -1.
        -11    1    1    2    0    0  0.68116482985E+01  0.26618018050E+02  0.82936482091E+01  0.28700209722E+02  0.00000000000E+00 0. -1.
         11    1    1    2    0    0  0.84931932953E+01 -0.44916305950E+02 -0.74036905154E+02  0.87011908365E+02  0.00000000000E+00 0.  1.
</event>
<event>
 7    1  0.2499014E-009  0.1289978E+03  0.7561462E-02  0.1228950E+00
         -2   -1    0    0    0  501 -0.00000000000E+00  0.00000000000E+00  0.27016279484E+02  0.27016279484E+02  0.00000000000E+00 0.  1.
          2   -1    0    0  501    0  0.00000000000E+00 -0.00000000000E+00 -0.68627354021E+03  0.68627354021E+03  0.00000000000E+00 0. -1.
         25    2    1    2    0    0  0.77714165275E+02  0.14893333809E+02 -0.41938648400E+03  0.44474229150E+03  0.12509748203E+03 0.  0.
          5    1    3    3  502    0 -0.15877269711E+02  0.40650172207E+02 -0.74610301541E+02  0.86537238747E+02  0.41800000000E+01 0.  1.
         -5    1    3    3    0  502  0.93591434986E+02 -0.25756838398E+02 -0.34477618246E+03  0.35820505276E+03  0.41800000000E+01 0.  1.
        -11    1    1    2    0    0 -0.53464561597E+02 -0.50744447533E+02 -0.11707837849E+03  0.13835029820E+03  0.00000000000E+00 0. -1.
         11    1    1    2    0    0 -0.24249603678E+02  0.35851113723E+02 -0.12279239823E+03  0.13019722999E+03  0.00000000000E+00 0.  1.
</event>
<event>
 7    1  0.2499014E-009  0.1132244E+03  0.7561462E-02  0.1254713E+00
         -1   -1    0    0    0  501 -0.00000000000E+00  0.00000000000E+00  0.60039315390E+02  0.60039315390E+02  0.00000000000E+00 0.  1.
          1   -1    0    0  501    0  0.00000000000E+00 -0.00000000000E+00 -0.35896058563E+03  0.35896058563E+03  0.00000000000E+00 0. -1.
         25    2    1    2    0    0  0.53754310692E+02 -0.71366109608E+02 -0.22053059765E+03  0.26881732918E+03  0.12508542861E+03 0.  0.
          5    1    3    3  502    0  0.63136791673E+02 -0.63840375546E+02 -0.60656078606E+02  0.10843652652E+03  0.41800000000E+01 0. -1.
         -5    1    3    3    0  502 -0.93824809818E+01 -0.75257340620E+01 -0.15987451904E+03  0.16038080266E+03  0.41800000000E+01 0. -1.
        -11    1    1    2    0    0 -0.77251065784E+02  0.49615515552E+02 -0.73883854885E+02  0.11784842197E+03  0.00000000000E+00 0.  1.
         11    1    1    2    0    0  0.23496755092E+02  0.21750594056E+02 -0.45068177056E+01  0.32334149865E+02  0.00000000000E+00 0. -1.
</event>
<event>
 7    1  0.2499014E-009  0.1471840E+03  0.7561462E-02  0.1203977E+00
          2   -1    0    0  501    0  0.00000000000E+00  0.00000000000E+00  0.10507193907E+04  0.10507193907E+04  0.00000000000E+00 0. -1.
         -2   -1    0    0    0  501 -0.00000000000E+00 -0.00000000000E+00 -0.22371770941E+02  0.22371770941E+02  0.00000000000E+00 0.  1.
         25    2    1    2    0    0 -0.60928885357E+02  0.84802410814E+02  0.65378329647E+03  0.67378355313E+03  0.12509156555E+03 0.  0.
          5    1    3    3  502    0 -0.36370023124E+02  0.11617393600E+03  0.45627644047E+03  0.47225504181E+03  0.41800000000E+01 0.  1.
         -5    1    3    3    0  502 -0.24558862233E+02 -0.31371525184E+02  0.19750685600E+03  0.20152851132E+03  0.41800000000E+01 0.  1.
        -11    1    1    2    0    0 -0.22555528578E+01 -0.66752372039E+02  0.13112713918E+03  0.14715737603E+03  0.00000000000E+00 0. -1.
         11    1    1    2    0    0  0.63184438215E+02 -0.18050038775E+02  0.24343718409E+03  0.25215023246E+03  0.00000000000E+00 0.  1.
</event>
<event>
 7    1  0.2741886E-009  0.8690376E+02  0.7561462E-02  0.1310528E+00
         -1   -1    0    0    0  501 -0.00000000000E+00  0.00000000000E+00  0.23798363648E+02  0.23798363648E+02  0.00000000000E+00 0.  1.
          1   -1    0    0  501    0  0.00000000000E+00 -0.00000000000E+00 -0.53285222008E+03  0.53285222008E+03  0.00000000000E+00 0. -1.
         25    2    1    2    0    0  0.32345865374E+01  0.15382681022E+02 -0.35705974246E+03  0.37866098645E+03  0.12508154759E+03 0.  0.
          5    1    3    3  502    0 -0.36816865908E+02 -0.12878162179E+02 -0.30315175826E+03  0.30567922666E+03  0.41800000000E+01 0.  1.
         -5    1    3    3    0  502  0.40051452446E+02  0.28260843201E+02 -0.53907984206E+02  0.72981759794E+02  0.41800000000E+01 0.  1.
        -11    1    1    2    0    0  0.39758641713E+02 -0.14687794640E+02 -0.11001264724E+03  0.11789513754E+03  0.00000000000E+00 0. -1.
         11    1    1    2    0    0 -0.42993228250E+02 -0.69488638172E+00 -0.41981466725E+02  0.60094459735E+02  0.00000000000E+00 0.  1.
</event>
<event>
 7    1  0.2499014E-009  0.1357827E+03  0.7561462E-02  0.1219119E+00
          2   -1    0    0  501    0  0.00000000000E+00  0.00000000000E+00  0.22688907108E+03  0.22688907108E+03  0.00000000000E+00 0. -1.
         -2   -1    0    0    0  501 -0.00000000000E+00 -0.00000000000E+00 -0.98594712197E+02  0.98594712197E+02  0.00000000000E+00 0.  1.
         25    2    1    2    0    0  0.24135692206E+02  0.98290866459E+02  0.47723251971E+02  0.16783436841E+03  0.12508892986E+03 0.  0.
          5    1    3    3  502    0  0.16660958035E+02 -0.19101265887E+02 -0.19531670875E+02  0.32270798694E+02  0.41800000000E+01 0.  1.
         -5    1    3    3    0  502  0.74747341704E+01  0.11739213235E+03  0.67254922846E+02  0.13556356972E+03  0.41800000000E+01 0.  1.
        -11    1    1    2    0    0  0.58586022370E+01  0.12279778722E+02 -0.51662569956E+01  0.14553569905E+02  0.00000000000E+00 0.  1.
         11    1    1    2    0    0 -0.29994294443E+02 -0.11057064518E+03  0.85737363910E+02  0.14309584496E+03  0.00000000000E+00 0. -1.
</event>
<event>
 7    1  0.2499014E-009  0.7656075E+02  0.7561462E-02  0.1339105E+00
         -4   -1    0    0    0  501 -0.00000000000E+00  0.00000000000E+00  0.11080528655E+03  0.11080528655E+03  0.00000000000E+00 0.  1.
          4   -1    0    0  501    0  0.00000000000E+00 -0.00000000000E+00 -0.12019933076E+03  0.12019933076E+03  0.00000000000E+00 0. -1.
         25    2    1    2    0    0  0.59259436630E+02  0.14479265816E+02 -0.19791393814E+01  0.13918840978E+03  0.12509263151E+03 0.  0.
          5    1    3    3  502    0  0.41962116540E+02 -0.12937913045E+02  0.56809869119E+02  0.71923865635E+02  0.41800000000E+01 0. -1.
         -5    1    3    3    0  502  0.17297320090E+02  0.27417178861E+02 -0.58789008501E+02  0.67264544149E+02  0.41800000000E+01 0. -1.
        -11    1    1    2    0    0 -0.30603800549E+02  0.15964046913E+02 -0.28710241588E+02  0.44896785786E+02  0.00000000000E+00 0.  1.
         11    1    1    2    0    0 -0.28655636081E+02 -0.30443312728E+02  0.21295336753E+02  0.46919421741E+02  0.00000000000E+00 0. -1.
</event>
<event>
 7    1  0.2499014E-009  0.6858096E+02  0.7561462E-02  0.1364986E+00
          2   -1    0    0  501    0  0.00000000000E+00  0.00000000000E+00  0.27022561555E+03  0.27022561555E+03  0.00000000000E+00 0.  1.
         -2   -1    0    0    0  501 -0.00000000000E+00 -0.00000000000E+00 -0.57072246959E+02  0.57072246959E+02  0.00000000000E+00 0. -1.
         25    2    1    2    0    0 -0.13570457508E+01  0.46889837412E+02  0.16793529311E+03  0.21459518015E+03  0.12509328618E+03 0.  0.
          5    1    3    3  502    0 -0.18289930150E+02  0.38027220336E+02 -0.30323275239E+01  0.42511862363E+02  0.41800000000E+01 0. -1.
         -5    1    3    3    0  502  0.16932884399E+02  0.88626170759E+01  0.17096762063E+03  0.17208331779E+03  0.41800000000E+01 0. -1.
        -11    1    1    2    0    0 -0.20233033402E+02  0.33533443197E+01  0.53589654917E+02  0.57380063375E+02  0.00000000000E+00 0.  1.
         11    1    1    2    0    0  0.21590079153E+02 -0.50243181732E+02 -0.83715794412E+01  0.55322618979E+02  0.00000000000E+00 0. -1.
</event>
<event>
 7    1  0.2499014E-009  0.3377658E+03  0.7561462E-02  0.1067752E+00
          2   -1    0    0  501    0  0.00000000000E+00  0.00000000000E+00  0.79458637360E+03  0.79458637360E+03  0.00000000000E+00 0.  1.
         -2   -1    0    0    0  501 -0.00000000000E+00 -0.00000000000E+00 -0.14903685214E+03  0.14903685214E+03  0.00000000000E+00 0. -1.
         25    2    1    2    0    0  0.85770634159E+02  0.31427043243E+03  0.30254722622E+03  0.46184946872E+03  0.12509037246E+03 0.  0.
          5    1    3    3  502    0  0.10937476926E+03  0.17379677308E+03  0.16076132272E+03  0.26082529357E+03  0.41800000000E+01 0. -1.
         -5    1    3    3    0  502 -0.23604135096E+02  0.14047365935E+03  0.14178590350E+03  0.20102417515E+03  0.41800000000E+01 0. -1.
        -11    1    1    2    0    0 -0.40483183195E+02 -0.87826515788E+02  0.50496109953E+02  0.10909739739E+03  0.00000000000E+00 0. -1.
         11    1    1    2    0    0 -0.45287450964E+02 -0.22644391664E+03  0.29250618529E+03  0.37267635964E+03  0.00000000000E+00 0.  1.
</event>
<event>
 7    1  0.2499014E-009  0.1197318E+03  0.7561462E-02  0.1243540E+00
          2   -1    0    0  501    0  0.00000000000E+00  0.00000000000E+00  0.19890563014E+03  0.19890563014E+03  0.00000000000E+00 0. -1.
         -2   -1    0    0    0  501 -0.00000000000E+00 -0.00000000000E+00 -0.12944837396E+03  0.12944837396E+03  0.00000000000E+00 0.  1.
         25    2    1    2    0    0  0.10482372145E+03 -0.63555145622E+01  0.91422128457E+02  0.18717049985E+03  0.12508551195E+03 0.  0.
          5    1    3    3  502    0  0.24306746613E+02 -0.39978673563E+02  0.87994590955E+02  0.99747845631E+02  0.41800000000E+01 0. -1.
         -5    1    3    3    0  502  0.80516974834E+02  0.33623159000E+02  0.34275375021E+01  0.87422654220E+02  0.41800000000E+01 0. -1.
        -11    1    1    2    0    0 -0.71645570579E+02  0.66591240252E+01  0.31269908600E+02  0.78455330604E+02  0.00000000000E+00 0. -1.
         11    1    1    2    0    0 -0.33178150868E+02 -0.30360946296E+00 -0.53234780878E+02  0.62728173645E+02  0.00000000000E+00 0.  1.
</event>
<event>
 7    1  0.2499014E-009  0.1817830E+03  0.7561462E-02  0.1166089E+00
          2   -1    0    0  501    0  0.00000000000E+00  0.00000000000E+00  0.18357993544E+04  0.18357993544E+04  0.00000000000E+00 0. -1.
         -2   -1    0    0    0  501 -0.00000000000E+00 -0.00000000000E+00 -0.24299235076E+02  0.24299235076E+02  0.00000000000E+00 0.  1.
         25    2    1    2    0    0  0.16992135393E+03  0.10667814303E+02  0.12161991209E+04  0.12344128136E+04  0.12509046291E+03 0.  0.
          5    1    3    3  502    0  0.60654648327E+02 -0.50265679947E+01  0.84308311412E+03  0.84528744369E+03  0.41800000000E+01 0. -1.
         -5    1    3    3    0  502  0.10926670560E+03  0.15694382297E+02  0.37311600683E+03  0.38912536995E+03  0.41800000000E+01 0. -1.
        -11    1    1    2    0    0 -0.14085095896E+03  0.28109828581E+02  0.42435755068E+03  0.44800500658E+03  0.00000000000E+00 0.  1.
         11    1    1    2    0    0 -0.29070394971E+02 -0.38777642884E+02  0.17094344765E+03  0.17768076921E+03  0.00000000000E+00 0. -1.
</event>
<event>
 7    1  0.2499014E-009  0.1644545E+03  0.7561462E-02  0.1183757E+00
         -4   -1    0    0    0  501 -0.00000000000E+00  0.00000000000E+00  0.94106066961E+02  0.94106066961E+02  0.00000000000E+00 0.  1.
          4   -1    0    0  501    0  0.00000000000E+00 -0.00000000000E+00 -0.38644728090E+03  0.38644728090E+03  0.00000000000E+00 0. -1.
         25    2    1    2    0    0 -0.12316108058E+03 -0.33209107119E+02 -0.39589965552E+02  0.18299517037E+03  0.12509344684E+03 0.  0.
          5    1    3    3  502    0 -0.17133954632E+02 -0.60460611616E+02  0.81246230441E+01  0.63502282305E+02  0.41800000000E+01 0. -1.
         -5    1    3    3    0  502 -0.10602712595E+03  0.27251504497E+02 -0.47714588597E+02  0.11949288807E+03  0.41800000000E+01 0. -1.
        -11    1    1    2    0    0  0.58889427054E+02 -0.30120525391E+02 -0.12045684213E+03  0.13742292926E+03  0.00000000000E+00 0.  1.
         11    1    1    2    0    0  0.64271653524E+02  0.63329632510E+02 -0.13229440625E+03  0.16013524823E+03  0.00000000000E+00 0. -1.
</event>
<event>
 7    1  0.2499014E-009  0.1294826E+03  0.7561462E-02  0.1228225E+00
          3   -1    0    0  501    0  0.00000000000E+00  0.00000000000E+00  0.86231098797E+02  0.86231098797E+02  0.00000000000E+00 0. -1.
         -3   -1    0    0    0  501 -0.00000000000E+00 -0.00000000000E+00 -0.21690168777E+03  0.21690168777E+03  0.00000000000E+00 0.  1.
         25    2    1    2    0    0 -0.51528358621E+02  0.62256672348E+02 -0.50175631890E+02  0.15715038081E+03  0.12509030002E+03 0.  0.
          5    1    3    3  502    0 -0.87299985301E+02  0.59774549979E+02 -0.57237588226E+02  0.12036568516E+03  0.41800000000E+01 0.  1.
         -5    1    3    3    0  502  0.35771626679E+02  0.24821223695E+01  0.70619563357E+01  0.36784695650E+02  0.41800000000E+01 0.  1.
        -11    1    1    2    0    0  0.29507069946E+02 -0.82158942546E+02 -0.76422174251E+02  0.11602201401E+03  0.00000000000E+00 0.  1.
         11    1    1    2    0    0  0.22021288675E+02  0.19902270198E+02 -0.40727828371E+01  0.29960391753E+02  0.00000000000E+00 0. -1.
</event>
<event>
 7    1  0.2499014E-009  0.1678125E+03  0.7561462E-02  0.1180148E+00
         -2   -1    0    0    0  501 -0.00000000000E+00  0.00000000000E+00  0.61545435097E+02  0.61545435097E+02  0.00000000000E+00 0.  1.
          2   -1    0    0  501    0  0.00000000000E+00 -0.00000000000E+00 -0.51717983983E+03  0.51717983983E+03  0.00000000000E+00 0. -1.
         25    2    1    2    0    0  0.30081803184E+02  0.13836275870E+03 -0.25420653884E+03  0.31673167430E+03  0.12509524866E+03 0.  0.
          5    1    3    3  502    0 -0.10440599778E+02 -0.11160259870E+02 -0.88274799590E+02  0.89685395504E+02  0.41800000000E+01 0. -1.
         -5    1    3    3    0  502  0.40522402961E+02  0.14952301857E+03 -0.16593173925E+03  0.22704627879E+03  0.41800000000E+01 0. -1.
        -11    1    1    2    0    0 -0.45868247350E+02 -0.14146870818E+03 -0.19352587415E+03  0.24406875153E+03  0.00000000000E+00 0. -1.
         11    1    1    2    0    0  0.15786444167E+02  0.31059494736E+01 -0.79019917463E+01  0.17924849096E+02  0.00000000000E+00 0.  1.
</event>
<event>
 7    1  0.2499014E-009  0.1153327E+03  0.7561462E-02  0.1251001E+00
          2   -1    0    0  501    0  0.00000000000E+00  0.00000000000E+00  0.39593664002E+02  0.39593664002E+02  0.00000000000E+00 0. -1.
         -2   -1    0    0    0  501 -0.00000000000E+00 -0.00000000000E+00 -0.39285481168E+03  0.39285481168E+03  0.00000000000E+00 0.  1.
         25    2    1    2    0    0  0.51038710340E+02  0.21742694384E+02 -0.15038662651E+03  0.20331684630E+03  0.12507560850E+03 0.  0.
          5    1    3    3  502    0  0.86561325377E+02  0.40483042079E+02 -0.11540510316E+03  0.14989179425E+03  0.41800000000E+01 0.  1.
         -5    1    3    3    0  502 -0.35522615037E+02 -0.18740347696E+02 -0.34981523355E+02  0.53425052055E+02  0.41800000000E+01 0.  1.
        -11    1    1    2    0    0 -0.33595505357E+02  0.26849211525E+02 -0.41751960708E+02  0.59939672694E+02  0.00000000000E+00 0. -1.
         11    1    1    2    0    0 -0.17443204983E+02 -0.48591905909E+02 -0.16112256045E+03  0.16919195669E+03  0.00000000000E+00 0.  1.
</event>
<event>
 7    1  0.2499014E-009  0.1126228E+03  0.7561462E-02  0.1255788E+00
          1   -1    0    0  501    0  0.00000000000E+00  0.00000000000E+00  0.58651081947E+03  0.58651081947E+03  0.00000000000E+00 0. -1.
         -1   -1    0    0    0  501 -0.00000000000E+00 -0.00000000000E+00 -0.25649122124E+02  0.25649122124E+02  0.00000000000E+00 0.  1.
         25    2    1    2    0    0 -0.83388060890E+01 -0.46325904328E+02  0.38628305944E+03  0.40875216262E+03  0.12509237921E+03 0.  0.
          5    1    3    3  502    0 -0.60794518123E+02 -0.47942974432E+02  0.18270708659E+03  0.19847885056E+03  0.41800000000E+01 0.  1.
         -5    1    3    3    0  502  0.52455712034E+02  0.16170701044E+01  0.20357597285E+03  0.21027331205E+03  0.41800000000E+01 0.  1.
        -11    1    1    2    0    0 -0.37116169009E+02  0.25705238132E+02  0.41683052401E+02  0.61447913934E+02  0.00000000000E+00 0.  1.
         11    1    1    2    0    0  0.45454975098E+02  0.20620666196E+02  0.13289558550E+03  0.14195986504E+03  0.00000000000E+00 0. -1.
</event>
<event>
 7    1  0.2499014E-009  0.1405633E+03  0.7561462E-02  0.1212573E+00
         -1   -1    0    0    0  501 -0.00000000000E+00  0.00000000000E+00  0.82786005437E+02  0.82786005437E+02  0.00000000000E+00 0.  1.
          1   -1    0    0  501    0  0.00000000000E+00 -0.00000000000E+00 -0.38504421316E+03  0.38504421316E+03  0.00000000000E+00 0. -1.
         25    2    1    2    0    0  0.11278234522E+03  0.70938330340E+02 -0.22333438095E+03  0.28858249708E+03  0.12509799281E+03 0.  0.
          5    1    3    3  502    0  0.89766501790E+01  0.36547391391E+02 -0.15501661660E+03  0.15957417049E+03  0.41800000000E+01 0. -1.
         -5    1    3    3    0  502  0.10380569504E+03  0.34390938950E+02 -0.68317764345E+02  0.12900832659E+03  0.41800000000E+01 0. -1.
        -11    1    1    2    0    0 -0.76748986126E+02 -0.41206491380E+02  0.48951034654E+00  0.87112693814E+02  0.00000000000E+00 0.  1.
         11    1    1    2    0    0 -0.36033359097E+02 -0.29731838961E+02 -0.79413337129E+02  0.92135027703E+02  0.00000000000E+00 0. -1.
</event>
<event>
 7    1  0.2499014E-009  0.1105592E+03  0.7561462E-02  0.1259538E+00
          2   -1    0    0  501    0  0.00000000000E+00  0.00000000000E+00  0.22612546685E+03  0.22612546685E+03  0.00000000000E+00 0. -1.
         -2   -1    0    0    0  501 -0.00000000000E+00 -0.00000000000E+00 -0.69181106090E+02  0.69181106090E+02  0.00000000000E+00 0.  1.
         25    2    1    2    0    0 -0.23916631695E+02  0.54568955617E+02  0.10062591266E+03  0.17124007638E+03  0.12509121980E+03 0.  0.
          5    1    3    3  502    0 -0.19476157651E+02  0.92949120877E+02  0.90108371370E+02  0.13098034501E+03  0.41800000000E+01 0. -1.
         -5    1    3    3    0  502 -0.44404740433E+01 -0.38380165260E+02  0.10517541288E+02  0.40259731368E+02  0.41800000000E+01 0. -1.
        -11    1    1    2    0    0  0.36702080834E+02 -0.62262911327E+02  0.72280131582E+02  0.10221609602E+03  0.00000000000E+00 0. -1.
         11    1    1    2    0    0 -0.12785449139E+02  0.76939557100E+01 -0.15961683480E+02  0.21850400538E+02  0.00000000000E+00 0.  1.
</event>
<event>
 7    1  0.2499014E-009  0.1067455E+03  0.7561462E-02  0.1266718E+00
          2   -1    0    0  501    0  0.00000000000E+00  0.00000000000E+00  0.33054444392E+03  0.33054444392E+03  0.00000000000E+00 0. -1.
         -2   -1    0    0    0  501 -0.00000000000E+00 -0.00000000000E+00 -0.43320118970E+02  0.43320118970E+02  0.00000000000E+00 0.  1.
         25    2    1    2    0    0 -0.30713303218E+02  0.24044674031E+02  0.22748608451E+03  0.26251750975E+03  0.12507626047E+03 0.  0.
          5    1    3    3  502    0  0.37993504816E+02 -0.21875402250E+02  0.11284198677E+03  0.12113144105E+03  0.41800000000E+01 0. -1.
         -5    1    3    3    0  502 -0.68706808034E+02  0.45920076281E+02  0.11464409774E+03  0.14138606870E+03  0.41800000000E+01 0. -1.
        -11    1    1    2    0    0  0.32301172214E+02  0.22988238607E+02  0.49085240384E+02  0.63096637503E+02  0.00000000000E+00 0.  1.
         11    1    1    2    0    0 -0.15878689963E+01 -0.47032912638E+02  0.10653000054E+02  0.48250415639E+02  0.00000000000E+00 0. -1.
</event>
<event>
 7    1  0.2499014E-009  0.1132764E+03  0.7561462E-02  0.1254620E+00
         -1   -1    0    0    0  501 -0.00000000000E+00  0.00000000000E+00  0.43322651309E+02  0.43322651309E+02  0.00000000000E+00 0. -1.
          1   -1    0    0  501    0  0.00000000000E+00 -0.00000000000E+00 -0.50184722403E+03  0.50184722403E+03  0.00000000000E+00 0.  1.
         25    2    1    2    0    0  0.96815296549E+02 -0.48530886927E+01 -0.20600619392E+03  0.25977499555E+03  0.12509093597E+03 0.  0.
          5    1    3    3  502    0  0.44797656452E+02  0.35025072619E+01 -0.20177034355E+03  0.20675551146E+03  0.41800000000E+01 0. -1.
         -5    1    3    3    0  502  0.52017640097E+02 -0.83555959546E+01 -0.42358503702E+01  0.53019484092E+02  0.41800000000E+01 0. -1.
        -11    1    1    2    0    0 -0.64302639240E+02  0.43828368580E+02 -0.18678014067E+03  0.20234271980E+03  0.00000000000E+00 0.  1.
         11    1    1    2    0    0 -0.32512657309E+02 -0.38975279888E+02 -0.65738238133E+02  0.83052159999E+02  0.00000000000E+00 0. -1.
</event>
<event>
 7    1  0.2499014E-009  0.9571082E+02  0.7561462E-02  0.1289583E+00
          2   -1    0    0  501    0  0.00000000000E+00  0.00000000000E+00  0.17797497876E+03  0.17797497876E+03  0.00000000000E+00 0. -1.
         -2   -1    0    0    0  501 -0.00000000000E+00 -0.00000000000E+00 -0.73561390860E+02  0.73561390860E+02  0.00000000000E+00 0.  1.
         25    2    1    2    0    0 -0.36933131008E+02  0.81430953102E+00  0.53363863209E+02  0.14092446349E+03  0.12508910123E+03 0.  0.
          5    1    3    3  502    0 -0.57872717813E+02  0.34479994406E+02  0.70438107592E+02  0.97555732187E+02  0.41800000000E+01 0.  1.
         -5    1    3    3    0  502  0.20939586805E+02 -0.33665684875E+02 -0.17074244383E+02  0.43368731304E+02  0.41800000000E+01 0.  1.
        -11    1    1    2    0    0 -0.14004481938E+02  0.23701727900E+02  0.46320642429E+02  0.53884128785E+02  0.00000000000E+00 0. -1.
         11    1    1    2    0    0  0.50937612946E+02 -0.24516037431E+02  0.47290822657E+01  0.56727777350E+02  0.00000000000E+00 0.  1.
</event>
<event>
 7    1  0.2499014E-009  0.1057914E+03  0.7561462E-02  0.1268568E+00
          2   -1    0    0  501    0  0.00000000000E+00  0.00000000000E+00  0.25450991539E+03  0.25450991539E+03  0.00000000000E+00 0. -1.
         -2   -1    0    0    0  501 -0.00000000000E+00 -0.00000000000E+00 -0.54718106087E+02  0.54718106087E+02  0.00000000000E+00 0.  1.
         25    2    1    2    0    0 -0.33658540218E+01 -0.66761615045E+02  0.12824921846E+03  0.19121525637E+03  0.12508784921E+03 0.  0.
          5    1    3    3  502    0  0.35317950460E+02 -0.86880734253E+02  0.64627968419E+02  0.11397309468E+03  0.41800000000E+01 0.  1.
         -5    1    3    3    0  502 -0.38683804481E+02  0.20119119208E+02  0.63621250037E+02  0.77242161694E+02  0.41800000000E+01 0.  1.
        -11    1    1    2    0    0  0.16005406039E+02  0.20865963993E+02 -0.60467516133E+01  0.26983785518E+02  0.00000000000E+00 0.  1.
         11    1    1    2    0    0 -0.12639552017E+02  0.45895651052E+02  0.77589342456E+02  0.91028979580E+02  0.00000000000E+00 0. -1.
</event>
<event>
 7    1  0.2499014E-009  0.1200587E+03  0.7561462E-02  0.1243000E+00
          2   -1    0    0  501    0  0.00000000000E+00  0.00000000000E+00  0.99284265297E+03  0.99284265297E+03  0.00000000000E+00 0. -1.
         -2   -1    0    0    0  501 -0.00000000000E+00 -0.00000000000E+00 -0.18719157175E+02  0.18719157175E+02  0.00000000000E+00 0.  1.
         25    2    1    2    0    0  0.52214330144E+02 -0.32374834341E+02  0.73140451797E+03  0.74456371756E+03  0.12509234361E+03 0.  0.
          5    1    3    3  502    0  0.87814551733E+02 -0.15199493033E+02  0.35391023271E+03  0.36498266438E+03  0.41800000000E+01 0.  1.
         -5    1    3    3    0  502 -0.35600221589E+02 -0.17175341308E+02  0.37749428526E+03  0.37958105317E+03  0.41800000000E+01 0.  1.
        -11    1    1    2    0    0 -0.76693606298E+02  0.88521396792E+01  0.17353676826E+03  0.18993493507E+03  0.00000000000E+00 0.  1.
         11    1    1    2    0    0  0.24479276154E+02  0.23522694662E+02  0.69182209575E+02  0.77063157520E+02  0.00000000000E+00 0. -1.
</event>
<event>
 7    1  0.2499014E-009  0.1045378E+03  0.7561462E-02  0.1271033E+00
         -1   -1    0    0    0  501 -0.00000000000E+00  0.00000000000E+00  0.35274453769E+02  0.35274453769E+02  0.00000000000E+00 0.  1.
          1   -1    0    0  501    0  0.00000000000E+00 -0.00000000000E+00 -0.50821091470E+03  0.50821091470E+03  0.00000000000E+00 0. -1.
         25    2    1    2    0    0  0.40481010175E+02 -0.58104488578E+02 -0.32964251997E+03  0.35961955419E+03  0.12508872454E+03 0.  0.
          5    1    3    3  502    0 -0.37451028414E+01 -0.49720462049E+02 -0.30308715589E+03  0.30718959391E+03  0.41800000000E+01 0.  1.
         -5    1    3    3    0  502  0.44226113017E+02 -0.83840265295E+01 -0.26555364079E+02  0.52429960278E+02  0.41800000000E+01 0.  1.
        -11    1    1    2    0    0 -0.44320990890E+02 -0.10150946274E+02 -0.43682737070E+02  0.63052148747E+02  0.00000000000E+00 0.  1.
         11    1    1    2    0    0  0.38399807143E+01  0.68255434852E+02 -0.99611203893E+02  0.12081366553E+03  0.00000000000E+00 0. -1.
</event>
<event>
 7    1  0.2499014E-009  0.2094314E+03  0.7561462E-02  0.1142017E+00
          1   -1    0    0  501    0  0.00000000000E+00  0.00000000000E+00  0.24388666212E+04  0.24388666212E+04  0.00000000000E+00 0. -1.
         -1   -1    0    0    0  501 -0.00000000000E+00 -0.00000000000E+00 -0.19920146438E+02  0.19920146438E+02  0.00000000000E+00 0.  1.
         25    2    1    2    0    0 -0.15069645241E+03  0.10885562407E+03  0.15232496718E+04  0.15396417876E+04  0.12509318069E+03 0.  0.
          5    1    3    3  502    0  0.16190040725E+02  0.24249637978E+02  0.10350557572E+03  0.10761523575E+03  0.41800000000E+01 0.  1.
         -5    1    3    3    0  502 -0.16688649313E+03  0.84605986088E+02  0.14197440961E+04  0.14320265519E+04  0.41800000000E+01 0.  1.
        -11    1    1    2    0    0  0.91593040750E+02 -0.17200914485E+02  0.32389493844E+03  0.33703573656E+03  0.00000000000E+00 0.  1.
         11    1    1    2    0    0  0.59103411657E+02 -0.91654709581E+02  0.57180186448E+03  0.58210924342E+03  0.00000000000E+00 0. -1.
</event>
<event>
 7    1  0.2499014E-009  0.1469762E+03  0.7561462E-02  0.1204239E+00
          2   -1    0    0  501    0  0.00000000000E+00  0.00000000000E+00  0.97304252019E+03  0.97304252019E+03  0.00000000000E+00 0. -1.
         -2   -1    0    0    0  501 -0.00000000000E+00 -0.00000000000E+00 -0.31481180662E+02  0.31481180662E+02  0.00000000000E+00 0.  1.
         25    2    1    2    0    0 -0.13467647176E+03 -0.34088161095E+02  0.47175016187E+03  0.50744146571E+03  0.12509544805E+03 0.  0.
          5    1    3    3  502    0 -0.10113153734E+03 -0.68625463059E+01  0.14016277334E+03  0.17302530976E+03  0.41800000000E+01 0. -1.
         -5    1    3    3    0  502 -0.33544934416E+02 -0.27225614789E+02  0.33158738853E+03  0.33441615595E+03  0.41800000000E+01 0. -1.
        -11    1    1    2    0    0  0.10736150180E+03  0.25730925954E+01  0.41220054366E+03  0.42596056281E+03  0.00000000000E+00 0. -1.
         11    1    1    2    0    0  0.27314969961E+02  0.31515068499E+02  0.57610633998E+02  0.71121672338E+02  0.00000000000E+00 0.  1.
</event>
<event>
 7    1  0.2499014E-009  0.1418959E+03  0.7561462E-02  0.1210800E+00
          2   -1    0    0  501    0  0.00000000000E+00  0.00000000000E+00  0.39760844776E+03  0.39760844776E+03  0.00000000000E+00 0. -1.
         -2   -1    0    0    0  501 -0.00000000000E+00 -0.00000000000E+00 -0.53472182589E+02  0.53472182589E+02  0.00000000000E+00 0.  1.
         25    2    1    2    0    0  0.29067366571E+02 -0.91952125466E+02  0.17685841178E+03  0.23712143587E+03  0.12509025682E+03 0.  0.
          5    1    3    3  502    0  0.59216631763E+02 -0.10745490964E+03  0.12653536277E+03  0.17630041836E+03  0.41800000000E+01 0.  1.
         -5    1    3    3    0  502 -0.30149265191E+02  0.15502784171E+02  0.50323049016E+02  0.60821017510E+02  0.41800000000E+01 0.  1.
        -11    1    1    2    0    0 -0.33012854909E+02 -0.17753661452E+01  0.17976240819E+02  0.37631712002E+02  0.00000000000E+00 0.  1.
         11    1    1    2    0    0  0.39454883382E+01  0.93727491612E+02  0.14930161257E+03  0.17632748248E+03  0.00000000000E+00 0. -1.
</event>
<event>
 7    1  0.2499014E-009  0.1065825E+03  0.7561462E-02  0.1267033E+00
          1   -1    0    0  501    0  0.00000000000E+00  0.00000000000E+00  0.43088011593E+03  0.43088011593E+03  0.00000000000E+00 0.  1.
         -1   -1    0    0    0  501 -0.00000000000E+00 -0.00000000000E+00 -0.38099349017E+02  0.38099349017E+02  0.00000000000E+00 0. -1.
         25    2    1    2    0    0  0.57349214201E+02 -0.15852647998E+01  0.29241112809E+03  0.32317986055E+03  0.12509799758E+03 0.  0.
          5    1    3    3  502    0  0.29959072159E+01  0.40587965018E+02  0.21778865123E+03  0.22159812132E+03  0.41800000000E+01 0. -1.
         -5    1    3    3    0  502  0.54353306985E+02 -0.42173229818E+02  0.74622476860E+02  0.10158173924E+03  0.41800000000E+01 0. -1.
        -11    1    1    2    0    0  0.14015536024E+02  0.24628434708E+02  0.14630249518E+02  0.31891052776E+02  0.00000000000E+00 0. -1.
         11    1    1    2    0    0 -0.71364750225E+02 -0.23043169909E+02  0.85739389297E+02  0.11390855162E+03  0.00000000000E+00 0.  1.
</event>
<event>
 7    1  0.2499014E-009  0.1213087E+03  0.7561462E-02  0.1240954E+00
          2   -1    0    0  501    0  0.00000000000E+00  0.00000000000E+00  0.35152218110E+02  0.35152218110E+02  0.00000000000E+00 0. -1.
         -2   -1    0    0    0  501 -0.00000000000E+00 -0.00000000000E+00 -0.56498982869E+03  0.56498982869E+03  0.00000000000E+00 0.  1.
         25    2    1    2    0    0  0.11674697166E+02 -0.59665417161E+02 -0.14829150785E+03  0.20330722411E+03  0.12508875056E+03 0.  0.
          5    1    3    3  502    0  0.86664526761E+01 -0.96640688731E+02 -0.12844244292E+03  0.16102628253E+03  0.41800000000E+01 0.  1.
         -5    1    3    3    0  502  0.30082444899E+01  0.36975271571E+02 -0.19849064927E+02  0.42280941583E+02  0.41800000000E+01 0.  1.
        -11    1    1    2    0    0  0.23410557326E+02 -0.13499820831E+02 -0.74574582510E+02  0.79320033493E+02  0.00000000000E+00 0. -1.
         11    1    1    2    0    0 -0.35085254492E+02  0.73165237992E+02 -0.30697152022E+03  0.31751478920E+03  0.00000000000E+00 0.  1.
</event>
<event>
 7    1  0.2499014E-009  0.1648396E+03  0.7561462E-02  0.1183339E+00
         -2   -1    0    0    0  501 -0.00000000000E+00  0.00000000000E+00  0.18670366477E+02  0.18670366477E+02  0.00000000000E+00 0. -1.
          2   -1    0    0  501    0  0.00000000000E+00 -0.00000000000E+00 -0.15189111939E+04  0.15189111939E+04  0.00000000000E+00 0.  1.
         25    2    1    2    0    0 -0.82982935715E+02  0.96499685223E+02 -0.87843542118E+03  0.89637913659E+03  0.12509360684E+03 0.  0.
          5    1    3    3  502    0  0.75865308265E+00 -0.25409621984E+02 -0.22118693753E+03  0.22268219097E+03  0.41800000000E+01 0. -1.
         -5    1    3    3    0  502 -0.83741588798E+02  0.12190930721E+03 -0.65724848365E+03  0.67369694562E+03  0.41800000000E+01 0. -1.
        -11    1    1    2    0    0  0.89891417606E+01 -0.79538190068E+02 -0.29192712307E+03  0.30270212013E+03  0.00000000000E+00 0. -1.
         11    1    1    2    0    0  0.73993793954E+02 -0.16961495155E+02 -0.32987828321E+03  0.33850030369E+03  0.00000000000E+00 0.  1.
</event>
<event>
 7    1  0.2499014E-009  0.1149388E+03  0.7561462E-02  0.1251688E+00
         -2   -1    0    0    0  501 -0.00000000000E+00  0.00000000000E+00  0.58000020577E+02  0.58000020577E+02  0.00000000000E+00 0. -1.
          2   -1    0    0  501    0  0.00000000000E+00 -0.00000000000E+00 -0.26642888795E+03  0.26642888795E+03  0.00000000000E+00 0.  1.
         25    2    1    2    0    0  0.21035639569E+02 -0.44235738000E+02 -0.62260887569E+02  0.14806747789E+03  0.12509301035E+03 0.  0.
          5    1    3    3  502    0  0.70359434089E+02 -0.78520400862E+01 -0.45954051958E+02  0.84506519217E+02  0.41800000000E+01 0. -1.
         -5    1    3    3    0  502 -0.49323794520E+02 -0.36383697914E+02 -0.16306835611E+02  0.63560958673E+02  0.41800000000E+01 0. -1.
        -11    1    1    2    0    0 -0.48235734034E+02  0.32641447015E+01 -0.59004609643E+02  0.76281614020E+02  0.00000000000E+00 0. -1.
         11    1    1    2    0    0  0.27200094465E+02  0.40971593299E+02 -0.87163370165E+02  0.10007981662E+03  0.00000000000E+00 0.  1.
</event>
<event>
 7    1  0.2499014E-009  0.4658458E+03  0.7561462E-02  0.1023099E+00
         -1   -1    0    0    0  501 -0.00000000000E+00  0.00000000000E+00  0.32302681561E+03  0.32302681561E+03  0.00000000000E+00 0.  1.
          1   -1    0    0  501    0  0.00000000000E+00 -0.00000000000E+00 -0.71404776568E+03  0.71404776568E+03  0.00000000000E+00 0. -1.
         25    2    1    2    0    0 -0.45384120889E+03  0.99918795332E+02 -0.15403115754E+03  0.50530407077E+03  0.12510394835E+03 0.  0.
          5    1    3    3  502    0 -0.19402073553E+03  0.61085628366E+02 -0.55864196365E+01  0.20352931065E+03  0.41800000000E+01 0. -1.
         -5    1    3    3    0  502 -0.25982047336E+03  0.38833166966E+02 -0.14844473791E+03  0.30177476012E+03  0.41800000000E+01 0. -1.
        -11    1    1    2    0    0  0.42354668358E+03 -0.86135162966E+02 -0.18523431534E+03  0.47023697329E+03  0.00000000000E+00 0. -1.
         11    1    1    2    0    0  0.30294525305E+02 -0.13783632366E+02 -0.51755477195E+02  0.61533537233E+02  0.00000000000E+00 0.  1.
</event>
<event>
 7    1  0.2499014E-009  0.1701750E+03  0.7561462E-02  0.1177665E+00
          1   -1    0    0  501    0  0.00000000000E+00  0.00000000000E+00  0.11304024058E+04  0.11304024058E+04  0.00000000000E+00 0. -1.
         -1   -1    0    0    0  501 -0.00000000000E+00 -0.00000000000E+00 -0.30412927046E+02  0.30412927046E+02  0.00000000000E+00 0.  1.
         25    2    1    2    0    0 -0.87272135547E+02 -0.11836072381E+03  0.67709597704E+03  0.70408282503E+03  0.12509186943E+03 0.  0.
          5    1    3    3  502    0 -0.43068452325E+02  0.20873036586E+01  0.61386047159E+02  0.75132999461E+02  0.41800000000E+01 0. -1.
         -5    1    3    3    0  502 -0.44203683222E+02 -0.12044802747E+03  0.61570992988E+03  0.62894982557E+03  0.41800000000E+01 0. -1.
        -11    1    1    2    0    0  0.79912490453E+02  0.38937115031E+02  0.17435709402E+03  0.19571024831E+03  0.00000000000E+00 0.  1.
         11    1    1    2    0    0  0.73596450945E+01  0.79423608784E+02  0.24853640768E+03  0.26102225949E+03  0.00000000000E+00 0. -1.
</event>
<event>
 7    1  0.2499014E-009  0.2629051E+03  0.7561462E-02  0.1105410E+00
          1   -1    0    0  501    0  0.00000000000E+00  0.00000000000E+00  0.39658406096E+03  0.39658406096E+03  0.00000000000E+00 0. -1.
         -1   -1    0    0    0  501 -0.00000000000E+00 -0.00000000000E+00 -0.27776006927E+03  0.27776006927E+03  0.00000000000E+00 0.  1.
         25    2    1    2    0    0  0.37453458656E+01 -0.25953089618E+03  0.23901824186E+03  0.37436334389E+03  0.12509148500E+03 0.  0.
          5    1    3    3  502    0 -0.23787436768E+02 -0.84963312689E+02  0.15553619640E+03  0.17886751365E+03  0.41800000000E+01 0. -1.
         -5    1    3    3    0  502  0.27532782634E+02 -0.17456758349E+03  0.83482045458E+02  0.19549583023E+03  0.41800000000E+01 0. -1.
        -11    1    1    2    0    0  0.99017834997E+01  0.71781816564E+02  0.69908999806E+01  0.72797988902E+02  0.00000000000E+00 0.  1.
         11    1    1    2    0    0 -0.13647129365E+02  0.18774907962E+03 -0.12718515014E+03  0.22718279744E+03  0.00000000000E+00 0. -1.
</event>
<event>
 7    1  0.2499014E-009  0.9404403E+02  0.7561462E-02  0.1293344E+00
         -3   -1    0    0    0  501 -0.00000000000E+00  0.00000000000E+00  0.21484984228E+03  0.21484984228E+03  0.00000000000E+00 0.  1.
          3   -1    0    0  501    0  0.00000000000E+00 -0.00000000000E+00 -0.56492982805E+02  0.56492982805E+02  0.00000000000E+00 0. -1.
         25    2    1    2    0    0 -0.20086818536E+02 -0.74440743844E+00  0.77778858529E+02  0.14865357560E+03  0.12507717731E+03 0.  0.
          5    1    3    3  502    0 -0.41797748912E+02  0.39227484669E+02 -0.11200782381E+01  0.57485427221E+02  0.41800000000E+01 0.  1.
         -5    1    3    3    0  502  0.21710930376E+02 -0.39971892108E+02  0.78898936767E+02  0.91168148382E+02  0.41800000000E+01 0.  1.
        -11    1    1    2    0    0  0.29441417002E+02 -0.36293454472E+02  0.19477955356E+02  0.50630056463E+02  0.00000000000E+00 0. -1.
         11    1    1    2    0    0 -0.93545984654E+01  0.37037861910E+02  0.61100045588E+02  0.72059193016E+02  0.00000000000E+00 0.  1.
</event>
<event>
 7    1  0.2499014E-009  0.9602623E+02  0.7561462E-02  0.1288881E+00
         -1   -1    0    0    0  501 -0.00000000000E+00  0.00000000000E+00  0.54365327697E+03  0.54365327697E+03  0.00000000000E+00 0.  1.
          1   -1    0    0  501    0  0.00000000000E+00 -0.00000000000E+00 -0.22612392127E+02  0.22612392127E+02  0.00000000000E+00 0. -1.
         25    2    1    2    0    0 -0.11157277589E+02 -0.88669657919E+01  0.31170448935E+03  0.33616914968E+03  0.12508757169E+03 0.  0.
          5    1    3    3  502    0  0.46502257420E+02 -0.13672007334E+02  0.23508599456E+03  0.24006724259E+03  0.41800000000E+01 0.  1.
         -5    1    3    3    0  502 -0.57659535009E+02  0.48050415426E+01  0.76618494794E+02  0.96101907089E+02  0.41800000000E+01 0.  1.
        -11    1    1    2    0    0 -0.12708053166E+02 -0.34017724737E+02  0.41084242140E+02  0.54832610405E+02  0.00000000000E+00 0.  1.
         11    1    1    2    0    0  0.23865330756E+02  0.42884690529E+02  0.16825215336E+03  0.17526390901E+03  0.00000000000E+00 0. -1.
</event>
<event>
 7    1  0.2499014E-009  0.1159177E+03  0.7561462E-02  0.1249988E+00
         -1   -1    0    0    0  501 -0.00000000000E+00  0.00000000000E+00  0.41087719733E+02  0.41087719733E+02  0.00000000000E+00 0.  1.
          1   -1    0    0  501    0  0.00000000000E+00 -0.00000000000E+00 -0.49938483133E+03  0.49938483133E+03  0.00000000000E+00 0. -1.
         25    2    1    2    0    0 -0.43535183011E+02 -0.70568841888E+02 -0.33294248439E+03  0.36520237781E+03  0.12508719055E+03 0.  0.
          5    1    3    3  502    0 -0.67833122810E+02 -0.92724350447E+02 -0.28071822715E+03  0.30334688588E+03  0.41800000000E+01 0. -1.
         -5    1    3    3    0  502  0.24297939798E+02  0.22155508559E+02 -0.52224257234E+02  0.61855491927E+02  0.41800000000E+01 0. -1.
        -11    1    1    2    0    0  0.34416568326E+02  0.45509512589E+02 -0.13527647141E+03  0.14681736828E+03  0.00000000000E+00 0. -1.
         11    1    1    2    0    0  0.91186146853E+01  0.25059329299E+02  0.99218442010E+01  0.28452804977E+02  0.00000000000E+00 0.  1.
</event>
<event>
 7    1  0.2499014E-009  0.1699439E+03  0.7561462E-02  0.1177906E+00
         -2   -1    0    0    0  501 -0.00000000000E+00  0.00000000000E+00  0.37681963683E+02  0.37681963683E+02  0.00000000000E+00 0.  1.
          2   -1    0    0  501    0  0.00000000000E+00 -0.00000000000E+00 -0.11484080636E+04  0.11484080636E+04  0.00000000000E+00 0. -1.
         25    2    1    2    0    0 -0.15129724322E+03  0.69153610720E+02 -0.74474902509E+03  0.77328617876E+03  0.12508927298E+03 0.  0.
          5    1    3    3  502    0 -0.11801822967E+03  0.33668393588E+02 -0.27704225768E+03  0.30303753597E+03  0.41800000000E+01 0.  1.
         -5    1    3    3    0  502 -0.33279013552E+02  0.35485217132E+02 -0.46770676740E+03  0.47024864280E+03  0.41800000000E+01 0. -1.
        -11    1    1    2    0    0  0.33263732606E+02 -0.27284645753E+02 -0.25472589448E+02  0.49997806091E+02  0.00000000000E+00 0.  1.
         11    1    1    2    0    0  0.11803351062E+03 -0.41868964966E+02 -0.34050448536E+03  0.36280604241E+03  0.00000000000E+00 0. -1.
</event>
<event>
 7    1  0.2499014E-009  0.2144940E+03  0.7561462E-02  0.1138056E+00
         -4   -1    0    0    0  501 -0.00000000000E+00  0.00000000000E+00  0.21437461868E+03  0.21437461868E+03  0.00000000000E+00 0. -1.
          4   -1    0    0  501    0  0.00000000000E+00 -0.00000000000E+00 -0.25695684172E+03  0.25695684172E+03  0.00000000000E+00 0.  1.
         25    2    1    2    0    0  0.29223392307E+02  0.20088331640E+03  0.22140957906E+02  0.23946917402E+03  0.12508856791E+03 0.  0.
          5    1    3    3  502    0  0.33905535759E+02  0.90687383271E+02  0.69611827548E+02  0.11931917605E+03  0.41800000000E+01 0. -1.
         -5    1    3    3    0  502 -0.46821434525E+01  0.11019593313E+03 -0.47470869643E+02  0.12014999796E+03  0.41800000000E+01 0. -1.
        -11    1    1    2    0    0 -0.50118542077E+02 -0.55309495081E+02 -0.31944742486E+02  0.81187899828E+02  0.00000000000E+00 0. -1.
         11    1    1    2    0    0  0.20895149770E+02 -0.14557382132E+03 -0.32778438457E+02  0.15067438656E+03  0.00000000000E+00 0.  1.
</event>
<event>
 7    1  0.2499014E-009  0.6238002E+02  0.7561462E-02  0.1388107E+00
         -4   -1    0    0    0  501 -0.00000000000E+00  0.00000000000E+00  0.63908995727E+02  0.63908995727E+02  0.00000000000E+00 0.  1.
          4   -1    0    0  501    0  0.00000000000E+00 -0.00000000000E+00 -0.21299424449E+03  0.21299424449E+03  0.00000000000E+00 0. -1.
         25    2    1    2    0    0 -0.38052687694E+02 -0.23533250213E+01 -0.11296676217E+03  0.17281181414E+03  0.12509551779E+03 0.  0.
          5    1    3    3  502    0 -0.36619164785E+02 -0.46682484513E+01  0.18325189517E+02  0.41425122136E+02  0.41800000000E+01 0.  1.
         -5    1    3    3    0  502 -0.14335229086E+01  0.23149234301E+01 -0.13129195168E+03  0.13138669200E+03  0.41800000000E+01 0.  1.
        -11    1    1    2    0    0  0.19607512824E+02 -0.35475688016E+02  0.99048609285E+01  0.41726313872E+02  0.00000000000E+00 0.  1.
         11    1    1    2    0    0  0.18445174870E+02  0.37829013037E+02 -0.46023347530E+02  0.62365112212E+02  0.00000000000E+00 0. -1.
</event>
<event>
 7    1  0.2499014E-009  0.1357421E+03  0.7561462E-02  0.1219176E+00
          1   -1    0    0  501    0  0.00000000000E+00  0.00000000000E+00  0.50738097220E+02  0.50738097220E+02  0.00000000000E+00 0. -1.
         -1   -1    0    0    0  501 -0.00000000000E+00 -0.00000000000E+00 -0.46287960608E+03  0.46287960608E+03  0.00000000000E+00 0.  1.
         25    2    1    2    0    0 -0.24016535183E+02  0.89578853209E+02 -0.31675607974E+03  0.35296068543E+03  0.12508263870E+03 0.  0.
          5    1    3    3  502    0 -0.65031433013E+02  0.93134942786E+02 -0.24601348518E+03  0.27100426590E+03  0.41800000000E+01 0. -1.
         -5    1    3    3    0  502  0.41014897830E+02 -0.35560895768E+01 -0.70742594562E+02  0.81956419532E+02  0.41800000000E+01 0. -1.
        -11    1    1    2    0    0  0.25490109262E+02  0.13195102657E+01  0.41434317398E+01  0.25858360430E+02  0.00000000000E+00 0. -1.
         11    1    1    2    0    0 -0.14735740786E+01 -0.90898363475E+02 -0.99528860865E+02  0.13479865744E+03  0.00000000000E+00 0.  1.
</event>
<event>
 7    1  0.2499014E-009  0.5996866E+02  0.7561462E-02  0.1397963E+00
          3   -1    0    0  501    0  0.00000000000E+00  0.00000000000E+00  0.19143351164E+03  0.19143351164E+03  0.00000000000E+00 0. -1.
         -3   -1    0    0    0  501 -0.00000000000E+00 -0.00000000000E+00 -0.66812480953E+02  0.66812480953E+02  0.00000000000E+00 0.  1.
         25    2    1    2    0    0 -0.13199362839E+02  0.24762366357E+02  0.46375677437E+02  0.13633755524E+03  0.12509927076E+03 0.  0.
          5    1    3    3  502    0 -0.23115362175E+01  0.29626873085E+02 -0.39461081556E+02  0.49575640854E+02  0.41800000000E+01 0. -1.
         -5    1    3    3    0  502 -0.10887826621E+02 -0.48645067288E+01  0.85836758993E+02  0.86761914390E+02  0.41800000000E+01 0. -1.
        -11    1    1    2    0    0 -0.20898515351E+02  0.14389150361E+02 -0.29386492225E+01  0.25542733824E+02  0.00000000000E+00 0.  1.
         11    1    1    2    0    0  0.34097878190E+02 -0.39151516718E+02  0.81184002478E+02  0.96365703529E+02  0.00000000000E+00 0. -1.
</event>
<event>
 7    1  0.2499014E-009  0.1435517E+03  0.7561462E-02  0.1208628E+00
         -3   -1    0    0    0  501 -0.00000000000E+00  0.00000000000E+00  0.25246278894E+02  0.25246278894E+02  0.00000000000E+00 0.  1.
          3   -1    0    0  501    0  0.00000000000E+00 -0.00000000000E+00 -0.92333305326E+03  0.92333305326E+03  0.00000000000E+00 0. -1.
         25    2    1    2    0    0 -0.29120495995E+02 -0.10323707109E+03 -0.50868437936E+03  0.53470767483E+03  0.12508638449E+03 0.  0.
          5    1    3    3  502    0 -0.62839331653E+02 -0.91415692221E+02 -0.25005579804E+03  0.27358908041E+03  0.41800000000E+01 0. -1.
         -5    1    3    3    0  502  0.33718835658E+02 -0.11821378871E+02 -0.25862858132E+03  0.26111859442E+03  0.41800000000E+01 0. -1.
        -11    1    1    2    0    0 -0.48347782734E+01 -0.15701415084E+02 -0.41357622573E+02  0.44501263594E+02  0.00000000000E+00 0.  1.
         11    1    1    2    0    0  0.33955274268E+02  0.11893848618E+03 -0.34804477243E+03  0.36937039372E+03  0.00000000000E+00 0. -1.
</event>
<event>
 7    1  0.2499014E-009  0.1278170E+03  0.7561462E-02  0.1230731E+00
         -2   -1    0    0    0  501 -0.00000000000E+00  0.00000000000E+00  0.24045645719E+02  0.24045645719E+02  0.00000000000E+00 0.  1.
          2   -1    0    0  501    0  0.00000000000E+00 -0.00000000000E+00 -0.14493175893E+04  0.14493175893E+04  0.00000000000E+00 0. -1.
         25    2    1    2    0    0 -0.69683850581E+02 -0.11589998087E+02 -0.12790542829E+04  0.12870964366E+04  0.12508881510E+03 0.  0.
          5    1    3    3  502    0 -0.10437676501E+03  0.21201379836E+01 -0.84840947260E+03  0.85481875837E+03  0.41800000000E+01 0. -1.
         -5    1    3    3    0  502  0.34692914433E+02 -0.13710136071E+02 -0.43064481025E+03  0.43227767828E+03  0.41800000000E+01 0. -1.
        -11    1    1    2    0    0  0.32456601798E+02 -0.39041312473E+02 -0.81778107071E+02  0.96256500435E+02  0.00000000000E+00 0.  1.
         11    1    1    2    0    0  0.37227248783E+02  0.50631310560E+02 -0.64439553698E+02  0.90010297976E+02  0.00000000000E+00 0. -1.
</event>
<event>
 7    1  0.2499014E-009  0.1329577E+03  0.7561462E-02  0.1223132E+00
         -2   -1    0    0    0  501 -0.00000000000E+00  0.00000000000E+00  0.56758328517E+03  0.56758328517E+03  0.00000000000E+00 0.  1.
          2   -1    0    0  501    0  0.00000000000E+00 -0.00000000000E+00 -0.44412315471E+02  0.44412315471E+02  0.00000000000E+00 0. -1.
         25    2    1    2    0    0 -0.27465549020E+01  0.11204369881E+03  0.22538331041E+03  0.28108006187E+03  0.12508809121E+03 0.  0.
          5    1    3    3  502    0  0.28718490276E+02  0.10770992427E+03  0.94085893026E+02  0.14593082997E+03  0.41800000000E+01 0. -1.
         -5    1    3    3    0  502 -0.31465045178E+02  0.43337745347E+01  0.13129741739E+03  0.13514923190E+03  0.41800000000E+01 0. -1.
        -11    1    1    2    0    0 -0.16152229186E+02 -0.96545936176E+02  0.28869387154E+03  0.30483793032E+03  0.00000000000E+00 0.  1.
         11    1    1    2    0    0  0.18898784088E+02 -0.15497762631E+02  0.90937877450E+01  0.26077608443E+02  0.00000000000E+00 0. -1.
</event>
<event>
 7    1  0.2499014E-009  0.1230675E+03  0.7561462E-02  0.1238121E+00
          1   -1    0    0  501    0  0.00000000000E+00  0.00000000000E+00  0.10163966286E+03  0.10163966286E+03  0.00000000000E+00 0. -1.
         -1   -1    0    0    0  501 -0.00000000000E+00 -0.00000000000E+00 -0.16256470935E+03  0.16256470935E+03  0.00000000000E+00 0.  1.
         25    2    1    2    0    0  0.13518874951E+01  0.52153165701E+02 -0.12377008439E+02  0.13609707023E+03  0.12508973537E+03 0.  0.
          5    1    3    3  502    0  0.45374417433E+02  0.71913749510E+02  0.32704332067E+01  0.85197378242E+02  0.41800000000E+01 0.  1.
         -5    1    3    3    0  502 -0.44022529938E+02 -0.19760583809E+02 -0.15647441646E+02  0.50899691990E+02  0.41800000000E+01 0.  1.
        -11    1    1    2    0    0 -0.16625873195E+02  0.27132978313E+02 -0.33068846549E+02  0.45892992752E+02  0.00000000000E+00 0.  1.
         11    1    1    2    0    0  0.15273985700E+02 -0.79286144015E+02 -0.15479191494E+02  0.82214309224E+02  0.00000000000E+00 0. -1.
</event>
<event>
 7    1  0.2499014E-009  0.7537595E+02  0.7561462E-02  0.1342711E+00
          2   -1    0    0  501    0  0.00000000000E+00  0.00000000000E+00  0.82200823269E+02  0.82200823269E+02  0.00000000000E+00 0. -1.
         -2   -1    0    0    0  501 -0.00000000000E+00 -0.00000000000E+00 -0.18410932975E+03  0.18410932975E+03  0.00000000000E+00 0.  1.
         25    2    1    2    0    0 -0.21115716201E+02 -0.17889275558E+02 -0.23428136452E+01  0.12813568948E+03  0.12508943397E+03 0.  0.
          5    1    3    3  502    0  0.23101021001E+02  0.27251389814E+02  0.38572682824E+02  0.52741062545E+02  0.41800000000E+01 0. -1.
         -5    1    3    3    0  502 -0.44216737202E+02 -0.45140665371E+02 -0.40915496469E+02  0.75394626933E+02  0.41800000000E+01 0. -1.
        -11    1    1    2    0    0  0.28616322073E+02 -0.34627498961E+01 -0.10966653410E+03  0.11339150421E+03  0.00000000000E+00 0.  1.
         11    1    1    2    0    0 -0.75006058722E+01  0.21352025454E+02  0.10100841257E+02  0.24782959338E+02  0.00000000000E+00 0. -1.
</event>
<event>
 7    1  0.2499014E-009  0.1219426E+03  0.7561462E-02  0.1239926E+00
          2   -1    0    0  501    0  0.00000000000E+00  0.00000000000E+00  0.66882933554E+03  0.66882933554E+03  0.00000000000E+00 0. -1.
         -2   -1    0    0    0  501 -0.00000000000E+00 -0.00000000000E+00 -0.26925213644E+02  0.26925213644E+02  0.00000000000E+00 0.  1.
         25    2    1    2    0    0  0.67099961476E+02 -0.50207019048E+01  0.25744491183E+03  0.29402825438E+03  0.12508844659E+03 0.  0.
          5    1    3    3  502    0  0.59318727676E+01  0.46812360280E+02  0.39208946332E+02  0.61493073285E+02  0.41800000000E+01 0. -1.
         -5    1    3    3    0  502  0.61168088708E+02 -0.51833062185E+02  0.21823596550E+03  0.23253518110E+03  0.41800000000E+01 0. -1.
        -11    1    1    2    0    0 -0.12109159921E+01  0.41093584351E+02  0.14965668556E+03  0.15520074911E+03  0.00000000000E+00 0.  1.
         11    1    1    2    0    0 -0.65889045484E+02 -0.36072882446E+02  0.23480252451E+03  0.24652554569E+03  0.00000000000E+00 0. -1.
</event>
<event>
 7    1  0.3123933E-009  0.9469803E+02  0.7561462E-02  0.1291858E+00
          1   -1    0    0  501    0  0.00000000000E+00  0.00000000000E+00  0.55570470620E+03  0.55570470620E+03  0.00000000000E+00 0. -1.
         -1   -1    0    0    0  501 -0.00000000000E+00 -0.00000000000E+00 -0.25034839940E+02  0.25034839940E+02  0.00000000000E+00 0.  1.
         25    2    1    2    0    0 -0.41605198589E+01  0.43555932511E+02  0.34590966679E+03  0.37042471439E+03  0.12508613937E+03 0.  0.
          5    1    3    3  502    0 -0.32850631157E+02  0.62357962998E+02  0.31874087131E+03  0.32646729539E+03  0.41800000000E+01 0. -1.
         -5    1    3    3    0  502  0.28690111298E+02 -0.18802030487E+02  0.27168795489E+02  0.43957418999E+02  0.41800000000E+01 0. -1.
        -11    1    1    2    0    0  0.18673814845E+02  0.14971534009E+02  0.10909522762E+02  0.26303533571E+02  0.00000000000E+00 0.  1.
         11    1    1    2    0    0 -0.14513294986E+02 -0.58527466520E+02  0.17385067670E+03  0.18401129818E+03  0.00000000000E+00 0. -1.
</event>
<event>
 7    1  0.2499014E-009  0.1753870E+03  0.7561462E-02  0.1172344E+00
          1   -1    0    0  501    0  0.00000000000E+00  0.00000000000E+00  0.24883452624E+03  0.24883452624E+03  0.00000000000E+00 0. -1.
         -1   -1    0    0    0  501 -0.00000000000E+00 -0.00000000000E+00 -0.13849146374E+03  0.13849146374E+03  0.00000000000E+00 0.  1.
         25    2    1    2    0    0 -0.48852679361E+02  0.13866130128E+03  0.29265261892E+02  0.19523754173E+03  0.12509077262E+03 0.  0.
          5    1    3    3  502    0 -0.79009101670E+02  0.44324641939E+02  0.31727789862E+02  0.96079327013E+02  0.41800000000E+01 0. -1.
         -5    1    3    3    0  502  0.30156422309E+02  0.94336659343E+02 -0.24625279703E+01  0.99158214720E+02  0.41800000000E+01 0. -1.
        -11    1    1    2    0    0 -0.75577223107E+00 -0.94609773821E+02  0.82791913240E+02  0.12572223905E+03  0.00000000000E+00 0.  1.
         11    1    1    2    0    0  0.49608451592E+02 -0.44051527461E+02 -0.17141126296E+01  0.66366209196E+02  0.00000000000E+00 0. -1.
</event>
<event>
 7    1  0.2499014E-009  0.2730090E+03  0.7561462E-02  0.1099570E+00
         -4   -1    0    0    0  501 -0.00000000000E+00  0.00000000000E+00  0.21506090297E+03  0.21506090297E+03  0.00000000000E+00 0.  1.
          4   -1    0    0  501    0  0.00000000000E+00 -0.00000000000E+00 -0.41367408793E+03  0.41367408793E+03  0.00000000000E+00 0. -1.
         25    2    1    2    0    0 -0.10244853356E+03  0.25185009541E+03 -0.15981695404E+03  0.33928357051E+03  0.12509080637E+03 0.  0.
          5    1    3    3  502    0 -0.25939350635E+02  0.54672621298E+02  0.17634193575E+02  0.63169475335E+02  0.41800000000E+01 0. -1.
         -5    1    3    3    0  502 -0.76509182926E+02  0.19717747411E+03 -0.17745114761E+03  0.27611409518E+03  0.41800000000E+01 0. -1.
        -11    1    1    2    0    0  0.55724612862E+02 -0.17715723606E+03 -0.66238126770E+02  0.19717354844E+03  0.00000000000E+00 0.  1.
         11    1    1    2    0    0  0.46723920699E+02 -0.74692859344E+02  0.27441895850E+02  0.92277871943E+02  0.00000000000E+00 0. -1.
</event>
<event>
 7    1  0.2499014E-009  0.1000199E+03  0.7561462E-02  0.1280254E+00
          2   -1    0    0  501    0  0.00000000000E+00  0.00000000000E+00  0.69389564720E+03  0.69389564720E+03  0.00000000000E+00 0. -1.
         -2   -1    0    0    0  501 -0.00000000000E+00 -0.00000000000E+00 -0.18269777895E+02  0.18269777895E+02  0.00000000000E+00 0.  1.
         25    2    1    2    0    0  0.31706127629E+02  0.47753577922E+01  0.41247782215E+03  0.43221897076E+03  0.12508877788E+03 0.  0.
          5    1    3    3  502    0  0.45621162263E+02 -0.40839878083E+02  0.10988480075E+03  0.12586233720E+03  0.41800000000E+01 0. -1.
         -5    1    3    3    0  502 -0.13915034635E+02  0.45615235876E+02  0.30259302140E+03  0.30635663357E+03  0.41800000000E+01 0. -1.
        -11    1    1    2    0    0 -0.55054449133E+02  0.18251046773E+02  0.12265897125E+03  0.13568093567E+03  0.00000000000E+00 0.  1.
         11    1    1    2    0    0  0.23348321504E+02 -0.23026404565E+02  0.14048907590E+03  0.14426551865E+03  0.00000000000E+00 0. -1.
</event>
<event>
 7    1  0.2499014E-009  0.1363421E+03  0.7561462E-02  0.1218337E+00
         -1   -1    0    0    0  501 -0.00000000000E+00  0.00000000000E+00  0.18594896797E+03  0.18594896797E+03  0.00000000000E+00 0.  1.
          1   -1    0    0  501    0  0.00000000000E+00 -0.00000000000E+00 -0.15281813546E+03  0.15281813546E+03  0.00000000000E+00 0. -1.
         25    2    1    2    0    0  0.87572517962E+02 -0.45265494370E+02  0.10142218619E+03  0.18881571774E+03  0.12508798715E+03 0.  0.
          5    1    3    3  502    0 -0.15904751081E+02 -0.51158975814E+02  0.21544194771E+02  0.57894962144E+02  0.41800000000E+01 0.  1.
         -5    1    3    3    0  502  0.10347726904E+03  0.58934814439E+01  0.79877991416E+02  0.13092075559E+03  0.41800000000E+01 0.  1.
        -11    1    1    2    0    0 -0.84368682195E+02  0.16117649288E+02 -0.12332823541E+02  0.86775294240E+02  0.00000000000E+00 0.  1.
         11    1    1    2    0    0 -0.32038357671E+01  0.29147845082E+02 -0.55958530137E+02  0.63176091456E+02  0.00000000000E+00 0. -1.
</event>
<event>
 7    1  0.2499014E-009  0.9458748E+02  0.7561462E-02  0.1292108E+00
         -2   -1    0    0    0  501 -0.00000000000E+00  0.00000000000E+00  0.80336167940E+02  0.80336167940E+02  0.00000000000E+00 0.  1.
          2   -1    0    0  501    0  0.00000000000E+00 -0.00000000000E+00 -0.22115305316E+03  0.22115305316E+03  0.00000000000E+00 0. -1.
         25    2    1    2    0    0  0.27677194721E+02 -0.61729039486E+02 -0.11292420254E+03  0.18159197845E+03  0.12508904706E+03 0.  0.
          5    1    3    3  502    0  0.27875385292E+02 -0.70466715457E+02 -0.13645709210E+03  0.15614290082E+03  0.41800000000E+01 0. -1.
         -5    1    3    3    0  502 -0.19819057036E+00  0.87376759703E+01  0.23532889564E+02  0.25449077628E+02  0.41800000000E+01 0. -1.
        -11    1    1    2    0    0 -0.55231868058E+02  0.36270875885E+02  0.97036503180E+01  0.66785451381E+02  0.00000000000E+00 0.  1.
         11    1    1    2    0    0  0.27554673337E+02  0.25458163601E+02 -0.37596332993E+02  0.53111791263E+02  0.00000000000E+00 0. -1.
</event>
<event>
 7    1  0.2499014E-009  0.1875660E+03  0.7561462E-02  0.1160675E+00
          2   -1    0    0  501    0  0.00000000000E+00  0.00000000000E+00  0.10667332628E+04  0.10667332628E+04  0.00000000000E+00 0. -1.
         -2   -1    0    0    0  501 -0.00000000000E+00 -0.00000000000E+00 -0.35374057681E+02  0.35374057681E+02  0.00000000000E+00 0.  1.
         25    2    1    2    0    0  0.65619201431E+02  0.14788196943E+03  0.54338526361E+03  0.58059458130E+03  0.12509023404E+03 0.  0.
          5    1    3    3  502    0  0.93485610876E+02  0.67929210833E+02  0.25471217208E+03  0.27973147862E+03  0.41800000000E+01 0. -1.
         -5    1    3    3    0  502 -0.27866409445E+02  0.79952758597E+02  0.28867309152E+03  0.30086310268E+03  0.41800000000E+01 0. -1.
        -11    1    1    2    0    0 -0.69130655887E+02 -0.75927507360E+02  0.36318794413E+03  0.37742484910E+03  0.00000000000E+00 0. -1.
         11    1    1    2    0    0  0.35114544559E+01 -0.71954462070E+02  0.12478599736E+03  0.14408789006E+03  0.00000000000E+00 0.  1.
</event>
<event>
 7    1  0.2499014E-009  0.1065351E+03  0.7561462E-02  0.1267124E+00
         -4   -1    0    0    0  501 -0.00000000000E+00  0.00000000000E+00  0.56062366662E+02  0.56062366662E+02  0.00000000000E+00 0.  1.
          4   -1    0    0  501    0  0.00000000000E+00 -0.00000000000E+00 -0.48144224594E+03  0.48144224594E+03  0.00000000000E+00 0. -1.
         25    2    1    2    0    0 -0.12976738751E+02  0.10057767229E+03 -0.33402378661E+03  0.37081559495E+03  0.12509217213E+03 0.  0.
          5    1    3    3  502    0 -0.37067743091E+01  0.50396352363E+02 -0.31024653979E+03  0.31436272101E+03  0.41800000000E+01 0. -1.
         -5    1    3    3    0  502 -0.92699644415E+01  0.50181319924E+02 -0.23777246816E+02  0.56452873941E+02  0.41800000000E+01 0. -1.
        -11    1    1    2    0    0  0.27463303122E+02 -0.37721146292E+02  0.88744539709E+01  0.47496040142E+02  0.00000000000E+00 0.  1.
         11    1    1    2    0    0 -0.14486564371E+02 -0.62856525995E+02 -0.10023054664E+03  0.11919297751E+03  0.00000000000E+00 0. -1.
</event>
<event>
 7    1  0.2499014E-009  0.3342418E+03  0.7561462E-02  0.1069275E+00
          1   -1    0    0  501    0  0.00000000000E+00  0.00000000000E+00  0.30163213160E+03  0.30163213160E+03  0.00000000000E+00 0. -1.
         -1   -1    0    0    0  501 -0.00000000000E+00 -0.00000000000E+00 -0.38270854919E+03  0.38270854919E+03  0.00000000000E+00 0.  1.
         25    2    1    2    0    0 -0.19226466037E+03 -0.25763225814E+03 -0.19943709402E+02  0.34552514124E+03  0.12509912718E+03 0.  0.
          5    1    3    3  502    0  0.47726877055E+01 -0.45413399539E+02 -0.31575825425E+02  0.55674595256E+02  0.41800000000E+01 0.  1.
         -5    1    3    3    0  502 -0.19703734808E+03 -0.21221885860E+03  0.11632116023E+02  0.28985054598E+03  0.41800000000E+01 0.  1.
        -11    1    1    2    0    0  0.35843108026E+02  0.11803597197E+03 -0.28900036107E+02  0.12669818925E+03  0.00000000000E+00 0.  1.
         11    1    1    2    0    0  0.15642155235E+03  0.13959628617E+03 -0.32232672076E+02  0.21211735031E+03  0.00000000000E+00 0. -1.
</event>
<event>
 7    1  0.2499014E-009  0.1503196E+03  0.7561462E-02  0.1200081E+00
         -1   -1    0    0    0  501 -0.00000000000E+00  0.00000000000E+00  0.56496689584E+02  0.56496689584E+02  0.00000000000E+00 0.  1.
          1   -1    0    0  501    0  0.00000000000E+00 -0.00000000000E+00 -0.45949007031E+03  0.45949007031E+03  0.00000000000E+00 0. -1.
         25    2    1    2    0    0 -0.13134090628E+02 -0.11220242964E+03 -0.27658658210E+03  0.32389900019E+03  0.12509410607E+03 0.  0.
          5    1    3    3  502    0 -0.49679157281E+02 -0.10812391688E+03 -0.14720982012E+03  0.18933304944E+03  0.41800000000E+01 0.  1.
         -5    1    3    3    0  502  0.36545066653E+02 -0.40785127659E+01 -0.12937676198E+03  0.13456595075E+03  0.41800000000E+01 0.  1.
        -11    1    1    2    0    0 -0.34346200980E+02  0.17317823248E+02 -0.31062909149E+02  0.49441610498E+02  0.00000000000E+00 0.  1.
         11    1    1    2    0    0  0.47480291609E+02  0.94884606394E+02 -0.95343889480E+02  0.14264614920E+03  0.00000000000E+00 0. -1.
</event>
<event>
 7    1  0.2960763E-009  0.1198781E+03  0.7561462E-02  0.1243298E+00
          2   -1    0    0  501    0  0.00000000000E+00  0.00000000000E+00  0.13018485117E+03  0.13018485117E+03  0.00000000000E+00 0. -1.
         -2   -1    0    0    0  501 -0.00000000000E+00 -0.00000000000E+00 -0.13443520324E+03  0.13443520324E+03  0.00000000000E+00 0.  1.
         25    2    1    2    0    0 -0.65447345099E+02  0.14312380742E+02 -0.35359455374E+02  0.14625297751E+03  0.12510572778E+03 0.  0.
          5    1    3    3  502    0 -0.78326305911E+02  0.56600260725E+02 -0.17024046643E+02  0.98213493350E+02  0.41800000000E+01 0. -1.
         -5    1    3    3    0  502  0.12878960812E+02 -0.42287879983E+02 -0.18335408731E+02  0.48039484160E+02  0.41800000000E+01 0. -1.
        -11    1    1    2    0    0  0.20595069486E+02  0.29466443338E+02 -0.16600765471E+02  0.39598151274E+02  0.00000000000E+00 0. -1.
         11    1    1    2    0    0  0.44852275613E+02 -0.43778824080E+02  0.47709868772E+02  0.78768925622E+02  0.00000000000E+00 0.  1.
</event>
<event>
 7    1  0.2499014E-009  0.9874899E+02  0.7561462E-02  0.1282949E+00
         -1   -1    0    0    0  501 -0.00000000000E+00  0.00000000000E+00  0.20463834082E+02  0.20463834082E+02  0.00000000000E+00 0.  1.
          1   -1    0    0  501    0  0.00000000000E+00 -0.00000000000E+00 -0.64688136084E+03  0.64688136084E+03  0.00000000000E+00 0. -1.
         25    2    1    2    0    0 -0.35316060489E+02 -0.13657480674E+02 -0.35842568028E+03  0.38150984395E+03  0.12508813627E+03 0.  0.
          5    1    3    3  502    0 -0.64646249268E+01  0.48777311305E+02 -0.23519244487E+03  0.24032056923E+03  0.41800000000E+01 0.  1.
         -5    1    3    3    0  502 -0.28851435562E+02 -0.62434791980E+02 -0.12323323542E+03  0.14118927472E+03  0.41800000000E+01 0.  1.
        -11    1    1    2    0    0  0.51613234027E+02 -0.78710152087E+01 -0.24460192291E+03  0.25011193394E+03  0.00000000000E+00 0. -1.
         11    1    1    2    0    0 -0.16297173538E+02  0.21528495883E+02 -0.23389923564E+02  0.35723417035E+02  0.00000000000E+00 0.  1.
</event>
<event>
 7    1  0.2499014E-009  0.1208753E+03  0.7561462E-02  0.1241660E+00
         -4   -1    0    0    0  501 -0.00000000000E+00  0.00000000000E+00  0.46226298179E+03  0.46226298179E+03  0.00000000000E+00 0.  1.
          4   -1    0    0  501    0  0.00000000000E+00 -0.00000000000E+00 -0.35916094706E+02  0.35916094706E+02  0.00000000000E+00 0. -1.
         25    2    1    2    0    0  0.63637766072E+02  0.19195014791E+02  0.18424548917E+03  0.23240436400E+03  0.12508866562E+03 0.  0.
          5    1    3    3  502    0  0.96375104790E+02  0.22261960465E+02  0.95024767315E+02  0.13722585219E+03  0.41800000000E+01 0. -1.
         -5    1    3    3    0  502 -0.32737338719E+02 -0.30669456735E+01  0.89220721855E+02  0.95178511810E+02  0.41800000000E+01 0. -1.
        -11    1    1    2    0    0 -0.18072146498E+02 -0.50953130534E+02  0.12325957256E+03  0.13459474810E+03  0.00000000000E+00 0.  1.
         11    1    1    2    0    0 -0.45565619574E+02  0.31758115743E+02  0.11884182536E+03  0.13117996439E+03  0.00000000000E+00 0. -1.
</event>
<event>
 7    1  0.2499014E-009  0.1155575E+03  0.7561462E-02  0.1250611E+00
          1   -1    0    0  501    0  0.00000000000E+00  0.00000000000E+00  0.21030448402E+03  0.21030448402E+03  0.00000000000E+00 0. -1.
         -1   -1    0    0    0  501 -0.00000000000E+00 -0.00000000000E+00 -0.70347984163E+02  0.70347984163E+02  0.00000000000E+00 0.  1.
         25    2    1    2    0    0  0.31505400608E+02  0.39045857922E+02  0.53307467392E+02  0.14492978083E+03  0.12508311638E+03 0.  0.
          5    1    3    3  502    0 -0.17588851337E+02  0.72278804137E+02  0.21624059684E+02  0.77580059139E+02  0.41800000000E+01 0.  1.
         -5    1    3    3    0  502  0.49094251945E+02 -0.33232946215E+02  0.31683407708E+02  0.67349721693E+02  0.41800000000E+01 0.  1.
        -11    1    1    2    0    0 -0.24095571772E+02  0.23816862601E+02  0.55866042800E+02  0.65336469611E+02  0.00000000000E+00 0. -1.
         11    1    1    2    0    0 -0.74098288361E+01 -0.62862720524E+02  0.30782989667E+02  0.70386217741E+02  0.00000000000E+00 0.  1.
</event>
<event>
 7    1  0.2499014E-009  0.1232697E+03  0.7561462E-02  0.1237799E+00
         -1   -1    0    0    0  501 -0.00000000000E+00  0.00000000000E+00  0.73488943703E+02  0.73488943703E+02  0.00000000000E+00 0.  1.
          1   -1    0    0  501    0  0.00000000000E+00 -0.00000000000E+00 -0.33590210016E+03  0.33590210016E+03  0.00000000000E+00 0. -1.
         25    2    1    2    0    0  0.20130044961E+02  0.10997354451E+03 -0.15709668446E+03  0.22983997855E+03  0.12509056027E+03 0.  0.
          5    1    3    3  502    0  0.20749523297E+02  0.50640104508E+02 -0.16112833388E+03  0.17021978522E+03  0.41800000000E+01 0. -1.
         -5    1    3    3    0  502 -0.61947833537E+00  0.59333440002E+02  0.40316494176E+01  0.59620193331E+02  0.41800000000E+01 0. -1.
        -11    1    1    2    0    0  0.17880336425E+02 -0.84599641311E+02 -0.30135806066E+02  0.91569495728E+02  0.00000000000E+00 0.  1.
         11    1    1    2    0    0 -0.38010381387E+02 -0.25373903198E+02 -0.75180665927E+02  0.87981569580E+02  0.00000000000E+00 0. -1.
</event>
<event>
 7    1  0.2499014E-009  0.1146742E+03  0.7561462E-02  0.1252151E+00
         -2   -1    0    0    0  501 -0.00000000000E+00  0.00000000000E+00  0.26908517754E+02  0.26908517754E+02  0.00000000000E+00 0.  1.
          2   -1    0    0  501    0  0.00000000000E+00 -0.00000000000E+00 -0.64011607328E+03  0.64011607328E+03  0.00000000000E+00 0. -1.
         25    2    1    2    0    0  0.55078263972E+02  0.12485121815E+02 -0.21338934181E+03  0.25372379016E+03  0.12510498419E+03 0.  0.
          5    1    3    3  502    0  0.68288559115E+02 -0.35037030342E+02 -0.17481507523E+03  0.19096780809E+03  0.41800000000E+01 0. -1.
         -5    1    3    3    0  502 -0.13210295143E+02  0.47522152157E+02 -0.38574266582E+02  0.62755982071E+02  0.41800000000E+01 0. -1.
        -11    1    1    2    0    0 -0.28279104505E+02 -0.49663811233E+02 -0.25828007565E+03  0.26452750212E+03  0.00000000000E+00 0. -1.
         11    1    1    2    0    0 -0.26799159467E+02  0.37178689418E+02 -0.14153813807E+03  0.14877329876E+03  0.00000000000E+00 0.  1.
</event>
<event>
 7    1  0.2499014E-009  0.1069547E+03  0.7561462E-02  0.1266315E+00
         -1   -1    0    0    0  501 -0.00000000000E+00  0.00000000000E+00  0.54804076804E+02  0.54804076804E+02  0.00000000000E+00 0.  1.
          1   -1    0    0  501    0  0.00000000000E+00 -0.00000000000E+00 -0.22170428687E+03  0.22170428687E+03  0.00000000000E+00 0. -1.
         25    2    1    2    0    0  0.15909848057E+02 -0.10181346999E+01 -0.75065861979E+02  0.14675240230E+03  0.12508886475E+03 0.  0.
          5    1    3    3  502    0  0.59077008925E+02  0.33427785574E+02 -0.56262064081E+02  0.88263254452E+02  0.41800000000E+01 0.  1.
         -5    1    3    3    0  502 -0.43167160868E+02 -0.34445920274E+02 -0.18803797899E+02  0.58489147851E+02  0.41800000000E+01 0.  1.
        -11    1    1    2    0    0 -0.30660567998E+02  0.39095038705E+02 -0.40097633241E+02  0.63846007493E+02  0.00000000000E+00 0.  1.
         11    1    1    2    0    0  0.14750719940E+02 -0.38076904005E+02 -0.51736714849E+02  0.65909953882E+02  0.00000000000E+00 0. -1.
</event>
<event>
 7    1  0.2931006E-009  0.1987672E+03  0.7561462E-02  0.1150783E+00
          1   -1    0    0  501    0  0.00000000000E+00  0.00000000000E+00  0.43877979824E+03  0.43877979824E+03  0.00000000000E+00 0. -1.
         -1   -1    0    0    0  501 -0.00000000000E+00 -0.00000000000E+00 -0.10853254389E+03  0.10853254389E+03  0.00000000000E+00 0.  1.
         25    2    1    2    0    0  0.16605678689E+03 -0.19339032775E+02  0.61375730444E+02  0.21763545541E+03  0.12509738807E+03 0.  0.
          5    1    3    3  502    0  0.57778601328E+02 -0.68548899764E+02  0.24178685485E+02  0.92948370949E+02  0.41800000000E+01 0.  1.
         -5    1    3    3    0  502  0.10827818556E+03  0.49209866988E+02  0.37197044958E+02  0.12468708446E+03  0.41800000000E+01 0.  1.
        -11    1    1    2    0    0 -0.41648790106E+02  0.45461898277E+02  0.11113611821E+03  0.12709304734E+03  0.00000000000E+00 0. -1.
         11    1    1    2    0    0 -0.12440799678E+03 -0.26122865502E+02  0.15773540570E+03  0.20258383938E+03  0.00000000000E+00 0.  1.
</event>
<event>
 7    1  0.2499014E-009  0.1294493E+03  0.7561462E-02  0.1228275E+00
          2   -1    0    0  501    0  0.00000000000E+00  0.00000000000E+00  0.13468112236E+04  0.13468112236E+04  0.00000000000E+00 0.  1.
         -2   -1    0    0    0  501 -0.00000000000E+00 -0.00000000000E+00 -0.51977304793E+02  0.51977304793E+02  0.00000000000E+00 0. -1.
         25    2    1    2    0    0  0.87634631450E+02 -0.77503080100E+02  0.12213795217E+04  0.12333296263E+04  0.12508986801E+03 0.  0.
          5    1    3    3  502    0  0.62201548342E+02 -0.34669667425E+01  0.91332005593E+03  0.91545182803E+03  0.41800000000E+01 0. -1.
         -5    1    3    3    0  502  0.25433083109E+02 -0.74036113357E+02  0.30805946574E+03  0.31787779827E+03  0.41800000000E+01 0. -1.
        -11    1    1    2    0    0 -0.18853419599E+02  0.26109713178E+02 -0.20504117325E+02  0.38178362722E+02  0.00000000000E+00 0. -1.
         11    1    1    2    0    0 -0.68781211851E+02  0.51393366922E+02  0.93958514495E+02  0.12728053941E+03  0.00000000000E+00 0.  1.
</event>
<event>
 7    1  0.2499014E-009  0.9368529E+02  0.7561462E-02  0.1294165E+00
         -2   -1    0    0    0  501 -0.00000000000E+00  0.00000000000E+00  0.30227061812E+02  0.30227061812E+02  0.00000000000E+00 0.  1.
          2   -1    0    0  501    0  0.00000000000E+00 -0.00000000000E+00 -0.50139896175E+03  0.50139896175E+03  0.00000000000E+00 0. -1.
         25    2    1    2    0    0  0.17458910984E+02  0.47000857040E+02 -0.32886146122E+03  0.35539961670E+03  0.12508050502E+03 0.  0.
          5    1    3    3  502    0 -0.46014304976E+02  0.19778816398E+02 -0.62515871912E+02  0.80213617806E+02  0.41800000000E+01 0. -1.
         -5    1    3    3    0  502  0.63473215961E+02  0.27222040642E+02 -0.26634558931E+03  0.27518599889E+03  0.41800000000E+01 0. -1.
        -11    1    1    2    0    0  0.54312628507E+01 -0.44572251536E+02 -0.15741428773E+02  0.47581265252E+02  0.00000000000E+00 0.  1.
         11    1    1    2    0    0 -0.22890173835E+02 -0.24286055041E+01 -0.12656900994E+03  0.12864514161E+03  0.00000000000E+00 0. -1.
</event>
<event>
 7    1  0.2499014E-009  0.1087653E+03  0.7561462E-02  0.1262874E+00
         -1   -1    0    0    0  501 -0.00000000000E+00  0.00000000000E+00  0.41972591100E+02  0.41972591100E+02  0.00000000000E+00 0.  1.
          1   -1    0    0  501    0  0.00000000000E+00 -0.00000000000E+00 -0.33494258544E+03  0.33494258544E+03  0.00000000000E+00 0. -1.
         25    2    1    2    0    0  0.40481797476E+02 -0.24869670980E+02 -0.18591146510E+03  0.22906066779E+03  0.12509372571E+03 0.  0.
          5    1    3    3  502    0  0.41281583917E+02 -0.64333985932E+02 -0.16973078237E+03  0.18619624540E+03  0.41800000000E+01 0. -1.
         -5    1    3    3    0  502 -0.79978644118E+00  0.39464314952E+02 -0.16180682722E+02  0.42864422385E+02  0.41800000000E+01 0. -1.
        -11    1    1    2    0    0  0.93733417554E+00 -0.31399733025E+02 -0.41455277784E+02  0.52013093405E+02  0.00000000000E+00 0.  1.
         11    1    1    2    0    0 -0.41419131652E+02  0.56269404005E+02 -0.65603251464E+02  0.95841415351E+02  0.00000000000E+00 0. -1.
</event>
<event>
 7    1  0.2499014E-009  0.1324229E+03  0.7561462E-02  0.1223904E+00
          1   -1    0    0  501    0  0.00000000000E+00  0.00000000000E+00  0.48389202691E+02  0.48389202691E+02  0.00000000000E+00 0. -1.
         -1   -1    0    0    0  501 -0.00000000000E+00 -0.00000000000E+00 -0.39265812514E+03  0.39265812514E+03  0.00000000000E+00 0.  1.
         25    2    1    2    0    0 -0.12919565297E+02  0.10110587218E+03 -0.16123982372E+03  0.22811104737E+03  0.12508819537E+03 0.  0.
          5    1    3    3  502    0  0.47488310533E+02  0.11618826074E+02 -0.27743357963E+02  0.56367571064E+02  0.41800000000E+01 0.  1.
         -5    1    3    3    0  502 -0.60407875830E+02  0.89487046103E+02 -0.13349646576E+03  0.17174347630E+03  0.41800000000E+01 0.  1.
        -11    1    1    2    0    0  0.11733055028E+02 -0.70953314353E+01 -0.34812505765E+02  0.37415489655E+02  0.00000000000E+00 0.  1.
         11    1    1    2    0    0  0.11865102686E+01 -0.94010540742E+02 -0.14821659297E+03  0.17552079081E+03  0.00000000000E+00 0. -1.
</event>
<event>
 7    1  0.2499014E-009  0.1353847E+03  0.7561462E-02  0.1219678E+00
         -2   -1    0    0    0  501 -0.00000000000E+00  0.00000000000E+00  0.50181680814E+02  0.50181680814E+02  0.00000000000E+00 0.  1.
          2   -1    0    0  501    0  0.00000000000E+00 -0.00000000000E+00 -0.56404374268E+03  0.56404374268E+03  0.00000000000E+00 0. -1.
         25    2    1    2    0    0  0.11467363106E+03  0.37305765283E+02 -0.19444645382E+03  0.26076689246E+03  0.12509271370E+03 0.  0.
          5    1    3    3  502    0  0.69121058048E+02 -0.20676984962E+02 -0.16701914706E+03  0.18198386263E+03  0.41800000000E+01 0. -1.
         -5    1    3    3    0  502  0.45552573007E+02  0.57982750245E+02 -0.27427306755E+02  0.78783029831E+02  0.41800000000E+01 0. -1.
        -11    1    1    2    0    0 -0.54569851595E+02 -0.34327183099E+02 -0.63233313282E+02  0.90303245298E+02  0.00000000000E+00 0.  1.
         11    1    1    2    0    0 -0.60103779460E+02 -0.29785821841E+01 -0.25618229477E+03  0.26315528574E+03  0.00000000000E+00 0. -1.
</event>
<event>
 7    1  0.2499014E-009  0.1137162E+03  0.7561462E-02  0.1253839E+00
         -2   -1    0    0    0  501 -0.00000000000E+00  0.00000000000E+00  0.20354726706E+02  0.20354726706E+02  0.00000000000E+00 0. -1.
          2   -1    0    0  501    0  0.00000000000E+00 -0.00000000000E+00 -0.10135863623E+04  0.10135863623E+04  0.00000000000E+00 0.  1.
         25    2    1    2    0    0 -0.27565566338E+02  0.42310996392E+02 -0.82029457674E+03  0.83131253489E+03  0.12508899706E+03 0.  0.
          5    1    3    3  502    0 -0.68367691508E+02  0.43485700527E+02 -0.35225693419E+03  0.36147969165E+03  0.41800000000E+01 0. -1.
         -5    1    3    3    0  502  0.40802125170E+02 -0.11747041345E+01 -0.46803764255E+03  0.46983284324E+03  0.41800000000E+01 0. -1.
        -11    1    1    2    0    0  0.56295711134E+02 -0.27355129900E+01 -0.84545370031E+02  0.10161008669E+03  0.00000000000E+00 0. -1.
         11    1    1    2    0    0 -0.28730144797E+02 -0.39575483402E+02 -0.88391688828E+02  0.10101846742E+03  0.00000000000E+00 0.  1.
</event>
<event>
 7    1  0.2499014E-009  0.2133432E+03  0.7561462E-02  0.1138946E+00
         -1   -1    0    0    0  501 -0.00000000000E+00  0.00000000000E+00  0.10167955902E+03  0.10167955902E+03  0.00000000000E+00 0.  1.
          1   -1    0    0  501    0  0.00000000000E+00 -0.00000000000E+00 -0.44992399055E+03  0.44992399055E+03  0.00000000000E+00 0. -1.
         25    2    1    2    0    0  0.13383752092E+03 -0.12640644928E+03 -0.18536545455E+03  0.28965408663E+03  0.12509222892E+03 0.  0.
          5    1    3    3  502    0  0.15118270219E+03 -0.76341919037E+02 -0.13997191898E+03  0.21975875078E+03  0.41800000000E+01 0.  1.
         -5    1    3    3    0  502 -0.17345181270E+02 -0.50064530241E+02 -0.45393535573E+02  0.69895335848E+02  0.41800000000E+01 0.  1.
        -11    1    1    2    0    0  0.61591609702E+01  0.38114119995E+02 -0.41623762861E+02  0.56772872409E+02  0.00000000000E+00 0. -1.
         11    1    1    2    0    0 -0.13999668189E+03  0.88292329283E+02 -0.12125521412E+03  0.20517659053E+03  0.00000000000E+00 0.  1.
</event>
<event>
 7    1  0.2499014E-009  0.6253828E+02  0.7561462E-02  0.1387478E+00
          2   -1    0    0  501    0  0.00000000000E+00  0.00000000000E+00  0.95045263061E+02  0.95045263061E+02  0.00000000000E+00 0. -1.
         -2   -1    0    0    0  501 -0.00000000000E+00 -0.00000000000E+00 -0.12630674540E+03  0.12630674540E+03  0.00000000000E+00 0.  1.
         25    2    1    2    0    0  0.12225351027E+02 -0.13025229099E+02 -0.11883206235E+02  0.12691448841E+03  0.12508781306E+03 0.  0.
          5    1    3    3  502    0 -0.30427581276E+02 -0.22709042598E+02  0.42406248509E+02  0.57072766103E+02  0.41800000000E+01 0. -1.
         -5    1    3    3    0  502  0.42652932303E+02  0.96838134992E+01 -0.54289454744E+02  0.69841722303E+02  0.41800000000E+01 0. -1.
        -11    1    1    2    0    0  0.13379582409E+02 -0.15665703039E+01 -0.50091866786E+02  0.51871596139E+02  0.00000000000E+00 0.  1.
         11    1    1    2    0    0 -0.25604933436E+02  0.14591799403E+02  0.30713590683E+02  0.42565923915E+02  0.00000000000E+00 0. -1.
</event>
<event>
 7    1  0.2499014E-009  0.1446596E+03  0.7561462E-02  0.1207193E+00
         -2   -1    0    0    0  501 -0.00000000000E+00  0.00000000000E+00  0.13674626935E+03  0.13674626935E+03  0.00000000000E+00 0.  1.
          2   -1    0    0  501    0  0.00000000000E+00 -0.00000000000E+00 -0.16543497036E+03  0.16543497036E+03  0.00000000000E+00 0. -1.
         25    2    1    2    0    0  0.67660231114E+02  0.67671856445E+02  0.21199865252E+02  0.15891345311E+03  0.12508662704E+03 0.  0.
          5    1    3    3  502    0  0.83754886084E+02 -0.37230016209E+01  0.15739475929E+02  0.85404596987E+02  0.41800000000E+01 0.  1.
         -5    1    3    3    0  502 -0.16094654970E+02  0.71394858066E+02  0.54603893234E+01  0.73508856123E+02  0.41800000000E+01 0.  1.
        -11    1    1    2    0    0 -0.77395930887E+02 -0.15415495530E+02 -0.42406099834E+02  0.89588196340E+02  0.00000000000E+00 0. -1.
         11    1    1    2    0    0  0.97356997729E+01 -0.52256360916E+02 -0.74824664306E+01  0.53679590256E+02  0.00000000000E+00 0.  1.
</event>
<event>
 7    1  0.2499014E-009  0.1009647E+03  0.7561462E-02  0.1278280E+00
          1   -1    0    0  501    0  0.00000000000E+00  0.00000000000E+00  0.28765334523E+03  0.28765334523E+03  0.00000000000E+00 0. -1.
         -1   -1    0    0    0  501 -0.00000000000E+00 -0.00000000000E+00 -0.46807842525E+02  0.46807842525E+02  0.00000000000E+00 0.  1.
         25    2    1    2    0    0  0.52992407973E+01 -0.13517974338E+02  0.80006273151E+02  0.14919651177E+03  0.12509107801E+03 0.  0.
          5    1    3    3  502    0  0.12238308254E+02  0.47163307323E+02  0.72593610779E+02  0.87529757640E+02  0.41800000000E+01 0. -1.
         -5    1    3    3    0  502 -0.69390674568E+01 -0.60681281661E+02  0.74126623721E+01  0.61666754128E+02  0.41800000000E+01 0. -1.
        -11    1    1    2    0    0  0.37019646618E+02 -0.15875575392E+02  0.75646534525E+02  0.85702312194E+02  0.00000000000E+00 0.  1.
         11    1    1    2    0    0 -0.42318887415E+02  0.29393549730E+02  0.85192695026E+02  0.99562363791E+02  0.00000000000E+00 0. -1.
</event>
<event>
 7    1  0.2499014E-009  0.6936232E+02  0.7561462E-02  0.1362275E+00
          4   -1    0    0  501    0  0.00000000000E+00  0.00000000000E+00  0.66435033032E+03  0.66435033032E+03  0.00000000000E+00 0. -1.
         -4   -1    0    0    0  501 -0.00000000000E+00 -0.00000000000E+00 -0.43542974010E+02  0.43542974010E+02  0.00000000000E+00 0.  1.
         25    2    1    2    0    0  0.41914088457E+01 -0.85550170983E+01  0.60214264262E+03  0.61507239646E+03  0.12509010592E+03 0.  0.
          5    1    3    3  502    0  0.30777654473E+02  0.20829146895E+02  0.53973367542E+03  0.54102775359E+03  0.41800000000E+01 0. -1.
         -5    1    3    3    0  502 -0.26586245627E+02 -0.29384163993E+02  0.62408967200E+02  0.74044642865E+02  0.41800000000E+01 0. -1.
        -11    1    1    2    0    0 -0.22213299275E+02  0.27488079046E+02 -0.24046174107E+02  0.42746270522E+02  0.00000000000E+00 0.  1.
         11    1    1    2    0    0  0.18021890430E+02 -0.18933061947E+02  0.42710887803E+02  0.50074637355E+02  0.00000000000E+00 0. -1.
</event>
<event>
 7    1  0.2499014E-009  0.9335432E+02  0.7561462E-02  0.1294926E+00
          1   -1    0    0  501    0  0.00000000000E+00  0.00000000000E+00  0.18645002457E+03  0.18645002457E+03  0.00000000000E+00 0. -1.
         -1   -1    0    0    0  501 -0.00000000000E+00 -0.00000000000E+00 -0.86763646140E+02  0.86763646140E+02  0.00000000000E+00 0.  1.
         25    2    1    2    0    0 -0.64853373505E+02  0.83085283903E+01  0.39553216169E+02  0.14658361259E+03  0.12508919566E+03 0.  0.
          5    1    3    3  502    0  0.99335472740E+01 -0.51011472543E+00  0.65836052759E+02  0.66714269998E+02  0.41800000000E+01 0. -1.
         -5    1    3    3    0  502 -0.74786920779E+02  0.88186431157E+01 -0.26282836591E+02  0.79869342587E+02  0.41800000000E+01 0. -1.
        -11    1    1    2    0    0  0.57334354119E+02 -0.38711445818E+02  0.13544540796E+02  0.70492969755E+02  0.00000000000E+00 0.  1.
         11    1    1    2    0    0  0.75190193863E+01  0.30402917428E+02  0.46588621469E+02  0.56137088373E+02  0.00000000000E+00 0. -1.
</event>
<event>
 7    1  0.2499014E-009  0.1313537E+03  0.7561462E-02  0.1225461E+00
          2   -1    0    0  501    0  0.00000000000E+00  0.00000000000E+00  0.19159738241E+03  0.19159738241E+03  0.00000000000E+00 0.  1.
         -2   -1    0    0    0  501 -0.00000000000E+00 -0.00000000000E+00 -0.28773583084E+03  0.28773583084E+03  0.00000000000E+00 0. -1.
         25    2    1    2    0    0 -0.82057549091E+02 -0.26593196527E+02 -0.24357578231E+03  0.28708428722E+03  0.12509031446E+03 0.  0.
          5    1    3    3  502    0 -0.93993187717E+02  0.24403159094E+02 -0.13375830149E+03  0.16534506079E+03  0.41800000000E+01 0.  1.
         -5    1    3    3    0  502  0.11935638626E+02 -0.50996355621E+02 -0.10981748082E+03  0.12173922642E+03  0.41800000000E+01 0.  1.
        -11    1    1    2    0    0  0.23819557895E+01 -0.20351163059E+02  0.29499716492E+01  0.20701349810E+02  0.00000000000E+00 0. -1.
         11    1    1    2    0    0  0.79675593301E+02  0.46944359586E+02  0.14448736223E+03  0.17154757623E+03  0.00000000000E+00 0.  1.
</event>
<event>
 7    1  0.2499014E-009  0.1089221E+03  0.7561462E-02  0.1262579E+00
         -1   -1    0    0    0  501 -0.00000000000E+00  0.00000000000E+00  0.93327935621E+02  0.93327935621E+02  0.00000000000E+00 0.  1.
          1   -1    0    0  501    0  0.00000000000E+00 -0.00000000000E+00 -0.14056706379E+03  0.14056706379E+03  0.00000000000E+00 0. -1.
         25    2    1    2    0    0  0.32746170351E+02 -0.14477212186E+02 -0.13903551873E+02  0.13085390475E+03  0.12509010468E+03 0.  0.
          5    1    3    3  502    0 -0.38489982074E+02 -0.36660200965E+02  0.56312612769E+01  0.53615599954E+02  0.41800000000E+01 0. -1.
         -5    1    3    3    0  502  0.71236152425E+02  0.22182988779E+02 -0.19534813150E+02  0.77238304799E+02  0.41800000000E+01 0. -1.
        -11    1    1    2    0    0  0.19672622997E+02  0.29329052505E+02  0.60279590561E+01  0.35826550306E+02  0.00000000000E+00 0.  1.
         11    1    1    2    0    0 -0.52418793348E+02 -0.14851840319E+02 -0.39363535350E+02  0.67214544349E+02  0.00000000000E+00 0. -1.
</event>
<event>
 7    1  0.2499014E-009  0.2890701E+03  0.7561462E-02  0.1090836E+00
          1   -1    0    0  501    0  0.00000000000E+00  0.00000000000E+00  0.78869823230E+02  0.78869823230E+02  0.00000000000E+00 0. -1.
         -1   -1    0    0    0  501 -0.00000000000E+00 -0.00000000000E+00 -0.11398081010E+04  0.11398081010E+04  0.00000000000E+00 0.  1.
         25    2    1    2    0    0 -0.12752977676E+03 -0.24411778943E+03 -0.63528742434E+03  0.70363009572E+03  0.12509141060E+03 0.  0.
          5    1    3    3  502    0  0.12343654901E+01 -0.10513617927E+03 -0.30746861994E+03  0.32497625221E+03  0.41800000000E+01 0. -1.
         -5    1    3    3    0  502 -0.12876414225E+03 -0.13898161016E+03 -0.32781880440E+03  0.37865384351E+03  0.41800000000E+01 0. -1.
        -11    1    1    2    0    0  0.12616879092E+03  0.18303415562E+03 -0.28308038994E+03  0.35993690155E+03  0.00000000000E+00 0. -1.
         11    1    1    2    0    0  0.13609858400E+01  0.61083633808E+02 -0.14257046344E+03  0.15511092692E+03  0.00000000000E+00 0.  1.
</event>
<event>
 7    1  0.2499014E-009  0.1233078E+03  0.7561462E-02  0.1237738E+00
         -2   -1    0    0    0  501 -0.00000000000E+00  0.00000000000E+00  0.28249187792E+02  0.28249187792E+02  0.00000000000E+00 0.  1.
          2   -1    0    0  501    0  0.00000000000E+00 -0.00000000000E+00 -0.79602078584E+03  0.79602078584E+03  0.00000000000E+00 0. -1.
         25    2    1    2    0    0 -0.47574282870E+01 -0.16903444935E+02 -0.58096383422E+03  0.59453658958E+03  0.12508565106E+03 0.  0.
          5    1    3    3  502    0 -0.19306470057E+02  0.51343133616E+02 -0.21286087598E+03  0.21985468400E+03  0.41800000000E+01 0. -1.
         -5    1    3    3    0  502  0.14549041770E+02 -0.68246578550E+02 -0.36810295824E+03  0.37468190558E+03  0.41800000000E+01 0. -1.
        -11    1    1    2    0    0 -0.57755848786E+02  0.12029986954E+02 -0.43470147685E+02  0.73281050722E+02  0.00000000000E+00 0.  1.
         11    1    1    2    0    0  0.62513277073E+02  0.48734579807E+01 -0.14333761614E+03  0.15645233333E+03  0.00000000000E+00 0. -1.
</event>
<event>
 7    1  0.2499014E-009  0.1423584E+03  0.7561462E-02  0.1210190E+00
         -4   -1    0    0    0  501 -0.00000000000E+00  0.00000000000E+00  0.10342082344E+03  0.10342082344E+03  0.00000000000E+00 0. -1.
          4   -1    0    0  501    0  0.00000000000E+00 -0.00000000000E+00 -0.34996590451E+03  0.34996590451E+03  0.00000000000E+00 0.  1.
         25    2    1    2    0    0 -0.67503770592E+02 -0.10825435011E+03 -0.24872850638E+02  0.18039802480E+03  0.12509606425E+03 0.  0.
          5    1    3    3  502    0 -0.34980721267E+02  0.49783135602E-02  0.37311899303E+02  0.51315700470E+02  0.41800000000E+01 0.  1.
         -5    1    3    3    0  502 -0.32523049325E+02 -0.10825932843E+03 -0.62184749942E+02  0.12908232433E+03  0.41800000000E+01 0.  1.
        -11    1    1    2    0    0  0.37839298532E+02  0.19051204853E+02 -0.13317414124E+02  0.44408495119E+02  0.00000000000E+00 0. -1.
         11    1    1    2    0    0  0.29664472060E+02  0.89203145260E+02 -0.20835481631E+03  0.22858020804E+03  0.00000000000E+00 0.  1.
</event>
<event>
 7    1  0.2499014E-009  0.1101711E+03  0.7561462E-02  0.1260253E+00
          1   -1    0    0  501    0  0.00000000000E+00  0.00000000000E+00  0.65436337683E+02  0.65436337683E+02  0.00000000000E+00 0. -1.
         -1   -1    0    0    0  501 -0.00000000000E+00 -0.00000000000E+00 -0.35575675303E+03  0.35575675303E+03  0.00000000000E+00 0.  1.
         25    2    1    2    0    0 -0.30634967807E+02  0.61662561982E+02 -0.27455333995E+03  0.30946269704E+03  0.12508737578E+03 0.  0.
          5    1    3    3  502    0  0.23182721243E+02 -0.15108877734E+02 -0.11655118840E+02  0.30315523182E+02  0.41800000000E+01 0.  1.
         -5    1    3    3    0  502 -0.53817689050E+02  0.76771439716E+02 -0.26289822111E+03  0.27914717386E+03  0.41800000000E+01 0.  1.
        -11    1    1    2    0    0 -0.91093662610E+01 -0.57870018488E+02  0.15978718530E+02  0.60722640254E+02  0.00000000000E+00 0. -1.
         11    1    1    2    0    0  0.39744334068E+02 -0.37925434935E+01 -0.31745793924E+02  0.51007753416E+02  0.00000000000E+00 0.  1.
</event>
<event>
 7    1  0.2499014E-009  0.1811666E+03  0.7561462E-02  0.1166679E+00
          1   -1    0    0  501    0  0.00000000000E+00  0.00000000000E+00  0.14139221733E+04  0.14139221733E+04  0.00000000000E+00 0. -1.
         -1   -1    0    0    0  501 -0.00000000000E+00 -0.00000000000E+00 -0.30480194397E+02  0.30480194397E+02  0.00000000000E+00 0.  1.
         25    2    1    2    0    0 -0.11401826392E+03 -0.12963746579E+03  0.57804774119E+03  0.61611087202E+03  0.12508948188E+03 0.  0.
          5    1    3    3  502    0 -0.50151328260E+02 -0.38174525175E+02  0.63402466128E+02  0.89497459236E+02  0.41800000000E+01 0.  1.
         -5    1    3    3    0  502 -0.63866935656E+02 -0.91462940619E+02  0.51464527506E+03  0.52661341278E+03  0.41800000000E+01 0.  1.
        -11    1    1    2    0    0  0.72923254049E+02  0.28371967268E+02  0.44001616625E+03  0.44691945143E+03  0.00000000000E+00 0.  1.
         11    1    1    2    0    0  0.41095009867E+02  0.10126549853E+03  0.36537807147E+03  0.38137204426E+03  0.00000000000E+00 0. -1.
</event>
<event>
 7    1  0.2499014E-009  0.1100842E+03  0.7561462E-02  0.1260414E+00
         -2   -1    0    0    0  501 -0.00000000000E+00  0.00000000000E+00  0.25260638513E+03  0.25260638513E+03  0.00000000000E+00 0.  1.
          2   -1    0    0  501    0  0.00000000000E+00 -0.00000000000E+00 -0.62159522961E+02  0.62159522961E+02  0.00000000000E+00 0. -1.
         25    2    1    2    0    0 -0.38136660220E+02  0.30009972544E+00  0.16711091653E+03  0.21219716179E+03  0.12508829736E+03 0.  0.
          5    1    3    3  502    0 -0.19763782936E+02 -0.59344581682E+02  0.11417885393E+03  0.13025616905E+03  0.41800000000E+01 0.  1.
         -5    1    3    3    0  502 -0.18372877284E+02  0.59644681408E+02  0.52932062599E+02  0.81940992738E+02  0.41800000000E+01 0.  1.
        -11    1    1    2    0    0 -0.28126333952E+02  0.45392214482E+01 -0.72932897413E+01  0.29408965779E+02  0.00000000000E+00 0.  1.
         11    1    1    2    0    0  0.66262994172E+02 -0.48393211736E+01  0.30629235381E+02  0.73159780523E+02  0.00000000000E+00 0. -1.
</event>
<event>
 7    1  0.2499014E-009  0.2204785E+03  0.7561462E-02  0.1133527E+00
         -2   -1    0    0    0  501 -0.00000000000E+00  0.00000000000E+00  0.23489955924E+02  0.23489955924E+02  0.00000000000E+00 0.  1.
          2   -1    0    0  501    0  0.00000000000E+00 -0.00000000000E+00 -0.30397382940E+04  0.30397382940E+04  0.00000000000E+00 0. -1.
         25    2    1    2    0    0  0.19050507902E+03  0.97006865204E+02 -0.22926087760E+04  0.23059496437E+04  0.12508494083E+03 0.  0.
          5    1    3    3  502    0  0.15497288571E+03  0.59819215361E+02 -0.11254999301E+04  0.11377005313E+04  0.41800000000E+01 0. -1.
         -5    1    3    3    0  502  0.35532193312E+02  0.37187649843E+02 -0.11671088459E+04  0.11682491124E+04  0.41800000000E+01 0. -1.
        -11    1    1    2    0    0 -0.98692440768E+02 -0.85641913706E+02 -0.41967778491E+03  0.43954997258E+03  0.00000000000E+00 0.  1.
         11    1    1    2    0    0 -0.91812638255E+02 -0.11364951498E+02 -0.30396177725E+03  0.31772863373E+03  0.00000000000E+00 0. -1.
</event>
<event>
 7    1  0.2499014E-009  0.2798875E+03  0.7561462E-02  0.1095750E+00
          2   -1    0    0  501    0  0.00000000000E+00  0.00000000000E+00  0.40277235808E+03  0.40277235808E+03  0.00000000000E+00 0.  1.
         -2   -1    0    0    0  501 -0.00000000000E+00 -0.00000000000E+00 -0.19725188479E+03  0.19725188479E+03  0.00000000000E+00 0. -1.
         25    2    1    2    0    0  0.13668280012E+02  0.26014862451E+03  0.10687268040E+03  0.30811372881E+03  0.12509265106E+03 0.  0.
          5    1    3    3  502    0  0.61008508026E+02  0.20994279852E+03  0.92903265505E+02  0.23758473403E+03  0.41800000000E+01 0. -1.
         -5    1    3    3    0  502 -0.47340228014E+02  0.50205825987E+02  0.13969414893E+02  0.70528994775E+02  0.41800000000E+01 0. -1.
        -11    1    1    2    0    0 -0.41048786770E+02 -0.21717666121E+03  0.95760578763E+02  0.24087505789E+03  0.00000000000E+00 0. -1.
         11    1    1    2    0    0  0.27380506758E+02 -0.42971963303E+02  0.28872141295E+01  0.51035456164E+02  0.00000000000E+00 0.  1.
</event>
<event>
 7    1  0.2499014E-009  0.7978178E+02  0.7561462E-02  0.1329672E+00
         -1   -1    0    0    0  501 -0.00000000000E+00  0.00000000000E+00  0.29748300959E+02  0.29748300959E+02  0.00000000000E+00 0.  1.
          1   -1    0    0  501    0  0.00000000000E+00 -0.00000000000E+00 -0.27638326253E+04  0.27638326253E+04  0.00000000000E+00 0. -1.
         25    2    1    2    0    0 -0.54603240001E+02  0.11253812876E+02 -0.26565435287E+04  0.26600713372E+04  0.12509131379E+03 0.  0.
          5    1    3    3  502    0  0.14174472957E+02 -0.10054632937E+02 -0.19030254126E+04  0.19031093518E+04  0.41800000000E+01 0.  1.
         -5    1    3    3    0  502 -0.68777712958E+02  0.21308445813E+02 -0.75351811610E+03  0.75696198541E+03  0.41800000000E+01 0.  1.
        -11    1    1    2    0    0  0.85523013642E+01  0.14476202566E+02  0.17839080307E+02  0.24513977351E+02  0.00000000000E+00 0.  1.
         11    1    1    2    0    0  0.46050938637E+02 -0.25730015443E+02 -0.95379875948E+02  0.10899561175E+03  0.00000000000E+00 0. -1.
</event>
<event>
 7    1  0.2499014E-009  0.7687799E+02  0.7561462E-02  0.1338152E+00
          2   -1    0    0  501    0  0.00000000000E+00  0.00000000000E+00  0.91075281468E+03  0.91075281468E+03  0.00000000000E+00 0. -1.
         -2   -1    0    0    0  501 -0.00000000000E+00 -0.00000000000E+00 -0.13178783356E+02  0.13178783356E+02  0.00000000000E+00 0.  1.
         25    2    1    2    0    0 -0.69556355386E+01 -0.12870328846E+02  0.54010553185E+03  0.55459472282E+03  0.12508914747E+03 0.  0.
          5    1    3    3  502    0 -0.16645863545E+02 -0.35323895826E+02  0.52296974317E+03  0.52444226284E+03  0.41800000000E+01 0.  1.
         -5    1    3    3    0  502  0.96902280064E+01  0.22453566980E+02  0.17135788686E+02  0.30152459980E+02  0.41800000000E+01 0.  1.
        -11    1    1    2    0    0  0.26229730650E+02 -0.31681869591E+02  0.11703779065E+03  0.12405476238E+03  0.00000000000E+00 0. -1.
         11    1    1    2    0    0 -0.19274095111E+02  0.44552198436E+02  0.24043070883E+03  0.24528211283E+03  0.00000000000E+00 0.  1.
</event>
<event>
 7    1  0.2499014E-009  0.1860652E+03  0.7561462E-02  0.1162059E+00
         -1   -1    0    0    0  501 -0.00000000000E+00  0.00000000000E+00  0.38184631074E+02  0.38184631074E+02  0.00000000000E+00 0.  1.
          1   -1    0    0  501    0  0.00000000000E+00 -0.00000000000E+00 -0.10572048473E+04  0.10572048473E+04  0.00000000000E+00 0. -1.
         25    2    1    2    0    0  0.83444539472E+02  0.13905084591E+03 -0.65919678810E+03  0.69027968960E+03  0.12509002964E+03 0.  0.
          5    1    3    3  502    0  0.97645976925E+02  0.14266607527E+03 -0.47582631112E+03  0.50627709468E+03  0.41800000000E+01 0. -1.
         -5    1    3    3    0  502 -0.14201437453E+02 -0.36152293607E+01 -0.18337047699E+03  0.18400259493E+03  0.41800000000E+01 0. -1.
        -11    1    1    2    0    0 -0.97650829447E+02 -0.89673772893E+02 -0.22978691458E+03  0.26529058813E+03  0.00000000000E+00 0.  1.
         11    1    1    2    0    0  0.14206289974E+02 -0.49377073018E+02 -0.13003651355E+03  0.13981920065E+03  0.00000000000E+00 0. -1.
</event>
<event>
 7    1  0.2499014E-009  0.3839082E+03  0.7561462E-02  0.1049499E+00
          2   -1    0    0  501    0  0.00000000000E+00  0.00000000000E+00  0.62255534457E+03  0.62255534457E+03  0.00000000000E+00 0. -1.
         -2   -1    0    0    0  501 -0.00000000000E+00 -0.00000000000E+00 -0.49282978462E+03  0.49282978462E+03  0.00000000000E+00 0.  1.
         25    2    1    2    0    0 -0.31944356690E+03  0.18724484188E+03 -0.33451839526E+03  0.51444565221E+03  0.12508776543E+03 0.  0.
          5    1    3    3  502    0 -0.28049211503E+03  0.11327202585E+03 -0.29240530444E+03  0.42074304854E+03  0.41800000000E+01 0. -1.
         -5    1    3    3    0  502 -0.38951451876E+02  0.73972816032E+02 -0.42113090818E+02  0.93702603663E+02  0.41800000000E+01 0. -1.
        -11    1    1    2    0    0  0.12228456476E+03 -0.12491053112E+03  0.21360644127E+03  0.27601425202E+03  0.00000000000E+00 0.  1.
         11    1    1    2    0    0  0.19715900214E+03 -0.62334310759E+02  0.25063751394E+03  0.32492522496E+03  0.00000000000E+00 0. -1.
</event>
<event>
 7    1  0.2499014E-009  0.1337728E+03  0.7561462E-02  0.1221963E+00
          2   -1    0    0  501    0  0.00000000000E+00  0.00000000000E+00  0.23058830999E+03  0.23058830999E+03  0.00000000000E+00 0. -1.
         -2   -1    0    0    0  501 -0.00000000000E+00 -0.00000000000E+00 -0.10949401447E+03  0.10949401447E+03  0.00000000000E+00 0.  1.
         25    2    1    2    0    0 -0.90412967427E+02 -0.54138374054E+02  0.10576143463E+02  0.16390636602E+03  0.12509186139E+03 0.  0.
          5    1    3    3  502    0  0.17819850964E+02 -0.47619467155E+02 -0.13470235041E+02  0.52764385457E+02  0.41800000000E+01 0.  1.
         -5    1    3    3    0  502 -0.10823281839E+03 -0.65189068986E+01  0.24046378504E+02  0.11114198056E+03  0.41800000000E+01 0.  1.
        -11    1    1    2    0    0  0.47215450991E+02  0.14499093131E+02 -0.18568837048E+01  0.49426415316E+02  0.00000000000E+00 0.  1.
         11    1    1    2    0    0  0.43197516436E+02  0.39639280923E+02  0.11237503577E+03  0.12674954312E+03  0.00000000000E+00 0. -1.
</event>
<event>
 7    1  0.2499014E-009  0.1019516E+03  0.7561462E-02  0.1276245E+00
          1   -1    0    0  501    0  0.00000000000E+00  0.00000000000E+00  0.13354526158E+03  0.13354526158E+03  0.00000000000E+00 0. -1.
         -1   -1    0    0    0  501 -0.00000000000E+00 -0.00000000000E+00 -0.14695901549E+03  0.14695901549E+03  0.00000000000E+00 0.  1.
         25    2    1    2    0    0  0.56626043340E+02  0.34880562689E+02 -0.62629936413E+02  0.15489538870E+03  0.12508760956E+03 0.  0.
          5    1    3    3  502    0  0.93915738897E+02  0.17696157019E+02 -0.61275219745E+02  0.11360213440E+03  0.41800000000E+01 0.  1.
         -5    1    3    3    0  502 -0.37289695557E+02  0.17184405670E+02 -0.13547166682E+01  0.41293254294E+02  0.41800000000E+01 0.  1.
        -11    1    1    2    0    0 -0.19130260771E+02 -0.16263469516E+02 -0.28101677291E+02  0.37685163983E+02  0.00000000000E+00 0.  1.
         11    1    1    2    0    0 -0.37495782569E+02 -0.18617093173E+02  0.77317859787E+02  0.87923724390E+02  0.00000000000E+00 0. -1.
</event>
<event>
 7    1  0.2499014E-009  0.9218337E+02  0.7561462E-02  0.1297649E+00
         -1   -1    0    0    0  501 -0.00000000000E+00  0.00000000000E+00  0.93337881313E+01  0.93337881313E+01  0.00000000000E+00 0.  1.
          1   -1    0    0  501    0  0.00000000000E+00 -0.00000000000E+00 -0.15008862573E+04  0.15008862573E+04  0.00000000000E+00 0. -1.
         25    2    1    2    0    0  0.21976084007E+02 -0.57075075522E+01 -0.11101349459E+04  0.11173909243E+04  0.12508939095E+03 0.  0.
          5    1    3    3  502    0  0.55428385993E+02  0.44440649710E+01 -0.10044306239E+04  0.10059773389E+04  0.41800000000E+01 0.  1.
         -5    1    3    3    0  502 -0.33452301986E+02 -0.10151572523E+02 -0.10570432196E+03  0.11141358541E+03  0.41800000000E+01 0.  1.
        -11    1    1    2    0    0  0.34831683252E+02 -0.61323642932E+01 -0.16654539646E+03  0.17025927620E+03  0.00000000000E+00 0.  1.
         11    1    1    2    0    0 -0.56807767260E+02  0.11839871845E+02 -0.21487212685E+03  0.22256984495E+03  0.00000000000E+00 0. -1.
</event>
<event>
 7    1  0.2499014E-009  0.1099202E+03  0.7561462E-02  0.1260718E+00
         -4   -1    0    0    0  501 -0.00000000000E+00  0.00000000000E+00  0.19272581810E+02  0.19272581810E+02  0.00000000000E+00 0. -1.
          4   -1    0    0  501    0  0.00000000000E+00 -0.00000000000E+00 -0.89489455638E+03  0.89489455638E+03  0.00000000000E+00 0.  1.
         25    2    1    2    0    0  0.58757551084E+02 -0.43408767429E+02 -0.52260326456E+03  0.54230782307E+03  0.12508729726E+03 0.  0.
          5    1    3    3  502    0  0.61411956061E+02 -0.18322991479E+01 -0.98657437091E+02  0.11629938934E+03  0.41800000000E+01 0. -1.
         -5    1    3    3    0  502 -0.26544049778E+01 -0.41576468282E+02 -0.42394582747E+03  0.42600843373E+03  0.41800000000E+01 0. -1.
        -11    1    1    2    0    0 -0.59648770458E+02  0.68757068322E+02 -0.26142555554E+03  0.27681913112E+03  0.00000000000E+00 0.  1.
         11    1    1    2    0    0  0.89121937432E+00 -0.25348300893E+02 -0.91593154472E+02  0.95040184008E+02  0.00000000000E+00 0. -1.
</event>
<event>
 7    1  0.2499014E-009  0.2051022E+03  0.7561462E-02  0.1145504E+00
         -1   -1    0    0    0  501 -0.00000000000E+00  0.00000000000E+00  0.46861680006E+02  0.46861680006E+02  0.00000000000E+00 0.  1.
          1   -1    0    0  501    0  0.00000000000E+00 -0.00000000000E+00 -0.11306945622E+04  0.11306945622E+04  0.00000000000E+00 0. -1.
         25    2    1    2    0    0 -0.13205970218E+03 -0.14217288443E+03 -0.71634753075E+03  0.75263092680E+03  0.12508650270E+03 0.  0.
          5    1    3    3  502    0 -0.10267989304E+02 -0.36788252218E+02 -0.33314420993E+02  0.50854008217E+02  0.41800000000E+01 0.  1.
         -5    1    3    3    0  502 -0.12179171288E+03 -0.10538463221E+03 -0.68303310976E+03  0.70177691859E+03  0.41800000000E+01 0.  1.
        -11    1    1    2    0    0  0.12896871876E+03  0.87359378020E+02 -0.29907294234E+03  0.33720797171E+03  0.00000000000E+00 0.  1.
         11    1    1    2    0    0  0.30909834154E+01  0.54813506412E+02 -0.68412409075E+02  0.87717343662E+02  0.00000000000E+00 0. -1.
</event>
<event>
 7    1  0.2499014E-009  0.1131361E+03  0.7561462E-02  0.1254870E+00
          2   -1    0    0  501    0  0.00000000000E+00  0.00000000000E+00  0.69305387707E+03  0.69305387707E+03  0.00000000000E+00 0. -1.
         -2   -1    0    0    0  501 -0.00000000000E+00 -0.00000000000E+00 -0.22423094486E+02  0.22423094486E+02  0.00000000000E+00 0.  1.
         25    2    1    2    0    0 -0.32153724526E+02  0.51915925834E+02  0.31608630872E+03  0.34538075673E+03  0.12509271441E+03 0.  0.
          5    1    3    3  502    0  0.20366480783E+02  0.69221088520E+02  0.10742261592E+03  0.12947371720E+03  0.41800000000E+01 0. -1.
         -5    1    3    3    0  502 -0.52520205309E+02 -0.17305162686E+02  0.20866369281E+03  0.21590703953E+03  0.41800000000E+01 0. -1.
        -11    1    1    2    0    0 -0.16724846164E+02 -0.46435818890E+02  0.24636733822E+03  0.25126255411E+03  0.00000000000E+00 0. -1.
         11    1    1    2    0    0  0.48878570690E+02 -0.54801069437E+01  0.10817713563E+03  0.11883366071E+03  0.00000000000E+00 0.  1.
</event>
<event>
 7    1  0.2499014E-009  0.1142900E+03  0.7561462E-02  0.1252826E+00
         -1   -1    0    0    0  501 -0.00000000000E+00  0.00000000000E+00  0.19427576456E+03  0.19427576456E+03  0.00000000000E+00 0.  1.
          1   -1    0    0  501    0  0.00000000000E+00 -0.00000000000E+00 -0.83756260238E+02  0.83756260238E+02  0.00000000000E+00 0. -1.
         25    2    1    2    0    0  0.67368486295E+02 -0.13603921213E+01  0.55763023594E+02  0.15263423866E+03  0.12508929769E+03 0.  0.
          5    1    3    3  502    0  0.64649399764E+02 -0.46091556952E+02 -0.18446356254E+01  0.79528935569E+02  0.41800000000E+01 0. -1.
         -5    1    3    3    0  502  0.27190865314E+01  0.44731164831E+02  0.57607659219E+02  0.73105303087E+02  0.41800000000E+01 0. -1.
        -11    1    1    2    0    0  0.15412238923E+02  0.13386956035E+02  0.33267849115E+02  0.39032005909E+02  0.00000000000E+00 0.  1.
         11    1    1    2    0    0 -0.82780725219E+02 -0.12026563914E+02  0.21488631617E+02  0.86365780238E+02  0.00000000000E+00 0. -1.
</event>
<event>
 7    1  0.2499014E-009  0.8319887E+02  0.7561462E-02  0.1320211E+00
         -1   -1    0    0    0  501 -0.00000000000E+00  0.00000000000E+00  0.31086739355E+02  0.31086739355E+02  0.00000000000E+00 0.  1.
          1   -1    0    0  501    0  0.00000000000E+00 -0.00000000000E+00 -0.45266591918E+03  0.45266591918E+03  0.00000000000E+00 0. -1.
         25    2    1    2    0    0 -0.39561195741E+02  0.12027944109E+02 -0.28936830341E+03  0.31794898148E+03  0.12509108742E+03 0.  0.
          5    1    3    3  502    0 -0.13924349341E+02  0.36861902700E+02 -0.27718536040E+03  0.28000336390E+03  0.41800000000E+01 0.  1.
         -5    1    3    3    0  502 -0.25636846400E+02 -0.24833958591E+02 -0.12182943013E+02  0.37945617575E+02  0.41800000000E+01 0.  1.
        -11    1    1    2    0    0 -0.20028970981E+02  0.15372180046E+02 -0.10099817757E+02  0.27193196146E+02  0.00000000000E+00 0.  1.
         11    1    1    2    0    0  0.59590166722E+02 -0.27400124155E+02 -0.12211105866E+03  0.13861048092E+03  0.00000000000E+00 0. -1.
</event>
<event>
 7    1  0.2499014E-009  0.1587248E+03  0.7561462E-02  0.1190144E+00
         -1   -1    0    0    0  501 -0.00000000000E+00  0.00000000000E+00  0.10708351464E+03  0.10708351464E+03  0.00000000000E+00 0.  1.
          1   -1    0    0  501    0  0.00000000000E+00 -0.00000000000E+00 -0.30754459370E+03  0.30754459370E+03  0.00000000000E+00 0. -1.
         25    2    1    2    0    0  0.29371574672E+02  0.13353605607E+03 -0.42938452191E+02  0.19022461483E+03  0.12508847165E+03 0.  0.
          5    1    3    3  502    0  0.21771910220E+02 -0.18178549269E+02  0.83160607838E+01  0.29851381796E+02  0.41800000000E+01 0.  1.
         -5    1    3    3    0  502  0.75996644517E+01  0.15171460534E+03 -0.51254512974E+02  0.16037323303E+03  0.41800000000E+01 0.  1.
        -11    1    1    2    0    0 -0.11040818296E+02 -0.61669526859E+02 -0.13174729628E+03  0.14588481857E+03  0.00000000000E+00 0. -1.
         11    1    1    2    0    0 -0.18330756375E+02 -0.71866529208E+02 -0.25775330594E+02  0.78518674956E+02  0.00000000000E+00 0.  1.
</event>
<event>
 7    1  0.2499014E-009  0.1074214E+03  0.7561462E-02  0.1265421E+00
          1   -1    0    0  501    0  0.00000000000E+00  0.00000000000E+00  0.60335628544E+03  0.60335628544E+03  0.00000000000E+00 0.  1.
         -1   -1    0    0    0  501 -0.00000000000E+00 -0.00000000000E+00 -0.26713566462E+02  0.26713566462E+02  0.00000000000E+00 0. -1.
         25    2    1    2    0    0 -0.21026134115E+02 -0.34199729412E+02  0.19097770806E+03  0.23180331198E+03  0.12509424712E+03 0.  0.
          5    1    3    3  502    0 -0.65271713352E+02 -0.32061556238E+02  0.62980190371E+02  0.96292869577E+02  0.41800000000E+01 0.  1.
         -5    1    3    3    0  502  0.44245579237E+02 -0.21381731732E+01  0.12799751769E+03  0.13551044241E+03  0.41800000000E+01 0.  1.
        -11    1    1    2    0    0  0.29863524200E+02  0.61740627632E+02  0.30370202950E+03  0.31134973567E+03  0.00000000000E+00 0.  1.
         11    1    1    2    0    0 -0.88373900855E+01 -0.27540898220E+02  0.81962981414E+02  0.86916804247E+02  0.00000000000E+00 0. -1.
</event>
<event>
 7    1  0.2499014E-009  0.1106771E+03  0.7561462E-02  0.1259321E+00
         -2   -1    0    0    0  501 -0.00000000000E+00  0.00000000000E+00  0.39903985755E+02  0.39903985755E+02  0.00000000000E+00 0. -1.
          2   -1    0    0  501    0  0.00000000000E+00 -0.00000000000E+00 -0.33491232821E+03  0.33491232821E+03  0.00000000000E+00 0.  1.
         25    2    1    2    0    0  0.18898980531E+02 -0.28019886513E+02 -0.12603837378E+03  0.18075599716E+03  0.12507906835E+03 0.  0.
          5    1    3    3  502    0 -0.24560634144E+02  0.39967014980E+02 -0.32872200420E+02  0.57433796639E+02  0.41800000000E+01 0. -1.
         -5    1    3    3    0  502  0.43459614675E+02 -0.67986901494E+02 -0.93166173362E+02  0.12332220052E+03  0.41800000000E+01 0. -1.
        -11    1    1    2    0    0  0.20935594304E+02  0.45402796696E+02 -0.70536679215E+02  0.86458869825E+02  0.00000000000E+00 0. -1.
         11    1    1    2    0    0 -0.39834574835E+02 -0.17382910183E+02 -0.98433289462E+02  0.10760144698E+03  0.00000000000E+00 0.  1.
</event>
<event>
 7    1  0.2499014E-009  0.7336399E+02  0.7561462E-02  0.1349013E+00
          2   -1    0    0  501    0  0.00000000000E+00  0.00000000000E+00  0.31202326455E+03  0.31202326455E+03  0.00000000000E+00 0. -1.
         -2   -1    0    0    0  501 -0.00000000000E+00 -0.00000000000E+00 -0.71077370021E+02  0.71077370021E+02  0.00000000000E+00 0.  1.
         25    2    1    2    0    0  0.38438156231E+02  0.41444013392E+02  0.22243589089E+02  0.13905828513E+03  0.12508929334E+03 0.  0.
          5    1    3    3  502    0  0.46364996848E+02  0.17046522046E+02 -0.45008024525E+02  0.66958879308E+02  0.41800000000E+01 0. -1.
         -5    1    3    3    0  502 -0.79268406170E+01  0.24397491346E+02  0.67251613615E+02  0.72099405822E+02  0.41800000000E+01 0. -1.
        -11    1    1    2    0    0  0.66464164456E+01 -0.20307629725E+02  0.17386447188E+01  0.21438226654E+02  0.00000000000E+00 0.  1.
         11    1    1    2    0    0 -0.45084572676E+02 -0.21136383667E+02  0.21696366073E+03  0.22260412279E+03  0.00000000000E+00 0. -1.
</event>
<event>
 7    1  0.2499014E-009  0.1031297E+03  0.7561462E-02  0.1273849E+00
          2   -1    0    0  501    0  0.00000000000E+00  0.00000000000E+00  0.87979058345E+03  0.87979058345E+03  0.00000000000E+00 0. -1.
         -2   -1    0    0    0  501 -0.00000000000E+00 -0.00000000000E+00 -0.14352045583E+02  0.14352045583E+02  0.00000000000E+00 0.  1.
         25    2    1    2    0    0 -0.15268922118E+02  0.22074315045E+02  0.53757047617E+03  0.55258892522E+03  0.12510830532E+03 0.  0.
          5    1    3    3  502    0 -0.61481483203E+02  0.20397045236E+02  0.16784815940E+03  0.17996246622E+03  0.41800000000E+01 0.  1.
         -5    1    3    3    0  502  0.46212561084E+02  0.16772698090E+01  0.36972231677E+03  0.37262645901E+03  0.41800000000E+01 0.  1.
        -11    1    1    2    0    0  0.33078165560E+02  0.27007678201E+02  0.12587103240E+03  0.13291763057E+03  0.00000000000E+00 0. -1.
         11    1    1    2    0    0 -0.17809243442E+02 -0.49081993246E+02  0.20199702930E+03  0.20863607324E+03  0.00000000000E+00 0.  1.
</event>
<event>
 7    1  0.2499014E-009  0.1442616E+03  0.7561462E-02  0.1207707E+00
         -1   -1    0    0    0  501 -0.00000000000E+00  0.00000000000E+00  0.75016516407E+02  0.75016516407E+02  0.00000000000E+00 0.  1.
          1   -1    0    0  501    0  0.00000000000E+00 -0.00000000000E+00 -0.33617274715E+03  0.33617274715E+03  0.00000000000E+00 0. -1.
         25    2    1    2    0    0 -0.81546818309E+01 -0.96816359514E+02 -0.21768410055E+03  0.26920891089E+03  0.12508862363E+03 0.  0.
          5    1    3    3  502    0 -0.56129544647E+01  0.29917772356E+02 -0.32177454674E+02  0.44490890639E+02  0.41800000000E+01 0. -1.
         -5    1    3    3    0  502 -0.25417273662E+01 -0.12673413187E+03 -0.18550664588E+03  0.22471802025E+03  0.41800000000E+01 0. -1.
        -11    1    1    2    0    0  0.31830890877E+02  0.55159690451E+00 -0.26463185875E+02  0.41398189331E+02  0.00000000000E+00 0. -1.
         11    1    1    2    0    0 -0.23676209046E+02  0.96264762610E+02 -0.17008944313E+02  0.10058216334E+03  0.00000000000E+00 0.  1.
</event>
<event>
 7    1  0.2499014E-009  0.3551264E+03  0.7561462E-02  0.1060530E+00
          1   -1    0    0  501    0  0.00000000000E+00  0.00000000000E+00  0.85183487533E+03  0.85183487533E+03  0.00000000000E+00 0. -1.
         -1   -1    0    0    0  501 -0.00000000000E+00 -0.00000000000E+00 -0.15942968247E+03  0.15942968247E+03  0.00000000000E+00 0.  1.
         25    2    1    2    0    0  0.20297220878E+03 -0.27994024150E+03  0.26056646971E+03  0.45067323200E+03  0.12508885067E+03 0.  0.
          5    1    3    3  502    0  0.21753315344E+03 -0.25753945505E+03  0.25583219157E+03  0.42321959595E+03  0.41800000000E+01 0.  1.
         -5    1    3    3    0  502 -0.14560944663E+02 -0.22400786447E+02  0.47342781393E+01  0.27453636051E+02  0.41800000000E+01 0.  1.
        -11    1    1    2    0    0 -0.84761938418E+02  0.10517898665E+03  0.10293374470E+03  0.16983097843E+03  0.00000000000E+00 0.  1.
         11    1    1    2    0    0 -0.11821027036E+03  0.17476125485E+03  0.32890497846E+03  0.39076034736E+03  0.00000000000E+00 0. -1.
</event>
<event>
 7    1  0.2499014E-009  0.1327897E+03  0.7561462E-02  0.1223374E+00
          4   -1    0    0  501    0  0.00000000000E+00  0.00000000000E+00  0.88248909424E+03  0.88248909424E+03  0.00000000000E+00 0. -1.
         -4   -1    0    0    0  501 -0.00000000000E+00 -0.00000000000E+00 -0.25823948776E+02  0.25823948776E+02  0.00000000000E+00 0.  1.
         25    2    1    2    0    0  0.94561750663E+02  0.37450550968E+02  0.38542372194E+03  0.41778419836E+03  0.12509085703E+03 0.  0.
          5    1    3    3  502    0  0.11243443022E+03  0.48920544086E+02  0.22830891066E+03  0.25918555480E+03  0.41800000000E+01 0. -1.
         -5    1    3    3    0  502 -0.17872679553E+02 -0.11469993118E+02  0.15711481128E+03  0.15859864356E+03  0.41800000000E+01 0. -1.
        -11    1    1    2    0    0  0.27874277789E+01 -0.22601518690E+02  0.26159191370E+02  0.34682873207E+02  0.00000000000E+00 0.  1.
         11    1    1    2    0    0 -0.97349178441E+02 -0.14849032278E+02  0.44508223216E+03  0.45584597145E+03  0.00000000000E+00 0. -1.
</event>
<event>
 7    1  0.2499014E-009  0.7943174E+02  0.7561462E-02  0.1330672E+00
          2   -1    0    0  501    0  0.00000000000E+00  0.00000000000E+00  0.43632587532E+03  0.43632587532E+03  0.00000000000E+00 0. -1.
         -2   -1    0    0    0  501 -0.00000000000E+00 -0.00000000000E+00 -0.29312732830E+02  0.29312732830E+02  0.00000000000E+00 0.  1.
         25    2    1    2    0    0 -0.90583464912E+01  0.79094947639E+01  0.30183593810E+03  0.32695024979E+03  0.12508764349E+03 0.  0.
          5    1    3    3  502    0 -0.37404872177E+02  0.14791957844E+02  0.22923293995E+02  0.46485226546E+02  0.41800000000E+01 0.  1.
         -5    1    3    3    0  502  0.28346525686E+02 -0.68824630797E+01  0.27891264411E+03  0.28046502324E+03  0.41800000000E+01 0.  1.
        -11    1    1    2    0    0 -0.23698349658E+02  0.30403296419E+02  0.58042336594E+02  0.69677005152E+02  0.00000000000E+00 0. -1.
         11    1    1    2    0    0  0.32756696149E+02 -0.38312791183E+02  0.47134867796E+02  0.69011353218E+02  0.00000000000E+00 0.  1.
</event>
<event>
 7    1  0.2499014E-009  0.1087272E+03  0.7561462E-02  0.1262945E+00
         -2   -1    0    0    0  501 -0.00000000000E+00  0.00000000000E+00  0.50687020695E+02  0.50687020695E+02  0.00000000000E+00 0. -1.
          2   -1    0    0  501    0  0.00000000000E+00 -0.00000000000E+00 -0.29219310585E+03  0.29219310585E+03  0.00000000000E+00 0.  1.
         25    2    1    2    0    0 -0.70580920079E+01  0.21919476044E+02 -0.62226290507E+02  0.14159619517E+03  0.12508833344E+03 0.  0.
          5    1    3    3  502    0  0.29055869791E+02 -0.43190812991E+02 -0.20169645043E+02  0.55981933490E+02  0.41800000000E+01 0. -1.
         -5    1    3    3    0  502 -0.36113961799E+02  0.65110289035E+02 -0.42056645465E+02  0.85614261679E+02  0.41800000000E+01 0. -1.
        -11    1    1    2    0    0  0.46274795781E+02 -0.22464367012E+02 -0.87938110890E+02  0.10187794588E+03  0.00000000000E+00 0.  1.
         11    1    1    2    0    0 -0.39216703773E+02  0.54489096844E+00 -0.91341683760E+02  0.99405985500E+02  0.00000000000E+00 0. -1.
</event>
<event>
 7    1  0.2499014E-009  0.1230213E+03  0.7561462E-02  0.1238194E+00
          1   -1    0    0  501    0  0.00000000000E+00  0.00000000000E+00  0.18637384867E+03  0.18637384867E+03  0.00000000000E+00 0. -1.
         -1   -1    0    0    0  501 -0.00000000000E+00 -0.00000000000E+00 -0.14409106002E+03  0.14409106002E+03  0.00000000000E+00 0.  1.
         25    2    1    2    0    0 -0.63914421687E+02 -0.51358774198E+02  0.11829885144E+03  0.19069753112E+03  0.12509257826E+03 0.  0.
          5    1    3    3  502    0 -0.10144819419E+03 -0.44175074975E+02  0.93747850444E+02  0.14508378688E+03  0.41800000000E+01 0. -1.
         -5    1    3    3    0  502  0.37533772505E+02 -0.71836992227E+01  0.24551001001E+02  0.45613744235E+02  0.41800000000E+01 0. -1.
        -11    1    1    2    0    0 -0.75266009392E+01  0.14836855464E+02  0.12117424064E+02  0.20581884455E+02  0.00000000000E+00 0. -1.
         11    1    1    2    0    0  0.71441022626E+02  0.36521918734E+02 -0.88133486867E+02  0.11918549312E+03  0.00000000000E+00 0.  1.
</event>
<event>
 7    1  0.2499014E-009  0.1245842E+03  0.7561462E-02  0.1235721E+00
          1   -1    0    0  501    0  0.00000000000E+00  0.00000000000E+00  0.42627269398E+02  0.42627269398E+02  0.00000000000E+00 0. -1.
         -1   -1    0    0    0  501 -0.00000000000E+00 -0.00000000000E+00 -0.40115669702E+03  0.40115669702E+03  0.00000000000E+00 0.  1.
         25    2    1    2    0    0  0.60718181614E+02  0.36802268572E+02 -0.16907726636E+03  0.22198044867E+03  0.12508834096E+03 0.  0.
          5    1    3    3  502    0  0.89738326434E+02  0.58217233241E+02 -0.11812100080E+03  0.15941222258E+03  0.41800000000E+01 0. -1.
         -5    1    3    3    0  502 -0.29020144820E+02 -0.21414964669E+02 -0.50956265552E+02  0.62568226091E+02  0.41800000000E+01 0. -1.
        -11    1    1    2    0    0 -0.19322355333E+02  0.24894596404E+02 -0.10349687945E+03  0.10818825445E+03  0.00000000000E+00 0.  1.
         11    1    1    2    0    0 -0.41395826282E+02 -0.61696864976E+02 -0.85955281820E+02  0.11361526330E+03  0.00000000000E+00 0. -1.
</event>
<event>
 7    1  0.2499014E-009  0.3111861E+03  0.7561462E-02  0.1079779E+00
          4   -1    0    0  501    0  0.00000000000E+00  0.00000000000E+00  0.99036178866E+03  0.99036178866E+03  0.00000000000E+00 0. -1.
         -4   -1    0    0    0  501 -0.00000000000E+00 -0.00000000000E+00 -0.10062061473E+03  0.10062061473E+03  0.00000000000E+00 0.  1.
         25    2    1    2    0    0 -0.57506896386E+02  0.29035575178E+03  0.42129252455E+03  0.52985718314E+03  0.12509091716E+03 0.  0.
          5    1    3    3  502    0  0.39252841153E+02  0.70064517294E+02  0.11533366037E+03  0.14060280131E+03  0.41800000000E+01 0. -1.
         -5    1    3    3    0  502 -0.96759737539E+02  0.22029123448E+03  0.30595886418E+03  0.38925438182E+03  0.41800000000E+01 0. -1.
        -11    1    1    2    0    0 -0.11471787391E+02 -0.37436583204E+02  0.26523833867E+02  0.47292847566E+02  0.00000000000E+00 0.  1.
         11    1    1    2    0    0  0.68978683777E+02 -0.25291916858E+03  0.44192481551E+03  0.51383237268E+03  0.00000000000E+00 0. -1.
</event>
<event>
 7    1  0.2499014E-009  0.4331927E+03  0.7561462E-02  0.1032856E+00
          2   -1    0    0  501    0  0.00000000000E+00  0.00000000000E+00  0.11088239578E+04  0.11088239578E+04  0.00000000000E+00 0.  1.
         -2   -1    0    0    0  501 -0.00000000000E+00 -0.00000000000E+00 -0.18884658076E+03  0.18884658076E+03  0.00000000000E+00 0. -1.
         25    2    1    2    0    0  0.20422938321E+03 -0.37753271654E+03  0.62998172394E+03  0.77250545209E+03  0.12508840068E+03 0.  0.
          5    1    3    3  502    0  0.13849448739E+03 -0.29308856921E+03  0.37355554221E+03  0.49461383720E+03  0.41800000000E+01 0. -1.
         -5    1    3    3    0  502  0.65734895819E+02 -0.84444147335E+02  0.25642618173E+03  0.27789161489E+03  0.41800000000E+01 0. -1.
        -11    1    1    2    0    0 -0.15715845392E+02  0.89449307727E+02  0.37684257040E+02  0.98327359763E+02  0.00000000000E+00 0. -1.
         11    1    1    2    0    0 -0.18851353782E+03  0.28808340881E+03  0.25231139610E+03  0.42683772675E+03  0.00000000000E+00 0.  1.
</event>
<event>
 7    1  0.2499014E-009  0.1594805E+03  0.7561462E-02  0.1189285E+00
         -2   -1    0    0    0  501 -0.00000000000E+00  0.00000000000E+00  0.25957624894E+02  0.25957624894E+02  0.00000000000E+00 0. -1.
          2   -1    0    0  501    0  0.00000000000E+00 -0.00000000000E+00 -0.13765077481E+04  0.13765077481E+04  0.00000000000E+00 0.  1.
         25    2    1    2    0    0  0.46386170570E+02 -0.14477951672E+03 -0.62079637243E+03  0.65126721126E+03  0.12509220260E+03 0.  0.
          5    1    3    3  502    0  0.35020850552E+02 -0.21536217251E+02 -0.40347276735E+02  0.57755032394E+02  0.41800000000E+01 0.  1.
         -5    1    3    3    0  502  0.11365320018E+02 -0.12324329947E+03 -0.58044909570E+03  0.59351217886E+03  0.41800000000E+01 0.  1.
        -11    1    1    2    0    0 -0.44547170918E+02  0.10605242468E+03 -0.67111227729E+03  0.68089885883E+03  0.00000000000E+00 0.  1.
         11    1    1    2    0    0 -0.18389996524E+01  0.38727092042E+02 -0.58641473476E+02  0.70299302907E+02  0.00000000000E+00 0. -1.
</event>
<event>
 7    1  0.2499014E-009  0.1036349E+03  0.7561462E-02  0.1272833E+00
          2   -1    0    0  501    0  0.00000000000E+00  0.00000000000E+00  0.44760474850E+03  0.44760474850E+03  0.00000000000E+00 0. -1.
         -2   -1    0    0    0  501 -0.00000000000E+00 -0.00000000000E+00 -0.28886408794E+02  0.28886408794E+02  0.00000000000E+00 0.  1.
         25    2    1    2    0    0 -0.41415201164E+00  0.36507794914E+02  0.21779339585E+03  0.25380028178E+03  0.12509048383E+03 0.  0.
          5    1    3    3  502    0 -0.66365178294E+01  0.79623997352E+02  0.99544244771E+02  0.12771277693E+03  0.41800000000E+01 0. -1.
         -5    1    3    3    0  502  0.62223658178E+01 -0.43116202438E+02  0.11824915108E+03  0.12608750485E+03  0.41800000000E+01 0. -1.
        -11    1    1    2    0    0 -0.13158649019E+02  0.20795335327E+02  0.12063858410E+03  0.12312296288E+03  0.00000000000E+00 0. -1.
         11    1    1    2    0    0  0.13572801031E+02 -0.57303130241E+02  0.80286359755E+02  0.99567912633E+02  0.00000000000E+00 0.  1.
</event>
<event>
 7    1  0.2499014E-009  0.1694975E+03  0.7561462E-02  0.1178373E+00
          1   -1    0    0  501    0  0.00000000000E+00  0.00000000000E+00  0.12388222004E+04  0.12388222004E+04  0.00000000000E+00 0. -1.
         -1   -1    0    0    0  501 -0.00000000000E+00 -0.00000000000E+00 -0.41326334804E+02  0.41326334804E+02  0.00000000000E+00 0.  1.
         25    2    1    2    0    0 -0.22224225217E+02  0.14561662873E+03  0.99545510939E+03  0.10140397609E+04  0.12509053934E+03 0.  0.
          5    1    3    3  502    0 -0.18496943551E+02  0.15663104776E+03  0.98583369598E+03  0.99837917174E+03  0.41800000000E+01 0. -1.
         -5    1    3    3    0  502 -0.37272816655E+01 -0.11014419031E+02  0.96214134074E+01  0.15660589106E+02  0.41800000000E+01 0. -1.
        -11    1    1    2    0    0 -0.27236929723E+02 -0.19797786831E+02  0.67214637924E+02  0.75177192389E+02  0.00000000000E+00 0. -1.
         11    1    1    2    0    0  0.49461154940E+02 -0.12581884190E+03  0.13482611833E+03  0.19093158201E+03  0.00000000000E+00 0.  1.
</event>
<event>
 7    1  0.2499014E-009  0.7116394E+02  0.7561462E-02  0.1356179E+00
          2   -1    0    0  501    0  0.00000000000E+00  0.00000000000E+00  0.24037204438E+03  0.24037204438E+03  0.00000000000E+00 0. -1.
         -2   -1    0    0    0  501 -0.00000000000E+00 -0.00000000000E+00 -0.64145107311E+02  0.64145107311E+02  0.00000000000E+00 0.  1.
         25    2    1    2    0    0  0.29072627016E+02  0.25164403841E+02  0.15708501574E+03  0.20445530364E+03  0.12509118336E+03 0.  0.
          5    1    3    3  502    0 -0.20770887301E+02 -0.55350584569E+01  0.14224391273E+03  0.14391966419E+03  0.41800000000E+01 0.  1.
         -5    1    3    3    0  502  0.49843514317E+02  0.30699462298E+02  0.14841103010E+02  0.60535639448E+02  0.41800000000E+01 0.  1.
        -11    1    1    2    0    0 -0.50489120321E+01 -0.35305617383E+02 -0.28564599466E+02  0.45693702785E+02  0.00000000000E+00 0.  1.
         11    1    1    2    0    0 -0.24023714984E+02  0.10141213542E+02  0.47706520795E+02  0.54368145269E+02  0.00000000000E+00 0. -1.
</event>
<event>
 7    1  0.2499014E-009  0.8528764E+02  0.7561462E-02  0.1314682E+00
          1   -1    0    0  501    0  0.00000000000E+00  0.00000000000E+00  0.25916432336E+03  0.25916432336E+03  0.00000000000E+00 0. -1.
         -1   -1    0    0    0  501 -0.00000000000E+00 -0.00000000000E+00 -0.58182905542E+02  0.58182905542E+02  0.00000000000E+00 0.  1.
         25    2    1    2    0    0 -0.50381007586E+02 -0.21071957997E+02  0.86600813260E+02  0.16164737439E+03  0.12509156426E+03 0.  0.
          5    1    3    3  502    0 -0.32463009698E+02 -0.36222842021E+02 -0.19746083803E+02  0.52662334816E+02  0.41800000000E+01 0. -1.
         -5    1    3    3    0  502 -0.17917997888E+02  0.15150884025E+02  0.10634689706E+03  0.10898503957E+03  0.41800000000E+01 0. -1.
        -11    1    1    2    0    0  0.45928595719E+02  0.50439745741E+02  0.10371701913E+03  0.12414033959E+03  0.00000000000E+00 0.  1.
         11    1    1    2    0    0  0.44524118672E+01 -0.29367787745E+02  0.10663585427E+02  0.31559514930E+02  0.00000000000E+00 0. -1.
</event>
<event>
 7    1  0.2499014E-009  0.1247032E+03  0.7561462E-02  0.1235534E+00
         -2   -1    0    0    0  501 -0.00000000000E+00  0.00000000000E+00  0.11726372076E+03  0.11726372076E+03  0.00000000000E+00 0.  1.
          2   -1    0    0  501    0  0.00000000000E+00 -0.00000000000E+00 -0.51457798404E+03  0.51457798404E+03  0.00000000000E+00 0. -1.
         25    2    1    2    0    0  0.19037619273E+02 -0.96575151538E+02  0.48553527221E+02  0.16641666673E+03  0.12509145101E+03 0.  0.
          5    1    3    3  502    0 -0.36782451427E+01  0.78057214946E+01  0.58285456424E+02  0.59068820929E+02  0.41800000000E+01 0.  1.
         -5    1    3    3    0  502  0.22715864416E+02 -0.10438087303E+03 -0.97319292025E+01  0.10734784580E+03  0.41800000000E+01 0.  1.
        -11    1    1    2    0    0  0.33367837167E+02  0.61135032251E+02 -0.21175506149E+03  0.22291503044E+03  0.00000000000E+00 0.  1.
         11    1    1    2    0    0 -0.52405456440E+02  0.35440119286E+02 -0.23411272901E+03  0.24251000764E+03  0.00000000000E+00 0. -1.
</event>
<event>
 7    1  0.2499014E-009  0.1655732E+03  0.7561462E-02  0.1182545E+00
         -1   -1    0    0    0  501 -0.00000000000E+00  0.00000000000E+00  0.68090250449E+03  0.68090250449E+03  0.00000000000E+00 0.  1.
          1   -1    0    0  501    0  0.00000000000E+00 -0.00000000000E+00 -0.46769597064E+02  0.46769597064E+02  0.00000000000E+00 0. -1.
         25    2    1    2    0    0  0.11624339889E+03 -0.78684004041E+02  0.29953389382E+03  0.35365589247E+03  0.12509291128E+03 0.  0.
          5    1    3    3  502    0  0.63469116032E+02 -0.90268984644E+02  0.27050859911E+03  0.29218006925E+03  0.41800000000E+01 0.  1.
         -5    1    3    3    0  502  0.52774282860E+02  0.11584980603E+02  0.29025294717E+02  0.61475823218E+02  0.41800000000E+01 0.  1.
        -11    1    1    2    0    0 -0.22670168605E+02  0.68792465000E+02  0.16140848420E+03  0.17691534291E+03  0.00000000000E+00 0. -1.
         11    1    1    2    0    0 -0.93573230286E+02  0.98915390409E+01  0.17319052940E+03  0.19710086617E+03  0.00000000000E+00 0.  1.
</event>
<event>
 7    1  0.4674746E-009  0.1510383E+03  0.7561462E-02  0.1199203E+00
          2   -1    0    0  501    0  0.00000000000E+00  0.00000000000E+00  0.85870893782E+03  0.85870893782E+03  0.00000000000E+00 0. -1.
         -2   -1    0    0    0  501 -0.00000000000E+00 -0.00000000000E+00 -0.37836641245E+02  0.37836641245E+02  0.00000000000E+00 0.  1.
         25    2    1    2    0    0  0.52694551750E+02 -0.13326418688E+03  0.44405144789E+03  0.48307963787E+03  0.12509272103E+03 0.  0.
          5    1    3    3  502    0  0.17952946295E+02 -0.76401082581E+02  0.38807076319E+03  0.39594926864E+03  0.41800000000E+01 0. -1.
         -5    1    3    3    0  502  0.34741605455E+02 -0.56863104301E+02  0.55980684707E+02  0.87130369221E+02  0.41800000000E+01 0. -1.
        -11    1    1    2    0    0  0.77663406397E+01  0.65262357342E+02  0.82955379153E+02  0.10583518443E+03  0.00000000000E+00 0.  1.
         11    1    1    2    0    0 -0.60460892390E+02  0.68001829540E+02  0.29386546953E+03  0.30763075677E+03  0.00000000000E+00 0. -1.
</event>
<event>
 7    1  0.2499014E-009  0.9898839E+02  0.7561462E-02  0.1282438E+00
         -1   -1    0    0    0  501 -0.00000000000E+00  0.00000000000E+00  0.80106747576E+02  0.80106747576E+02  0.00000000000E+00 0.  1.
          1   -1    0    0  501    0  0.00000000000E+00 -0.00000000000E+00 -0.23446576911E+03  0.23446576911E+03  0.00000000000E+00 0. -1.
         25    2    1    2    0    0 -0.11271420300E+02  0.31495881738E+02 -0.17183252755E+03  0.21515899937E+03  0.12509173435E+03 0.  0.
          5    1    3    3  502    0 -0.55415316589E+02 -0.16779015428E+02 -0.49149102275E+02  0.76062469890E+02  0.41800000000E+01 0.  1.
         -5    1    3    3    0  502  0.44143896288E+02  0.48274897166E+02 -0.12268342528E+03  0.13909652948E+03  0.41800000000E+01 0.  1.
        -11    1    1    2    0    0 -0.22454899180E+01  0.20515755803E+02  0.36892786130E+02  0.42273113554E+02  0.00000000000E+00 0.  1.
         11    1    1    2    0    0  0.13516910218E+02 -0.52011637541E+02 -0.19419280108E+02  0.57140403757E+02  0.00000000000E+00 0. -1.
</event>
<event>
 7    1  0.2499014E-009  0.1283498E+03  0.7561462E-02  0.1229925E+00
          1   -1    0    0  501    0  0.00000000000E+00  0.00000000000E+00  0.12426061158E+03  0.12426061158E+03  0.00000000000E+00 0. -1.
         -1   -1    0    0    0  501 -0.00000000000E+00 -0.00000000000E+00 -0.15232040865E+03  0.15232040865E+03  0.00000000000E+00 0.  1.
         25    2    1    2    0    0  0.32365218393E+02 -0.64580700973E+02  0.29197783904E+02  0.14737161602E+03  0.12509080031E+03 0.  0.
          5    1    3    3  502    0  0.26914807309E+02 -0.10059206194E+03  0.35658450617E+02  0.11014611785E+03  0.41800000000E+01 0. -1.
         -5    1    3    3    0  502  0.54504110843E+01  0.36011360963E+02 -0.64606667121E+01  0.37225498166E+02  0.41800000000E+01 0. -1.
        -11    1    1    2    0    0 -0.17895762987E+02  0.87175726432E+02 -0.43454627193E+02  0.99036206694E+02  0.00000000000E+00 0.  1.
         11    1    1    2    0    0 -0.14469455406E+02 -0.22595025459E+02 -0.13802953783E+02  0.30173197517E+02  0.00000000000E+00 0. -1.
</event>
<event>
 7    1  0.2499014E-009  0.8462867E+02  0.7561462E-02  0.1316406E+00
         -1   -1    0    0    0  501 -0.00000000000E+00  0.00000000000E+00  0.53957868737E+03  0.53957868737E+03  0.00000000000E+00 0.  1.
          1   -1    0    0  501    0  0.00000000000E+00 -0.00000000000E+00 -0.24864737786E+02  0.24864737786E+02  0.00000000000E+00 0. -1.
         25    2    1    2    0    0  0.34648842285E+02 -0.21346539001E+02  0.26961508970E+03  0.29999395158E+03  0.12509139614E+03 0.  0.
          5    1    3    3  502    0  0.15864692970E+02  0.20505712838E+02 -0.21314318149E+00  0.26261960552E+02  0.41800000000E+01 0.  1.
         -5    1    3    3    0  502  0.18784149315E+02 -0.41852251839E+02  0.26982823288E+03  0.27373199103E+03  0.41800000000E+01 0.  1.
        -11    1    1    2    0    0  0.15825621740E+02  0.40081417698E+02  0.81078455576E+02  0.91818768815E+02  0.00000000000E+00 0.  1.
         11    1    1    2    0    0 -0.50474464025E+02 -0.18734878697E+02  0.16402040431E+03  0.17263070477E+03  0.00000000000E+00 0. -1.
</event>
<event>
 7    1  0.2499014E-009  0.2195866E+03  0.7561462E-02  0.1134192E+00
         -3   -1    0    0    0  501 -0.00000000000E+00  0.00000000000E+00  0.55517138467E+03  0.55517138467E+03  0.00000000000E+00 0.  1.
          3   -1    0    0  501    0  0.00000000000E+00 -0.00000000000E+00 -0.10613628914E+03  0.10613628914E+03  0.00000000000E+00 0. -1.
         25    2    1    2    0    0 -0.18750112830E+02  0.19915131858E+03  0.35499907927E+03  0.42624494937E+03  0.12509035199E+03 0.  0.
          5    1    3    3  502    0  0.34014959625E+02  0.17046892132E+03  0.28565292244E+03  0.33441252236E+03  0.41800000000E+01 0.  1.
         -5    1    3    3    0  502 -0.52765072455E+02  0.28682397263E+02  0.69346156829E+02  0.91832427012E+02  0.41800000000E+01 0.  1.
        -11    1    1    2    0    0 -0.14121088682E+02 -0.89893613886E+02  0.64472512585E+01  0.91224086797E+02  0.00000000000E+00 0. -1.
         11    1    1    2    0    0  0.32871201512E+02 -0.10925770470E+03  0.87588765003E+02  0.14383863764E+03  0.00000000000E+00 0.  1.
</event>
<event>
 7    1  0.2499014E-009  0.7721309E+02  0.7561462E-02  0.1337152E+00
         -2   -1    0    0    0  501 -0.00000000000E+00  0.00000000000E+00  0.46054679689E+02  0.46054679689E+02  0.00000000000E+00 0.  1.
          2   -1    0    0  501    0  0.00000000000E+00 -0.00000000000E+00 -0.29194178046E+03  0.29194178046E+03  0.00000000000E+00 0. -1.
         25    2    1    2    0    0 -0.13179980774E+02  0.23890004896E+02 -0.95294360245E+02  0.15960286479E+03  0.12509042780E+03 0.  0.
          5    1    3    3  502    0 -0.31625777422E+02  0.41330751378E+01  0.22123961764E+02  0.39041185840E+02  0.41800000000E+01 0.  1.
         -5    1    3    3    0  502  0.18445796648E+02  0.19756929758E+02 -0.11741832201E+03  0.12056167895E+03  0.41800000000E+01 0.  1.
        -11    1    1    2    0    0  0.50920463280E+02 -0.13279437002E+01 -0.69791162446E+02  0.86402912976E+02  0.00000000000E+00 0. -1.
         11    1    1    2    0    0 -0.37740482506E+02 -0.22562061196E+02 -0.80801578081E+02  0.91990682384E+02  0.00000000000E+00 0.  1.
</event>
<event>
 7    1  0.2499014E-009  0.1161733E+03  0.7561462E-02  0.1249547E+00
          2   -1    0    0  501    0  0.00000000000E+00  0.00000000000E+00  0.23160254507E+03  0.23160254507E+03  0.00000000000E+00 0.  1.
         -2   -1    0    0    0  501 -0.00000000000E+00 -0.00000000000E+00 -0.69307814852E+02  0.69307814852E+02  0.00000000000E+00 0. -1.
         25    2    1    2    0    0  0.30947986431E+02  0.56106202433E+02  0.11682868537E+03  0.18276233468E+03  0.12508974953E+03 0.  0.
          5    1    3    3  502    0 -0.33373806742E+02 -0.20493896864E+02  0.43408147080E+02  0.58613568549E+02  0.41800000000E+01 0.  1.
         -5    1    3    3    0  502  0.64321793174E+02  0.76600099297E+02  0.73420538292E+02  0.12414876613E+03  0.41800000000E+01 0.  1.
        -11    1    1    2    0    0 -0.52397395097E+02 -0.37244117359E+02  0.58346023843E+02  0.86815147233E+02  0.00000000000E+00 0.  1.
         11    1    1    2    0    0  0.21449408666E+02 -0.18862085074E+02 -0.12879978994E+02  0.31332878010E+02  0.00000000000E+00 0. -1.
</event>
<event>
 7    1  0.2499014E-009  0.6088684E+02  0.7561462E-02  0.1394147E+00
         -2   -1    0    0    0  501 -0.00000000000E+00  0.00000000000E+00  0.44546495024E+02  0.44546495024E+02  0.00000000000E+00 0.  1.
          2   -1    0    0  501    0  0.00000000000E+00 -0.00000000000E+00 -0.29076734152E+03  0.29076734152E+03  0.00000000000E+00 0. -1.
         25    2    1    2    0    0  0.12537793601E+02  0.17449914930E+02 -0.21399605116E+03  0.24880690320E+03  0.12509544104E+03 0.  0.
          5    1    3    3  502    0 -0.24717613581E+02 -0.11400931433E+02 -0.19642093856E+03  0.19834212654E+03  0.41800000000E+01 0. -1.
         -5    1    3    3    0  502  0.37255407183E+02  0.28850846364E+02 -0.17575112605E+02  0.50464776660E+02  0.41800000000E+01 0. -1.
        -11    1    1    2    0    0 -0.28048010499E+02 -0.10870632617E+02 -0.52278626658E+02  0.60315141977E+02  0.00000000000E+00 0. -1.
         11    1    1    2    0    0  0.15510216898E+02 -0.65792823132E+01  0.20053831324E+02  0.26191791362E+02  0.00000000000E+00 0.  1.
</event>
<event>
 7    1  0.2499014E-009  0.2065258E+03  0.7561462E-02  0.1144347E+00
         -2   -1    0    0    0  501 -0.00000000000E+00  0.00000000000E+00  0.97964031918E+02  0.97964031918E+02  0.00000000000E+00 0.  1.
          2   -1    0    0  501    0  0.00000000000E+00 -0.00000000000E+00 -0.48889854554E+03  0.48889854554E+03  0.00000000000E+00 0. -1.
         25    2    1    2    0    0 -0.11047516334E+03 -0.14081589911E+03 -0.11890889177E+03  0.24863113784E+03  0.12507693235E+03 0.  0.
          5    1    3    3  502    0 -0.75981545708E+02 -0.16076290997E+03 -0.90886102345E+02  0.19973899096E+03  0.41800000000E+01 0.  1.
         -5    1    3    3    0  502 -0.34493617630E+02  0.19947010862E+02 -0.28022789423E+02  0.48892146881E+02  0.41800000000E+01 0.  1.
        -11    1    1    2    0    0  0.75742697495E+02  0.14137511264E+03 -0.18685369203E+03  0.24624820999E+03  0.00000000000E+00 0.  1.
         11    1    1    2    0    0  0.34732465843E+02 -0.55921353236E+00 -0.85171929821E+02  0.91983229627E+02  0.00000000000E+00 0. -1.
</event>
<event>
 7    1  0.2499014E-009  0.2505931E+03  0.7561462E-02  0.1112931E+00
          2   -1    0    0  501    0  0.00000000000E+00  0.00000000000E+00  0.10039053755E+04  0.10039053755E+04  0.00000000000E+00 0. -1.
         -2   -1    0    0    0  501 -0.00000000000E+00 -0.00000000000E+00 -0.68348216536E+02  0.68348216536E+02  0.00000000000E+00 0.  1.
         25    2    1    2    0    0  0.12073148460E+03 -0.19933223820E+03  0.58006081924E+03  0.63751585538E+03  0.12508588757E+03 0.  0.
          5    1    3    3  502    0  0.14257718321E+03 -0.13562012459E+03  0.44223286512E+03  0.48405418164E+03  0.41800000000E+01 0. -1.
         -5    1    3    3    0  502 -0.21845698610E+02 -0.63712113613E+02  0.13782795412E+03  0.15346167374E+03  0.41800000000E+01 0. -1.
        -11    1    1    2    0    0 -0.65838277471E+02  0.68546323389E+02  0.77453810330E+02  0.12260656575E+03  0.00000000000E+00 0.  1.
         11    1    1    2    0    0 -0.54893207128E+02  0.13078591482E+03  0.27804252936E+03  0.31213117088E+03  0.00000000000E+00 0. -1.
</event>
<event>
 7    1  0.2499014E-009  0.1543880E+03  0.7561462E-02  0.1195182E+00
          1   -1    0    0  501    0  0.00000000000E+00  0.00000000000E+00  0.26856254409E+03  0.26856254409E+03  0.00000000000E+00 0. -1.
         -1   -1    0    0    0  501 -0.00000000000E+00 -0.00000000000E+00 -0.10894718799E+03  0.10894718799E+03  0.00000000000E+00 0.  1.
         25    2    1    2    0    0  0.86057479650E+02  0.90541315388E+02  0.13219604118E+03  0.22074188216E+03  0.12509022999E+03 0.  0.
          5    1    3    3  502    0  0.71915939919E+02  0.12184905140E+03  0.98573595391E+02  0.17249150660E+03  0.41800000000E+01 0.  1.
         -5    1    3    3    0  502  0.14141539731E+02 -0.31307736016E+02  0.33622445793E+02  0.48250375558E+02  0.41800000000E+01 0.  1.
        -11    1    1    2    0    0 -0.44177162364E+02 -0.15751844408E+02 -0.28068209195E+02  0.54658637416E+02  0.00000000000E+00 0.  1.
         11    1    1    2    0    0 -0.41880317286E+02 -0.74789470981E+02  0.55487524113E+02  0.10210921250E+03  0.00000000000E+00 0. -1.
</event>
<event>
 7    1  0.2499014E-009  0.9547654E+02  0.7561462E-02  0.1290106E+00
          1   -1    0    0  501    0  0.00000000000E+00  0.00000000000E+00  0.41723991542E+03  0.41723991542E+03  0.00000000000E+00 0. -1.
         -1   -1    0    0    0  501 -0.00000000000E+00 -0.00000000000E+00 -0.32655374677E+02  0.32655374677E+02  0.00000000000E+00 0.  1.
         25    2    1    2    0    0 -0.42268240868E+02 -0.78885126443E+01  0.19786341824E+03  0.23800241945E+03  0.12508551702E+03 0.  0.
          5    1    3    3  502    0  0.25404865028E+02 -0.10926438440E+01 -0.29544798222E+01  0.25938434584E+02  0.41800000000E+01 0. -1.
         -5    1    3    3    0  502 -0.67673105896E+02 -0.67958688004E+01  0.20081789807E+03  0.21206398487E+03  0.41800000000E+01 0. -1.
        -11    1    1    2    0    0  0.97284286403E+01 -0.38873393739E+02  0.10399352602E+03  0.11144701215E+03  0.00000000000E+00 0. -1.
         11    1    1    2    0    0  0.32539812228E+02  0.46761906383E+02  0.82727596484E+02  0.10044585849E+03  0.00000000000E+00 0.  1.
</event>
<event>
 7    1  0.2499014E-009  0.9008126E+02  0.7561462E-02  0.1302655E+00
         -2   -1    0    0    0  501 -0.00000000000E+00  0.00000000000E+00  0.13935537206E+03  0.13935537206E+03  0.00000000000E+00 0.  1.
          2   -1    0    0  501    0  0.00000000000E+00 -0.00000000000E+00 -0.15893165928E+03  0.15893165928E+03  0.00000000000E+00 0. -1.
         25    2    1    2    0    0  0.51227382122E+02 -0.30813191359E+02 -0.92546598691E+02  0.16669247083E+03  0.12509120457E+03 0.  0.
          5    1    3    3  502    0 -0.60058605676E+01 -0.47312440618E+02 -0.95585593681E+02  0.10690470297E+03  0.41800000000E+01 0. -1.
         -5    1    3    3    0  502  0.57233242689E+02  0.16499249260E+02  0.30389949894E+01  0.59787767858E+02  0.41800000000E+01 0. -1.
        -11    1    1    2    0    0 -0.31972630294E+02 -0.45666444679E+01 -0.14418473981E+02  0.35369417886E+02  0.00000000000E+00 0. -1.
         11    1    1    2    0    0 -0.19254751827E+02  0.35379835827E+02  0.87388785449E+02  0.96225142626E+02  0.00000000000E+00 0.  1.
</event>
<event>
 7    1  0.2499014E-009  0.2701328E+03  0.7561462E-02  0.1101204E+00
          1   -1    0    0  501    0  0.00000000000E+00  0.00000000000E+00  0.13463147205E+04  0.13463147205E+04  0.00000000000E+00 0. -1.
         -1   -1    0    0    0  501 -0.00000000000E+00 -0.00000000000E+00 -0.97607232655E+02  0.97607232655E+02  0.00000000000E+00 0.  1.
         25    2    1    2    0    0  0.18923576170E+03 -0.18022845090E+03  0.18223523102E+03  0.34227215712E+03  0.12509229431E+03 0.  0.
          5    1    3    3  502    0 -0.10145280827E+02 -0.43942077470E+01 -0.89258548050E+01  0.14811450597E+02  0.41800000000E+01 0. -1.
         -5    1    3    3    0  502  0.19938104252E+03 -0.17583424316E+03  0.19116108582E+03  0.32746070653E+03  0.41800000000E+01 0. -1.
        -11    1    1    2    0    0 -0.70300954794E+02  0.84351857978E+02  0.28575224858E+03  0.30612384383E+03  0.00000000000E+00 0.  1.
         11    1    1    2    0    0 -0.11893480690E+03  0.95876592926E+02  0.78072000829E+03  0.79552595225E+03  0.00000000000E+00 0. -1.
</event>
<event>
 7    1  0.2499014E-009  0.1304994E+03  0.7561462E-02  0.1226717E+00
          2   -1    0    0  501    0  0.00000000000E+00  0.00000000000E+00  0.62166816813E+02  0.62166816813E+02  0.00000000000E+00 0. -1.
         -2   -1    0    0    0  501 -0.00000000000E+00 -0.00000000000E+00 -0.33692777776E+03  0.33692777776E+03  0.00000000000E+00 0.  1.
         25    2    1    2    0    0  0.82775392403E+02  0.16209631249E+02 -0.88009457563E+02  0.17466457983E+03  0.12509009990E+03 0.  0.
          5    1    3    3  502    0  0.11704776115E+02  0.56036928198E+02 -0.39581951220E+01  0.57535022503E+02  0.41800000000E+01 0.  1.
         -5    1    3    3    0  502  0.71070616288E+02 -0.39827296949E+02 -0.84051262441E+02  0.11712955733E+03  0.41800000000E+01 0.  1.
        -11    1    1    2    0    0 -0.25134316448E+02  0.36232221364E+02 -0.89798679464E+02  0.10004154418E+03  0.00000000000E+00 0.  1.
         11    1    1    2    0    0 -0.57641075956E+02 -0.52441852613E+02 -0.96952823917E+02  0.12438847056E+03  0.00000000000E+00 0. -1.
</event>
<event>
 7    1  0.2499014E-009  0.1766327E+03  0.7561462E-02  0.1171102E+00
          1   -1    0    0  501    0  0.00000000000E+00  0.00000000000E+00  0.18511340920E+03  0.18511340920E+03  0.00000000000E+00 0. -1.
         -1   -1    0    0    0  501 -0.00000000000E+00 -0.00000000000E+00 -0.17553492769E+03  0.17553492769E+03  0.00000000000E+00 0.  1.
         25    2    1    2    0    0  0.14158094584E+03  0.22888646814E+02  0.15053599910E+02  0.19090223530E+03  0.12509195895E+03 0.  0.
          5    1    3    3  502    0  0.14793230009E+03 -0.12218222633E+02 -0.71607222159E+01  0.14866740973E+03  0.41800000000E+01 0. -1.
         -5    1    3    3    0  502 -0.63513542475E+01  0.35106869446E+02  0.22214322126E+02  0.42234825566E+02  0.41800000000E+01 0. -1.
        -11    1    1    2    0    0 -0.12813541233E+03 -0.50824095942E+02 -0.10880430898E+02  0.13827565367E+03  0.00000000000E+00 0.  1.
         11    1    1    2    0    0 -0.13445533513E+02  0.27935449128E+02  0.54053124985E+01  0.31470447926E+02  0.00000000000E+00 0. -1.
</event>
<event>
 7    1  0.2499014E-009  0.1002329E+03  0.7561462E-02  0.1279807E+00
          1   -1    0    0  501    0  0.00000000000E+00  0.00000000000E+00  0.89461445330E+03  0.89461445330E+03  0.00000000000E+00 0. -1.
         -1   -1    0    0    0  501 -0.00000000000E+00 -0.00000000000E+00 -0.20069351247E+02  0.20069351247E+02  0.00000000000E+00 0.  1.
         25    2    1    2    0    0  0.37924699948E+02  0.13087096016E+02  0.70650356069E+03  0.71861287957E+03  0.12509050508E+03 0.  0.
          5    1    3    3  502    0  0.50471206764E+02  0.54637979803E+02  0.58085725389E+03  0.58561529467E+03  0.41800000000E+01 0. -1.
         -5    1    3    3    0  502 -0.12546506816E+02 -0.41550883787E+02  0.12564630680E+03  0.13299758490E+03  0.41800000000E+01 0. -1.
        -11    1    1    2    0    0 -0.11414138132E+02 -0.41771620568E+02  0.14361839559E+03  0.15000464788E+03  0.00000000000E+00 0. -1.
         11    1    1    2    0    0 -0.26510561816E+02  0.28684524551E+02  0.24423145774E+02  0.46066277102E+02  0.00000000000E+00 0.  1.
</event>
<event>
 7    1  0.2499014E-009  0.1007234E+03  0.7561462E-02  0.1278782E+00
         -1   -1    0    0    0  501 -0.00000000000E+00  0.00000000000E+00  0.66047611974E+02  0.66047611974E+02  0.00000000000E+00 0.  1.
          1   -1    0    0  501    0  0.00000000000E+00 -0.00000000000E+00 -0.22732697962E+03  0.22732697962E+03  0.00000000000E+00 0. -1.
         25    2    1    2    0    0  0.35817506602E+02  0.43239796329E+02 -0.96568658205E+02  0.16770709066E+03  0.12509032235E+03 0.  0.
          5    1    3    3  502    0  0.75517204349E+02  0.15781676808E+02 -0.90316091713E+02  0.11885444164E+03  0.41800000000E+01 0. -1.
         -5    1    3    3    0  502 -0.39699697747E+02  0.27458119520E+02 -0.62525664912E+01  0.48852649023E+02  0.41800000000E+01 0. -1.
        -11    1    1    2    0    0 -0.20152638531E+02  0.83534016519E+01  0.17078053427E+02  0.27705018820E+02  0.00000000000E+00 0.  1.
         11    1    1    2    0    0 -0.15664868070E+02 -0.51593197980E+02 -0.81788762865E+02  0.97962482107E+02  0.00000000000E+00 0. -1.
</event>
<event>
 7    1  0.2499014E-009  0.1222795E+03  0.7561462E-02  0.1239383E+00
         -4   -1    0    0    0  501 -0.00000000000E+00  0.00000000000E+00  0.17765430031E+03  0.17765430031E+03  0.00000000000E+00 0.  1.
          4   -1    0    0  501    0  0.00000000000E+00 -0.00000000000E+00 -0.15363099265E+03  0.15363099265E+03  0.00000000000E+00 0. -1.
         25    2    1    2    0    0  0.59706776789E+02  0.69602171880E+01 -0.96076360137E+02  0.16879568473E+03  0.12509185581E+03 0.  0.
          5    1    3    3  502    0  0.66742401348E+02 -0.48539057946E+02 -0.59522118864E+02  0.10183782852E+03  0.41800000000E+01 0.  1.
         -5    1    3    3    0  502 -0.70356245594E+01  0.55499275134E+02 -0.36554241273E+02  0.66957856211E+02  0.41800000000E+01 0.  1.
        -11    1    1    2    0    0 -0.71395866984E+02 -0.31965489109E+02  0.10528003024E+03  0.13116038687E+03  0.00000000000E+00 0.  1.
         11    1    1    2    0    0  0.11689090195E+02  0.25005271921E+02  0.14819637557E+02  0.31329221355E+02  0.00000000000E+00 0. -1.
</event>
<event>
 7    1  0.2499014E-009  0.1455181E+03  0.7561462E-02  0.1206091E+00
         -1   -1    0    0    0  501 -0.00000000000E+00  0.00000000000E+00  0.25973294169E+02  0.25973294169E+02  0.00000000000E+00 0.  1.
          1   -1    0    0  501    0  0.00000000000E+00 -0.00000000000E+00 -0.10924915468E+04  0.10924915468E+04  0.00000000000E+00 0. -1.
         25    2    1    2    0    0 -0.48918566745E+02 -0.11114616847E+03 -0.70969487402E+03  0.73079363723E+03  0.12508408795E+03 0.  0.
          5    1    3    3  502    0 -0.61902791843E+02 -0.34970701024E+02 -0.53507403116E+03  0.53979310554E+03  0.41800000000E+01 0. -1.
         -5    1    3    3    0  502  0.12984225098E+02 -0.76175467444E+02 -0.17462084286E+03  0.19100053168E+03  0.41800000000E+01 0. -1.
        -11    1    1    2    0    0  0.56796516525E+02  0.36822647008E+02 -0.23675529648E+03  0.24624138977E+03  0.00000000000E+00 0. -1.
         11    1    1    2    0    0 -0.78779497802E+01  0.74323521460E+02 -0.12006808210E+03  0.14142981395E+03  0.00000000000E+00 0.  1.
</event>
<event>
 7    1  0.2499014E-009  0.1970295E+03  0.7561462E-02  0.1152270E+00
         -2   -1    0    0    0  501 -0.00000000000E+00  0.00000000000E+00  0.21915613163E+02  0.21915613163E+02  0.00000000000E+00 0.  1.
          2   -1    0    0  501    0  0.00000000000E+00 -0.00000000000E+00 -0.38432551663E+04  0.38432551663E+04  0.00000000000E+00 0. -1.
         25    2    1    2    0    0  0.15993841472E+03  0.53482483903E+02 -0.33495205662E+04  0.33560954404E+04  0.12509160175E+03 0.  0.
          5    1    3    3  502    0  0.56013230188E+02  0.80363896062E+02 -0.12564101984E+04  0.12602300968E+04  0.41800000000E+01 0.  1.
         -5    1    3    3    0  502  0.10392518453E+03 -0.26881412159E+02 -0.20931103678E+04  0.20958653436E+04  0.41800000000E+01 0.  1.
        -11    1    1    2    0    0 -0.15364779469E+03 -0.20502016279E+02 -0.35154398410E+03  0.38420196543E+03  0.00000000000E+00 0.  1.
         11    1    1    2    0    0 -0.62906200366E+01 -0.32980467624E+02 -0.12027500285E+03  0.12487337369E+03  0.00000000000E+00 0. -1.
</event>
<event>
 7    1  0.2709554E-009  0.9115954E+02  0.7561462E-02  0.1300068E+00
          2   -1    0    0  501    0  0.00000000000E+00  0.00000000000E+00  0.49791274119E+03  0.49791274119E+03  0.00000000000E+00 0.  1.
         -2   -1    0    0    0  501 -0.00000000000E+00 -0.00000000000E+00 -0.43998553772E+02  0.43998553772E+02  0.00000000000E+00 0. -1.
         25    2    1    2    0    0 -0.82619852429E+02  0.25721686883E+02  0.33911158956E+03  0.37166107150E+03  0.12509051405E+03 0.  0.
          5    1    3    3  502    0 -0.19023278558E+02  0.25222630779E+02  0.59005471757E+01  0.32409182148E+02  0.41800000000E+01 0.  1.
         -5    1    3    3    0  502 -0.63596573870E+02  0.49905610389E+00  0.33321104238E+03  0.33925188935E+03  0.41800000000E+01 0.  1.
        -11    1    1    2    0    0  0.34655745368E+02 -0.13721456038E+02  0.11491377668E+03  0.12080759543E+03  0.00000000000E+00 0.  1.
         11    1    1    2    0    0  0.47964107061E+02 -0.12000230845E+02 -0.11117881279E+00  0.49442628037E+02  0.00000000000E+00 0. -1.
</event>
<event>
 7    1  0.2499014E-009  0.9565415E+02  0.7561462E-02  0.1289710E+00
          2   -1    0    0  501    0  0.00000000000E+00  0.00000000000E+00  0.26975592616E+03  0.26975592616E+03  0.00000000000E+00 0.  1.
         -2   -1    0    0    0  501 -0.00000000000E+00 -0.00000000000E+00 -0.50482459216E+02  0.50482459216E+02  0.00000000000E+00 0. -1.
         25    2    1    2    0    0  0.37913706859E+01  0.37451402214E+02  0.11747923748E+03  0.17568906619E+03  0.12509314417E+03 0.  0.
          5    1    3    3  502    0 -0.15188675880E+02  0.80909818960E+02  0.82423170137E+02  0.11656820345E+03  0.41800000000E+01 0. -1.
         -5    1    3    3    0  502  0.18980046566E+02 -0.43458416746E+02  0.35056067344E+02  0.59120862741E+02  0.41800000000E+01 0. -1.
        -11    1    1    2    0    0 -0.13264184740E+02  0.75655657330E+01 -0.13521508881E+02  0.20396263974E+02  0.00000000000E+00 0. -1.
         11    1    1    2    0    0  0.94728140544E+01 -0.45016967947E+02  0.11531573834E+03  0.12415305521E+03  0.00000000000E+00 0.  1.
</event>
<event>
 7    1  0.2499014E-009  0.1110405E+03  0.7561462E-02  0.1258655E+00
          2   -1    0    0  501    0  0.00000000000E+00  0.00000000000E+00  0.35588574061E+03  0.35588574061E+03  0.00000000000E+00 0. -1.
         -2   -1    0    0    0  501 -0.00000000000E+00 -0.00000000000E+00 -0.54614855874E+02  0.54614855874E+02  0.00000000000E+00 0.  1.
         25    2    1    2    0    0  0.13697901240E+02 -0.60251509755E+02  0.83056545130E+02  0.16236974516E+03  0.12509063725E+03 0.  0.
          5    1    3    3  502    0  0.40267225408E+02 -0.89582324534E+02  0.48285565103E+02  0.10952356143E+03  0.41800000000E+01 0.  1.
         -5    1    3    3    0  502 -0.26569324168E+02  0.29330814778E+02  0.34770980027E+02  0.52846183725E+02  0.41800000000E+01 0.  1.
        -11    1    1    2    0    0  0.20703309732E+02  0.97734074323E+01  0.14682648999E+01  0.22941280010E+02  0.00000000000E+00 0.  1.
         11    1    1    2    0    0 -0.34401210972E+02  0.50478102323E+02  0.21674607470E+03  0.22518957132E+03  0.00000000000E+00 0. -1.
</event>
<event>
 7    1  0.2499014E-009  0.1144208E+03  0.7561462E-02  0.1252595E+00
         -4   -1    0    0    0  501 -0.00000000000E+00  0.00000000000E+00  0.53559340767E+02  0.53559340767E+02  0.00000000000E+00 0.  1.
          4   -1    0    0  501    0  0.00000000000E+00 -0.00000000000E+00 -0.48332912807E+03  0.48332912807E+03  0.00000000000E+00 0. -1.
         25    2    1    2    0    0 -0.46029033566E+02  0.77009677400E+02 -0.35817799872E+03  0.38985745853E+03  0.12509275302E+03 0.  0.
          5    1    3    3  502    0  0.10915401755E+02  0.40807456925E+01  0.62323978279E+01  0.13860507335E+02  0.41800000000E+01 0. -1.
         -5    1    3    3    0  502 -0.56944435321E+02  0.72928931707E+02 -0.36441039655E+03  0.37599695120E+03  0.41800000000E+01 0. -1.
        -11    1    1    2    0    0 -0.16285456735E+02 -0.55621994196E+02 -0.53095364533E+02  0.78601145502E+02  0.00000000000E+00 0. -1.
         11    1    1    2    0    0  0.62314490301E+02 -0.21387683203E+02 -0.18496424045E+02  0.68429864802E+02  0.00000000000E+00 0.  1.
</event>
<event>
 7    1  0.2499014E-009  0.1114266E+03  0.7561462E-02  0.1257951E+00
          1   -1    0    0  501    0  0.00000000000E+00  0.00000000000E+00  0.11359929742E+03  0.11359929742E+03  0.00000000000E+00 0. -1.
         -1   -1    0    0    0  501 -0.00000000000E+00 -0.00000000000E+00 -0.13457484416E+03  0.13457484416E+03  0.00000000000E+00 0.  1.
         25    2    1    2    0    0 -0.41373144793E+02  0.16422949732E+01 -0.57795510016E+02  0.14388143574E+03  0.12508841805E+03 0.  0.
          5    1    3    3  502    0 -0.84134718569E+02 -0.52786493642E+01 -0.21212124063E+02  0.87028395452E+02  0.41800000000E+01 0. -1.
         -5    1    3    3    0  502  0.42761573776E+02  0.69209443374E+01 -0.36583385953E+02  0.56853040289E+02  0.41800000000E+01 0. -1.
        -11    1    1    2    0    0  0.65027251273E+02  0.14071545034E+02  0.36513233283E+02  0.75893135346E+02  0.00000000000E+00 0.  1.
         11    1    1    2    0    0 -0.23654106480E+02 -0.15713840007E+02  0.30672999069E+00  0.28399570497E+02  0.00000000000E+00 0. -1.
</event>
<event>
 7    1  0.2499014E-009  0.1016638E+03  0.7561462E-02  0.1276836E+00
          2   -1    0    0  501    0  0.00000000000E+00  0.00000000000E+00  0.44834995115E+03  0.44834995115E+03  0.00000000000E+00 0. -1.
         -2   -1    0    0    0  501 -0.00000000000E+00 -0.00000000000E+00 -0.37371606110E+02  0.37371606110E+02  0.00000000000E+00 0.  1.
         25    2    1    2    0    0 -0.71235815548E+02  0.59124069787E+01  0.21520574502E+03  0.25897926143E+03  0.12508895708E+03 0.  0.
          5    1    3    3  502    0 -0.28028099023E+02 -0.29581307579E+02  0.48175706628E+01  0.41246932978E+02  0.41800000000E+01 0.  1.
         -5    1    3    3    0  502 -0.43207716525E+02  0.35493714558E+02  0.21038817436E+03  0.21773232845E+03  0.41800000000E+01 0.  1.
        -11    1    1    2    0    0  0.68567181916E+02  0.26689976272E+02  0.91243123309E+02  0.11721399584E+03  0.00000000000E+00 0.  1.
         11    1    1    2    0    0  0.26686336322E+01 -0.32602383250E+02  0.10452947671E+03  0.10952830000E+03  0.00000000000E+00 0. -1.
</event>
<event>
 7    1  0.2499014E-009  0.6139006E+02  0.7561462E-02  0.1392089E+00
          1   -1    0    0  501    0  0.00000000000E+00  0.00000000000E+00  0.12435325591E+03  0.12435325591E+03  0.00000000000E+00 0. -1.
         -1   -1    0    0    0  501 -0.00000000000E+00 -0.00000000000E+00 -0.11540564784E+03  0.11540564784E+03  0.00000000000E+00 0.  1.
         25    2    1    2    0    0  0.22413185048E+02 -0.29590173561E+02  0.35837465554E+02  0.13530819141E+03  0.12508418561E+03 0.  0.
          5    1    3    3  502    0 -0.21317672965E+01 -0.26949644367E+02 -0.43903753672E+02  0.51728519694E+02  0.41800000000E+01 0.  1.
         -5    1    3    3    0  502  0.24544952344E+02 -0.26405291944E+01  0.79741219225E+02  0.83579671712E+02  0.41800000000E+01 0.  1.
        -11    1    1    2    0    0 -0.34230063013E+02 -0.42969469416E+01 -0.50742052187E+02  0.61358918072E+02  0.00000000000E+00 0.  1.
         11    1    1    2    0    0  0.11816877965E+02  0.33887120503E+02  0.23852194705E+02  0.43091794266E+02  0.00000000000E+00 0. -1.
</event>
<event>
 7    1  0.2499014E-009  0.1521247E+03  0.7561462E-02  0.1197886E+00
          2   -1    0    0  501    0  0.00000000000E+00  0.00000000000E+00  0.53191840673E+03  0.53191840673E+03  0.00000000000E+00 0. -1.
         -2   -1    0    0    0  501 -0.00000000000E+00 -0.00000000000E+00 -0.43727171099E+02  0.43727171099E+02  0.00000000000E+00 0.  1.
         25    2    1    2    0    0 -0.26251044441E+02  0.10402060270E+03  0.26691587052E+03  0.31368922784E+03  0.12508975422E+03 0.  0.
          5    1    3    3  502    0 -0.16562008936E+02 -0.27358063473E+02  0.65022813150E+02  0.72582383586E+02  0.41800000000E+01 0. -1.
         -5    1    3    3    0  502 -0.96890355041E+01  0.13137866617E+03  0.20189305737E+03  0.24110684426E+03  0.41800000000E+01 0. -1.
        -11    1    1    2    0    0 -0.23032663872E+02 -0.83828392449E+02  0.13896142269E+03  0.16391455086E+03  0.00000000000E+00 0. -1.
         11    1    1    2    0    0  0.49283708313E+02 -0.20192210249E+02  0.82313942421E+02  0.98041799130E+02  0.00000000000E+00 0.  1.
</event>
<event>
 7    1  0.2499014E-009  0.2691968E+03  0.7561462E-02  0.1101740E+00
          1   -1    0    0  501    0  0.00000000000E+00  0.00000000000E+00  0.12862688005E+03  0.12862688005E+03  0.00000000000E+00 0. -1.
         -1   -1    0    0    0  501 -0.00000000000E+00 -0.00000000000E+00 -0.99201275326E+03  0.99201275326E+03  0.00000000000E+00 0.  1.
         25    2    1    2    0    0 -0.92314573934E+01  0.26501060865E+03 -0.76934319893E+03  0.82331782029E+03  0.12508969969E+03 0.  0.
          5    1    3    3  502    0 -0.10283225120E+01  0.15341076725E+03 -0.60699815001E+03  0.62609915147E+03  0.41800000000E+01 0. -1.
         -5    1    3    3    0  502 -0.82031348814E+01  0.11159984140E+03 -0.16234504891E+03  0.19721866882E+03  0.41800000000E+01 0. -1.
        -11    1    1    2    0    0 -0.28032049473E+02 -0.11791858186E+03 -0.48311238878E+01  0.12130097899E+03  0.00000000000E+00 0. -1.
         11    1    1    2    0    0  0.37263506866E+02 -0.14709202679E+03 -0.89211550393E+02  0.17602083403E+03  0.00000000000E+00 0.  1.
</event>
<event>
 7    1  0.2499014E-009  0.2052590E+03  0.7561462E-02  0.1145376E+00
         -1   -1    0    0    0  501 -0.00000000000E+00  0.00000000000E+00  0.28206991893E+03  0.28206991893E+03  0.00000000000E+00 0.  1.
          1   -1    0    0  501    0  0.00000000000E+00 -0.00000000000E+00 -0.16047406482E+03  0.16047406482E+03  0.00000000000E+00 0. -1.
         25    2    1    2    0    0  0.17839495498E+03 -0.27805268898E+02  0.33537415920E+02  0.22219361838E+03  0.12508937940E+03 0.  0.
          5    1    3    3  502    0 -0.14706718002E+02 -0.46115629021E+01  0.22175932907E+02  0.27327613637E+02  0.41800000000E+01 0.  1.
         -5    1    3    3    0  502  0.19310167299E+03 -0.23193705996E+02  0.11361483014E+02  0.19486600474E+03  0.41800000000E+01 0.  1.
        -11    1    1    2    0    0 -0.18082659745E+03  0.41977160566E+02  0.72842076099E+02  0.19941491520E+03  0.00000000000E+00 0. -1.
         11    1    1    2    0    0  0.24316424645E+01 -0.14171891668E+02  0.15216362092E+02  0.20935450170E+02  0.00000000000E+00 0.  1.
</event>
<event>
 7    1  0.2499014E-009  0.1112676E+03  0.7561462E-02  0.1258240E+00
         -1   -1    0    0    0  501 -0.00000000000E+00  0.00000000000E+00  0.76705134718E+02  0.76705134718E+02  0.00000000000E+00 0.  1.
          1   -1    0    0  501    0  0.00000000000E+00 -0.00000000000E+00 -0.19538883092E+03  0.19538883092E+03  0.00000000000E+00 0. -1.
         25    2    1    2    0    0  0.51832529589E+02  0.11046651770E+02 -0.87432687641E+02  0.16155782370E+03  0.12509123027E+03 0.  0.
          5    1    3    3  502    0 -0.21191814497E+02  0.42511519487E+02 -0.61491978019E+02  0.77814253524E+02  0.41800000000E+01 0.  1.
         -5    1    3    3    0  502  0.73024344086E+02 -0.31464867717E+02 -0.25940709622E+02  0.83743570173E+02  0.41800000000E+01 0.  1.
        -11    1    1    2    0    0 -0.14579699409E+02  0.33868133512E+02  0.11015916764E+02  0.38483353864E+02  0.00000000000E+00 0.  1.
         11    1    1    2    0    0 -0.37252830180E+02 -0.44914785282E+02 -0.42266925329E+02  0.72052788080E+02  0.00000000000E+00 0. -1.
</event>
<event>
 7    1  0.2499014E-009  0.1142902E+03  0.7561462E-02  0.1252825E+00
          2   -1    0    0  501    0  0.00000000000E+00  0.00000000000E+00  0.34182715946E+03  0.34182715946E+03  0.00000000000E+00 0. -1.
         -2   -1    0    0    0  501 -0.00000000000E+00 -0.00000000000E+00 -0.53870646642E+02  0.53870646642E+02  0.00000000000E+00 0.  1.
         25    2    1    2    0    0  0.38283394862E+02 -0.70914060981E+02  0.16596924949E+03  0.22290006472E+03  0.12507687520E+03 0.  0.
          5    1    3    3  502    0  0.55565340953E+02 -0.93362750267E+02  0.16031961226E+03  0.19371102376E+03  0.41800000000E+01 0. -1.
         -5    1    3    3    0  502 -0.17281946091E+02  0.22448689286E+02  0.56496372314E+01  0.29189040961E+02  0.41800000000E+01 0. -1.
        -11    1    1    2    0    0 -0.11010788697E+02  0.61326975780E+02  0.12881589861E+03  0.14309357485E+03  0.00000000000E+00 0. -1.
         11    1    1    2    0    0 -0.27272606165E+02  0.95870852009E+01 -0.68286352850E+01  0.29704166535E+02  0.00000000000E+00 0.  1.
</event>
<event>
 7    1  0.2499014E-009  0.8237940E+02  0.7561462E-02  0.1322432E+00
          2   -1    0    0  501    0  0.00000000000E+00  0.00000000000E+00  0.27300246257E+03  0.27300246257E+03  0.00000000000E+00 0.  1.
         -2   -1    0    0    0  501 -0.00000000000E+00 -0.00000000000E+00 -0.56402988739E+02  0.56402988739E+02  0.00000000000E+00 0. -1.
         25    2    1    2    0    0  0.15846740841E+02 -0.40552592770E+02  0.74305672210E+02  0.15187153430E+03  0.12509195831E+03 0.  0.
          5    1    3    3  502    0 -0.12270674675E+02  0.38785748026E+00  0.96460064081E+02  0.97327982887E+02  0.41800000000E+01 0.  1.
         -5    1    3    3    0  502  0.28117415516E+02 -0.40940450250E+02 -0.22154391871E+02  0.54543551417E+02  0.41800000000E+01 0.  1.
        -11    1    1    2    0    0  0.37035466363E+02  0.31365939777E+01  0.29463724688E+02  0.47429685462E+02  0.00000000000E+00 0.  1.
         11    1    1    2    0    0 -0.52882207205E+02  0.37415998792E+02  0.11283007693E+03  0.13010423154E+03  0.00000000000E+00 0. -1.
</event>
<event>
 7    1  0.2499014E-009  0.8266251E+02  0.7561462E-02  0.1321661E+00
         -2   -1    0    0    0  501 -0.00000000000E+00  0.00000000000E+00  0.44561120890E+02  0.44561120890E+02  0.00000000000E+00 0.  1.
          2   -1    0    0  501    0  0.00000000000E+00 -0.00000000000E+00 -0.38949348818E+03  0.38949348818E+03  0.00000000000E+00 0. -1.
         25    2    1    2    0    0 -0.67566726644E+02 -0.95021716999E+01 -0.24668750699E+03  0.28488284587E+03  0.12509179009E+03 0.  0.
          5    1    3    3  502    0 -0.78401407744E+02 -0.39297784286E+01 -0.25676441168E+03  0.26852869382E+03  0.41800000000E+01 0.  1.
         -5    1    3    3    0  502  0.10834681100E+02 -0.55723932714E+01  0.10076904690E+02  0.16354152055E+02  0.41800000000E+01 0.  1.
        -11    1    1    2    0    0  0.13726200015E+02  0.14247666034E+02  0.14239605328E+02  0.24375621308E+02  0.00000000000E+00 0.  1.
         11    1    1    2    0    0  0.53840526629E+02 -0.47454943345E+01 -0.11248446562E+03  0.12479614189E+03  0.00000000000E+00 0. -1.
</event>
<event>
 7    1  0.2499014E-009  0.2204845E+03  0.7561462E-02  0.1133522E+00
         -3   -1    0    0    0  501 -0.00000000000E+00  0.00000000000E+00  0.44541479746E+03  0.44541479746E+03  0.00000000000E+00 0.  1.
          3   -1    0    0  501    0  0.00000000000E+00 -0.00000000000E+00 -0.12533513078E+03  0.12533513078E+03  0.00000000000E+00 0. -1.
         25    2    1    2    0    0  0.11774427062E+03 -0.17215852586E+03  0.15899252880E+03  0.29056500266E+03  0.12508846976E+03 0.  0.
          5    1    3    3  502    0 -0.18904478525E+02 -0.20421253614E+02  0.54058450023E+02  0.60944198464E+02  0.41800000000E+01 0. -1.
         -5    1    3    3    0  502  0.13664874914E+03 -0.15173727225E+03  0.10493407877E+03  0.22962080420E+03  0.41800000000E+01 0. -1.
        -11    1    1    2    0    0 -0.87231150174E+02  0.12948578811E+03  0.61844611217E+02  0.16793033919E+03  0.00000000000E+00 0. -1.
         11    1    1    2    0    0 -0.30513120443E+02  0.42672737755E+02  0.99242526670E+02  0.11225458639E+03  0.00000000000E+00 0.  1.
</event>
<event>
 7    1  0.2499014E-009  0.8824600E+02  0.7561462E-02  0.1307156E+00
         -1   -1    0    0    0  501 -0.00000000000E+00  0.00000000000E+00  0.11071191161E+03  0.11071191161E+03  0.00000000000E+00 0.  1.
          1   -1    0    0  501    0  0.00000000000E+00 -0.00000000000E+00 -0.87929664574E+02  0.87929664574E+02  0.00000000000E+00 0. -1.
         25    2    1    2    0    0 -0.16265261583E+02  0.32004602852E+01 -0.15548164038E+02  0.12713674017E+03  0.12508878294E+03 0.  0.
          5    1    3    3  502    0  0.52180178215E+02 -0.16179779360E+02 -0.96497976442E+01  0.55634047608E+02  0.41800000000E+01 0.  1.
         -5    1    3    3    0  502 -0.68445439798E+02  0.19380239645E+02 -0.58983663940E+01  0.71502692564E+02  0.41800000000E+01 0.  1.
        -11    1    1    2    0    0  0.10303158439E+02  0.22134611821E+02  0.38368232755E+02  0.45477658240E+02  0.00000000000E+00 0.  1.
         11    1    1    2    0    0  0.59621031442E+01 -0.25335072106E+02 -0.37821676398E-01  0.26027177777E+02  0.00000000000E+00 0. -1.
</event>
<event>
 7    1  0.2499014E-009  0.1682752E+03  0.7561462E-02  0.1179659E+00
         -1   -1    0    0    0  501 -0.00000000000E+00  0.00000000000E+00  0.17865198780E+04  0.17865198780E+04  0.00000000000E+00 0.  1.
          1   -1    0    0  501    0  0.00000000000E+00 -0.00000000000E+00 -0.20199435622E+02  0.20199435622E+02  0.00000000000E+00 0. -1.
         25    2    1    2    0    0 -0.13594157710E+03 -0.43939384748E+01  0.12838691808E+04  0.12970993805E+04  0.12508921022E+03 0.  0.
          5    1    3    3  502    0 -0.95297571124E+02  0.50884526513E+02  0.95654526323E+03  0.96263553597E+03  0.41800000000E+01 0.  1.
         -5    1    3    3    0  502 -0.40644005980E+02 -0.55278464988E+02  0.32732391752E+03  0.33446384453E+03  0.41800000000E+01 0.  1.
        -11    1    1    2    0    0  0.76140924446E+02 -0.39252861486E+02  0.19889944234E+03  0.21656226743E+03  0.00000000000E+00 0. -1.
         11    1    1    2    0    0  0.59800652658E+02  0.43646799961E+02  0.28355181933E+03  0.29305766574E+03  0.00000000000E+00 0.  1.
</event>
<event>
 7    1  0.2499014E-009  0.1330265E+03  0.7561462E-02  0.1223033E+00
         -1   -1    0    0    0  501 -0.00000000000E+00  0.00000000000E+00  0.30301153575E+02  0.30301153575E+02  0.00000000000E+00 0.  1.
          1   -1    0    0  501    0  0.00000000000E+00 -0.00000000000E+00 -0.95456350816E+03  0.95456350816E+03  0.00000000000E+00 0. -1.
         25    2    1    2    0    0  0.42562170048E+02 -0.25661152938E+02 -0.70866780364E+03  0.72133842879E+03  0.12509612238E+03 0.  0.
          5    1    3    3  502    0  0.18649064383E+02  0.50374452995E+02 -0.32764962297E+03  0.33204987720E+03  0.41800000000E+01 0. -1.
         -5    1    3    3    0  502  0.23913105665E+02 -0.76035605933E+02 -0.38101818067E+03  0.38928855159E+03  0.41800000000E+01 0. -1.
        -11    1    1    2    0    0 -0.38983091475E+02 -0.46176548912E+02 -0.36672970320E+02  0.70688484511E+02  0.00000000000E+00 0.  1.
         11    1    1    2    0    0 -0.35790785732E+01  0.71837701850E+02 -0.17892158062E+03  0.19283774844E+03  0.00000000000E+00 0. -1.
</event>
<event>
 7    1  0.2499014E-009  0.7981074E+02  0.7561462E-02  0.1329589E+00
         -2   -1    0    0    0  501 -0.00000000000E+00  0.00000000000E+00  0.62181234137E+02  0.62181234137E+02  0.00000000000E+00 0.  1.
          2   -1    0    0  501    0  0.00000000000E+00 -0.00000000000E+00 -0.21463247174E+03  0.21463247174E+03  0.00000000000E+00 0. -1.
         25    2    1    2    0    0 -0.19155702900E+02  0.11570264264E+02 -0.14434026091E+03  0.19230850419E+03  0.12509051881E+03 0.  0.
          5    1    3    3  502    0  0.44162226963E+02 -0.47561995558E+01 -0.10919075191E+03  0.11795345026E+03  0.41800000000E+01 0.  1.
         -5    1    3    3    0  502 -0.63317929864E+02  0.16326463819E+02 -0.35149508994E+02  0.74355053934E+02  0.41800000000E+01 0.  1.
        -11    1    1    2    0    0  0.27262176701E+02  0.79091972132E+01  0.29776483238E+02  0.41139040254E+02  0.00000000000E+00 0.  1.
         11    1    1    2    0    0 -0.81064738002E+01 -0.19479461477E+02 -0.37887459936E+02  0.43366161432E+02  0.00000000000E+00 0. -1.
</event>
<event>
 7    1  0.2499014E-009  0.1064294E+03  0.7561462E-02  0.1267329E+00
         -2   -1    0    0    0  501 -0.00000000000E+00  0.00000000000E+00  0.16970710873E+02  0.16970710873E+02  0.00000000000E+00 0.  1.
          2   -1    0    0  501    0  0.00000000000E+00 -0.00000000000E+00 -0.69888482485E+03  0.69888482485E+03  0.00000000000E+00 0. -1.
         25    2    1    2    0    0  0.42368094270E+02  0.22482268153E+01 -0.42063601458E+03  0.44088773481E+03  0.12508888042E+03 0.  0.
          5    1    3    3  502    0  0.10113680895E+02 -0.59150219873E+02 -0.23792850779E+03  0.24541491860E+03  0.41800000000E+01 0.  1.
         -5    1    3    3    0  502  0.32254413375E+02  0.61398446689E+02 -0.18270750679E+03  0.19547281620E+03  0.41800000000E+01 0.  1.
        -11    1    1    2    0    0 -0.16255748249E+01 -0.32460923479E+02 -0.71719734575E+02  0.78740551015E+02  0.00000000000E+00 0.  1.
         11    1    1    2    0    0 -0.40742519445E+02  0.30212696664E+02 -0.18955836482E+03  0.19622724990E+03  0.00000000000E+00 0. -1.
</event>
<event>
 7    1  0.2499014E-009  0.1048749E+03  0.7561462E-02  0.1270366E+00
         -1   -1    0    0    0  501 -0.00000000000E+00  0.00000000000E+00  0.72227980094E+02  0.72227980094E+02  0.00000000000E+00 0.  1.
          1   -1    0    0  501    0  0.00000000000E+00 -0.00000000000E+00 -0.17733149730E+03  0.17733149730E+03  0.00000000000E+00 0. -1.
         25    2    1    2    0    0 -0.10748198714E+02 -0.58751736336E+01 -0.23334331589E+02  0.12783259106E+03  0.12508652551E+03 0.  0.
          5    1    3    3  502    0  0.50086626141E+02 -0.25446256822E+02  0.73616390807E+01  0.56814155229E+02  0.41800000000E+01 0.  1.
         -5    1    3    3    0  502 -0.60834824855E+02  0.19571083189E+02 -0.30695970669E+02  0.71018435830E+02  0.41800000000E+01 0.  1.
        -11    1    1    2    0    0 -0.39202073230E+02  0.36724500287E+01 -0.28072841088E+02  0.48356735224E+02  0.00000000000E+00 0. -1.
         11    1    1    2    0    0  0.49950271944E+02  0.22027236049E+01 -0.53696344533E+02  0.73370151116E+02  0.00000000000E+00 0.  1.
</event>
<event>
 7    1  0.2499014E-009  0.1036583E+03  0.7561462E-02  0.1272786E+00
          2   -1    0    0  501    0  0.00000000000E+00  0.00000000000E+00  0.20758577206E+03  0.20758577206E+03  0.00000000000E+00 0.  1.
         -2   -1    0    0    0  501 -0.00000000000E+00 -0.00000000000E+00 -0.62677462207E+02  0.62677462207E+02  0.00000000000E+00 0. -1.
         25    2    1    2    0    0 -0.18091712658E+02 -0.19352642911E+02  0.50633403528E+02  0.13752231284E+03  0.12508721006E+03 0.  0.
          5    1    3    3  502    0 -0.65121041934E+02 -0.95292805441E+01  0.59105684526E+02  0.88557956354E+02  0.41800000000E+01 0. -1.
         -5    1    3    3    0  502  0.47029329276E+02 -0.98233623665E+01 -0.84722809980E+01  0.48964356482E+02  0.41800000000E+01 0. -1.
        -11    1    1    2    0    0 -0.32573032097E+02 -0.10640187598E+02  0.29607037100E+02  0.45285678287E+02  0.00000000000E+00 0.  1.
         11    1    1    2    0    0  0.50664744755E+02  0.29992830508E+02  0.64667869221E+02  0.87455243139E+02  0.00000000000E+00 0. -1.
</event>
<event>
 7    1  0.2789103E-009  0.2271699E+03  0.7561462E-02  0.1128648E+00
          1   -1    0    0  501    0  0.00000000000E+00  0.00000000000E+00  0.14534688964E+04  0.14534688964E+04  0.00000000000E+00 0. -1.
         -1   -1    0    0    0  501 -0.00000000000E+00 -0.00000000000E+00 -0.41264145725E+02  0.41264145725E+02  0.00000000000E+00 0.  1.
         25    2    1    2    0    0  0.35981493110E+02  0.21242714904E+03  0.60681321642E+03  0.65596507885E+03  0.12509174055E+03 0.  0.
          5    1    3    3  502    0  0.39360990136E+02  0.89551551029E+02  0.12543722393E+03  0.15912491126E+03  0.41800000000E+01 0.  1.
         -5    1    3    3    0  502 -0.33794970261E+01  0.12287559802E+03  0.48137599249E+03  0.49684016759E+03  0.41800000000E+01 0.  1.
        -11    1    1    2    0    0  0.28121624431E+02 -0.10146256873E+03  0.39841047557E+03  0.41208783730E+03  0.00000000000E+00 0.  1.
         11    1    1    2    0    0 -0.64103117541E+02 -0.11096458032E+03  0.40698105866E+03  0.42668012593E+03  0.00000000000E+00 0. -1.
</event>
<event>
 7    1  0.2499014E-009  0.9221642E+02  0.7561462E-02  0.1297571E+00
         -1   -1    0    0    0  501 -0.00000000000E+00  0.00000000000E+00  0.26478313305E+02  0.26478313305E+02  0.00000000000E+00 0. -1.
          1   -1    0    0  501    0  0.00000000000E+00 -0.00000000000E+00 -0.57699206834E+03  0.57699206834E+03  0.00000000000E+00 0.  1.
         25    2    1    2    0    0 -0.17021269734E+02 -0.17875907895E+02 -0.16899406762E+03  0.21168773639E+03  0.12507370284E+03 0.  0.
          5    1    3    3  502    0  0.39967939872E+02 -0.14000671433E+02 -0.14224777227E+03  0.14847678652E+03  0.41800000000E+01 0. -1.
         -5    1    3    3    0  502 -0.56989209606E+02 -0.38752364618E+01 -0.26746295346E+02  0.63210949873E+02  0.41800000000E+01 0. -1.
        -11    1    1    2    0    0  0.49278662359E+02  0.38478747074E+01 -0.28030595734E+03  0.28463067723E+03  0.00000000000E+00 0.  1.
         11    1    1    2    0    0 -0.32257392626E+02  0.14028033187E+02 -0.10121373008E+03  0.10715196802E+03  0.00000000000E+00 0. -1.
</event>
<event>
 7    1  0.2499014E-009  0.3076801E+03  0.7561462E-02  0.1081463E+00
          1   -1    0    0  501    0  0.00000000000E+00  0.00000000000E+00  0.63912220352E+02  0.63912220352E+02  0.00000000000E+00 0. -1.
         -1   -1    0    0    0  501 -0.00000000000E+00 -0.00000000000E+00 -0.16214719699E+04  0.16214719699E+04  0.00000000000E+00 0.  1.
         25    2    1    2    0    0 -0.51732620401E+02 -0.29693174279E+03 -0.86720420993E+03  0.92657172122E+03  0.12508912401E+03 0.  0.
          5    1    3    3  502    0 -0.35510146078E+01 -0.19984098282E+03 -0.69387376707E+03  0.72209923497E+03  0.41800000000E+01 0. -1.
         -5    1    3    3    0  502 -0.48181605793E+02 -0.97090759977E+02 -0.17333044287E+03  0.20447248625E+03  0.41800000000E+01 0. -1.
        -11    1    1    2    0    0  0.47872891087E+02  0.10955154639E+03 -0.18974783638E+03  0.22427125636E+03  0.00000000000E+00 0.  1.
         11    1    1    2    0    0  0.38597293133E+01  0.18738019641E+03 -0.50060770328E+03  0.53454121272E+03  0.00000000000E+00 0. -1.
</event>
<event>
 7    1  0.2499014E-009  0.9923174E+02  0.7561462E-02  0.1281920E+00
          1   -1    0    0  501    0  0.00000000000E+00  0.00000000000E+00  0.21482665560E+02  0.21482665560E+02  0.00000000000E+00 0. -1.
         -1   -1    0    0    0  501 -0.00000000000E+00 -0.00000000000E+00 -0.61076619603E+03  0.61076619603E+03  0.00000000000E+00 0.  1.
         25    2    1    2    0    0 -0.20787680289E+02 -0.12053669148E+02 -0.25937992559E+03  0.28896911300E+03  0.12509110231E+03 0.  0.
          5    1    3    3  502    0 -0.58588542994E+02 -0.25006437907E+02 -0.67415167481E+02  0.92845121107E+02  0.41800000000E+01 0.  1.
         -5    1    3    3    0  502  0.37800862705E+02  0.12952768759E+02 -0.19196475811E+03  0.19612399189E+03  0.41800000000E+01 0.  1.
        -11    1    1    2    0    0 -0.84157989441E+01 -0.36680597559E+02 -0.11551424721E+03  0.12149005399E+03  0.00000000000E+00 0. -1.
         11    1    1    2    0    0  0.29203479233E+02  0.48734266707E+02 -0.21438935767E+03  0.22178969460E+03  0.00000000000E+00 0.  1.
</event>
<event>
 7    1  0.2499014E-009  0.1037907E+03  0.7561462E-02  0.1272521E+00
         -2   -1    0    0    0  501 -0.00000000000E+00  0.00000000000E+00  0.68655677919E+01  0.68655677919E+01  0.00000000000E+00 0.  1.
          2   -1    0    0  501    0  0.00000000000E+00 -0.00000000000E+00 -0.32305519548E+04  0.32305519548E+04  0.00000000000E+00 0. -1.
         25    2    1    2    0    0  0.46954678988E+02 -0.24800168102E+02 -0.26884729732E+04  0.26919052407E+04  0.12508839558E+03 0.  0.
          5    1    3    3  502    0 -0.16020913541E+02 -0.34512272923E+02 -0.28210394968E+03  0.28468908915E+03  0.41800000000E+01 0. -1.
         -5    1    3    3    0  502  0.62975592529E+02  0.97121048205E+01 -0.24063690236E+04  0.24072161515E+04  0.41800000000E+01 0. -1.
        -11    1    1    2    0    0 -0.40654877584E+02 -0.29848284645E+02 -0.24727928056E+03  0.25237032662E+03  0.00000000000E+00 0.  1.
         11    1    1    2    0    0 -0.62998014046E+01  0.54648452747E+02 -0.28793413322E+03  0.29314195530E+03  0.00000000000E+00 0. -1.
</event>
<event>
 7    1  0.2499014E-009  0.9777977E+02  0.7561462E-02  0.1285035E+00
         -2   -1    0    0    0  501 -0.00000000000E+00  0.00000000000E+00  0.96922955393E+02  0.96922955393E+02  0.00000000000E+00 0.  1.
          2   -1    0    0  501    0  0.00000000000E+00 -0.00000000000E+00 -0.16932152216E+03  0.16932152216E+03  0.00000000000E+00 0. -1.
         25    2    1    2    0    0 -0.60640426225E+02 -0.28974630908E+02 -0.29620562177E+02  0.14506182995E+03  0.12509502898E+03 0.  0.
          5    1    3    3  502    0 -0.69916372380E+02  0.23569810598E+02 -0.48403222775E+02  0.88341267103E+02  0.41800000000E+01 0. -1.
         -5    1    3    3    0  502  0.92759461547E+01 -0.52544441506E+02  0.18782660598E+02  0.56720562844E+02  0.41800000000E+01 0. -1.
        -11    1    1    2    0    0  0.37349759568E+02  0.11695549809E+02  0.25696695009E+02  0.46819980345E+02  0.00000000000E+00 0.  1.
         11    1    1    2    0    0  0.23290666657E+02  0.17279081099E+02 -0.68474699600E+02  0.74362667261E+02  0.00000000000E+00 0. -1.
</event>
<event>
 7    1  0.2499014E-009  0.1128784E+03  0.7561462E-02  0.1255330E+00
         -2   -1    0    0    0  501 -0.00000000000E+00  0.00000000000E+00  0.17579027454E+02  0.17579027454E+02  0.00000000000E+00 0.  1.
          2   -1    0    0  501    0  0.00000000000E+00 -0.00000000000E+00 -0.97132454665E+03  0.97132454665E+03  0.00000000000E+00 0. -1.
         25    2    1    2    0    0  0.19102808317E+02  0.65508186588E+02 -0.61406889209E+03  0.63038388997E+03  0.12508798788E+03 0.  0.
          5    1    3    3  502    0  0.14702615666E+02  0.87666982922E+02 -0.59157489592E+03  0.59823072195E+03  0.41800000000E+01 0.  1.
         -5    1    3    3    0  502  0.44001926515E+01 -0.22158796333E+02 -0.22493996169E+02  0.32153168024E+02  0.41800000000E+01 0.  1.
        -11    1    1    2    0    0 -0.40471973281E+02  0.43818086810E+01 -0.10068431683E+03  0.10860254382E+03  0.00000000000E+00 0.  1.
         11    1    1    2    0    0  0.21369164964E+02 -0.69889995269E+02 -0.23899231028E+03  0.24991714031E+03  0.00000000000E+00 0. -1.
</event>
<event>
 7    1  0.2499014E-009  0.9995006E+02  0.7561462E-02  0.1280401E+00
         -2   -1    0    0    0  501 -0.00000000000E+00  0.00000000000E+00  0.39720961353E+02  0.39720961353E+02  0.00000000000E+00 0. -1.
          2   -1    0    0  501    0  0.00000000000E+00 -0.00000000000E+00 -0.31856598680E+03  0.31856598680E+03  0.00000000000E+00 0.  1.
         25    2    1    2    0    0  0.10085774662E+02  0.27137110160E+02 -0.16324659112E+03  0.20768942428E+03  0.12508917559E+03 0.  0.
          5    1    3    3  502    0  0.32350555666E+02 -0.33658221149E+02 -0.12228962292E+03  0.13096434086E+03  0.41800000000E+01 0. -1.
         -5    1    3    3    0  502 -0.22264781005E+02  0.60795331309E+02 -0.40956968196E+02  0.76725083421E+02  0.41800000000E+01 0. -1.
        -11    1    1    2    0    0  0.36536804116E+02 -0.62706389415E+01 -0.80489060756E+02  0.88615731499E+02  0.00000000000E+00 0.  1.
         11    1    1    2    0    0 -0.46622578777E+02 -0.20866471219E+02 -0.35109373573E+02  0.61981792372E+02  0.00000000000E+00 0. -1.
</event>
<event>
 7    1  0.2499014E-009  0.3408449E+03  0.7561462E-02  0.1066437E+00
          2   -1    0    0  501    0  0.00000000000E+00  0.00000000000E+00  0.30028967691E+03  0.30028967691E+03  0.00000000000E+00 0. -1.
         -2   -1    0    0    0  501 -0.00000000000E+00 -0.00000000000E+00 -0.43407682592E+03  0.43407682592E+03  0.00000000000E+00 0.  1.
         25    2    1    2    0    0  0.32751964747E+03  0.78621710803E+01  0.39826330610E+02  0.35293769784E+03  0.12509176124E+03 0.  0.
          5    1    3    3  502    0  0.31237040092E+03 -0.19616352674E+02  0.16190513054E+02  0.31343208798E+03  0.41800000000E+01 0. -1.
         -5    1    3    3    0  502  0.15149246555E+02  0.27478523754E+02  0.23635817556E+02  0.39505609860E+02  0.41800000000E+01 0. -1.
        -11    1    1    2    0    0 -0.73199305509E+01  0.14290453735E+02  0.91343242015E+00  0.16082064855E+02  0.00000000000E+00 0.  1.
         11    1    1    2    0    0 -0.32019971692E+03 -0.22152624815E+02 -0.17452691205E+03  0.36534674014E+03  0.00000000000E+00 0. -1.
</event>
<event>
 7    1  0.2499014E-009  0.1111330E+03  0.7561462E-02  0.1258486E+00
          3   -1    0    0  501    0  0.00000000000E+00  0.00000000000E+00  0.33589491829E+02  0.33589491829E+02  0.00000000000E+00 0. -1.
         -3   -1    0    0    0  501 -0.00000000000E+00 -0.00000000000E+00 -0.39105509606E+03  0.39105509606E+03  0.00000000000E+00 0.  1.
         25    2    1    2    0    0  0.20852293074E+02 -0.16565677471E+02 -0.24928264916E+03  0.28017619287E+03  0.12509044760E+03 0.  0.
          5    1    3    3  502    0  0.73463567539E+02 -0.54121602984E+01 -0.13681557115E+03  0.15544182238E+03  0.41800000000E+01 0. -1.
         -5    1    3    3    0  502 -0.52611274465E+02 -0.11153517172E+02 -0.11246707800E+03  0.12473437049E+03  0.41800000000E+01 0. -1.
        -11    1    1    2    0    0  0.15556650079E+02  0.45468165500E+02 -0.43542814398E+02  0.64848593826E+02  0.00000000000E+00 0.  1.
         11    1    1    2    0    0 -0.36408943153E+02 -0.28902488029E+02 -0.64640140676E+02  0.79619801195E+02  0.00000000000E+00 0. -1.
</event>
<event>
 7    1  0.2499014E-009  0.1412979E+03  0.7561462E-02  0.1211593E+00
         -1   -1    0    0    0  501 -0.00000000000E+00  0.00000000000E+00  0.74252303078E+02  0.74252303078E+02  0.00000000000E+00 0.  1.
          1   -1    0    0  501    0  0.00000000000E+00 -0.00000000000E+00 -0.42031120991E+03  0.42031120991E+03  0.00000000000E+00 0. -1.
         25    2    1    2    0    0 -0.10539231010E+03  0.29742500603E+02 -0.29543995555E+03  0.33900503080E+03  0.12508992047E+03 0.  0.
          5    1    3    3  502    0 -0.87358555417E+02 -0.13596984570E+02 -0.82785904164E+02  0.12119147463E+03  0.41800000000E+01 0.  1.
         -5    1    3    3    0  502 -0.18033754688E+02  0.43339485173E+02 -0.21265405139E+03  0.21781355618E+03  0.41800000000E+01 0.  1.
        -11    1    1    2    0    0  0.44315948408E+02  0.36094186934E+02 -0.22923322638E+02  0.61580616549E+02  0.00000000000E+00 0.  1.
         11    1    1    2    0    0  0.61076361696E+02 -0.65836687537E+02 -0.27695628646E+02  0.93977865639E+02  0.00000000000E+00 0. -1.
</event>
<event>
 7    1  0.2499014E-009  0.1626549E+03  0.7561462E-02  0.1185732E+00
         -1   -1    0    0    0  501 -0.00000000000E+00  0.00000000000E+00  0.12973268870E+03  0.12973268870E+03  0.00000000000E+00 0.  1.
          1   -1    0    0  501    0  0.00000000000E+00 -0.00000000000E+00 -0.27265165971E+03  0.27265165971E+03  0.00000000000E+00 0. -1.
         25    2    1    2    0    0  0.13794708794E+03 -0.39594883400E+02 -0.17383099412E+02  0.19117278288E+03  0.12509079466E+03 0.  0.
          5    1    3    3  502    0  0.31430457434E+02 -0.39521558573E+02 -0.58075069792E+02  0.77071482261E+02  0.41800000000E+01 0. -1.
         -5    1    3    3    0  502  0.10651663050E+03 -0.73324826721E-01  0.40691970380E+02  0.11410130062E+03  0.41800000000E+01 0. -1.
        -11    1    1    2    0    0  0.41496705467E+01 -0.15192998681E+02 -0.36948275943E+01  0.16177104979E+02  0.00000000000E+00 0.  1.
         11    1    1    2    0    0 -0.14209675848E+03  0.54787882081E+02 -0.12184104400E+03  0.19503446054E+03  0.00000000000E+00 0. -1.
</event>
<event>
 7    1  0.2499014E-009  0.9840360E+02  0.7561462E-02  0.1283689E+00
          1   -1    0    0  501    0  0.00000000000E+00  0.00000000000E+00  0.12218624577E+03  0.12218624577E+03  0.00000000000E+00 0. -1.
         -1   -1    0    0    0  501 -0.00000000000E+00 -0.00000000000E+00 -0.11167896058E+03  0.11167896058E+03  0.00000000000E+00 0.  1.
         25    2    1    2    0    0  0.41013820416E+01  0.49976619878E+02 -0.19571505226E+02  0.13618066335E+03  0.12509054875E+03 0.  0.
          5    1    3    3  502    0  0.28169336475E+02  0.79634675206E+02 -0.38991155684E+02  0.93128812052E+02  0.41800000000E+01 0.  1.
         -5    1    3    3    0  502 -0.24067954433E+02 -0.29658055329E+02  0.19419650458E+02  0.43051851301E+02  0.41800000000E+01 0.  1.
        -11    1    1    2    0    0  0.25039200742E+02 -0.25720884339E+02 -0.14893048708E+02  0.38862943337E+02  0.00000000000E+00 0.  1.
         11    1    1    2    0    0 -0.29140582784E+02 -0.24255735539E+02  0.44971839133E+02  0.58821599659E+02  0.00000000000E+00 0. -1.
</event>
<event>
 7    1  0.2499014E-009  0.8423258E+02  0.7561462E-02  0.1317452E+00
         -1   -1    0    0    0  501 -0.00000000000E+00  0.00000000000E+00  0.27667538192E+02  0.27667538192E+02  0.00000000000E+00 0. -1.
          1   -1    0    0  501    0  0.00000000000E+00 -0.00000000000E+00 -0.63569631122E+03  0.63569631122E+03  0.00000000000E+00 0.  1.
         25    2    1    2    0    0 -0.45707233941E+02  0.60905794496E+02 -0.32747892493E+03  0.35873150171E+03  0.12508867659E+03 0.  0.
          5    1    3    3  502    0 -0.72934563730E+01  0.41211298048E+02 -0.17207805051E+02  0.45443883497E+02  0.41800000000E+01 0. -1.
         -5    1    3    3    0  502 -0.38413777568E+02  0.19694496448E+02 -0.31027111988E+03  0.31328761822E+03  0.41800000000E+01 0. -1.
        -11    1    1    2    0    0  0.84024519756E+01 -0.38742605050E+02 -0.28375570051E+02  0.48752062736E+02  0.00000000000E+00 0. -1.
         11    1    1    2    0    0  0.37304781965E+02 -0.22163189445E+02 -0.25217427805E+03  0.25588028496E+03  0.00000000000E+00 0.  1.
</event>
<event>
 7    1  0.2499014E-009  0.2912821E+03  0.7561462E-02  0.1089682E+00
          2   -1    0    0  501    0  0.00000000000E+00  0.00000000000E+00  0.14470426499E+03  0.14470426499E+03  0.00000000000E+00 0. -1.
         -2   -1    0    0    0  501 -0.00000000000E+00 -0.00000000000E+00 -0.61122231460E+03  0.61122231460E+03  0.00000000000E+00 0.  1.
         25    2    1    2    0    0 -0.48029447083E+02 -0.26950066358E+03 -0.22135976996E+03  0.37361039176E+03  0.12508853510E+03 0.  0.
          5    1    3    3  502    0  0.29159412613E+02 -0.50441348312E+02 -0.94410081001E+01  0.59170989492E+02  0.41800000000E+01 0. -1.
         -5    1    3    3    0  502 -0.77188859696E+02 -0.21905931527E+03 -0.21191876186E+03  0.31443940227E+03  0.41800000000E+01 0. -1.
        -11    1    1    2    0    0  0.16167712716E+02  0.25718648898E+03 -0.22805338627E+03  0.34411427177E+03  0.00000000000E+00 0.  1.
         11    1    1    2    0    0  0.31861734367E+02  0.12314174601E+02 -0.17104893387E+02  0.38201916061E+02  0.00000000000E+00 0. -1.
</event>
<event>
 7    1  0.2499014E-009  0.8269857E+02  0.7561462E-02  0.1321563E+00
         -1   -1    0    0    0  501 -0.00000000000E+00  0.00000000000E+00  0.11575092153E+03  0.11575092153E+03  0.00000000000E+00 0.  1.
          1   -1    0    0  501    0  0.00000000000E+00 -0.00000000000E+00 -0.18666319041E+03  0.18666319041E+03  0.00000000000E+00 0. -1.
         25    2    1    2    0    0  0.15786039883E+02 -0.91370596745E+01 -0.13728640388E+03  0.18662230763E+03  0.12509054362E+03 0.  0.
          5    1    3    3  502    0 -0.19848905486E+02 -0.39456536450E+02 -0.31251960336E+01  0.44475123023E+02  0.41800000000E+01 0.  1.
         -5    1    3    3    0  502  0.35634945369E+02  0.30319476776E+02 -0.13416120784E+03  0.14214718461E+03  0.41800000000E+01 0.  1.
        -11    1    1    2    0    0  0.28363355916E+02 -0.22830046375E+01 -0.70896222314E+01  0.29324986144E+02  0.00000000000E+00 0. -1.
         11    1    1    2    0    0 -0.44149395799E+02  0.11420064312E+02  0.73463757223E+02  0.86466818165E+02  0.00000000000E+00 0.  1.
</event>
<event>
 7    1  0.2499014E-009  0.1025606E+03  0.7561462E-02  0.1275002E+00
          1   -1    0    0  501    0  0.00000000000E+00  0.00000000000E+00  0.13825706026E+03  0.13825706026E+03  0.00000000000E+00 0. -1.
         -1   -1    0    0    0  501 -0.00000000000E+00 -0.00000000000E+00 -0.15386984274E+03  0.15386984274E+03  0.00000000000E+00 0.  1.
         25    2    1    2    0    0 -0.61013175375E+01  0.97641570343E+02 -0.57583797179E+01  0.15889901195E+03  0.12507851425E+03 0.  0.
          5    1    3    3  502    0 -0.19326927469E+01  0.74658388648E+02 -0.62449264036E+02  0.97442256108E+02  0.41800000000E+01 0. -1.
         -5    1    3    3    0  502 -0.41686247907E+01  0.22983181695E+02  0.56690884318E+02  0.61456755839E+02  0.41800000000E+01 0. -1.
        -11    1    1    2    0    0  0.24320835822E+02 -0.50488018628E+02 -0.44822760103E+02  0.71760873067E+02  0.00000000000E+00 0.  1.
         11    1    1    2    0    0 -0.18219518285E+02 -0.47153551715E+02  0.34968357342E+02  0.61467017994E+02  0.00000000000E+00 0. -1.
</event>
<event>
 7    1  0.2499014E-009  0.8938547E+02  0.7561462E-02  0.1304347E+00
          2   -1    0    0  501    0  0.00000000000E+00  0.00000000000E+00  0.37374579647E+03  0.37374579647E+03  0.00000000000E+00 0. -1.
         -2   -1    0    0    0  501 -0.00000000000E+00 -0.00000000000E+00 -0.54983785234E+02  0.54983785234E+02  0.00000000000E+00 0.  1.
         25    2    1    2    0    0 -0.37109822312E+02 -0.13981483148E+02  0.29990746855E+03  0.32736017303E+03  0.12509025707E+03 0.  0.
          5    1    3    3  502    0 -0.73413180967E+02 -0.36187380348E+02  0.24111021448E+03  0.25465786767E+03  0.41800000000E+01 0.  1.
         -5    1    3    3    0  502  0.36303358654E+02  0.22205897200E+02  0.58797254066E+02  0.72702305368E+02  0.41800000000E+01 0.  1.
        -11    1    1    2    0    0  0.40290860531E+02  0.59377947317E+00 -0.30241735308E+02  0.50381232327E+02  0.00000000000E+00 0.  1.
         11    1    1    2    0    0 -0.31810382184E+01  0.13387703675E+02  0.49096277993E+02  0.50988176341E+02  0.00000000000E+00 0. -1.
</event>
<event>
 7    1  0.2499014E-009  0.1273409E+03  0.7561462E-02  0.1231456E+00
         -2   -1    0    0    0  501 -0.00000000000E+00  0.00000000000E+00  0.20387437682E+02  0.20387437682E+02  0.00000000000E+00 0.  1.
          2   -1    0    0  501    0  0.00000000000E+00 -0.00000000000E+00 -0.10391907400E+04  0.10391907400E+04  0.00000000000E+00 0. -1.
         25    2    1    2    0    0 -0.71602504971E+02 -0.60800583876E+02 -0.51703759775E+03  0.54018444501E+03  0.12509087667E+03 0.  0.
          5    1    3    3  502    0 -0.69212605383E+02 -0.77743928016E+02 -0.51108199385E+03  0.52159062484E+03  0.41800000000E+01 0. -1.
         -5    1    3    3    0  502 -0.23898995871E+01  0.16943344140E+02 -0.59556039044E+01  0.18593820171E+02  0.41800000000E+01 0. -1.
        -11    1    1    2    0    0  0.13784526366E+02  0.72589884049E+02 -0.31391303646E+03  0.32249139352E+03  0.00000000000E+00 0. -1.
         11    1    1    2    0    0  0.57817978604E+02 -0.11789300173E+02 -0.18785266807E+03  0.19690233912E+03  0.00000000000E+00 0.  1.
</event>
<event>
 7    1  0.2499014E-009  0.1189491E+03  0.7561462E-02  0.1244841E+00
          1   -1    0    0  501    0  0.00000000000E+00  0.00000000000E+00  0.45526630398E+02  0.45526630398E+02  0.00000000000E+00 0. -1.
         -1   -1    0    0    0  501 -0.00000000000E+00 -0.00000000000E+00 -0.58959592525E+03  0.58959592525E+03  0.00000000000E+00 0.  1.
         25    2    1    2    0    0  0.38910828766E+02 -0.11160650860E+03 -0.35012095936E+03  0.39013119987E+03  0.12509037363E+03 0.  0.
          5    1    3    3  502    0  0.46210295820E+01 -0.36227583880E+02 -0.73670939565E+01  0.37490508420E+02  0.41800000000E+01 0.  1.
         -5    1    3    3    0  502  0.34289799184E+02 -0.75378924719E+02 -0.34275386540E+03  0.35264069145E+03  0.41800000000E+01 0.  1.
        -11    1    1    2    0    0 -0.26099465353E+02  0.71215555805E+02 -0.40873150974E+02  0.86159456538E+02  0.00000000000E+00 0. -1.
         11    1    1    2    0    0 -0.12811363413E+02  0.40390952794E+02 -0.15307518453E+03  0.15883189924E+03  0.00000000000E+00 0.  1.
</event>
<event>
 7    1  0.2499014E-009  0.1094344E+03  0.7561462E-02  0.1261621E+00
          1   -1    0    0  501    0  0.00000000000E+00  0.00000000000E+00  0.28014512117E+03  0.28014512117E+03  0.00000000000E+00 0. -1.
         -1   -1    0    0    0  501 -0.00000000000E+00 -0.00000000000E+00 -0.79114294599E+02  0.79114294599E+02  0.00000000000E+00 0.  1.
         25    2    1    2    0    0  0.52575881916E+02  0.59674285752E+02  0.16017105227E+03  0.21823710906E+03  0.12508967203E+03 0.  0.
          5    1    3    3  502    0 -0.32466813534E+02 -0.40510927629E+01  0.10474256276E+02  0.34607626011E+02  0.41800000000E+01 0. -1.
         -5    1    3    3    0  502  0.85042695450E+02  0.63725378515E+02  0.14969679599E+03  0.18362948305E+03  0.41800000000E+01 0. -1.
        -11    1    1    2    0    0 -0.41935859541E+02 -0.47865033956E+02 -0.28598896013E+02  0.69768005878E+02  0.00000000000E+00 0.  1.
         11    1    1    2    0    0 -0.10640022375E+02 -0.11809251796E+02  0.69458670314E+02  0.71254300824E+02  0.00000000000E+00 0. -1.
</event>
<event>
 7    1  0.2499014E-009  0.1332508E+03  0.7561462E-02  0.1222710E+00
         -2   -1    0    0    0  501 -0.00000000000E+00  0.00000000000E+00  0.14683955033E+02  0.14683955033E+02  0.00000000000E+00 0.  1.
          2   -1    0    0  501    0  0.00000000000E+00 -0.00000000000E+00 -0.19776015052E+04  0.19776015052E+04  0.00000000000E+00 0. -1.
         25    2    1    2    0    0  0.79275919697E+01  0.99843353363E+02 -0.15384455341E+04  0.15467691552E+04  0.12509442852E+03 0.  0.
          5    1    3    3  502    0  0.46343372201E+02  0.65643827559E+02 -0.45249863206E+03  0.45959689366E+03  0.41800000000E+01 0.  1.
         -5    1    3    3    0  502 -0.38415780231E+02  0.34199525804E+02 -0.10859469021E+04  0.10871722615E+04  0.41800000000E+01 0.  1.
        -11    1    1    2    0    0 -0.18447179605E+02  0.12059617663E+02 -0.52622636196E+02  0.57051508778E+02  0.00000000000E+00 0.  1.
         11    1    1    2    0    0  0.10519587636E+02 -0.11190297103E+03 -0.37184937986E+03  0.38846479628E+03  0.00000000000E+00 0. -1.
</event>
<event>
 7    1  0.2499014E-009  0.1012627E+03  0.7561462E-02  0.1277663E+00
         -1   -1    0    0    0  501 -0.00000000000E+00  0.00000000000E+00  0.29173563189E+02  0.29173563189E+02  0.00000000000E+00 0.  1.
          1   -1    0    0  501    0  0.00000000000E+00 -0.00000000000E+00 -0.83752003186E+03  0.83752003186E+03  0.00000000000E+00 0. -1.
         25    2    1    2    0    0  0.46087165946E+02 -0.24583117769E+02 -0.70832514255E+03  0.72117985969E+03  0.12509007123E+03 0.  0.
          5    1    3    3  502    0 -0.21571214074E+02  0.64201957682E+01 -0.25377669647E+02  0.34176522746E+02  0.41800000000E+01 0.  1.
         -5    1    3    3    0  502  0.67658380020E+02 -0.31003313537E+02 -0.68294747290E+03  0.68700333695E+03  0.41800000000E+01 0.  1.
        -11    1    1    2    0    0  0.23169131858E+02 -0.12718477587E+02 -0.32135101319E+02  0.41608089117E+02  0.00000000000E+00 0. -1.
         11    1    1    2    0    0 -0.69256297804E+02  0.37301595356E+02 -0.67886224801E+02  0.10390564623E+03  0.00000000000E+00 0.  1.
</event>
<event>
 7    1  0.2499014E-009  0.1413925E+03  0.7561462E-02  0.1211467E+00
         -1   -1    0    0    0  501 -0.00000000000E+00  0.00000000000E+00  0.20097391794E+03  0.20097391794E+03  0.00000000000E+00 0.  1.
          1   -1    0    0  501    0  0.00000000000E+00 -0.00000000000E+00 -0.11763178546E+03  0.11763178546E+03  0.00000000000E+00 0. -1.
         25    2    1    2    0    0 -0.98308363596E+02  0.18763840506E+02 -0.13620992219E+00  0.16019718104E+03  0.12508597921E+03 0.  0.
          5    1    3    3  502    0 -0.12115604737E+03  0.25912924086E+02 -0.23852343088E+02  0.12624054071E+03  0.41800000000E+01 0. -1.
         -5    1    3    3    0  502  0.22847683773E+02 -0.71490835802E+01  0.23716133166E+02  0.33956640325E+02  0.41800000000E+01 0. -1.
        -11    1    1    2    0    0  0.55605543930E+02 -0.55221609517E+02  0.45439981550E+02  0.90588048862E+02  0.00000000000E+00 0.  1.
         11    1    1    2    0    0  0.42702819666E+02  0.36457769011E+02  0.38038360858E+02  0.67820473498E+02  0.00000000000E+00 0. -1.
</event>
<event>
 7    1  0.2499014E-009  0.1312132E+03  0.7561462E-02  0.1225667E+00
          1   -1    0    0  501    0  0.00000000000E+00  0.00000000000E+00  0.12194689754E+04  0.12194689754E+04  0.00000000000E+00 0. -1.
         -1   -1    0    0    0  501 -0.00000000000E+00 -0.00000000000E+00 -0.16691539109E+02  0.16691539109E+02  0.00000000000E+00 0.  1.
         25    2    1    2    0    0 -0.19995374519E+02 -0.86589282287E+02  0.62285249238E+03  0.64147442994E+03  0.12508676268E+03 0.  0.
          5    1    3    3  502    0 -0.89143938558E+00  0.21421490239E+02  0.23226938599E+02  0.31884761014E+02  0.41800000000E+01 0.  1.
         -5    1    3    3    0  502 -0.19103935134E+02 -0.10801077253E+03  0.59962555378E+03  0.60958966893E+03  0.41800000000E+01 0.  1.
        -11    1    1    2    0    0  0.52583330842E+02  0.19232768398E+02  0.28234020977E+03  0.28783832287E+03  0.00000000000E+00 0. -1.
         11    1    1    2    0    0 -0.32587956323E+02  0.67356513889E+02  0.29758473417E+03  0.30684776172E+03  0.00000000000E+00 0.  1.
</event>
<event>
 7    1  0.2499014E-009  0.1964547E+03  0.7561462E-02  0.1152765E+00
         -2   -1    0    0    0  501 -0.00000000000E+00  0.00000000000E+00  0.54913297090E+02  0.54913297090E+02  0.00000000000E+00 0.  1.
          2   -1    0    0  501    0  0.00000000000E+00 -0.00000000000E+00 -0.77817206426E+03  0.77817206426E+03  0.00000000000E+00 0. -1.
         25    2    1    2    0    0 -0.14875147746E+03 -0.95390868421E+02 -0.36611877889E+03  0.42534304043E+03  0.12508925597E+03 0.  0.
          5    1    3    3  502    0 -0.15988777743E+03 -0.90871839795E+02 -0.26017686600E+03  0.31863971291E+03  0.41800000000E+01 0. -1.
         -5    1    3    3    0  502  0.11136299972E+02 -0.45190286258E+01 -0.10594191289E+03  0.10670332752E+03  0.41800000000E+01 0. -1.
        -11    1    1    2    0    0  0.17830800031E+01  0.38647044312E+02 -0.82599959112E+02  0.91211439269E+02  0.00000000000E+00 0.  1.
         11    1    1    2    0    0  0.14696839746E+03  0.56743824109E+02 -0.27454002916E+03  0.31653088165E+03  0.00000000000E+00 0. -1.
</event>
<event>
 7    1  0.2499014E-009  0.1077710E+03  0.7561462E-02  0.1264754E+00
         -1   -1    0    0    0  501 -0.00000000000E+00  0.00000000000E+00  0.18568857317E+03  0.18568857317E+03  0.00000000000E+00 0.  1.
          1   -1    0    0  501    0  0.00000000000E+00 -0.00000000000E+00 -0.10029338561E+03  0.10029338561E+03  0.00000000000E+00 0. -1.
         25    2    1    2    0    0  0.35245974835E+02  0.69538156124E+02  0.70953411153E+02  0.16357519851E+03  0.12507847583E+03 0.  0.
          5    1    3    3  502    0  0.75489437169E+02  0.57138964611E+02  0.75291268552E+02  0.12103620913E+03  0.41800000000E+01 0. -1.
         -5    1    3    3    0  502 -0.40243462334E+02  0.12399191513E+02 -0.43378573983E+01  0.42538989382E+02  0.41800000000E+01 0. -1.
        -11    1    1    2    0    0 -0.94857903627E+01 -0.28163786028E+02  0.52662599739E+02  0.60469235761E+02  0.00000000000E+00 0.  1.
         11    1    1    2    0    0 -0.25760184472E+02 -0.41374370095E+02 -0.38220823339E+02  0.61937524503E+02  0.00000000000E+00 0. -1.
</event>
<event>
 7    1  0.2499014E-009  0.3089653E+03  0.7561462E-02  0.1080843E+00
          2   -1    0    0  501    0  0.00000000000E+00  0.00000000000E+00  0.28878096810E+04  0.28878096810E+04  0.00000000000E+00 0. -1.
         -2   -1    0    0    0  501 -0.00000000000E+00 -0.00000000000E+00 -0.56225691638E+02  0.56225691638E+02  0.00000000000E+00 0.  1.
         25    2    1    2    0    0 -0.50669656717E+02  0.29597900296E+03  0.23421590143E+04  0.23646411566E+04  0.12509183373E+03 0.  0.
          5    1    3    3  502    0 -0.42905239819E+02  0.55395084994E+02  0.88002590556E+03  0.88282078697E+03  0.41800000000E+01 0. -1.
         -5    1    3    3    0  502 -0.77644168981E+01  0.24058391796E+03  0.14621331088E+04  0.14818203697E+04  0.41800000000E+01 0. -1.
        -11    1    1    2    0    0  0.53350955001E+02 -0.12396481549E+03  0.25634768894E+03  0.28970284345E+03  0.00000000000E+00 0.  1.
         11    1    1    2    0    0 -0.26812982832E+01 -0.17201418747E+03  0.23307728611E+03  0.28969137259E+03  0.00000000000E+00 0. -1.
</event>
<event>
 7    1  0.2499014E-009  0.1025264E+03  0.7561462E-02  0.1275071E+00
         -2   -1    0    0    0  501 -0.00000000000E+00  0.00000000000E+00  0.32885069969E+02  0.32885069969E+02  0.00000000000E+00 0.  1.
          2   -1    0    0  501    0  0.00000000000E+00 -0.00000000000E+00 -0.67665290693E+03  0.67665290693E+03  0.00000000000E+00 0. -1.
         25    2    1    2    0    0 -0.34030788802E+02 -0.77626168626E+02 -0.48810178945E+03  0.51095551534E+03  0.12509302600E+03 0.  0.
          5    1    3    3  502    0 -0.22530366124E+02 -0.26756482010E+02 -0.21165705381E+02  0.41097277422E+02  0.41800000000E+01 0. -1.
         -5    1    3    3    0  502 -0.11500422677E+02 -0.50869686617E+02 -0.46693608407E+03  0.46985823792E+03  0.41800000000E+01 0. -1.
        -11    1    1    2    0    0  0.46853433732E+02  0.90247151741E+01 -0.34953684944E+02  0.59147695032E+02  0.00000000000E+00 0.  1.
         11    1    1    2    0    0 -0.12822644930E+02  0.68601453452E+02 -0.12071236257E+03  0.13943476652E+03  0.00000000000E+00 0. -1.
</event>
<event>
 7    1  0.2499014E-009  0.1499065E+03  0.7561462E-02  0.1200588E+00
          1   -1    0    0  501    0  0.00000000000E+00  0.00000000000E+00  0.44540164069E+03  0.44540164069E+03  0.00000000000E+00 0. -1.
         -1   -1    0    0    0  501 -0.00000000000E+00 -0.00000000000E+00 -0.54041099227E+02  0.54041099227E+02  0.00000000000E+00 0.  1.
         25    2    1    2    0    0 -0.10193277506E+03 -0.27080648312E+02  0.25455287021E+03  0.30260366744E+03  0.12509262036E+03 0.  0.
          5    1    3    3  502    0 -0.12040166757E+03 -0.52802862747E+02  0.19967273827E+03  0.23910537149E+03  0.41800000000E+01 0. -1.
         -5    1    3    3    0  502  0.18468892508E+02  0.25722214435E+02  0.54880131949E+02  0.63498295951E+02  0.41800000000E+01 0. -1.
        -11    1    1    2    0    0  0.11245366536E+03  0.40284768387E+02  0.13435709622E+03  0.17977908310E+03  0.00000000000E+00 0. -1.
         11    1    1    2    0    0 -0.10520890297E+02 -0.13204120075E+02  0.24505750337E+01  0.17059989378E+02  0.00000000000E+00 0.  1.
</event>
<event>
 7    1  0.2499014E-009  0.1100178E+03  0.7561462E-02  0.1260537E+00
          3   -1    0    0  501    0  0.00000000000E+00  0.00000000000E+00  0.48334076850E+03  0.48334076850E+03  0.00000000000E+00 0. -1.
         -3   -1    0    0    0  501 -0.00000000000E+00 -0.00000000000E+00 -0.28630178879E+02  0.28630178879E+02  0.00000000000E+00 0.  1.
         25    2    1    2    0    0  0.26497496409E+02 -0.35425030927E+02  0.26947283409E+03  0.30036688903E+03  0.12509040564E+03 0.  0.
          5    1    3    3  502    0  0.72698998453E+02 -0.14430215528E+02  0.20615992787E+03  0.21911815022E+03  0.41800000000E+01 0.  1.
         -5    1    3    3    0  502 -0.46201502044E+02 -0.20994815399E+02  0.63312906222E+02  0.81248738815E+02  0.41800000000E+01 0.  1.
        -11    1    1    2    0    0 -0.43060254646E+02 -0.11955057532E+02  0.48520444284E+02  0.65964706051E+02  0.00000000000E+00 0.  1.
         11    1    1    2    0    0  0.16562758238E+02  0.47380088459E+02  0.13671731125E+03  0.14563935230E+03  0.00000000000E+00 0. -1.
</event>
<event>
 7    1  0.2499014E-009  0.1281107E+03  0.7561462E-02  0.1230286E+00
         -1   -1    0    0    0  501 -0.00000000000E+00  0.00000000000E+00  0.29057500416E+02  0.29057500416E+02  0.00000000000E+00 0.  1.
          1   -1    0    0  501    0  0.00000000000E+00 -0.00000000000E+00 -0.91438747785E+03  0.91438747785E+03  0.00000000000E+00 0. -1.
         25    2    1    2    0    0 -0.64521104360E+02 -0.10246846685E+03 -0.40800579749E+03  0.44359601177E+03  0.12508369704E+03 0.  0.
          5    1    3    3  502    0 -0.11915360346E+02 -0.71264876201E+02 -0.35575959350E+03  0.36304685532E+03  0.41800000000E+01 0.  1.
         -5    1    3    3    0  502 -0.52605744015E+02 -0.31203590653E+02 -0.52246203986E+02  0.80549156444E+02  0.41800000000E+01 0.  1.
        -11    1    1    2    0    0  0.42354990342E+02  0.82356337298E+02 -0.44964084783E+03  0.45907886418E+03  0.00000000000E+00 0. -1.
         11    1    1    2    0    0  0.22166114018E+02  0.20112129556E+02 -0.27683332117E+02  0.40770102318E+02  0.00000000000E+00 0.  1.
</event>
<event>
 7    1  0.3174650E-009  0.1053166E+03  0.7561462E-02  0.1269497E+00
          2   -1    0    0  501    0  0.00000000000E+00  0.00000000000E+00  0.15984134032E+03  0.15984134032E+03  0.00000000000E+00 0. -1.
         -2   -1    0    0    0  501 -0.00000000000E+00 -0.00000000000E+00 -0.90594329089E+02  0.90594329089E+02  0.00000000000E+00 0.  1.
         25    2    1    2    0    0  0.46048636157E+01 -0.12257031886E+02 -0.14049534013E+02  0.12655071834E+03  0.12508499233E+03 0.  0.
          5    1    3    3  502    0 -0.19043723436E+02 -0.61322986851E+02  0.12913939369E+02  0.65630894773E+02  0.41800000000E+01 0.  1.
         -5    1    3    3    0  502  0.23648587052E+02  0.49065954965E+02 -0.26963473382E+02  0.60919823564E+02  0.41800000000E+01 0.  1.
        -11    1    1    2    0    0 -0.16556841182E+02 -0.37231127230E+02  0.35128921358E+02  0.53798949251E+02  0.00000000000E+00 0.  1.
         11    1    1    2    0    0  0.11951977566E+02  0.49488159116E+02  0.48167623884E+02  0.70086001819E+02  0.00000000000E+00 0. -1.
</event>
<event>
 7    1  0.2499014E-009  0.2976156E+03  0.7561462E-02  0.1086439E+00
         -2   -1    0    0    0  501 -0.00000000000E+00  0.00000000000E+00  0.20846422515E+03  0.20846422515E+03  0.00000000000E+00 0.  1.
          2   -1    0    0  501    0  0.00000000000E+00 -0.00000000000E+00 -0.45038452771E+03  0.45038452771E+03  0.00000000000E+00 0. -1.
         25    2    1    2    0    0 -0.24776976504E+03  0.13049248279E+03 -0.57643545544E+02  0.31206995322E+03  0.12508690109E+03 0.  0.
          5    1    3    3  502    0 -0.19665892647E+03  0.15416892988E+03 -0.41662311732E+02  0.25336932119E+03  0.41800000000E+01 0. -1.
         -5    1    3    3    0  502 -0.51110838573E+02 -0.23676447091E+02 -0.15981233812E+02  0.58700632029E+02  0.41800000000E+01 0. -1.
        -11    1    1    2    0    0  0.92070204533E+02 -0.11337832284E+02 -0.30650662183E+02  0.97698168334E+02  0.00000000000E+00 0.  1.
         11    1    1    2    0    0  0.15569956051E+03 -0.11915465051E+03 -0.15362609482E+03  0.24908063131E+03  0.00000000000E+00 0. -1.
</event>
<event>
 7    1  0.2499014E-009  0.8432963E+02  0.7561462E-02  0.1317195E+00
         -1   -1    0    0    0  501 -0.00000000000E+00  0.00000000000E+00  0.20200390288E+03  0.20200390288E+03  0.00000000000E+00 0.  1.
          1   -1    0    0  501    0  0.00000000000E+00 -0.00000000000E+00 -0.11743830830E+03  0.11743830830E+03  0.00000000000E+00 0. -1.
         25    2    1    2    0    0  0.49266319576E+02  0.23616447251E+01 -0.55898605574E+02  0.14561918653E+03  0.12509015057E+03 0.  0.
          5    1    3    3  502    0  0.53537538071E+02  0.23268458959E+02  0.23672029229E+02  0.63131026705E+02  0.41800000000E+01 0. -1.
         -5    1    3    3    0  502 -0.42712184943E+01 -0.20906814234E+02 -0.79570634803E+02  0.82488159828E+02  0.41800000000E+01 0. -1.
        -11    1    1    2    0    0 -0.56888077731E+02 -0.26731976852E+02  0.13318368797E+03  0.14727099754E+03  0.00000000000E+00 0.  1.
         11    1    1    2    0    0  0.76217581552E+01  0.24370332127E+02  0.72805121796E+01  0.26552027097E+02  0.00000000000E+00 0. -1.
</event>
<event>
 7    1  0.2617966E-009  0.1110405E+03  0.7561462E-02  0.1258655E+00
         -4   -1    0    0    0  501 -0.00000000000E+00  0.00000000000E+00  0.37389987705E+02  0.37389987705E+02  0.00000000000E+00 0.  1.
          4   -1    0    0  501    0  0.00000000000E+00 -0.00000000000E+00 -0.64848206325E+03  0.64848206325E+03  0.00000000000E+00 0. -1.
         25    2    1    2    0    0  0.41538226388E+02  0.45209450175E+02 -0.53481459568E+03  0.55266938339E+03  0.12508987547E+03 0.  0.
          5    1    3    3  502    0 -0.25109208941E+02  0.58862825543E+02 -0.17329972855E+03  0.18478520753E+03  0.41800000000E+01 0. -1.
         -5    1    3    3    0  502  0.66647435328E+02 -0.13653375368E+02 -0.36151486713E+03  0.36788417586E+03  0.41800000000E+01 0. -1.
        -11    1    1    2    0    0  0.14252304350E+02 -0.27978250186E+02  0.63408653423E+01  0.32033064731E+02  0.00000000000E+00 0.  1.
         11    1    1    2    0    0 -0.55790530738E+02 -0.17231199989E+02 -0.82618345203E+02  0.10116960283E+03  0.00000000000E+00 0. -1.
</event>
<event>
 7    1  0.2499014E-009  0.9364280E+02  0.7561462E-02  0.1294262E+00
         -1   -1    0    0    0  501 -0.00000000000E+00  0.00000000000E+00  0.26675385191E+02  0.26675385191E+02  0.00000000000E+00 0.  1.
          1   -1    0    0  501    0  0.00000000000E+00 -0.00000000000E+00 -0.48231950221E+03  0.48231950221E+03  0.00000000000E+00 0. -1.
         25    2    1    2    0    0 -0.66123749284E+00  0.34674410983E+02 -0.24436220396E+03  0.27670061521E+03  0.12509033425E+03 0.  0.
          5    1    3    3  502    0  0.41290775305E+02  0.65455949226E+02 -0.15140313370E+03  0.17008759716E+03  0.41800000000E+01 0.  1.
         -5    1    3    3    0  502 -0.41952012798E+02 -0.30781538243E+02 -0.92959070260E+02  0.10661301805E+03  0.41800000000E+01 0.  1.
        -11    1    1    2    0    0  0.15673198663E+02 -0.38938678239E+02 -0.21253305442E+03  0.21663833695E+03  0.00000000000E+00 0. -1.
         11    1    1    2    0    0 -0.15011961170E+02  0.42642672559E+01  0.12511413545E+01  0.15655935235E+02  0.00000000000E+00 0.  1.
</event>
<event>
 7    1  0.2499014E-009  0.1228541E+03  0.7561462E-02  0.1238462E+00
          1   -1    0    0  501    0  0.00000000000E+00  0.00000000000E+00  0.43473646954E+03  0.43473646954E+03  0.00000000000E+00 0. -1.
         -1   -1    0    0    0  501 -0.00000000000E+00 -0.00000000000E+00 -0.65670442463E+02  0.65670442463E+02  0.00000000000E+00 0.  1.
         25    2    1    2    0    0  0.70380763102E+02  0.17542320642E+02  0.38754493129E+02  0.14970236403E+03  0.12509077596E+03 0.  0.
          5    1    3    3  502    0  0.49930055982E+02  0.71072262381E+02  0.27031495020E+02  0.91062896359E+02  0.41800000000E+01 0.  1.
         -5    1    3    3    0  502  0.20450707121E+02 -0.53529941739E+02  0.11722998110E+02  0.58639467673E+02  0.41800000000E+01 0.  1.
        -11    1    1    2    0    0 -0.47099290357E+02 -0.45105831070E+02  0.28708609377E+03  0.29439990554E+03  0.00000000000E+00 0. -1.
         11    1    1    2    0    0 -0.23281472745E+02  0.27563510429E+02  0.43225440182E+02  0.56304642431E+02  0.00000000000E+00 0.  1.
</event>
<event>
 7    1  0.2499014E-009  0.1099876E+03  0.7561462E-02  0.1260593E+00
         -1   -1    0    0    0  501 -0.00000000000E+00  0.00000000000E+00  0.23877367941E+02  0.23877367941E+02  0.00000000000E+00 0.  1.
          1   -1    0    0  501    0  0.00000000000E+00 -0.00000000000E+00 -0.56468523808E+03  0.56468523808E+03  0.00000000000E+00 0. -1.
         25    2    1    2    0    0 -0.71843527850E+00  0.28822602713E+02 -0.37759023672E+03  0.39881477183E+03  0.12509027457E+03 0.  0.
          5    1    3    3  502    0  0.37538274578E+02  0.64121577940E+02 -0.25313446051E+03  0.26384697519E+03  0.41800000000E+01 0.  1.
         -5    1    3    3    0  502 -0.38256709856E+02 -0.35298975227E+02 -0.12445577620E+03  0.13496779665E+03  0.41800000000E+01 0.  1.
        -11    1    1    2    0    0  0.32814820809E+02  0.17337116102E+02 -0.90622271708E+02  0.97927443492E+02  0.00000000000E+00 0. -1.
         11    1    1    2    0    0 -0.32096385530E+02 -0.46159718815E+02 -0.72595361714E+02  0.91820390696E+02  0.00000000000E+00 0.  1.
</event>
<event>
 7    1  0.2499014E-009  0.1107299E+03  0.7561462E-02  0.1259224E+00
         -2   -1    0    0    0  501 -0.00000000000E+00  0.00000000000E+00  0.71514209904E+02  0.71514209904E+02  0.00000000000E+00 0.  1.
          2   -1    0    0  501    0  0.00000000000E+00 -0.00000000000E+00 -0.24417420758E+03  0.24417420758E+03  0.00000000000E+00 0. -1.
         25    2    1    2    0    0  0.72097877676E+02  0.49019086603E+01 -0.11748321052E+03  0.18619994080E+03  0.12508389396E+03 0.  0.
          5    1    3    3  502    0  0.96099318446E+02  0.62977704265E+01 -0.12748518370E+03  0.15982704834E+03  0.41800000000E+01 0.  1.
         -5    1    3    3    0  502 -0.24001440771E+02 -0.13958617662E+01  0.10001973183E+02  0.26372892460E+02  0.41800000000E+01 0.  1.
        -11    1    1    2    0    0 -0.80806679053E+02 -0.19987588254E+02 -0.68302709123E+02  0.10767768170E+03  0.00000000000E+00 0. -1.
         11    1    1    2    0    0  0.87088013775E+01  0.15085679593E+02  0.13125921964E+02  0.21810794979E+02  0.00000000000E+00 0.  1.
</event>
<event>
 7    1  0.2499014E-009  0.1082149E+03  0.7561462E-02  0.1263912E+00
          3   -1    0    0  501    0  0.00000000000E+00  0.00000000000E+00  0.46413284504E+02  0.46413284504E+02  0.00000000000E+00 0. -1.
         -3   -1    0    0    0  501 -0.00000000000E+00 -0.00000000000E+00 -0.26886937980E+03  0.26886937980E+03  0.00000000000E+00 0.  1.
         25    2    1    2    0    0  0.12215168127E+02 -0.24707620801E+02 -0.13769802319E+03  0.18806428356E+03  0.12509097610E+03 0.  0.
          5    1    3    3  502    0  0.52598939514E+02 -0.55565545806E+02 -0.90455138787E+02  0.11854865183E+03  0.41800000000E+01 0.  1.
         -5    1    3    3    0  502 -0.40383771387E+02  0.30857925005E+02 -0.47242884405E+02  0.69515631724E+02  0.41800000000E+01 0.  1.
        -11    1    1    2    0    0 -0.47959545118E+01 -0.31626047569E+02 -0.10399485251E+02  0.33635656051E+02  0.00000000000E+00 0.  1.
         11    1    1    2    0    0 -0.74192136149E+01  0.56333668370E+02 -0.74358586858E+02  0.93582724699E+02  0.00000000000E+00 0. -1.
</event>
<event>
 7    1  0.2499014E-009  0.1378199E+03  0.7561462E-02  0.1216293E+00
          2   -1    0    0  501    0  0.00000000000E+00  0.00000000000E+00  0.43574425824E+03  0.43574425824E+03  0.00000000000E+00 0. -1.
         -2   -1    0    0    0  501 -0.00000000000E+00 -0.00000000000E+00 -0.57137052539E+02  0.57137052539E+02  0.00000000000E+00 0.  1.
         25    2    1    2    0    0 -0.56506116294E+02 -0.24190075063E+02  0.71533868438E+02  0.15666159887E+03  0.12509061243E+03 0.  0.
          5    1    3    3  502    0 -0.70345039654E+02  0.34672851232E+02  0.35928610458E+02  0.86365320968E+02  0.41800000000E+01 0.  1.
         -5    1    3    3    0  502  0.13838923360E+02 -0.58862926294E+02  0.35605257980E+02  0.70296277906E+02  0.41800000000E+01 0.  1.
        -11    1    1    2    0    0  0.61531319895E+02 -0.39163721259E+02  0.17744458473E+03  0.19185015257E+03  0.00000000000E+00 0. -1.
         11    1    1    2    0    0 -0.50252036014E+01  0.63353796321E+02  0.12962875253E+03  0.14436955933E+03  0.00000000000E+00 0.  1.
</event>
<event>
 7    1  0.2499014E-009  0.2264356E+03  0.7561462E-02  0.1129174E+00
          1   -1    0    0  501    0  0.00000000000E+00  0.00000000000E+00  0.28448583311E+02  0.28448583311E+02  0.00000000000E+00 0. -1.
         -1   -1    0    0    0  501 -0.00000000000E+00 -0.00000000000E+00 -0.22127604605E+04  0.22127604605E+04  0.00000000000E+00 0.  1.
         25    2    1    2    0    0 -0.19525720410E+03 -0.10922188303E+03 -0.12465088172E+04  0.12725894678E+04  0.12507968113E+03 0.  0.
          5    1    3    3  502    0 -0.14103972348E+03 -0.10069177480E+03 -0.11358030371E+04  0.11489547635E+04  0.41800000000E+01 0. -1.
         -5    1    3    3    0  502 -0.54217480613E+02 -0.85301082281E+01 -0.11070578018E+03  0.12363470434E+03  0.41800000000E+01 0. -1.
        -11    1    1    2    0    0  0.64751929140E+02  0.26473175896E+02 -0.14619305933E+03  0.16206804733E+03  0.00000000000E+00 0.  1.
         11    1    1    2    0    0  0.13050527496E+03  0.82748707135E+02 -0.79161000061E+03  0.80655152866E+03  0.00000000000E+00 0. -1.
</event>
<event>
 7    1  0.2499014E-009  0.6298925E+02  0.7561462E-02  0.1385699E+00
          1   -1    0    0  501    0  0.00000000000E+00  0.00000000000E+00  0.11285036436E+03  0.11285036436E+03  0.00000000000E+00 0. -1.
         -1   -1    0    0    0  501 -0.00000000000E+00 -0.00000000000E+00 -0.12216608064E+03  0.12216608064E+03  0.00000000000E+00 0.  1.
         25    2    1    2    0    0 -0.20734609374E+02  0.14906473115E+02  0.33238832883E+02  0.13192935690E+03  0.12509359790E+03 0.  0.
          5    1    3    3  502    0 -0.15245983087E+02 -0.29601073090E+02  0.67472328974E+02  0.75356825209E+02  0.41800000000E+01 0. -1.
         -5    1    3    3    0  502 -0.54886262868E+01  0.44507546205E+02 -0.34233496091E+02  0.56572531695E+02  0.41800000000E+01 0. -1.
        -11    1    1    2    0    0 -0.37636579604E+01  0.11059742782E+02  0.24488233169E+02  0.27132205871E+02  0.00000000000E+00 0. -1.
         11    1    1    2    0    0  0.24498267334E+02 -0.25966215897E+02 -0.67042782334E+02  0.75954882223E+02  0.00000000000E+00 0.  1.
</event>
<event>
 7    1  0.2499014E-009  0.1266134E+03  0.7561462E-02  0.1232569E+00
          1   -1    0    0  501    0  0.00000000000E+00  0.00000000000E+00  0.53583777655E+03  0.53583777655E+03  0.00000000000E+00 0. -1.
         -1   -1    0    0    0  501 -0.00000000000E+00 -0.00000000000E+00 -0.35519120470E+02  0.35519120470E+02  0.00000000000E+00 0.  1.
         25    2    1    2    0    0 -0.69032926630E+02  0.17969004413E+02  0.17777105134E+03  0.22877623598E+03  0.12509032486E+03 0.  0.
          5    1    3    3  502    0  0.20636004119E+02 -0.29765585921E+02  0.79101252343E+02  0.87099456333E+02  0.41800000000E+01 0. -1.
         -5    1    3    3    0  502 -0.89668930749E+02  0.47734590333E+02  0.98669798996E+02  0.14167677964E+03  0.41800000000E+01 0. -1.
        -11    1    1    2    0    0  0.46662666790E+02  0.34518350720E+02  0.17566759802E+03  0.18500817821E+03  0.00000000000E+00 0.  1.
         11    1    1    2    0    0  0.22370259839E+02 -0.52487355132E+02  0.14688000672E+03  0.15757248284E+03  0.00000000000E+00 0. -1.
</event>
<event>
 7    1  0.2499014E-009  0.1480568E+03  0.7561462E-02  0.1202881E+00
         -2   -1    0    0    0  501 -0.00000000000E+00  0.00000000000E+00  0.13532405793E+03  0.13532405793E+03  0.00000000000E+00 0.  1.
          2   -1    0    0  501    0  0.00000000000E+00 -0.00000000000E+00 -0.17193796388E+03  0.17193796388E+03  0.00000000000E+00 0. -1.
         25    2    1    2    0    0  0.21429884693E+02  0.10407981003E+03 -0.12607877008E+02  0.16461451846E+03  0.12508850591E+03 0.  0.
          5    1    3    3  502    0 -0.37963016245E+02  0.96894724382E+02 -0.71672308019E+01  0.10439645498E+03  0.41800000000E+01 0.  1.
         -5    1    3    3    0  502  0.59392900938E+02  0.71850856437E+01 -0.54406462062E+01  0.60218063475E+02  0.41800000000E+01 0.  1.
        -11    1    1    2    0    0 -0.50079134070E+02 -0.49858210175E+02 -0.37287560591E+02  0.79900706917E+02  0.00000000000E+00 0. -1.
         11    1    1    2    0    0  0.28649249377E+02 -0.54221599850E+02  0.13281531652E+02  0.62746796438E+02  0.00000000000E+00 0.  1.
</event>
<event>
 7    1  0.2499014E-009  0.8168939E+02  0.7561462E-02  0.1324324E+00
          2   -1    0    0  501    0  0.00000000000E+00  0.00000000000E+00  0.67718854242E+02  0.67718854242E+02  0.00000000000E+00 0. -1.
         -2   -1    0    0    0  501 -0.00000000000E+00 -0.00000000000E+00 -0.22642913217E+03  0.22642913217E+03  0.00000000000E+00 0.  1.
         25    2    1    2    0    0 -0.13598624673E+02  0.32362582079E+02 -0.15279893170E+03  0.20056674242E+03  0.12508894965E+03 0.  0.
          5    1    3    3  502    0 -0.65402761218E+02 -0.26608280272E+01 -0.94064137060E+02  0.11467404005E+03  0.41800000000E+01 0.  1.
         -5    1    3    3    0  502  0.51804136545E+02  0.35023410106E+02 -0.58734794644E+02  0.85892702371E+02  0.41800000000E+01 0.  1.
        -11    1    1    2    0    0  0.60231447525E+01 -0.13118821700E+02  0.40378634417E+02  0.42881416405E+02  0.00000000000E+00 0. -1.
         11    1    1    2    0    0  0.75754799205E+01 -0.19243760379E+02 -0.46289980638E+02  0.50699827583E+02  0.00000000000E+00 0.  1.
</event>
<event>
 7    1  0.2499014E-009  0.1228005E+03  0.7561462E-02  0.1238547E+00
          2   -1    0    0  501    0  0.00000000000E+00  0.00000000000E+00  0.10707716765E+04  0.10707716765E+04  0.00000000000E+00 0. -1.
         -2   -1    0    0    0  501 -0.00000000000E+00 -0.00000000000E+00 -0.35382693528E+02  0.35382693528E+02  0.00000000000E+00 0.  1.
         25    2    1    2    0    0  0.93056608547E+02  0.18688469184E+02  0.90725757760E+03  0.92074536665E+03  0.12508767655E+03 0.  0.
          5    1    3    3  502    0 -0.19894358382E+02 -0.26268690007E+01  0.40363629343E+03  0.40415642480E+03  0.41800000000E+01 0.  1.
         -5    1    3    3    0  502  0.11295096693E+03  0.21315338185E+02  0.50362128417E+03  0.51658894185E+03  0.41800000000E+01 0.  1.
        -11    1    1    2    0    0 -0.22906958249E+02 -0.31321925128E+02  0.20938883271E-01  0.38804537988E+02  0.00000000000E+00 0.  1.
         11    1    1    2    0    0 -0.70149650297E+02  0.12633455944E+02  0.12811046644E+03  0.14660446534E+03  0.00000000000E+00 0. -1.
</event>
<event>
 7    1  0.2499014E-009  0.2231789E+03  0.7561462E-02  0.1131535E+00
          1   -1    0    0  501    0  0.00000000000E+00  0.00000000000E+00  0.28603024307E+03  0.28603024307E+03  0.00000000000E+00 0. -1.
         -1   -1    0    0    0  501 -0.00000000000E+00 -0.00000000000E+00 -0.24576253609E+03  0.24576253609E+03  0.00000000000E+00 0.  1.
         25    2    1    2    0    0 -0.20182507100E+03  0.82623286844E+02  0.12406862214E+03  0.28035670243E+03  0.12508753250E+03 0.  0.
          5    1    3    3  502    0 -0.13870962616E+03  0.88148373033E+02  0.13881905493E+03  0.21517132353E+03  0.41800000000E+01 0.  1.
         -5    1    3    3    0  502 -0.63115444845E+02 -0.55250861890E+01 -0.14750432793E+02  0.65185378905E+02  0.41800000000E+01 0.  1.
        -11    1    1    2    0    0  0.12721656100E+03 -0.45328093444E+02 -0.26710857997E+01  0.13507710445E+03  0.00000000000E+00 0. -1.
         11    1    1    2    0    0  0.74608510002E+02 -0.37295193400E+02 -0.81129829369E+02  0.11635897228E+03  0.00000000000E+00 0.  1.
</event>
<event>
 7    1  0.2499014E-009  0.9184025E+02  0.7561462E-02  0.1298455E+00
          2   -1    0    0  501    0  0.00000000000E+00  0.00000000000E+00  0.11210623683E+04  0.11210623683E+04  0.00000000000E+00 0. -1.
         -2   -1    0    0    0  501 -0.00000000000E+00 -0.00000000000E+00 -0.14997332043E+02  0.14997332043E+02  0.00000000000E+00 0.  1.
         25    2    1    2    0    0 -0.29545860438E+02 -0.30507419013E+02  0.85092307401E+03  0.86111641203E+03  0.12509091371E+03 0.  0.
          5    1    3    3  502    0  0.16284856095E+02 -0.41114099716E+02  0.10915956241E+03  0.11785095756E+03  0.41800000000E+01 0.  1.
         -5    1    3    3    0  502 -0.45830716533E+02  0.10606680703E+02  0.74176351160E+03  0.74326545446E+03  0.41800000000E+01 0.  1.
        -11    1    1    2    0    0  0.49636740537E+02 -0.63653110685E+01  0.19678923452E+03  0.20305252035E+03  0.00000000000E+00 0. -1.
         11    1    1    2    0    0 -0.20090880099E+02  0.36872730081E+02  0.58352727746E+02  0.71890767990E+02  0.00000000000E+00 0.  1.
</event>
<event>
 7    1  0.2499014E-009  0.1037140E+03  0.7561462E-02  0.1272674E+00
          1   -1    0    0  501    0  0.00000000000E+00  0.00000000000E+00  0.35806363844E+02  0.35806363844E+02  0.00000000000E+00 0. -1.
         -1   -1    0    0    0  501 -0.00000000000E+00 -0.00000000000E+00 -0.52123404169E+03  0.52123404169E+03  0.00000000000E+00 0.  1.
         25    2    1    2    0    0 -0.24595608035E+02  0.69898860842E+02 -0.22160631481E+03  0.26504365140E+03  0.12509190103E+03 0.  0.
          5    1    3    3  502    0  0.19989965386E+02  0.38488342440E+02 -0.76894609718E+01  0.44244224820E+02  0.41800000000E+01 0.  1.
         -5    1    3    3    0  502 -0.44585573420E+02  0.31410518402E+02 -0.21391685383E+03  0.22079942658E+03  0.41800000000E+01 0.  1.
        -11    1    1    2    0    0 -0.26664945361E+02 -0.44675382511E+02 -0.55884099529E+02  0.76354054861E+02  0.00000000000E+00 0. -1.
         11    1    1    2    0    0  0.51260553395E+02 -0.25223478331E+02 -0.20793726351E+03  0.21564269928E+03  0.00000000000E+00 0.  1.
</event>
<event>
 7    1  0.2499014E-009  0.9509586E+02  0.7561462E-02  0.1290960E+00
          1   -1    0    0  501    0  0.00000000000E+00  0.00000000000E+00  0.26415136717E+03  0.26415136717E+03  0.00000000000E+00 0. -1.
         -1   -1    0    0    0  501 -0.00000000000E+00 -0.00000000000E+00 -0.52471436689E+02  0.52471436689E+02  0.00000000000E+00 0.  1.
         25    2    1    2    0    0  0.12436737185E+02 -0.26397207505E+02  0.16515401846E+03  0.20922530349E+03  0.12509153773E+03 0.  0.
          5    1    3    3  502    0  0.39706157980E+02  0.24659036564E+02  0.13682181484E+03  0.14464552700E+03  0.41800000000E+01 0. -1.
         -5    1    3    3    0  502 -0.27269420794E+02 -0.51056244069E+02  0.28332203614E+02  0.64579776483E+02  0.41800000000E+01 0. -1.
        -11    1    1    2    0    0 -0.41846518863E+02  0.35038814821E+02  0.36628230161E+01  0.54701608362E+02  0.00000000000E+00 0. -1.
         11    1    1    2    0    0  0.29409781678E+02 -0.86416073157E+01  0.42863089014E+02  0.52695892014E+02  0.00000000000E+00 0.  1.
</event>
<event>
 7    1  0.3321972E-009  0.1511224E+03  0.7561462E-02  0.1199101E+00
          1   -1    0    0  501    0  0.00000000000E+00  0.00000000000E+00  0.21731983805E+04  0.21731983805E+04  0.00000000000E+00 0. -1.
         -1   -1    0    0    0  501 -0.00000000000E+00 -0.00000000000E+00 -0.14793964116E+02  0.14793964116E+02  0.00000000000E+00 0.  1.
         25    2    1    2    0    0  0.13705291010E+03 -0.42012745724E+01  0.13714112639E+04  0.13839130664E+04  0.12508145283E+03 0.  0.
          5    1    3    3  502    0  0.26991335297E+02 -0.52206589682E+01  0.44742001202E+02  0.52679279918E+02  0.41800000000E+01 0.  1.
         -5    1    3    3    0  502  0.11006157480E+03  0.10193843959E+01  0.13266692627E+04  0.13312337865E+04  0.41800000000E+01 0.  1.
        -11    1    1    2    0    0 -0.79583532302E+02 -0.42516918400E+02  0.46569584078E+03  0.47435624069E+03  0.00000000000E+00 0.  1.
         11    1    1    2    0    0 -0.57469377795E+02  0.46718192972E+02  0.32129731171E+03  0.32972303749E+03  0.00000000000E+00 0. -1.
</event>
<event>
 7    1  0.2499014E-009  0.1261503E+03  0.7561462E-02  0.1233282E+00
         -2   -1    0    0    0  501 -0.00000000000E+00  0.00000000000E+00  0.55977746702E+02  0.55977746702E+02  0.00000000000E+00 0. -1.
          2   -1    0    0  501    0  0.00000000000E+00 -0.00000000000E+00 -0.30377954384E+03  0.30377954384E+03  0.00000000000E+00 0.  1.
         25    2    1    2    0    0  0.43599353973E+02 -0.82960934029E+02 -0.11041561264E+03  0.19137418024E+03  0.12509615944E+03 0.  0.
          5    1    3    3  502    0  0.31779052904E+02 -0.11620193722E+03 -0.80736167834E+02  0.14508135515E+03  0.41800000000E+01 0.  1.
         -5    1    3    3    0  502  0.11820301068E+02  0.33241003190E+02 -0.29679444802E+02  0.46292825083E+02  0.41800000000E+01 0.  1.
        -11    1    1    2    0    0 -0.29470160634E+02  0.32687000325E+02 -0.50264614754E+02  0.66809144991E+02  0.00000000000E+00 0.  1.
         11    1    1    2    0    0 -0.14129193338E+02  0.50273933703E+02 -0.87121569750E+02  0.10157396532E+03  0.00000000000E+00 0. -1.
</event>
<event>
 7    1  0.2499014E-009  0.1327920E+03  0.7561462E-02  0.1223371E+00
         -2   -1    0    0    0  501 -0.00000000000E+00  0.00000000000E+00  0.15379230907E+02  0.15379230907E+02  0.00000000000E+00 0.  1.
          2   -1    0    0  501    0  0.00000000000E+00 -0.00000000000E+00 -0.17705691548E+04  0.17705691548E+04  0.00000000000E+00 0. -1.
         25    2    1    2    0    0  0.69198033595E+02 -0.40289334570E+02 -0.14452349617E+04  0.14528459403E+04  0.12508250541E+03 0.  0.
          5    1    3    3  502    0  0.77754503351E+02 -0.75762132563E+02 -0.93498387645E+03  0.94127465978E+03  0.41800000000E+01 0. -1.
         -5    1    3    3    0  502 -0.85564697562E+01  0.35472797993E+02 -0.51025108530E+03  0.51157128049E+03  0.41800000000E+01 0. -1.
        -11    1    1    2    0    0 -0.87040709363E+02  0.13582500176E+02 -0.25030632798E+03  0.26535603861E+03  0.00000000000E+00 0. -1.
         11    1    1    2    0    0  0.17842675768E+02  0.26706834394E+02 -0.59648634211E+02  0.67746406880E+02  0.00000000000E+00 0.  1.
</event>
<event>
 7    1  0.2499014E-009  0.1199932E+03  0.7561462E-02  0.1243108E+00
          2   -1    0    0  501    0  0.00000000000E+00  0.00000000000E+00  0.18635672983E+03  0.18635672983E+03  0.00000000000E+00 0. -1.
         -2   -1    0    0    0  501 -0.00000000000E+00 -0.00000000000E+00 -0.95121265723E+02  0.95121265723E+02  0.00000000000E+00 0.  1.
         25    2    1    2    0    0 -0.41275897804E+02  0.47268931086E+02  0.49809412638E+01  0.14003787875E+03  0.12509095140E+03 0.  0.
          5    1    3    3  502    0 -0.11453632172E+02  0.84201075069E+02  0.24508365365E+02  0.88538912945E+02  0.41800000000E+01 0.  1.
         -5    1    3    3    0  502 -0.29822265632E+02 -0.36932143982E+02 -0.19527424101E+02  0.51498965801E+02  0.41800000000E+01 0.  1.
        -11    1    1    2    0    0 -0.21039287263E+02  0.93824665760E+01  0.37833433635E+02  0.44295044737E+02  0.00000000000E+00 0. -1.
         11    1    1    2    0    0  0.62315185067E+02 -0.56651397662E+02  0.48421089204E+02  0.97145072066E+02  0.00000000000E+00 0.  1.
</event>
<event>
 7    1  0.2499014E-009  0.1094034E+03  0.7561462E-02  0.1261679E+00
         -2   -1    0    0    0  501 -0.00000000000E+00  0.00000000000E+00  0.13233175071E+03  0.13233175071E+03  0.00000000000E+00 0.  1.
          2   -1    0    0  501    0  0.00000000000E+00 -0.00000000000E+00 -0.10599280250E+03  0.10599280250E+03  0.00000000000E+00 0. -1.
         25    2    1    2    0    0 -0.23452268540E+02  0.15741657721E+02 -0.24498962122E+02  0.13056016235E+03  0.12509175896E+03 0.  0.
          5    1    3    3  502    0  0.38014813463E+02  0.42191486386E+02 -0.27930172953E+02  0.63425661426E+02  0.41800000000E+01 0.  1.
         -5    1    3    3    0  502 -0.61467082003E+02 -0.26449828666E+02  0.34312108310E+01  0.67134500922E+02  0.41800000000E+01 0.  1.
        -11    1    1    2    0    0 -0.18884487819E+02 -0.41264337001E+02  0.27863622462E+02  0.53251768468E+02  0.00000000000E+00 0.  1.
         11    1    1    2    0    0  0.42336756358E+02  0.25522679280E+02  0.22974287875E+02  0.54512622391E+02  0.00000000000E+00 0. -1.
</event>
<event>
 7    1  0.2499014E-009  0.1526832E+03  0.7561462E-02  0.1197214E+00
          1   -1    0    0  501    0  0.00000000000E+00  0.00000000000E+00  0.38175702246E+03  0.38175702246E+03  0.00000000000E+00 0. -1.
         -1   -1    0    0    0  501 -0.00000000000E+00 -0.00000000000E+00 -0.88114993770E+02  0.88114993770E+02  0.00000000000E+00 0.  1.
         25    2    1    2    0    0 -0.13951217771E+03  0.44332830723E+02  0.12875695488E+03  0.23163454421E+03  0.12508861271E+03 0.  0.
          5    1    3    3  502    0 -0.85406060453E+02 -0.19547691905E+01  0.13523700502E+03  0.16001417503E+03  0.41800000000E+01 0. -1.
         -5    1    3    3    0  502 -0.54106117260E+02  0.46287599914E+02 -0.64800501395E+01  0.71620369173E+02  0.41800000000E+01 0. -1.
        -11    1    1    2    0    0  0.94412829410E+02 -0.17469424915E+02  0.42366924583E+02  0.10494722227E+03  0.00000000000E+00 0.  1.
         11    1    1    2    0    0  0.45099348303E+02 -0.26863405808E+02  0.12251814923E+03  0.13329024975E+03  0.00000000000E+00 0. -1.
</event>
<event>
 7    1  0.2499014E-009  0.1285844E+03  0.7561462E-02  0.1229571E+00
         -2   -1    0    0    0  501 -0.00000000000E+00  0.00000000000E+00  0.28553936816E+02  0.28553936816E+02  0.00000000000E+00 0.  1.
          2   -1    0    0  501    0  0.00000000000E+00 -0.00000000000E+00 -0.68840554484E+03  0.68840554484E+03  0.00000000000E+00 0. -1.
         25    2    1    2    0    0 -0.82566879794E+02  0.37248293438E+01 -0.42373546926E+03  0.44947836171E+03  0.12509150945E+03 0.  0.
          5    1    3    3  502    0  0.29415408693E+02 -0.16924589394E+02 -0.71194174574E+02  0.78979686553E+02  0.41800000000E+01 0. -1.
         -5    1    3    3    0  502 -0.11198228849E+03  0.20649418737E+02 -0.35254129469E+03  0.37049867515E+03  0.41800000000E+01 0. -1.
        -11    1    1    2    0    0 -0.12033421829E+02  0.68378178222E+01 -0.10580576014E+01  0.13880867385E+02  0.00000000000E+00 0.  1.
         11    1    1    2    0    0  0.94600301623E+02 -0.10562647166E+02 -0.23505808115E+03  0.25360025256E+03  0.00000000000E+00 0. -1.
</event>
<event>
 7    1  0.2499014E-009  0.1492586E+03  0.7561462E-02  0.1201387E+00
          2   -1    0    0  501    0  0.00000000000E+00  0.00000000000E+00  0.10500996468E+03  0.10500996468E+03  0.00000000000E+00 0. -1.
         -2   -1    0    0    0  501 -0.00000000000E+00 -0.00000000000E+00 -0.26582496321E+03  0.26582496321E+03  0.00000000000E+00 0.  1.
         25    2    1    2    0    0 -0.11808253993E+03 -0.42028848886E+02 -0.60345339973E+02  0.18707800915E+03  0.12508681416E+03 0.  0.
          5    1    3    3  502    0 -0.62381612579E+02  0.17796185883E+02  0.24238646177E+02  0.69376899530E+02  0.41800000000E+01 0. -1.
         -5    1    3    3    0  502 -0.55700927352E+02 -0.59825034769E+02 -0.84583986150E+02  0.11770110962E+03  0.41800000000E+01 0. -1.
        -11    1    1    2    0    0  0.58688914640E+02 -0.23504649779E+02 -0.26864010744E+02  0.68691573982E+02  0.00000000000E+00 0.  1.
         11    1    1    2    0    0  0.59393625291E+02  0.65533498665E+02 -0.73605647820E+02  0.11506534475E+03  0.00000000000E+00 0. -1.
</event>
<event>
 7    1  0.2499014E-009  0.1608926E+03  0.7561462E-02  0.1187693E+00
         -1   -1    0    0    0  501 -0.00000000000E+00  0.00000000000E+00  0.15298629421E+03  0.15298629421E+03  0.00000000000E+00 0.  1.
          1   -1    0    0  501    0  0.00000000000E+00 -0.00000000000E+00 -0.21976755648E+03  0.21976755648E+03  0.00000000000E+00 0. -1.
         25    2    1    2    0    0  0.29127957742E+02  0.13599229215E+03  0.10397493762E+02  0.18734248076E+03  0.12508699282E+03 0.  0.
          5    1    3    3  502    0 -0.22761904268E+02  0.20178869102E+02 -0.40262225608E+02  0.50634081951E+02  0.41800000000E+01 0.  1.
         -5    1    3    3    0  502  0.51889862010E+02  0.11581342305E+03  0.50659719371E+02  0.13670839881E+03  0.41800000000E+01 0.  1.
        -11    1    1    2    0    0 -0.56399245728E+02 -0.11974208879E+03 -0.78041524479E+02  0.15365390424E+03  0.00000000000E+00 0. -1.
         11    1    1    2    0    0  0.27271287986E+02 -0.16250203361E+02  0.86276844543E+00  0.31757465690E+02  0.00000000000E+00 0.  1.
</event>
<event>
 7    1  0.2499014E-009  0.1690391E+03  0.7561462E-02  0.1178854E+00
         -2   -1    0    0    0  501 -0.00000000000E+00  0.00000000000E+00  0.95908544412E+03  0.95908544412E+03  0.00000000000E+00 0.  1.
          2   -1    0    0  501    0  0.00000000000E+00 -0.00000000000E+00 -0.34501462726E+02  0.34501462726E+02  0.00000000000E+00 0. -1.
         25    2    1    2    0    0  0.10859649456E+03  0.73126237522E+02  0.63031906639E+03  0.65581264252E+03  0.12508977335E+03 0.  0.
          5    1    3    3  502    0  0.10303409549E+03  0.35070856936E-01  0.29361844304E+03  0.31119975667E+03  0.41800000000E+01 0.  1.
         -5    1    3    3    0  502  0.55623990708E+01  0.73091166665E+02  0.33670062336E+03  0.34461288585E+03  0.41800000000E+01 0.  1.
        -11    1    1    2    0    0 -0.91158009312E+02 -0.50875749621E+01  0.12746853537E+03  0.15679251765E+03  0.00000000000E+00 0.  1.
         11    1    1    2    0    0 -0.17438485244E+02 -0.68038662560E+02  0.16679637964E+03  0.18098174668E+03  0.00000000000E+00 0. -1.
</event>
<event>
 7    1  0.2499014E-009  0.1024140E+03  0.7561462E-02  0.1275300E+00
         -1   -1    0    0    0  501 -0.00000000000E+00  0.00000000000E+00  0.51805809846E+02  0.51805809846E+02  0.00000000000E+00 0.  1.
          1   -1    0    0  501    0  0.00000000000E+00 -0.00000000000E+00 -0.26457378714E+03  0.26457378714E+03  0.00000000000E+00 0. -1.
         25    2    1    2    0    0  0.32059696772E+02  0.40164017234E+02 -0.13240814849E+03  0.18926215536E+03  0.12508906118E+03 0.  0.
          5    1    3    3  502    0  0.64882200885E+02  0.20650188321E+02 -0.13448025949E+03  0.15079304646E+03  0.41800000000E+01 0. -1.
         -5    1    3    3    0  502 -0.32822504113E+02  0.19513828914E+02  0.20721109991E+01  0.38469108894E+02  0.41800000000E+01 0. -1.
        -11    1    1    2    0    0  0.25868914415E+02 -0.29604269475E+02 -0.37053801173E+02  0.54024047289E+02  0.00000000000E+00 0. -1.
         11    1    1    2    0    0 -0.57928611187E+02 -0.10559747759E+02 -0.43306027634E+02  0.73093394340E+02  0.00000000000E+00 0.  1.
</event>
<event>
 7    1  0.2499014E-009  0.1476997E+03  0.7561462E-02  0.1203328E+00
          2   -1    0    0  501    0  0.00000000000E+00  0.00000000000E+00  0.55067529962E+03  0.55067529962E+03  0.00000000000E+00 0. -1.
         -2   -1    0    0    0  501 -0.00000000000E+00 -0.00000000000E+00 -0.47984499489E+02  0.47984499489E+02  0.00000000000E+00 0.  1.
         25    2    1    2    0    0 -0.40906295570E+02 -0.10744537449E+03  0.19558587159E+03  0.25907496868E+03  0.12509265651E+03 0.  0.
          5    1    3    3  502    0 -0.67881877534E+02 -0.11236871919E+03  0.18967603911E+03  0.23071443509E+03  0.41800000000E+01 0. -1.
         -5    1    3    3    0  502  0.26975581964E+02  0.49233446962E+01  0.59098324856E+01  0.28360533587E+02  0.41800000000E+01 0. -1.
        -11    1    1    2    0    0 -0.45130664503E+01  0.85943843030E+02  0.24511800451E+03  0.25978750558E+03  0.00000000000E+00 0.  1.
         11    1    1    2    0    0  0.45419362020E+02  0.21501531464E+02  0.61986924036E+02  0.79797324849E+02  0.00000000000E+00 0. -1.
</event>
<event>
 7    1  0.2499014E-009  0.1151651E+03  0.7561462E-02  0.1251293E+00
         -1   -1    0    0    0  501 -0.00000000000E+00  0.00000000000E+00  0.20320618174E+03  0.20320618174E+03  0.00000000000E+00 0.  1.
          1   -1    0    0  501    0  0.00000000000E+00 -0.00000000000E+00 -0.91972910484E+02  0.91972910484E+02  0.00000000000E+00 0. -1.
         25    2    1    2    0    0 -0.56073696726E+02  0.35289185090E+02  0.10881425071E+03  0.17854265884E+03  0.12508938333E+03 0.  0.
          5    1    3    3  502    0  0.14147027083E+02 -0.37514150032E+02  0.31699108824E+02  0.51281143982E+02  0.41800000000E+01 0.  1.
         -5    1    3    3    0  502 -0.70220723809E+02  0.72803335122E+02  0.77115141881E+02  0.12726151486E+03  0.41800000000E+01 0.  1.
        -11    1    1    2    0    0 -0.11122899594E+02 -0.14837495332E+02  0.34691961679E+02  0.39337035580E+02  0.00000000000E+00 0.  1.
         11    1    1    2    0    0  0.67196596320E+02 -0.20451689758E+02 -0.32272941130E+02  0.77299397799E+02  0.00000000000E+00 0. -1.
</event>
<event>
 7    1  0.2499014E-009  0.2269605E+03  0.7561462E-02  0.1128798E+00
         -1   -1    0    0    0  501 -0.00000000000E+00  0.00000000000E+00  0.16392544290E+03  0.16392544290E+03  0.00000000000E+00 0.  1.
          1   -1    0    0  501    0  0.00000000000E+00 -0.00000000000E+00 -0.33425208614E+03  0.33425208614E+03  0.00000000000E+00 0. -1.
         25    2    1    2    0    0  0.18775096319E+03  0.77584074330E+02 -0.10575759083E+03  0.26096249039E+03  0.12508813135E+03 0.  0.
          5    1    3    3  502    0  0.43278705179E+01 -0.23924615752E+02  0.28340731937E+01  0.24831876146E+02  0.41800000000E+01 0. -1.
         -5    1    3    3    0  502  0.18342309267E+03  0.10150869008E+03 -0.10859166402E+03  0.23613061424E+03  0.41800000000E+01 0. -1.
        -11    1    1    2    0    0 -0.18652183291E+03 -0.89996694951E+02 -0.41831710144E+02  0.21128107163E+03  0.00000000000E+00 0.  1.
         11    1    1    2    0    0 -0.12291302829E+01  0.12412620621E+02 -0.22737342278E+02  0.25933967028E+02  0.00000000000E+00 0. -1.
</event>
<event>
 7    1  0.2499014E-009  0.2199160E+03  0.7561462E-02  0.1133946E+00
          1   -1    0    0  501    0  0.00000000000E+00  0.00000000000E+00  0.13705594235E+03  0.13705594235E+03  0.00000000000E+00 0.  1.
         -1   -1    0    0    0  501 -0.00000000000E+00 -0.00000000000E+00 -0.44682301003E+03  0.44682301003E+03  0.00000000000E+00 0. -1.
         25    2    1    2    0    0 -0.85164852045E+02 -0.20153410517E+03 -0.20413108827E+03  0.32432338595E+03  0.12508840835E+03 0.  0.
          5    1    3    3  502    0 -0.10000491494E+02 -0.54511591774E+02 -0.13363839637E+03  0.14473498834E+03  0.41800000000E+01 0. -1.
         -5    1    3    3    0  502 -0.75164360551E+02 -0.14702251340E+03 -0.70492691909E+02  0.17958839761E+03  0.41800000000E+01 0. -1.
        -11    1    1    2    0    0  0.67800925902E+02  0.14782309398E+03 -0.30317734218E+02  0.16543215430E+03  0.00000000000E+00 0.  1.
         11    1    1    2    0    0  0.17363926143E+02  0.53711011186E+02 -0.75318245187E+02  0.94123412135E+02  0.00000000000E+00 0. -1.
</event>
<event>
 7    1  0.2499014E-009  0.1249128E+03  0.7561462E-02  0.1235206E+00
          1   -1    0    0  501    0  0.00000000000E+00  0.00000000000E+00  0.55855053937E+03  0.55855053937E+03  0.00000000000E+00 0. -1.
         -1   -1    0    0    0  501 -0.00000000000E+00 -0.00000000000E+00 -0.62892712493E+02  0.62892712493E+02  0.00000000000E+00 0.  1.
         25    2    1    2    0    0  0.39898248566E+02 -0.54939119498E+02  0.34496447319E+02  0.14644763259E+03  0.12508687830E+03 0.  0.
          5    1    3    3  502    0 -0.39480627179E+02  0.35079232513E+01  0.25631543086E+02  0.47386431064E+02  0.41800000000E+01 0.  1.
         -5    1    3    3    0  502  0.79378875745E+02 -0.58447042749E+02  0.88649042327E+01  0.99061201526E+02  0.41800000000E+01 0.  1.
        -11    1    1    2    0    0 -0.68236384619E+02  0.42241681222E+02  0.37269284575E+03  0.38123551919E+03  0.00000000000E+00 0. -1.
         11    1    1    2    0    0  0.28338136053E+02  0.12697438275E+02  0.88468533804E+02  0.93760100081E+02  0.00000000000E+00 0.  1.
</event>
<event>
 7    1  0.2499014E-009  0.1289729E+03  0.7561462E-02  0.1228988E+00
         -2   -1    0    0    0  501 -0.00000000000E+00  0.00000000000E+00  0.32188169761E+03  0.32188169761E+03  0.00000000000E+00 0.  1.
          2   -1    0    0  501    0  0.00000000000E+00 -0.00000000000E+00 -0.98841597976E+02  0.98841597976E+02  0.00000000000E+00 0. -1.
         25    2    1    2    0    0 -0.31270118930E+02 -0.10286166316E+03  0.10179997682E+02  0.16525540872E+03  0.12508947067E+03 0.  0.
          5    1    3    3  502    0  0.16629011938E+02 -0.98467032977E+02 -0.27893470584E+02  0.10376800433E+03  0.41800000000E+01 0. -1.
         -5    1    3    3    0  502 -0.47899130868E+02 -0.43946301796E+01  0.38073468266E+02  0.61487404386E+02  0.41800000000E+01 0. -1.
        -11    1    1    2    0    0  0.25920999635E+02  0.47639007538E+02  0.18615455309E+03  0.19389401976E+03  0.00000000000E+00 0.  1.
         11    1    1    2    0    0  0.53491192952E+01  0.55222655619E+02  0.26705548857E+02  0.61573867108E+02  0.00000000000E+00 0. -1.
</event>
<event>
 7    1  0.2499014E-009  0.1107025E+03  0.7561462E-02  0.1259274E+00
          2   -1    0    0  501    0  0.00000000000E+00  0.00000000000E+00  0.93925717937E+03  0.93925717937E+03  0.00000000000E+00 0.  1.
         -2   -1    0    0    0  501 -0.00000000000E+00 -0.00000000000E+00 -0.42821100352E+02  0.42821100352E+02  0.00000000000E+00 0. -1.
         25    2    1    2    0    0  0.33290415998E+02  0.61939884064E+02  0.84363741164E+03  0.85575533467E+03  0.12509320310E+03 0.  0.
          5    1    3    3  502    0  0.22330412625E+02 -0.27828821267E+02  0.46742251267E+03  0.46880099015E+03  0.41800000000E+01 0.  1.
         -5    1    3    3    0  502  0.10960003373E+02  0.89768705331E+02  0.37621489897E+03  0.38695434451E+03  0.41800000000E+01 0.  1.
        -11    1    1    2    0    0 -0.48023511616E+02 -0.22865741392E+02  0.63873447167E+02  0.83119895634E+02  0.00000000000E+00 0.  1.
         11    1    1    2    0    0  0.14733095617E+02 -0.39074142672E+02 -0.11074779786E+02  0.43203049422E+02  0.00000000000E+00 0. -1.
</event>
<event>
 7    1  0.2499014E-009  0.1286639E+03  0.7561462E-02  0.1229452E+00
          2   -1    0    0  501    0  0.00000000000E+00  0.00000000000E+00  0.20685669175E+03  0.20685669175E+03  0.00000000000E+00 0. -1.
         -2   -1    0    0    0  501 -0.00000000000E+00 -0.00000000000E+00 -0.12485410898E+03  0.12485410898E+03  0.00000000000E+00 0.  1.
         25    2    1    2    0    0  0.63614073228E+02  0.92177013554E+02  0.86744890493E+02  0.18898515510E+03  0.12508941074E+03 0.  0.
          5    1    3    3  502    0  0.21822415366E+02  0.64288972550E+02 -0.20028388529E+02  0.70907676249E+02  0.41800000000E+01 0. -1.
         -5    1    3    3    0  502  0.41791657862E+02  0.27888041005E+02  0.10677327902E+03  0.11807747885E+03  0.41800000000E+01 0. -1.
        -11    1    1    2    0    0 -0.49192902726E+00 -0.72885670553E+02  0.13765162768E+02  0.74175755285E+02  0.00000000000E+00 0. -1.
         11    1    1    2    0    0 -0.63122144201E+02 -0.19291343002E+02 -0.18507470488E+02  0.68549890352E+02  0.00000000000E+00 0.  1.
</event>
<event>
 7    1  0.2499014E-009  0.1418934E+03  0.7561462E-02  0.1210804E+00
          3   -1    0    0  501    0  0.00000000000E+00  0.00000000000E+00  0.13394100329E+03  0.13394100329E+03  0.00000000000E+00 0. -1.
         -3   -1    0    0    0  501 -0.00000000000E+00 -0.00000000000E+00 -0.20429033801E+03  0.20429033801E+03  0.00000000000E+00 0.  1.
         25    2    1    2    0    0 -0.26073565438E+02 -0.11188974930E+03  0.12834890645E+02  0.17033476219E+03  0.12510015980E+03 0.  0.
          5    1    3    3  502    0 -0.43488897608E+02 -0.12742362979E+03 -0.12926917477E+02  0.13532421527E+03  0.41800000000E+01 0. -1.
         -5    1    3    3    0  502  0.17415332170E+02  0.15533880494E+02  0.25761808122E+02  0.35010546919E+02  0.41800000000E+01 0. -1.
        -11    1    1    2    0    0 -0.10879375642E+02  0.44461528099E+01  0.14073002971E+02  0.18335171169E+02  0.00000000000E+00 0. -1.
         11    1    1    2    0    0  0.36952941080E+02  0.10744359649E+03 -0.97257228334E+02  0.14956140793E+03  0.00000000000E+00 0.  1.
</event>
<event>
 7    1  0.2499014E-009  0.9469464E+02  0.7561462E-02  0.1291865E+00
          1   -1    0    0  501    0  0.00000000000E+00  0.00000000000E+00  0.33320488288E+03  0.33320488288E+03  0.00000000000E+00 0. -1.
         -1   -1    0    0    0  501 -0.00000000000E+00 -0.00000000000E+00 -0.39259208768E+02  0.39259208768E+02  0.00000000000E+00 0.  1.
         25    2    1    2    0    0  0.21776971537E+02 -0.29759627299E+02  0.16523332024E+03  0.21049897743E+03  0.12509155638E+03 0.  0.
          5    1    3    3  502    0 -0.83624228753E+01  0.36461433381E+02  0.99024256021E+01  0.38921673569E+02  0.41800000000E+01 0.  1.
         -5    1    3    3    0  502  0.30139394412E+02 -0.66221060680E+02  0.15533089464E+03  0.17157730386E+03  0.41800000000E+01 0.  1.
        -11    1    1    2    0    0 -0.38408196488E+02 -0.65232422265E+01  0.11220036722E+03  0.11877148080E+03  0.00000000000E+00 0. -1.
         11    1    1    2    0    0  0.16631224951E+02  0.36282869526E+02  0.16511986654E+02  0.43193633415E+02  0.00000000000E+00 0.  1.
</event>
<event>
 7    1  0.2499014E-009  0.1518891E+03  0.7561462E-02  0.1198171E+00
         -2   -1    0    0    0  501 -0.00000000000E+00  0.00000000000E+00  0.33031113730E+02  0.33031113730E+02  0.00000000000E+00 0.  1.
          2   -1    0    0  501    0  0.00000000000E+00 -0.00000000000E+00 -0.88153762388E+03  0.88153762388E+03  0.00000000000E+00 0. -1.
         25    2    1    2    0    0  0.48109730043E+02  0.11951848712E+03 -0.37844554526E+03  0.41888823141E+03  0.12508838795E+03 0.  0.
          5    1    3    3  502    0 -0.37046354564E+02  0.60633578022E+02 -0.10874921509E+03  0.12997202527E+03  0.41800000000E+01 0.  1.
         -5    1    3    3    0  502  0.85156084607E+02  0.58884909103E+02 -0.26969633016E+03  0.28891620614E+03  0.41800000000E+01 0.  1.
        -11    1    1    2    0    0 -0.42050744444E+02 -0.98301845555E+02 -0.45843948225E+03  0.47074226157E+03  0.00000000000E+00 0. -1.
         11    1    1    2    0    0 -0.60589855989E+01 -0.21216641570E+02 -0.11621482642E+02  0.24938244621E+02  0.00000000000E+00 0.  1.
</event>
<event>
 7    1  0.2499014E-009  0.1323636E+03  0.7561462E-02  0.1223990E+00
         -2   -1    0    0    0  501 -0.00000000000E+00  0.00000000000E+00  0.32340382079E+02  0.32340382079E+02  0.00000000000E+00 0.  1.
          2   -1    0    0  501    0  0.00000000000E+00 -0.00000000000E+00 -0.66656031375E+03  0.66656031375E+03  0.00000000000E+00 0. -1.
         25    2    1    2    0    0 -0.96200466073E+02 -0.30850285278E+02 -0.35480878798E+03  0.38954202004E+03  0.12508972610E+03 0.  0.
          5    1    3    3  502    0  0.27508421270E+02 -0.14456762421E+02 -0.11470160291E+03  0.11891022382E+03  0.41800000000E+01 0.  1.
         -5    1    3    3    0  502 -0.12370888734E+03 -0.16393522857E+02 -0.24010718507E+03  0.27063179621E+03  0.41800000000E+01 0.  1.
        -11    1    1    2    0    0  0.36044505587E+02 -0.79719975541E+01 -0.23829908049E+02  0.43938862589E+02  0.00000000000E+00 0.  1.
         11    1    1    2    0    0  0.60155960485E+02  0.38822282832E+02 -0.25558123565E+03  0.26541981321E+03  0.00000000000E+00 0. -1.
</event>
<event>
 7    1  0.2499014E-009  0.1204959E+03  0.7561462E-02  0.1242281E+00
          2   -1    0    0  501    0  0.00000000000E+00  0.00000000000E+00  0.10911843448E+03  0.10911843448E+03  0.00000000000E+00 0. -1.
         -2   -1    0    0    0  501 -0.00000000000E+00 -0.00000000000E+00 -0.24977081272E+03  0.24977081272E+03  0.00000000000E+00 0.  1.
         25    2    1    2    0    0 -0.64238571118E+02  0.49414408912E+02 -0.17950410360E+03  0.23332191701E+03  0.12509602680E+03 0.  0.
          5    1    3    3  502    0 -0.66498297425E+02 -0.26137513477E+02 -0.10526933905E+03  0.12729610880E+03  0.41800000000E+01 0. -1.
         -5    1    3    3    0  502  0.22597263075E+01  0.75551922390E+02 -0.74234764554E+02  0.10602580822E+03  0.41800000000E+01 0. -1.
        -11    1    1    2    0    0  0.52974271390E+02 -0.58736380956E+02 -0.50869316331E+01  0.79259780157E+02  0.00000000000E+00 0.  1.
         11    1    1    2    0    0  0.11264299727E+02  0.93219720434E+01  0.43938656999E+02  0.46307550032E+02  0.00000000000E+00 0. -1.
</event>
<event>
 7    1  0.2499014E-009  0.1077587E+03  0.7561462E-02  0.1264778E+00
         -1   -1    0    0    0  501 -0.00000000000E+00  0.00000000000E+00  0.11583272968E+04  0.11583272968E+04  0.00000000000E+00 0.  1.
          1   -1    0    0  501    0  0.00000000000E+00 -0.00000000000E+00 -0.20649815698E+02  0.20649815698E+02  0.00000000000E+00 0. -1.
         25    2    1    2    0    0  0.41129019322E+01  0.39699297541E+02  0.99201252386E+03  0.10006647715E+04  0.12509271418E+03 0.  0.
          5    1    3    3  502    0 -0.27103845626E+02  0.77371043707E+02  0.64074284949E+03  0.64597969660E+03  0.41800000000E+01 0.  1.
         -5    1    3    3    0  502  0.31216747558E+02 -0.37671746165E+02  0.35126967438E+03  0.35468507485E+03  0.41800000000E+01 0.  1.
        -11    1    1    2    0    0  0.28990267238E+02 -0.42123009024E+02  0.13350571314E+03  0.14296348808E+03  0.00000000000E+00 0.  1.
         11    1    1    2    0    0 -0.33103169170E+02  0.24237114822E+01  0.12159244051E+02  0.35348852914E+02  0.00000000000E+00 0. -1.
</event>
<event>
 7    1  0.3213528E-009  0.1375812E+03  0.7561462E-02  0.1216621E+00
         -3   -1    0    0    0  501 -0.00000000000E+00  0.00000000000E+00  0.14527056101E+03  0.14527056101E+03  0.00000000000E+00 0.  1.
          3   -1    0    0  501    0  0.00000000000E+00 -0.00000000000E+00 -0.13722878326E+03  0.13722878326E+03  0.00000000000E+00 0. -1.
         25    2    1    2    0    0 -0.56198216541E+02 -0.64877164494E+02  0.32145175308E+02  0.15507737949E+03  0.12509354627E+03 0.  0.
          5    1    3    3  502    0 -0.95972993186E+02 -0.51181266357E+02  0.16971712641E+02  0.11016282893E+03  0.41800000000E+01 0.  1.
         -5    1    3    3    0  502  0.39774776645E+02 -0.13695898137E+02  0.15173462667E+02  0.44914550563E+02  0.41800000000E+01 0.  1.
        -11    1    1    2    0    0  0.32202715549E+02 -0.18596561304E+02  0.35985542513E+00  0.37188391697E+02  0.00000000000E+00 0. -1.
         11    1    1    2    0    0  0.23995500992E+02  0.83473725797E+02 -0.24463252984E+02  0.90233573092E+02  0.00000000000E+00 0.  1.
</event>
<event>
 7    1  0.2499014E-009  0.1871029E+03  0.7561462E-02  0.1161101E+00
         -2   -1    0    0    0  501 -0.00000000000E+00  0.00000000000E+00  0.28904358601E+02  0.28904358601E+02  0.00000000000E+00 0.  1.
          2   -1    0    0  501    0  0.00000000000E+00 -0.00000000000E+00 -0.15317972972E+04  0.15317972972E+04  0.00000000000E+00 0. -1.
         25    2    1    2    0    0  0.12474430028E+03  0.12979256190E+03 -0.74586634061E+03  0.77741360528E+03  0.12509223015E+03 0.  0.
          5    1    3    3  502    0  0.54264195439E+02  0.85540731464E+02 -0.19020540013E+03  0.21553975569E+03  0.41800000000E+01 0.  1.
         -5    1    3    3    0  502  0.70480104844E+02  0.44251830441E+02 -0.55566094048E+03  0.56187384959E+03  0.41800000000E+01 0.  1.
        -11    1    1    2    0    0 -0.28667192983E+02 -0.71700988783E+02 -0.44559929033E+03  0.45224060774E+03  0.00000000000E+00 0. -1.
         11    1    1    2    0    0 -0.96077107301E+02 -0.58091573122E+02 -0.31142730767E+03  0.33104744279E+03  0.00000000000E+00 0.  1.
</event>
<event>
 7    1  0.2499014E-009  0.1067879E+03  0.7561462E-02  0.1266637E+00
          2   -1    0    0  501    0  0.00000000000E+00  0.00000000000E+00  0.41693790061E+03  0.41693790061E+03  0.00000000000E+00 0.  1.
         -2   -1    0    0    0  501 -0.00000000000E+00 -0.00000000000E+00 -0.43670545860E+02  0.43670545860E+02  0.00000000000E+00 0. -1.
         25    2    1    2    0    0  0.44594400126E+02 -0.92970501208E+01  0.31822796426E+03  0.34495112593E+03  0.12508855415E+03 0.  0.
          5    1    3    3  502    0 -0.10985106014E+02 -0.48817592587E+02  0.62069650208E+02  0.79836982514E+02  0.41800000000E+01 0. -1.
         -5    1    3    3    0  502  0.55579506140E+02  0.39520542466E+02  0.25615831406E+03  0.26511414342E+03  0.41800000000E+01 0. -1.
        -11    1    1    2    0    0  0.69494074254E+01  0.36223481406E+02  0.42304928323E+02  0.56126124302E+02  0.00000000000E+00 0.  1.
         11    1    1    2    0    0 -0.51543807551E+02 -0.26926431285E+02  0.12734462160E+02  0.59531196234E+02  0.00000000000E+00 0. -1.
</event>
<event>
 7    1  0.2499014E-009  0.1379966E+03  0.7561462E-02  0.1216050E+00
          2   -1    0    0  501    0  0.00000000000E+00  0.00000000000E+00  0.43664943397E+02  0.43664943397E+02  0.00000000000E+00 0. -1.
         -2   -1    0    0    0  501 -0.00000000000E+00 -0.00000000000E+00 -0.49353942608E+03  0.49353942608E+03  0.00000000000E+00 0.  1.
         25    2    1    2    0    0  0.35894414267E+02 -0.91095564133E+02 -0.25397556831E+03  0.29956278417E+03  0.12508981406E+03 0.  0.
          5    1    3    3  502    0  0.77694422529E+02 -0.36312727338E+02 -0.17313036150E+03  0.19325276695E+03  0.41800000000E+01 0. -1.
         -5    1    3    3    0  502 -0.41800008262E+02 -0.54782836795E+02 -0.80845206806E+02  0.10631001722E+03  0.41800000000E+01 0. -1.
        -11    1    1    2    0    0 -0.11913212594E+02  0.95899760601E+02 -0.18893011193E+03  0.21221045193E+03  0.00000000000E+00 0.  1.
         11    1    1    2    0    0 -0.23981201672E+02 -0.48041964681E+01 -0.69688024545E+01  0.25431133380E+02  0.00000000000E+00 0. -1.
</event>
<event>
 7    1  0.2499014E-009  0.8037743E+02  0.7561462E-02  0.1327984E+00
         -3   -1    0    0    0  501 -0.00000000000E+00  0.00000000000E+00  0.21943283030E+03  0.21943283030E+03  0.00000000000E+00 0.  1.
          3   -1    0    0  501    0  0.00000000000E+00 -0.00000000000E+00 -0.70770787319E+02  0.70770787319E+02  0.00000000000E+00 0. -1.
         25    2    1    2    0    0 -0.24073214167E+02 -0.26826943996E+02  0.13829530677E+03  0.18992712943E+03  0.12509003980E+03 0.  0.
          5    1    3    3  502    0 -0.15315164865E+02  0.21593424584E+02  0.13796361494E+03  0.14054273979E+03  0.41800000000E+01 0.  1.
         -5    1    3    3    0  502 -0.87580493025E+01 -0.48420368580E+02  0.33169182549E+00  0.49384389644E+02  0.41800000000E+01 0.  1.
        -11    1    1    2    0    0 -0.25833139218E+02 -0.36565212582E+01  0.28895436185E+02  0.38931574099E+02  0.00000000000E+00 0.  1.
         11    1    1    2    0    0  0.49906353385E+02  0.30483465255E+02 -0.18528699967E+02  0.61344914089E+02  0.00000000000E+00 0. -1.
</event>
<event>
 7    1  0.2995697E-009  0.1747858E+03  0.7561462E-02  0.1172947E+00
          2   -1    0    0  501    0  0.00000000000E+00  0.00000000000E+00  0.12969537355E+03  0.12969537355E+03  0.00000000000E+00 0.  1.
         -2   -1    0    0    0  501 -0.00000000000E+00 -0.00000000000E+00 -0.28337231830E+03  0.28337231830E+03  0.00000000000E+00 0. -1.
         25    2    1    2    0    0 -0.11187439344E+03 -0.85905643024E+02 -0.15635821086E+03  0.24493102480E+03  0.12509059674E+03 0.  0.
          5    1    3    3  502    0 -0.20540503442E+02  0.32636514587E+02 -0.30255336537E+02  0.49192602645E+02  0.41800000000E+01 0. -1.
         -5    1    3    3    0  502 -0.91333889997E+02 -0.11854215761E+03 -0.12610287433E+03  0.19573842215E+03  0.41800000000E+01 0. -1.
        -11    1    1    2    0    0  0.33981960960E+02  0.75112295619E+02 -0.22692265701E+02  0.85507716298E+02  0.00000000000E+00 0. -1.
         11    1    1    2    0    0  0.77892432479E+02  0.10793347405E+02  0.25373531819E+02  0.82628950753E+02  0.00000000000E+00 0.  1.
</event>
<event>
 7    1  0.2499014E-009  0.8491061E+02  0.7561462E-02  0.1315666E+00
         -3   -1    0    0    0  501 -0.00000000000E+00  0.00000000000E+00  0.84589541254E+02  0.84589541254E+02  0.00000000000E+00 0.  1.
          3   -1    0    0  501    0  0.00000000000E+00 -0.00000000000E+00 -0.27847074510E+03  0.27847074510E+03  0.00000000000E+00 0. -1.
         25    2    1    2    0    0  0.16181242269E+02  0.27049084502E+02 -0.22510364593E+03  0.25944387784E+03  0.12508392688E+03 0.  0.
          5    1    3    3  502    0 -0.11320701631E+02 -0.46362560163E+02 -0.61303855659E+02  0.77802830212E+02  0.41800000000E+01 0. -1.
         -5    1    3    3    0  502  0.27501943900E+02  0.73411644665E+02 -0.16379979027E+03  0.18164104763E+03  0.41800000000E+01 0. -1.
        -11    1    1    2    0    0 -0.14560182843E+02  0.16591917421E+01  0.60696081228E+02  0.62440100241E+02  0.00000000000E+00 0.  1.
         11    1    1    2    0    0 -0.16210594266E+01 -0.28708276244E+02 -0.29473639140E+02  0.41176308270E+02  0.00000000000E+00 0. -1.
</event>
<event>
 7    1  0.2499014E-009  0.2113966E+03  0.7561462E-02  0.1140465E+00
         -2   -1    0    0    0  501 -0.00000000000E+00  0.00000000000E+00  0.33940487204E+03  0.33940487204E+03  0.00000000000E+00 0. -1.
          2   -1    0    0  501    0  0.00000000000E+00 -0.00000000000E+00 -0.15443344507E+03  0.15443344507E+03  0.00000000000E+00 0.  1.
         25    2    1    2    0    0  0.18085028603E+03 -0.90554100451E+02  0.98845913357E+02  0.25753239180E+03  0.12508216169E+03 0.  0.
          5    1    3    3  502    0  0.71582049767E+02 -0.42571576488E+02 -0.23432413922E+02  0.86619162982E+02  0.41800000000E+01 0.  1.
         -5    1    3    3    0  502  0.10926823626E+03 -0.47982523964E+02  0.12227832728E+03  0.17091322882E+03  0.41800000000E+01 0.  1.
        -11    1    1    2    0    0 -0.10761757058E+03  0.55057788501E+01  0.39413278081E+02  0.11473997380E+03  0.00000000000E+00 0. -1.
         11    1    1    2    0    0 -0.73232715446E+02  0.85048321601E+02  0.46712235527E+02  0.12156595151E+03  0.00000000000E+00 0.  1.
</event>
<event>
 7    1  0.2499014E-009  0.1426783E+03  0.7561462E-02  0.1209770E+00
          1   -1    0    0  501    0  0.00000000000E+00  0.00000000000E+00  0.17151470505E+03  0.17151470505E+03  0.00000000000E+00 0. -1.
         -1   -1    0    0    0  501 -0.00000000000E+00 -0.00000000000E+00 -0.18755018739E+03  0.18755018739E+03  0.00000000000E+00 0.  1.
         25    2    1    2    0    0 -0.25681266066E+02  0.10987074706E+03  0.79199449111E+02  0.18614773684E+03  0.12508924297E+03 0.  0.
          5    1    3    3  502    0  0.47569837857E+01 -0.25653089842E+02  0.26795746332E+02  0.37632357549E+02  0.41800000000E+01 0.  1.
         -5    1    3    3    0  502 -0.30438249852E+02  0.13552383690E+03  0.52403702778E+02  0.14851537929E+03  0.41800000000E+01 0.  1.
        -11    1    1    2    0    0  0.20765089438E+02 -0.16638189849E+02 -0.71924999267E+02  0.76689137564E+02  0.00000000000E+00 0.  1.
         11    1    1    2    0    0  0.49161766283E+01 -0.93232557206E+02 -0.23309932180E+02  0.96228018031E+02  0.00000000000E+00 0. -1.
</event>
<event>
 7    1  0.2499014E-009  0.5337924E+03  0.7561462E-02  0.1005317E+00
          2   -1    0    0  501    0  0.00000000000E+00  0.00000000000E+00  0.16663677707E+04  0.16663677707E+04  0.00000000000E+00 0. -1.
         -2   -1    0    0    0  501 -0.00000000000E+00 -0.00000000000E+00 -0.21639192064E+03  0.21639192064E+03  0.00000000000E+00 0.  1.
         25    2    1    2    0    0  0.47907829863E+03  0.21450820451E+03  0.30515099367E+03  0.61991582432E+03  0.12509482116E+03 0.  0.
          5    1    3    3  502    0  0.20700148591E+03  0.28297468456E+02  0.13609812346E+03  0.24938029894E+03  0.41800000000E+01 0.  1.
         -5    1    3    3    0  502  0.27207681272E+03  0.18621073605E+03  0.16905287021E+03  0.37053552538E+03  0.41800000000E+01 0.  1.
        -11    1    1    2    0    0 -0.68807756044E+02 -0.57269728390E+02  0.25911186962E+03  0.27414100397E+03  0.00000000000E+00 0.  1.
         11    1    1    2    0    0 -0.41027054259E+03 -0.15723847612E+03  0.88571298678E+03  0.98870286307E+03  0.00000000000E+00 0. -1.
</event>
<event>
 7    1  0.2499014E-009  0.3264420E+03  0.7561462E-02  0.1072722E+00
          1   -1    0    0  501    0  0.00000000000E+00  0.00000000000E+00  0.76987908553E+03  0.76987908553E+03  0.00000000000E+00 0.  1.
         -1   -1    0    0    0  501 -0.00000000000E+00 -0.00000000000E+00 -0.15880663741E+03  0.15880663741E+03  0.00000000000E+00 0. -1.
         25    2    1    2    0    0  0.22213829244E+03 -0.23603790481E+03  0.40509205987E+03  0.53367262914E+03  0.12509030597E+03 0.  0.
          5    1    3    3  502    0  0.19798993593E+03 -0.22597276080E+03  0.40834686876E+03  0.50697962580E+03  0.41800000000E+01 0.  1.
         -5    1    3    3    0  502  0.24148356514E+02 -0.10065144016E+02 -0.32548088913E+01  0.26693003340E+02  0.41800000000E+01 0.  1.
        -11    1    1    2    0    0 -0.49491658318E+02  0.33389651442E+02  0.21818894849E+01  0.59741557631E+02  0.00000000000E+00 0. -1.
         11    1    1    2    0    0 -0.17264663413E+03  0.20264825337E+03  0.20379849876E+03  0.33527153617E+03  0.00000000000E+00 0.  1.
</event>
<event>
 7    1  0.2499014E-009  0.2155632E+03  0.7561462E-02  0.1137235E+00
         -1   -1    0    0    0  501 -0.00000000000E+00  0.00000000000E+00  0.99484952831E+02  0.99484952831E+02  0.00000000000E+00 0.  1.
          1   -1    0    0  501    0  0.00000000000E+00 -0.00000000000E+00 -0.55536631320E+03  0.55536631320E+03  0.00000000000E+00 0. -1.
         25    2    1    2    0    0  0.77296680492E+02 -0.17144737897E+03 -0.36201513554E+03  0.42669876054E+03  0.12509153974E+03 0.  0.
          5    1    3    3  502    0  0.93271761677E+02 -0.57820244135E+02 -0.15479948473E+03  0.18979766866E+03  0.41800000000E+01 0. -1.
         -5    1    3    3    0  502 -0.15975081185E+02 -0.11362713484E+03 -0.20721565081E+03  0.23690109187E+03  0.41800000000E+01 0. -1.
        -11    1    1    2    0    0 -0.50692690020E+02  0.17256714649E+03 -0.72143229292E+02  0.19378806569E+03  0.00000000000E+00 0.  1.
         11    1    1    2    0    0 -0.26603990472E+02 -0.11197675201E+01 -0.21722995542E+02  0.34364439813E+02  0.00000000000E+00 0. -1.
</event>
<event>
 7    1  0.2499014E-009  0.1521301E+03  0.7561462E-02  0.1197880E+00
         -2   -1    0    0    0  501 -0.00000000000E+00  0.00000000000E+00  0.10428659919E+03  0.10428659919E+03  0.00000000000E+00 0.  1.
          2   -1    0    0  501    0  0.00000000000E+00 -0.00000000000E+00 -0.38833117565E+03  0.38833117565E+03  0.00000000000E+00 0. -1.
         25    2    1    2    0    0  0.77971953697E+02  0.10083945721E+03 -0.11710182959E+02  0.17897727121E+03  0.12509002171E+03 0.  0.
          5    1    3    3  502    0 -0.38839155028E+01  0.93165803712E+02 -0.22329723263E+02  0.95974166951E+02  0.41800000000E+01 0. -1.
         -5    1    3    3    0  502  0.81855869200E+02  0.76736535019E+01  0.10619540303E+02  0.83003104260E+02  0.41800000000E+01 0. -1.
        -11    1    1    2    0    0 -0.44361202604E+02 -0.70638241177E+02 -0.78269378508E+02  0.11438432159E+03  0.00000000000E+00 0.  1.
         11    1    1    2    0    0 -0.33610751094E+02 -0.30201216037E+02 -0.19406501499E+03  0.19925618204E+03  0.00000000000E+00 0. -1.
</event>
<event>
 7    1  0.2499014E-009  0.8927379E+02  0.7561462E-02  0.1304620E+00
         -2   -1    0    0    0  501 -0.00000000000E+00  0.00000000000E+00  0.37624570929E+02  0.37624570929E+02  0.00000000000E+00 0.  1.
          2   -1    0    0  501    0  0.00000000000E+00 -0.00000000000E+00 -0.42294279840E+03  0.42294279840E+03  0.00000000000E+00 0. -1.
         25    2    1    2    0    0  0.48578478583E+02  0.30497634452E+02 -0.27556484484E+03  0.30801496845E+03  0.12508901945E+03 0.  0.
          5    1    3    3  502    0  0.37874113941E+01  0.61408617194E+02 -0.22608286507E+03  0.23434226471E+03  0.41800000000E+01 0. -1.
         -5    1    3    3    0  502  0.44791067189E+02 -0.30910982742E+02 -0.49481979766E+02  0.73672703735E+02  0.41800000000E+01 0. -1.
        -11    1    1    2    0    0 -0.30389300046E+02 -0.31896364295E+02 -0.28977538255E+01  0.44150703163E+02  0.00000000000E+00 0.  1.
         11    1    1    2    0    0 -0.18189178537E+02  0.13987298428E+01 -0.10685562880E+03  0.10840169772E+03  0.00000000000E+00 0. -1.
</event>
<event>
 7    1  0.2499014E-009  0.9186533E+02  0.7561462E-02  0.1298396E+00
         -1   -1    0    0    0  501 -0.00000000000E+00  0.00000000000E+00  0.18738176246E+03  0.18738176246E+03  0.00000000000E+00 0.  1.
          1   -1    0    0  501    0  0.00000000000E+00 -0.00000000000E+00 -0.87150705275E+02  0.87150705275E+02  0.00000000000E+00 0. -1.
         25    2    1    2    0    0  0.18581048410E+02  0.11336781815E+00  0.12432117544E+03  0.17734025197E+03  0.12509413294E+03 0.  0.
          5    1    3    3  502    0  0.28111614729E+02  0.59504010029E+02  0.59612058179E+02  0.88893531668E+02  0.41800000000E+01 0. -1.
         -5    1    3    3    0  502 -0.95305663197E+01 -0.59390642210E+02  0.64709117257E+02  0.88446720305E+02  0.41800000000E+01 0. -1.
        -11    1    1    2    0    0 -0.20866700739E+02 -0.24964156041E+02  0.25723634474E+02  0.41476905105E+02  0.00000000000E+00 0.  1.
         11    1    1    2    0    0  0.22856523290E+01  0.24850788223E+02 -0.49813752721E+02  0.55715310661E+02  0.00000000000E+00 0. -1.
</event>
<event>
 7    1  0.2499014E-009  0.8266812E+02  0.7561462E-02  0.1321646E+00
         -4   -1    0    0    0  501 -0.00000000000E+00  0.00000000000E+00  0.31597675336E+02  0.31597675336E+02  0.00000000000E+00 0.  1.
          4   -1    0    0  501    0  0.00000000000E+00 -0.00000000000E+00 -0.45617555176E+03  0.45617555176E+03  0.00000000000E+00 0. -1.
         25    2    1    2    0    0 -0.25545675730E+02  0.30252417925E+02 -0.30278695597E+03  0.32999098900E+03  0.12508525803E+03 0.  0.
          5    1    3    3  502    0  0.17189091935E+02  0.36812052470E+02 -0.27589889933E+03  0.27890548066E+03  0.41800000000E+01 0.  1.
         -5    1    3    3    0  502 -0.42734767665E+02 -0.65596345451E+01 -0.26888056640E+02  0.51085508343E+02  0.41800000000E+01 0.  1.
        -11    1    1    2    0    0  0.45565299249E+02 -0.38257666729E+02 -0.12252754675E+03  0.13620882964E+03  0.00000000000E+00 0. -1.
         11    1    1    2    0    0 -0.20019623519E+02  0.80052488039E+01  0.73662629424E+00  0.21573408459E+02  0.00000000000E+00 0.  1.
</event>
<event>
 7    1  0.2499014E-009  0.1101407E+03  0.7561462E-02  0.1260310E+00
          2   -1    0    0  501    0  0.00000000000E+00  0.00000000000E+00  0.18008103247E+03  0.18008103247E+03  0.00000000000E+00 0. -1.
         -2   -1    0    0    0  501 -0.00000000000E+00 -0.00000000000E+00 -0.13255080957E+03  0.13255080957E+03  0.00000000000E+00 0.  1.
         25    2    1    2    0    0  0.34962531623E+02  0.92612519964E+02 -0.21127316644E+02  0.16091455399E+03  0.12509065795E+03 0.  0.
          5    1    3    3  502    0  0.11329605640E+01  0.58389567993E+01  0.45657963263E+02  0.46233094483E+02  0.41800000000E+01 0. -1.
         -5    1    3    3    0  502  0.33829571059E+02  0.86773563165E+02 -0.66785279907E+02  0.11468145951E+03  0.41800000000E+01 0. -1.
        -11    1    1    2    0    0 -0.24223822265E+02 -0.10241646112E+03  0.28536388545E+02  0.10904242544E+03  0.00000000000E+00 0.  1.
         11    1    1    2    0    0 -0.10738709358E+02  0.98039411582E+01  0.40121151008E+02  0.42674862614E+02  0.00000000000E+00 0. -1.
</event>
<event>
 7    1  0.2499014E-009  0.6193001E+02  0.7561462E-02  0.1389906E+00
          1   -1    0    0  501    0  0.00000000000E+00  0.00000000000E+00  0.12791079630E+03  0.12791079630E+03  0.00000000000E+00 0. -1.
         -1   -1    0    0    0  501 -0.00000000000E+00 -0.00000000000E+00 -0.10437474853E+03  0.10437474853E+03  0.00000000000E+00 0.  1.
         25    2    1    2    0    0 -0.10532610606E+02  0.33987563391E+02 -0.54115784535E+01  0.13014834378E+03  0.12507284220E+03 0.  0.
          5    1    3    3  502    0 -0.25323736976E+02  0.59129375074E+00 -0.59469152288E+02  0.64774175075E+02  0.41800000000E+01 0. -1.
         -5    1    3    3    0  502  0.14791126371E+02  0.33396269641E+02  0.54057573834E+02  0.65374168707E+02  0.41800000000E+01 0. -1.
        -11    1    1    2    0    0 -0.99276881546E+01 -0.39094394243E+02  0.55261392790E+02  0.68416022878E+02  0.00000000000E+00 0. -1.
         11    1    1    2    0    0  0.20460298760E+02  0.51068308516E+01 -0.26313766563E+02  0.33721178174E+02  0.00000000000E+00 0.  1.
</event>
<event>
 7    1  0.2499014E-009  0.1130330E+03  0.7561462E-02  0.1255054E+00
          1   -1    0    0  501    0  0.00000000000E+00  0.00000000000E+00  0.46920448774E+03  0.46920448774E+03  0.00000000000E+00 0. -1.
         -1   -1    0    0    0  501 -0.00000000000E+00 -0.00000000000E+00 -0.31271776050E+02  0.31271776050E+02  0.00000000000E+00 0.  1.
         25    2    1    2    0    0 -0.25516680591E+02  0.47638516327E+02  0.23529801244E+03  0.27190688225E+03  0.12509064205E+03 0.  0.
          5    1    3    3  502    0 -0.34789780598E+02 -0.28254698225E+02  0.15305303299E+03  0.15953482414E+03  0.41800000000E+01 0. -1.
         -5    1    3    3    0  502  0.92731000068E+01  0.75893214551E+02  0.82244979451E+02  0.11237205811E+03  0.41800000000E+01 0. -1.
        -11    1    1    2    0    0  0.54604673390E+02 -0.51596501874E+02  0.12873178019E+03  0.14904945687E+03  0.00000000000E+00 0.  1.
         11    1    1    2    0    0 -0.29087992799E+02  0.39579855476E+01  0.73902919061E+02  0.79519924675E+02  0.00000000000E+00 0. -1.
</event>
<event>
 7    1  0.2499014E-009  0.1138683E+03  0.7561462E-02  0.1253570E+00
          2   -1    0    0  501    0  0.00000000000E+00  0.00000000000E+00  0.80965106430E+03  0.80965106430E+03  0.00000000000E+00 0. -1.
         -2   -1    0    0    0  501 -0.00000000000E+00 -0.00000000000E+00 -0.17745519388E+02  0.17745519388E+02  0.00000000000E+00 0.  1.
         25    2    1    2    0    0 -0.48339174200E+02 -0.20106243870E+02  0.42850484894E+03  0.44944936822E+03  0.12508953684E+03 0.  0.
          5    1    3    3  502    0  0.34007730278E+02 -0.23228580757E+02  0.67887571894E+02  0.79512813435E+02  0.41800000000E+01 0. -1.
         -5    1    3    3    0  502 -0.82346904479E+02  0.31223368869E+01  0.36061727704E+03  0.36993655478E+03  0.41800000000E+01 0. -1.
        -11    1    1    2    0    0  0.29260043311E+02  0.55997992712E+02  0.21779739510E+03  0.22677660954E+03  0.00000000000E+00 0.  1.
         11    1    1    2    0    0  0.19079130890E+02 -0.35891748841E+02  0.14560330087E+03  0.15117060592E+03  0.00000000000E+00 0. -1.
</event>
<event>
 7    1  0.2499014E-009  0.2035519E+03  0.7561462E-02  0.1146776E+00
          2   -1    0    0  501    0  0.00000000000E+00  0.00000000000E+00  0.59705749817E+03  0.59705749817E+03  0.00000000000E+00 0.  1.
         -2   -1    0    0    0  501 -0.00000000000E+00 -0.00000000000E+00 -0.87962955483E+02  0.87962955483E+02  0.00000000000E+00 0. -1.
         25    2    1    2    0    0  0.16429148737E+03 -0.10913640935E+03  0.20538450699E+03  0.31102579850E+03  0.12510716587E+03 0.  0.
          5    1    3    3  502    0  0.10332368628E+03 -0.72719078492E+02  0.20385392686E+03  0.23987026581E+03  0.41800000000E+01 0. -1.
         -5    1    3    3    0  502  0.60967801092E+02 -0.36417330857E+02  0.15305801289E+01  0.71155532689E+02  0.41800000000E+01 0. -1.
        -11    1    1    2    0    0 -0.71994416265E+02  0.77000935601E+01  0.15852710529E+03  0.17427946100E+03  0.00000000000E+00 0.  1.
         11    1    1    2    0    0 -0.92297071106E+02  0.10143631579E+03  0.14518293041E+03  0.19971519416E+03  0.00000000000E+00 0. -1.
</event>
<event>
 7    1  0.2499014E-009  0.1806227E+03  0.7561462E-02  0.1167202E+00
         -1   -1    0    0    0  501 -0.00000000000E+00  0.00000000000E+00  0.10547286247E+03  0.10547286247E+03  0.00000000000E+00 0.  1.
          1   -1    0    0  501    0  0.00000000000E+00 -0.00000000000E+00 -0.33170452917E+03  0.33170452917E+03  0.00000000000E+00 0. -1.
         25    2    1    2    0    0 -0.14917936013E+03 -0.16793645017E+02 -0.14190139816E+03  0.24149770984E+03  0.12509448052E+03 0.  0.
          5    1    3    3  502    0  0.18813302874E+02 -0.10759742803E+02 -0.37670584677E+02  0.43660712089E+02  0.41800000000E+01 0. -1.
         -5    1    3    3    0  502 -0.16799266301E+03 -0.60339022145E+01 -0.10423081349E+03  0.19783699775E+03  0.41800000000E+01 0. -1.
        -11    1    1    2    0    0  0.92094953324E+02 -0.30369290025E+02 -0.71610408811E+02  0.12054801887E+03  0.00000000000E+00 0.  1.
         11    1    1    2    0    0  0.57084406810E+02  0.47162935042E+02 -0.12719859720E+02  0.75131662925E+02  0.00000000000E+00 0. -1.
</event>
<event>
 7    1  0.2499014E-009  0.1375625E+03  0.7561462E-02  0.1216647E+00
         -1   -1    0    0    0  501 -0.00000000000E+00  0.00000000000E+00  0.11750693182E+02  0.11750693182E+02  0.00000000000E+00 0.  1.
          1   -1    0    0  501    0  0.00000000000E+00 -0.00000000000E+00 -0.21017643179E+04  0.21017643179E+04  0.00000000000E+00 0. -1.
         25    2    1    2    0    0  0.44401274304E+02 -0.82166862935E+02 -0.15999607594E+04  0.16075587332E+04  0.12509109635E+03 0.  0.
          5    1    3    3  502    0  0.17396082701E+02  0.29451879566E+02 -0.60563126148E+03  0.60661085894E+03  0.41800000000E+01 0.  1.
         -5    1    3    3    0  502  0.27005191602E+02 -0.11161874250E+03 -0.99432949792E+03  0.10009478742E+04  0.41800000000E+01 0.  1.
        -11    1    1    2    0    0 -0.69698154148E+02  0.63784731403E+02 -0.35895115394E+03  0.37117685215E+03  0.00000000000E+00 0.  1.
         11    1    1    2    0    0  0.25296879845E+02  0.18382131532E+02 -0.13110171140E+03  0.13477942581E+03  0.00000000000E+00 0. -1.
</event>
<event>
 7    1  0.2499014E-009  0.1295932E+03  0.7561462E-02  0.1228061E+00
          2   -1    0    0  501    0  0.00000000000E+00  0.00000000000E+00  0.40888474455E+03  0.40888474455E+03  0.00000000000E+00 0. -1.
         -2   -1    0    0    0  501 -0.00000000000E+00 -0.00000000000E+00 -0.55955973405E+02  0.55955973405E+02  0.00000000000E+00 0.  1.
         25    2    1    2    0    0 -0.50177702968E+02  0.37496410994E+02  0.28471874032E+03  0.31723162713E+03  0.12508941381E+03 0.  0.
          5    1    3    3  502    0 -0.52836588187E+02  0.74326099924E+02  0.25087815067E+03  0.26697077193E+03  0.41800000000E+01 0. -1.
         -5    1    3    3    0  502  0.26588852197E+01 -0.36829688930E+02  0.33840589656E+02  0.50260855201E+02  0.41800000000E+01 0. -1.
        -11    1    1    2    0    0  0.15184871918E+02  0.41578808100E+02  0.19593109909E+02  0.48407309098E+02  0.00000000000E+00 0. -1.
         11    1    1    2    0    0  0.34992831049E+02 -0.79075219093E+02  0.48616920914E+02  0.99201781731E+02  0.00000000000E+00 0.  1.
</event>
<event>
 7    1  0.2599305E-009  0.1093662E+03  0.7561462E-02  0.1261748E+00
          2   -1    0    0  501    0  0.00000000000E+00  0.00000000000E+00  0.17332398009E+04  0.17332398009E+04  0.00000000000E+00 0. -1.
         -2   -1    0    0    0  501 -0.00000000000E+00 -0.00000000000E+00 -0.13459848036E+02  0.13459848036E+02  0.00000000000E+00 0.  1.
         25    2    1    2    0    0 -0.16549989535E+02  0.60787041903E+01  0.15292147662E+04  0.15344237659E+04  0.12509052553E+03 0.  0.
          5    1    3    3  502    0 -0.15530103928E+02 -0.58503984719E+02  0.83297848321E+03  0.83518532449E+03  0.41800000000E+01 0. -1.
         -5    1    3    3    0  502 -0.10198856069E+01  0.64582688909E+02  0.69623628294E+03  0.69923844142E+03  0.41800000000E+01 0. -1.
        -11    1    1    2    0    0 -0.24335864599E+02 -0.35443462924E+02  0.94514970933E+02  0.10383425784E+03  0.00000000000E+00 0.  1.
         11    1    1    2    0    0  0.40885854134E+02  0.29364758734E+02  0.96050215825E+02  0.10844162524E+03  0.00000000000E+00 0. -1.
</event>
<event>
 7    1  0.2499014E-009  0.1192526E+03  0.7561462E-02  0.1244335E+00
         -2   -1    0    0    0  501 -0.00000000000E+00  0.00000000000E+00  0.15792881963E+02  0.15792881963E+02  0.00000000000E+00 0.  1.
          2   -1    0    0  501    0  0.00000000000E+00 -0.00000000000E+00 -0.11674065884E+04  0.11674065884E+04  0.00000000000E+00 0. -1.
         25    2    1    2    0    0 -0.43724440365E+02 -0.45763550846E+02 -0.85005520600E+03  0.86153758717E+03  0.12508809529E+03 0.  0.
          5    1    3    3  502    0  0.36708830856E+02  0.56457524062E+01 -0.38231576032E+03  0.38413828991E+03  0.41800000000E+01 0.  1.
         -5    1    3    3    0  502 -0.80433271221E+02 -0.51409303253E+02 -0.46773944567E+03  0.47739929725E+03  0.41800000000E+01 0.  1.
        -11    1    1    2    0    0  0.68787324409E+02  0.40965894219E+02 -0.17344296267E+03  0.19102974059E+03  0.00000000000E+00 0.  1.
         11    1    1    2    0    0 -0.25062884044E+02  0.47976566275E+01 -0.12811553777E+03  0.13063214261E+03  0.00000000000E+00 0. -1.
</event>
<event>
 7    1  0.2499014E-009  0.1159019E+03  0.7561462E-02  0.1250015E+00
         -1   -1    0    0    0  501 -0.00000000000E+00  0.00000000000E+00  0.30856949705E+02  0.30856949705E+02  0.00000000000E+00 0.  1.
          1   -1    0    0  501    0  0.00000000000E+00 -0.00000000000E+00 -0.43850147077E+03  0.43850147077E+03  0.00000000000E+00 0. -1.
         25    2    1    2    0    0 -0.10524997748E+02 -0.44566413270E+02 -0.24813709196E+03  0.28163218173E+03  0.12509088141E+03 0.  0.
          5    1    3    3  502    0 -0.53696282306E+02 -0.65381094109E+02 -0.14767608410E+03  0.17024592922E+03  0.41800000000E+01 0. -1.
         -5    1    3    3    0  502  0.43171284558E+02  0.20814680839E+02 -0.10046100786E+03  0.11138625251E+03  0.41800000000E+01 0. -1.
        -11    1    1    2    0    0  0.42350170368E+02 -0.22128959184E+01 -0.68725336879E+02  0.80756459603E+02  0.00000000000E+00 0.  1.
         11    1    1    2    0    0 -0.31825172620E+02  0.46779309188E+02 -0.90782092224E+02  0.10696977914E+03  0.00000000000E+00 0. -1.
</event>
<event>
 7    1  0.2499014E-009  0.1035913E+03  0.7561462E-02  0.1272920E+00
          2   -1    0    0  501    0  0.00000000000E+00  0.00000000000E+00  0.36190606495E+03  0.36190606495E+03  0.00000000000E+00 0. -1.
         -2   -1    0    0    0  501 -0.00000000000E+00 -0.00000000000E+00 -0.39140631714E+02  0.39140631714E+02  0.00000000000E+00 0.  1.
         25    2    1    2    0    0 -0.26982320829E+02  0.38436583105E+02  0.15167840358E+03  0.20213372947E+03  0.12508513068E+03 0.  0.
          5    1    3    3  502    0 -0.39206773550E+02 -0.38733459424E+02  0.59057053112E+02  0.80886710240E+02  0.41800000000E+01 0.  1.
         -5    1    3    3    0  502  0.12224452721E+02  0.77170042529E+02  0.92621350472E+02  0.12124701923E+03  0.41800000000E+01 0.  1.
        -11    1    1    2    0    0 -0.73902955303E+01  0.11123100500E+02 -0.38275021838E+01  0.13892069887E+02  0.00000000000E+00 0.  1.
         11    1    1    2    0    0  0.34372616359E+02 -0.49559683605E+02  0.17491453183E+03  0.18502089731E+03  0.00000000000E+00 0. -1.
</event>
<event>
 7    1  0.2499014E-009  0.1253183E+03  0.7561462E-02  0.1234573E+00
         -2   -1    0    0    0  501 -0.00000000000E+00  0.00000000000E+00  0.24453324228E+02  0.24453324228E+02  0.00000000000E+00 0.  1.
          2   -1    0    0  501    0  0.00000000000E+00 -0.00000000000E+00 -0.12277143477E+04  0.12277143477E+04  0.00000000000E+00 0. -1.
         25    2    1    2    0    0 -0.84884515991E+02  0.69962507547E+02 -0.91768788459E+03  0.93268371955E+03  0.12509090168E+03 0.  0.
          5    1    3    3  502    0  0.12739301017E+02  0.32262997784E+02 -0.52838236683E+03  0.52953620159E+03  0.41800000000E+01 0.  1.
         -5    1    3    3    0  502 -0.97623817008E+02  0.37699509763E+02 -0.38930551776E+03  0.40314751796E+03  0.41800000000E+01 0.  1.
        -11    1    1    2    0    0  0.44581632133E+02 -0.46085793258E+02 -0.25640444749E+03  0.26430032719E+03  0.00000000000E+00 0. -1.
         11    1    1    2    0    0  0.40302883858E+02 -0.23876714290E+02 -0.29168691442E+02  0.55183625225E+02  0.00000000000E+00 0.  1.
</event>
<event>
 7    1  0.3158374E-009  0.9705320E+02  0.7561462E-02  0.1286618E+00
          2   -1    0    0  501    0  0.00000000000E+00  0.00000000000E+00  0.82278053985E+03  0.82278053985E+03  0.00000000000E+00 0.  1.
         -2   -1    0    0    0  501 -0.00000000000E+00 -0.00000000000E+00 -0.17016572520E+02  0.17016572520E+02  0.00000000000E+00 0. -1.
         25    2    1    2    0    0  0.71832362120E+01 -0.47667884985E+02  0.47675693778E+03  0.49524550364E+03  0.12508838878E+03 0.  0.
          5    1    3    3  502    0  0.18748416272E+02 -0.73596380899E+02  0.15965522529E+03  0.17684793964E+03  0.41800000000E+01 0. -1.
         -5    1    3    3    0  502 -0.11565180060E+02  0.25928495914E+02  0.31710171250E+03  0.31839756400E+03  0.41800000000E+01 0. -1.
        -11    1    1    2    0    0  0.33973680616E+02  0.26368582052E+02  0.75899965184E+02  0.87237135492E+02  0.00000000000E+00 0. -1.
         11    1    1    2    0    0 -0.41156916828E+02  0.21299302933E+02  0.25310706436E+03  0.25731447324E+03  0.00000000000E+00 0.  1.
</event>
<event>
 7    1  0.2499014E-009  0.9959857E+02  0.7561462E-02  0.1281142E+00
          1   -1    0    0  501    0  0.00000000000E+00  0.00000000000E+00  0.19592599697E+03  0.19592599697E+03  0.00000000000E+00 0. -1.
         -1   -1    0    0    0  501 -0.00000000000E+00 -0.00000000000E+00 -0.10624211600E+03  0.10624211600E+03  0.00000000000E+00 0.  1.
         25    2    1    2    0    0  0.42174318819E+02 -0.79703064729E+02  0.70244086423E+02  0.16945112881E+03  0.12509277231E+03 0.  0.
          5    1    3    3  502    0 -0.13926053716E+02 -0.32024720127E+02 -0.29155671069E+02  0.45684168229E+02  0.41800000000E+01 0.  1.
         -5    1    3    3    0  502  0.56100372535E+02 -0.47678344601E+02  0.99399757491E+02  0.12376696058E+03  0.41800000000E+01 0.  1.
        -11    1    1    2    0    0 -0.32394365720E+02  0.65002546472E+02 -0.31231342674E+02  0.79057717798E+02  0.00000000000E+00 0.  1.
         11    1    1    2    0    0 -0.97799530995E+01  0.14700518257E+02  0.50671137218E+02  0.53659266363E+02  0.00000000000E+00 0. -1.
</event>
<event>
 7    1  0.2499014E-009  0.1036669E+03  0.7561462E-02  0.1272769E+00
          2   -1    0    0  501    0  0.00000000000E+00  0.00000000000E+00  0.29695263119E+03  0.29695263119E+03  0.00000000000E+00 0.  1.
         -2   -1    0    0    0  501 -0.00000000000E+00 -0.00000000000E+00 -0.69706704234E+02  0.69706704234E+02  0.00000000000E+00 0. -1.
         25    2    1    2    0    0 -0.12087643335E+02  0.65117507025E+02  0.38574319461E+02  0.14670266755E+03  0.12508914302E+03 0.  0.
          5    1    3    3  502    0 -0.22806873518E+02  0.83738454865E+02 -0.15595336681E+02  0.88277795787E+02  0.41800000000E+01 0. -1.
         -5    1    3    3    0  502  0.10719230182E+02 -0.18620947839E+02  0.54169656142E+02  0.58424871764E+02  0.41800000000E+01 0. -1.
        -11    1    1    2    0    0  0.32203809872E+02 -0.70691814829E+02  0.18225352415E+03  0.19811805854E+03  0.00000000000E+00 0. -1.
         11    1    1    2    0    0 -0.20116166536E+02  0.55743078041E+01  0.64180833391E+01  0.21838609328E+02  0.00000000000E+00 0.  1.
</event>
<event>
 7    1  0.2499014E-009  0.1080117E+03  0.7561462E-02  0.1264297E+00
         -2   -1    0    0    0  501 -0.00000000000E+00  0.00000000000E+00  0.69982137104E+02  0.69982137104E+02  0.00000000000E+00 0.  1.
          2   -1    0    0  501    0  0.00000000000E+00 -0.00000000000E+00 -0.21004291445E+03  0.21004291445E+03  0.00000000000E+00 0. -1.
         25    2    1    2    0    0  0.18088851047E+01  0.55399181510E+02 -0.70918405550E+02  0.15410656202E+03  0.12508825219E+03 0.  0.
          5    1    3    3  502    0  0.54125573336E+02  0.33547046447E+02 -0.77895953075E+00  0.63820538952E+02  0.41800000000E+01 0. -1.
         -5    1    3    3    0  502 -0.52316688231E+02  0.21852135063E+02 -0.70139446019E+02  0.90286023072E+02  0.41800000000E+01 0. -1.
        -11    1    1    2    0    0 -0.19876095558E+02  0.13565854939E+02  0.32880912557E+01  0.24287921668E+02  0.00000000000E+00 0.  1.
         11    1    1    2    0    0  0.18067210453E+02 -0.68965036449E+02 -0.72430463050E+02  0.10163056786E+03  0.00000000000E+00 0. -1.
</event>
<event>
 7    1  0.2499014E-009  0.1138098E+03  0.7561462E-02  0.1253673E+00
         -1   -1    0    0    0  501 -0.00000000000E+00  0.00000000000E+00  0.35173219285E+02  0.35173219285E+02  0.00000000000E+00 0.  1.
          1   -1    0    0  501    0  0.00000000000E+00 -0.00000000000E+00 -0.49716797817E+03  0.49716797817E+03  0.00000000000E+00 0. -1.
         25    2    1    2    0    0  0.54790422334E+01  0.32983800329E+02 -0.12069537613E+03  0.17700503553E+03  0.12508180442E+03 0.  0.
          5    1    3    3  502    0  0.54272729674E+01 -0.47768490813E+02 -0.38846150914E+02  0.61949817169E+02  0.41800000000E+01 0.  1.
         -5    1    3    3    0  502  0.51769266007E-01  0.80752291142E+02 -0.81849225214E+02  0.11505521836E+03  0.41800000000E+01 0.  1.
        -11    1    1    2    0    0  0.69463693530E+01  0.31793583707E+02 -0.98477818106E+02  0.10371578795E+03  0.00000000000E+00 0. -1.
         11    1    1    2    0    0 -0.12425411586E+02 -0.64777384036E+02 -0.24282156465E+03  0.25162037397E+03  0.00000000000E+00 0.  1.
</event>
<event>
 7    1  0.2499014E-009  0.1147859E+03  0.7561462E-02  0.1251955E+00
         -2   -1    0    0    0  501 -0.00000000000E+00  0.00000000000E+00  0.34180334533E+03  0.34180334533E+03  0.00000000000E+00 0.  1.
          2   -1    0    0  501    0  0.00000000000E+00 -0.00000000000E+00 -0.39585120943E+02  0.39585120943E+02  0.00000000000E+00 0. -1.
         25    2    1    2    0    0  0.11084744939E+02 -0.39885363070E+02  0.16319038256E+03  0.20974233971E+03  0.12508810635E+03 0.  0.
          5    1    3    3  502    0  0.22432703953E+02 -0.82827247383E+02  0.93329484453E+02  0.12685205629E+03  0.41800000000E+01 0.  1.
         -5    1    3    3    0  502 -0.11347959014E+02  0.42941884313E+02  0.69860898102E+02  0.82890283422E+02  0.41800000000E+01 0.  1.
        -11    1    1    2    0    0 -0.50537043068E+02  0.16392496642E+02  0.89707431217E+02  0.10425991504E+03  0.00000000000E+00 0.  1.
         11    1    1    2    0    0  0.39452298128E+02  0.23492866428E+02  0.49320410611E+02  0.67386211524E+02  0.00000000000E+00 0. -1.
</event>
<event>
 7    1  0.2499014E-009  0.1027681E+03  0.7561462E-02  0.1274580E+00
         -3   -1    0    0    0  501 -0.00000000000E+00  0.00000000000E+00  0.46267765331E+02  0.46267765331E+02  0.00000000000E+00 0.  1.
          3   -1    0    0  501    0  0.00000000000E+00 -0.00000000000E+00 -0.27024171334E+03  0.27024171334E+03  0.00000000000E+00 0. -1.
         25    2    1    2    0    0  0.55299310093E+01  0.17352750348E+02 -0.96924645523E+02  0.15930251884E+03  0.12510478615E+03 0.  0.
          5    1    3    3  502    0 -0.16550200387E+02 -0.48041837514E+02 -0.17290038111E+02  0.53836280541E+02  0.41800000000E+01 0. -1.
         -5    1    3    3    0  502  0.22080131396E+02  0.65394587863E+02 -0.79634607412E+02  0.10546623830E+03  0.41800000000E+01 0. -1.
        -11    1    1    2    0    0 -0.22947565572E+02 -0.46268951507E+02 -0.45060809609E+02  0.68541105928E+02  0.00000000000E+00 0. -1.
         11    1    1    2    0    0  0.17417634563E+02  0.28916201159E+02 -0.81988492873E+02  0.88665853895E+02  0.00000000000E+00 0.  1.
</event>
<event>
 7    1  0.2499014E-009  0.1740123E+03  0.7561462E-02  0.1173727E+00
          2   -1    0    0  501    0  0.00000000000E+00  0.00000000000E+00  0.17897834233E+03  0.17897834233E+03  0.00000000000E+00 0. -1.
         -2   -1    0    0    0  501 -0.00000000000E+00 -0.00000000000E+00 -0.18887052467E+03  0.18887052467E+03  0.00000000000E+00 0.  1.
         25    2    1    2    0    0 -0.11171253109E+03  0.95746633126E+02 -0.82022580078E+01  0.19328684899E+03  0.12508165973E+03 0.  0.
          5    1    3    3  502    0 -0.75990632840E+02 -0.12144332550E+02  0.11321472755E+02  0.77895502039E+02  0.41800000000E+01 0.  1.
         -5    1    3    3    0  502 -0.35721898250E+02  0.10789096568E+03 -0.19523730762E+02  0.11539134695E+03  0.41800000000E+01 0.  1.
        -11    1    1    2    0    0  0.11206895639E+03 -0.71404293694E+02 -0.31008572903E+02  0.13645349295E+03  0.00000000000E+00 0.  1.
         11    1    1    2    0    0 -0.35642529692E+00 -0.24342339432E+02  0.29318648572E+02  0.38108525058E+02  0.00000000000E+00 0. -1.
</event>
<event>
 7    1  0.2499014E-009  0.1489549E+03  0.7561462E-02  0.1201763E+00
         -1   -1    0    0    0  501 -0.00000000000E+00  0.00000000000E+00  0.56551340667E+02  0.56551340667E+02  0.00000000000E+00 0.  1.
          1   -1    0    0  501    0  0.00000000000E+00 -0.00000000000E+00 -0.42262315074E+03  0.42262315074E+03  0.00000000000E+00 0. -1.
         25    2    1    2    0    0  0.10983076955E+03 -0.61847121476E+01 -0.20018209722E+03  0.26042060444E+03  0.12507985675E+03 0.  0.
          5    1    3    3  502    0  0.42490676781E+02  0.55270482589E+02 -0.54828515782E+02  0.88791454554E+02  0.41800000000E+01 0.  1.
         -5    1    3    3    0  502  0.67340092773E+02 -0.61455194736E+02 -0.14535358144E+03  0.17162914989E+03  0.41800000000E+01 0.  1.
        -11    1    1    2    0    0  0.83481228554E+01 -0.14595366864E+02 -0.46662940539E+02  0.49599857952E+02  0.00000000000E+00 0. -1.
         11    1    1    2    0    0 -0.11817889241E+03  0.20780079012E+02 -0.11922677231E+03  0.16915402901E+03  0.00000000000E+00 0.  1.
</event>
<event>
 7    1  0.2499014E-009  0.1132829E+03  0.7561462E-02  0.1254608E+00
          2   -1    0    0  501    0  0.00000000000E+00  0.00000000000E+00  0.29325450260E+03  0.29325450260E+03  0.00000000000E+00 0. -1.
         -2   -1    0    0    0  501 -0.00000000000E+00 -0.00000000000E+00 -0.97458534437E+02  0.97458534437E+02  0.00000000000E+00 0.  1.
         25    2    1    2    0    0  0.91549774327E+02 -0.57123145382E+02  0.18119246916E+02  0.16619491005E+03  0.12509207049E+03 0.  0.
          5    1    3    3  502    0  0.33396475507E+02  0.40932309032E+01  0.62210199511E+02  0.70849562022E+02  0.41800000000E+01 0. -1.
         -5    1    3    3    0  502  0.58153298820E+02 -0.61216376285E+02 -0.44090952595E+02  0.95345348024E+02  0.41800000000E+01 0. -1.
        -11    1    1    2    0    0 -0.58246735533E+02  0.32454952690E+02  0.33730498856E+02  0.74724512092E+02  0.00000000000E+00 0.  1.
         11    1    1    2    0    0 -0.33303038794E+02  0.24668192692E+02  0.14394622239E+03  0.14979361490E+03  0.00000000000E+00 0. -1.
</event>
<event>
 7    1  0.2499014E-009  0.7792347E+02  0.7561462E-02  0.1335050E+00
         -1   -1    0    0    0  501 -0.00000000000E+00  0.00000000000E+00  0.20506516124E+03  0.20506516124E+03  0.00000000000E+00 0.  1.
          1   -1    0    0  501    0  0.00000000000E+00 -0.00000000000E+00 -0.22822552540E+03  0.22822552540E+03  0.00000000000E+00 0. -1.
         25    2    1    2    0    0  0.51448480447E+02  0.20988882140E+02 -0.18987779732E+03  0.23406676208E+03  0.12508473881E+03 0.  0.
          5    1    3    3  502    0  0.70536928094E+02  0.25029387731E+02 -0.19860973600E+03  0.21228572281E+03  0.41800000000E+01 0. -1.
         -5    1    3    3    0  502 -0.19088447646E+02 -0.40405055909E+01  0.87319386745E+01  0.21781039277E+02  0.41800000000E+01 0. -1.
        -11    1    1    2    0    0 -0.38563984419E+02 -0.28341496278E+01  0.17204191367E+03  0.17633386901E+03  0.00000000000E+00 0.  1.
         11    1    1    2    0    0 -0.12884496029E+02 -0.18154732512E+02 -0.53244805145E+01  0.22890055554E+02  0.00000000000E+00 0. -1.
</event>
<event>
 7    1  0.2499014E-009  0.1143786E+03  0.7561462E-02  0.1252670E+00
         -3   -1    0    0    0  501 -0.00000000000E+00  0.00000000000E+00  0.52803168345E+02  0.52803168345E+02  0.00000000000E+00 0.  1.
          3   -1    0    0  501    0  0.00000000000E+00 -0.00000000000E+00 -0.36866367909E+03  0.36866367909E+03  0.00000000000E+00 0. -1.
         25    2    1    2    0    0  0.13244158823E+02  0.84121227426E+02 -0.14973237746E+03  0.21288194563E+03  0.12508856570E+03 0.  0.
          5    1    3    3  502    0 -0.77139170239E+01  0.93888524998E+02 -0.16118517804E+03  0.18674231889E+03  0.41800000000E+01 0.  1.
         -5    1    3    3    0  502  0.20958075847E+02 -0.97672975719E+01  0.11452800584E+02  0.26139626743E+02  0.41800000000E+01 0.  1.
        -11    1    1    2    0    0 -0.54640772822E+01 -0.96330322637E+02 -0.92900451433E+02  0.13393984126E+03  0.00000000000E+00 0.  1.
         11    1    1    2    0    0 -0.77800815410E+01  0.12209095211E+02 -0.73227681849E+02  0.74645060544E+02  0.00000000000E+00 0. -1.
</event>
<event>
 7    1  0.2499014E-009  0.1515181E+03  0.7561462E-02  0.1198620E+00
         -1   -1    0    0    0  501 -0.00000000000E+00  0.00000000000E+00  0.55165258255E+02  0.55165258255E+02  0.00000000000E+00 0. -1.
          1   -1    0    0  501    0  0.00000000000E+00 -0.00000000000E+00 -0.44606365127E+03  0.44606365127E+03  0.00000000000E+00 0.  1.
         25    2    1    2    0    0  0.13033908510E+02 -0.11039685405E+03 -0.17647390376E+03  0.24320429545E+03  0.12509173619E+03 0.  0.
          5    1    3    3  502    0 -0.43360345032E+02 -0.48867793341E+00 -0.51048743735E+02  0.67110393862E+02  0.41800000000E+01 0.  1.
         -5    1    3    3    0  502  0.56394253542E+02 -0.10990817612E+03 -0.12542516003E+03  0.17609390159E+03  0.41800000000E+01 0.  1.
        -11    1    1    2    0    0 -0.45079897716E+02  0.48798973300E+02 -0.14664751588E+03  0.16099388463E+03  0.00000000000E+00 0.  1.
         11    1    1    2    0    0  0.32045989206E+02  0.61597880751E+02 -0.67776973368E+02  0.97030729442E+02  0.00000000000E+00 0. -1.
</event>
<event>
 7    1  0.2499014E-009  0.1184443E+03  0.7561462E-02  0.1245686E+00
          2   -1    0    0  501    0  0.00000000000E+00  0.00000000000E+00  0.12603224904E+03  0.12603224904E+03  0.00000000000E+00 0. -1.
         -2   -1    0    0    0  501 -0.00000000000E+00 -0.00000000000E+00 -0.12741356161E+03  0.12741356161E+03  0.00000000000E+00 0.  1.
         25    2    1    2    0    0 -0.28282093204E+02  0.57315221017E+02 -0.34585851897E+01  0.14051537749E+03  0.12509075962E+03 0.  0.
          5    1    3    3  502    0 -0.29627709121E+02 -0.29518676132E+02 -0.27597658617E+02  0.50281771543E+02  0.41800000000E+01 0. -1.
         -5    1    3    3    0  502  0.13456159174E+01  0.86833897149E+02  0.24139073427E+02  0.90233605947E+02  0.41800000000E+01 0. -1.
        -11    1    1    2    0    0 -0.31528880249E+02 -0.22123574785E+02  0.16748705357E+02  0.42000499785E+02  0.00000000000E+00 0. -1.
         11    1    1    2    0    0  0.59810973453E+02 -0.35191646232E+02 -0.14671432730E+02  0.70929933373E+02  0.00000000000E+00 0.  1.
</event>
<event>
 7    1  0.2499014E-009  0.1314098E+03  0.7561462E-02  0.1225379E+00
         -2   -1    0    0    0  501 -0.00000000000E+00  0.00000000000E+00  0.71564782022E+02  0.71564782022E+02  0.00000000000E+00 0. -1.
          2   -1    0    0  501    0  0.00000000000E+00 -0.00000000000E+00 -0.58070814621E+03  0.58070814621E+03  0.00000000000E+00 0.  1.
         25    2    1    2    0    0  0.90025930300E+02 -0.78746939124E+02 -0.69895154209E+02  0.18664732311E+03  0.12508453979E+03 0.  0.
          5    1    3    3  502    0  0.25275098437E+02  0.92724582093E+01  0.28584182244E+02  0.39488440799E+02  0.41800000000E+01 0.  1.
         -5    1    3    3    0  502  0.64750831863E+02 -0.88019397334E+02 -0.98479336452E+02  0.14715888231E+03  0.41800000000E+01 0.  1.
        -11    1    1    2    0    0 -0.47319822897E+02  0.66830029896E+02 -0.39345231880E+03  0.40188324884E+03  0.00000000000E+00 0.  1.
         11    1    1    2    0    0 -0.42706107403E+02  0.11916909228E+02 -0.45795891185E+02  0.63742356283E+02  0.00000000000E+00 0. -1.
</event>
<event>
 7    1  0.2499014E-009  0.1494004E+03  0.7561462E-02  0.1201212E+00
         -1   -1    0    0    0  501 -0.00000000000E+00  0.00000000000E+00  0.12358113761E+03  0.12358113761E+03  0.00000000000E+00 0.  1.
          1   -1    0    0  501    0  0.00000000000E+00 -0.00000000000E+00 -0.20166042835E+03  0.20166042835E+03  0.00000000000E+00 0. -1.
         25    2    1    2    0    0  0.10700083144E+03 -0.57103898315E+01 -0.51527030420E+01  0.16478948777E+03  0.12508892217E+03 0.  0.
          5    1    3    3  502    0  0.23168698553E+02  0.55833221316E+02 -0.35064426520E+01  0.60695178847E+02  0.41800000000E+01 0. -1.
         -5    1    3    3    0  502  0.83832132884E+02 -0.61543611148E+02 -0.16462603901E+01  0.10409430892E+03  0.41800000000E+01 0. -1.
        -11    1    1    2    0    0  0.11985283388E+02  0.91673574952E+01 -0.30593503726E+02  0.34112313489E+02  0.00000000000E+00 0. -1.
         11    1    1    2    0    0 -0.11898611482E+03 -0.34569676637E+01 -0.42333083969E+02  0.12633976470E+03  0.00000000000E+00 0.  1.
</event>
<event>
 7    1  0.2499014E-009  0.1109046E+03  0.7561462E-02  0.1258904E+00
          1   -1    0    0  501    0  0.00000000000E+00  0.00000000000E+00  0.41393964050E+03  0.41393964050E+03  0.00000000000E+00 0. -1.
         -1   -1    0    0    0  501 -0.00000000000E+00 -0.00000000000E+00 -0.60438760540E+02  0.60438760540E+02  0.00000000000E+00 0.  1.
         25    2    1    2    0    0 -0.63541298182E+02 -0.66857084045E+02  0.86926213908E+02  0.17807716032E+03  0.12509173475E+03 0.  0.
          5    1    3    3  502    0 -0.50687743302E+02 -0.24472719127E+02 -0.21874963070E+02  0.60532203923E+02  0.41800000000E+01 0. -1.
         -5    1    3    3    0  502 -0.12853554881E+02 -0.42384364918E+02  0.10880117698E+03  0.11754495640E+03  0.41800000000E+01 0. -1.
        -11    1    1    2    0    0  0.57346534258E+02  0.84533725960E+02  0.17330659063E+03  0.20117094763E+03  0.00000000000E+00 0.  1.
         11    1    1    2    0    0  0.61947639238E+01 -0.17676641914E+02  0.93268075424E+02  0.95130293086E+02  0.00000000000E+00 0. -1.
</event>
<event>
 7    1  0.2499014E-009  0.1331046E+03  0.7561462E-02  0.1222920E+00
          1   -1    0    0  501    0  0.00000000000E+00  0.00000000000E+00  0.44965807831E+03  0.44965807831E+03  0.00000000000E+00 0. -1.
         -1   -1    0    0    0  501 -0.00000000000E+00 -0.00000000000E+00 -0.46568602736E+02  0.46568602736E+02  0.00000000000E+00 0.  1.
         25    2    1    2    0    0 -0.64891884132E+02  0.67300919255E+02  0.18323661334E+03  0.24075742016E+03  0.12509239999E+03 0.  0.
          5    1    3    3  502    0 -0.59016692699E+02 -0.23298474239E+02  0.93195158498E+02  0.11282109238E+03  0.41800000000E+01 0.  1.
         -5    1    3    3    0  502 -0.58751914333E+01  0.90599393493E+02  0.90041454842E+02  0.12793632778E+03  0.41800000000E+01 0.  1.
        -11    1    1    2    0    0  0.11245518811E+02  0.11709456613E+02  0.51621300105E+00  0.16243138347E+02  0.00000000000E+00 0.  1.
         11    1    1    2    0    0  0.53646365321E+02 -0.79010375868E+02  0.21933664923E+03  0.23922612253E+03  0.00000000000E+00 0. -1.
</event>
<event>
 7    1  0.2499014E-009  0.2090967E+03  0.7561462E-02  0.1142283E+00
         -2   -1    0    0    0  501 -0.00000000000E+00  0.00000000000E+00  0.20788062497E+02  0.20788062497E+02  0.00000000000E+00 0.  1.
          2   -1    0    0  501    0  0.00000000000E+00 -0.00000000000E+00 -0.25455363082E+04  0.25455363082E+04  0.00000000000E+00 0. -1.
         25    2    1    2    0    0  0.17677722485E+02 -0.18435755167E+03 -0.17696551971E+04  0.17837117566E+04  0.12509158650E+03 0.  0.
          5    1    3    3  502    0  0.58046654057E+02 -0.14410285334E+03 -0.10074959999E+04  0.10194119426E+04  0.41800000000E+01 0.  1.
         -5    1    3    3    0  502 -0.40368931572E+02 -0.40254698330E+02 -0.76215919721E+03  0.76429981399E+03  0.41800000000E+01 0.  1.
        -11    1    1    2    0    0 -0.47749252690E+02  0.55102141979E+02 -0.27898723489E+03  0.28835761549E+03  0.00000000000E+00 0.  1.
         11    1    1    2    0    0  0.30071530205E+02  0.12925540969E+03 -0.47610581367E+03  0.49425499863E+03  0.00000000000E+00 0. -1.
</event>
<event>
 7    1  0.2499014E-009  0.1144873E+03  0.7561462E-02  0.1252479E+00
          1   -1    0    0  501    0  0.00000000000E+00  0.00000000000E+00  0.49951741122E+02  0.49951741122E+02  0.00000000000E+00 0. -1.
         -1   -1    0    0    0  501 -0.00000000000E+00 -0.00000000000E+00 -0.27377317301E+03  0.27377317301E+03  0.00000000000E+00 0.  1.
         25    2    1    2    0    0  0.43665036329E+02 -0.16888583554E+02 -0.14215405156E+03  0.19505293069E+03  0.12508401874E+03 0.  0.
          5    1    3    3  502    0  0.86094050893E+02 -0.11498233449E+02 -0.11516031540E+03  0.14430441994E+03  0.41800000000E+01 0.  1.
         -5    1    3    3    0  502 -0.42429014564E+02 -0.53903501049E+01 -0.26993736154E+02  0.50748510743E+02  0.41800000000E+01 0.  1.
        -11    1    1    2    0    0 -0.70550244689E+02  0.14717322321E+02 -0.64361979852E+02  0.96625053958E+02  0.00000000000E+00 0.  1.
         11    1    1    2    0    0  0.26885208360E+02  0.21712612321E+01 -0.17305400482E+02  0.32046929490E+02  0.00000000000E+00 0. -1.
</event>
<event>
 7    1  0.2499014E-009  0.1384170E+03  0.7561462E-02  0.1215475E+00
          1   -1    0    0  501    0  0.00000000000E+00  0.00000000000E+00  0.31551118198E+03  0.31551118198E+03  0.00000000000E+00 0. -1.
         -1   -1    0    0    0  501 -0.00000000000E+00 -0.00000000000E+00 -0.99625549922E+02  0.99625549922E+02  0.00000000000E+00 0.  1.
         25    2    1    2    0    0 -0.91535649670E+02  0.60479510121E+02  0.11664387224E+02  0.16679374988E+03  0.12509017054E+03 0.  0.
          5    1    3    3  502    0 -0.10616960308E+03  0.44996874779E+02 -0.30515981555E+02  0.11935409875E+03  0.41800000000E+01 0.  1.
         -5    1    3    3    0  502  0.14633953409E+02  0.15482635341E+02  0.42180368779E+02  0.47439651135E+02  0.41800000000E+01 0.  1.
        -11    1    1    2    0    0  0.26962492021E+02  0.22131999145E+02  0.68153730607E+02  0.76561951110E+02  0.00000000000E+00 0.  1.
         11    1    1    2    0    0  0.64573157648E+02 -0.82611509266E+02  0.13606751422E+03  0.17178103091E+03  0.00000000000E+00 0. -1.
</event>
<event>
 7    1  0.2499014E-009  0.9594369E+02  0.7561462E-02  0.1289065E+00
          2   -1    0    0  501    0  0.00000000000E+00  0.00000000000E+00  0.96163716487E+03  0.96163716487E+03  0.00000000000E+00 0. -1.
         -2   -1    0    0    0  501 -0.00000000000E+00 -0.00000000000E+00 -0.15074949210E+02  0.15074949210E+02  0.00000000000E+00 0.  1.
         25    2    1    2    0    0 -0.11422943267E+02  0.33703997534E+02  0.68418027181E+03  0.69643242288E+03  0.12509609199E+03 0.  0.
          5    1    3    3  502    0  0.92024733570E+01 -0.27436286769E+02  0.50665446346E+03  0.50749744146E+03  0.41800000000E+01 0. -1.
         -5    1    3    3    0  502 -0.20625416624E+02  0.61140284303E+02  0.17752580835E+03  0.18893498142E+03  0.41800000000E+01 0. -1.
        -11    1    1    2    0    0 -0.24045346428E+01 -0.64335252732E+02  0.15770027710E+03  0.17033550402E+03  0.00000000000E+00 0.  1.
         11    1    1    2    0    0  0.13827477910E+02  0.30631255198E+02  0.10468166676E+03  0.10994418718E+03  0.00000000000E+00 0. -1.
</event>
<event>
 7    1  0.2499014E-009  0.1591677E+03  0.7561462E-02  0.1189640E+00
         -1   -1    0    0    0  501 -0.00000000000E+00  0.00000000000E+00  0.59069377213E+03  0.59069377213E+03  0.00000000000E+00 0.  1.
          1   -1    0    0  501    0  0.00000000000E+00 -0.00000000000E+00 -0.14963837340E+03  0.14963837340E+03  0.00000000000E+00 0. -1.
         25    2    1    2    0    0  0.13222888763E+03  0.26870243637E+02  0.52565025042E+03  0.55692173597E+03  0.12508855070E+03 0.  0.
          5    1    3    3  502    0  0.73442476654E+02  0.53766655847E+02  0.14832659813E+03  0.17407728964E+03  0.41800000000E+01 0. -1.
         -5    1    3    3    0  502  0.58786410979E+02 -0.26896412209E+02  0.37732365229E+03  0.38284444633E+03  0.41800000000E+01 0. -1.
        -11    1    1    2    0    0 -0.78598779867E+02 -0.60454817799E+02 -0.46186791970E+02  0.10938817552E+03  0.00000000000E+00 0. -1.
         11    1    1    2    0    0 -0.53630107766E+02  0.33584574162E+02 -0.38408059715E+02  0.74022234036E+02  0.00000000000E+00 0.  1.
</event>
<event>
 7    1  0.2499014E-009  0.1726332E+03  0.7561462E-02  0.1175129E+00
          3   -1    0    0  501    0  0.00000000000E+00  0.00000000000E+00  0.67504739206E+02  0.67504739206E+02  0.00000000000E+00 0. -1.
         -3   -1    0    0    0  501 -0.00000000000E+00 -0.00000000000E+00 -0.52380797158E+03  0.52380797158E+03  0.00000000000E+00 0.  1.
         25    2    1    2    0    0  0.56430163364E+01  0.14145325051E+03 -0.14715596449E+03  0.23946441276E+03  0.12508981326E+03 0.  0.
          5    1    3    3  502    0 -0.24708734793E+02 -0.76440558000E+01 -0.56553160519E+02  0.62327245478E+02  0.41800000000E+01 0.  1.
         -5    1    3    3    0  502  0.30351751130E+02  0.14909730631E+03 -0.90602803969E+02  0.17713716728E+03  0.41800000000E+01 0.  1.
        -11    1    1    2    0    0  0.92832544004E+01  0.10588217840E+02 -0.39437930060E+02  0.41876479039E+02  0.00000000000E+00 0.  1.
         11    1    1    2    0    0 -0.14926270737E+02 -0.15204146835E+03 -0.26970933782E+03  0.30997181899E+03  0.00000000000E+00 0. -1.
</event>
<event>
 7    1  0.2499014E-009  0.2909155E+03  0.7561462E-02  0.1089872E+00
          2   -1    0    0  501    0  0.00000000000E+00  0.00000000000E+00  0.20914117270E+03  0.20914117270E+03  0.00000000000E+00 0. -1.
         -2   -1    0    0    0  501 -0.00000000000E+00 -0.00000000000E+00 -0.43488175888E+03  0.43488175888E+03  0.00000000000E+00 0.  1.
         25    2    1    2    0    0  0.23803609224E+03  0.13582390036E+03 -0.48597591916E+02  0.30515325185E+03  0.12508983992E+03 0.  0.
          5    1    3    3  502    0  0.11921032669E+03  0.13411617320E+03 -0.49683117788E+02  0.18623676999E+03  0.41800000000E+01 0.  1.
         -5    1    3    3    0  502  0.11882576555E+03  0.17077271675E+01  0.10855258720E+01  0.11891648186E+03  0.41800000000E+01 0.  1.
        -11    1    1    2    0    0 -0.18491353214E+02 -0.39642654805E+02 -0.55579001582E+01  0.44094903082E+02  0.00000000000E+00 0.  1.
         11    1    1    2    0    0 -0.21954473903E+03 -0.96181245558E+02 -0.17158509410E+03  0.29477477665E+03  0.00000000000E+00 0. -1.
</event>
<event>
 7    1  0.2499014E-009  0.1133953E+03  0.7561462E-02  0.1254408E+00
          2   -1    0    0  501    0  0.00000000000E+00  0.00000000000E+00  0.28625968302E+04  0.28625968302E+04  0.00000000000E+00 0.  1.
         -2   -1    0    0    0  501 -0.00000000000E+00 -0.00000000000E+00 -0.64245853606E+01  0.64245853606E+01  0.00000000000E+00 0. -1.
         25    2    1    2    0    0  0.42315657335E+01 -0.42937480762E+02  0.22818029858E+04  0.22856363977E+04  0.12508934025E+03 0.  0.
          5    1    3    3  502    0  0.10650191487E+02  0.40123185025E+02  0.11535103772E+04  0.11542646834E+04  0.41800000000E+01 0. -1.
         -5    1    3    3    0  502 -0.64186257535E+01 -0.83060665787E+02  0.11282926087E+04  0.11313717144E+04  0.41800000000E+01 0. -1.
        -11    1    1    2    0    0  0.52756242982E+01  0.71426740880E+02  0.43013095619E+03  0.43605303691E+03  0.00000000000E+00 0.  1.
         11    1    1    2    0    0 -0.95071900317E+01 -0.28489260118E+02  0.14423830279E+03  0.14733198090E+03  0.00000000000E+00 0. -1.
</event>
<event>
 7    1  0.2499014E-009  0.8487768E+02  0.7561462E-02  0.1315753E+00
          2   -1    0    0  501    0  0.00000000000E+00  0.00000000000E+00  0.15922200629E+03  0.15922200629E+03  0.00000000000E+00 0. -1.
         -2   -1    0    0    0  501 -0.00000000000E+00 -0.00000000000E+00 -0.82438556200E+02  0.82438556200E+02  0.00000000000E+00 0.  1.
         25    2    1    2    0    0  0.16555958914E+02 -0.27809292851E+02  0.59688456656E+02  0.14232957796E+03  0.12509012895E+03 0.  0.
          5    1    3    3  502    0  0.65037330595E+02 -0.11009959956E+02  0.62239284297E+02  0.90786973179E+02  0.41800000000E+01 0. -1.
         -5    1    3    3    0  502 -0.48481371681E+02 -0.16799332895E+02 -0.25508276410E+01  0.51542604780E+02  0.41800000000E+01 0. -1.
        -11    1    1    2    0    0  0.86123535839E+01  0.25490418183E+02 -0.33384623483E+02  0.42877349947E+02  0.00000000000E+00 0.  1.
         11    1    1    2    0    0 -0.25168312498E+02  0.23188746679E+01  0.50479616913E+02  0.56453634581E+02  0.00000000000E+00 0. -1.
</event>
<event>
 7    1  0.2499014E-009  0.9099285E+02  0.7561462E-02  0.1300465E+00
          2   -1    0    0  501    0  0.00000000000E+00  0.00000000000E+00  0.61588064166E+02  0.61588064166E+02  0.00000000000E+00 0. -1.
         -2   -1    0    0    0  501 -0.00000000000E+00 -0.00000000000E+00 -0.23431177579E+03  0.23431177579E+03  0.00000000000E+00 0.  1.
         25    2    1    2    0    0 -0.40004492885E+02  0.31941943241E+02 -0.10915440406E+03  0.17373128523E+03  0.12508888181E+03 0.  0.
          5    1    3    3  502    0 -0.42526896969E+02 -0.32571927680E+02 -0.89728203097E+01  0.54474318196E+02  0.41800000000E+01 0. -1.
         -5    1    3    3    0  502  0.25224040841E+01  0.64513870921E+02 -0.10018158375E+03  0.11925696703E+03  0.41800000000E+01 0. -1.
        -11    1    1    2    0    0  0.16932729193E+02  0.69766886968E+01 -0.73585081590E+02  0.75829781325E+02  0.00000000000E+00 0.  1.
         11    1    1    2    0    0  0.23071763692E+02 -0.38918631938E+02  0.10015774018E+02  0.46338773408E+02  0.00000000000E+00 0. -1.
</event>
<event>
 7    1  0.2499014E-009  0.1616566E+03  0.7561462E-02  0.1186839E+00
          1   -1    0    0  501    0  0.00000000000E+00  0.00000000000E+00  0.16207613342E+04  0.16207613342E+04  0.00000000000E+00 0. -1.
         -1   -1    0    0    0  501 -0.00000000000E+00 -0.00000000000E+00 -0.21254053633E+02  0.21254053633E+02  0.00000000000E+00 0.  1.
         25    2    1    2    0    0 -0.45623558644E+02 -0.14089273299E+03  0.73341437493E+03  0.75860168088E+03  0.12509034161E+03 0.  0.
          5    1    3    3  502    0 -0.24864656104E+02 -0.51118356715E+02  0.55344236595E+03  0.55636971731E+03  0.41800000000E+01 0.  1.
         -5    1    3    3    0  502 -0.20758902540E+02 -0.89774376278E+02  0.17997200898E+03  0.20223196356E+03  0.41800000000E+01 0.  1.
        -11    1    1    2    0    0  0.58469296580E+02  0.36565093642E+02  0.34394092042E+03  0.35078629029E+03  0.00000000000E+00 0.  1.
         11    1    1    2    0    0 -0.12845737936E+02  0.10432763935E+03  0.52215198517E+03  0.53262741662E+03  0.00000000000E+00 0. -1.
</event>
<event>
 7    1  0.2499014E-009  0.4379581E+02  0.7561462E-02  0.1482002E+00
         -1   -1    0    0    0  501 -0.00000000000E+00  0.00000000000E+00  0.39510832174E+02  0.39510832174E+02  0.00000000000E+00 0.  1.
          1   -1    0    0  501    0  0.00000000000E+00 -0.00000000000E+00 -0.33793620179E+03  0.33793620179E+03  0.00000000000E+00 0. -1.
         25    2    1    2    0    0 -0.75765877448E+01  0.13693832086E+02 -0.22148975987E+03  0.25485278037E+03  0.12508916905E+03 0.  0.
          5    1    3    3  502    0 -0.11137216566E+02 -0.15364365328E+02 -0.22430642864E+03  0.22514650263E+03  0.41800000000E+01 0. -1.
         -5    1    3    3    0  502  0.35606288209E+01  0.29058197414E+02  0.28166687666E+01  0.29706277745E+02  0.41800000000E+01 0. -1.
        -11    1    1    2    0    0 -0.13933792157E+02 -0.19181108275E+01  0.18963012762E+02  0.23609861627E+02  0.00000000000E+00 0.  1.
         11    1    1    2    0    0  0.21510379902E+02 -0.11775721259E+02 -0.95898622500E+02  0.98984391962E+02  0.00000000000E+00 0. -1.
</event>
<event>
 7    1  0.2499014E-009  0.1265791E+03  0.7561462E-02  0.1232622E+00
          2   -1    0    0  501    0  0.00000000000E+00  0.00000000000E+00  0.42321759351E+03  0.42321759351E+03  0.00000000000E+00 0.  1.
         -2   -1    0    0    0  501 -0.00000000000E+00 -0.00000000000E+00 -0.39763757072E+02  0.39763757072E+02  0.00000000000E+00 0. -1.
         25    2    1    2    0    0  0.23602345366E+02 -0.64381555984E+02  0.17513045256E+03  0.22587562003E+03  0.12508822827E+03 0.  0.
          5    1    3    3  502    0 -0.20936036393E+02 -0.87209664670E+02  0.13219260798E+03  0.15980050449E+03  0.41800000000E+01 0. -1.
         -5    1    3    3    0  502  0.44538381759E+02  0.22828108686E+02  0.42937844581E+02  0.66075115536E+02  0.41800000000E+01 0. -1.
        -11    1    1    2    0    0  0.21892648372E+01 -0.22457041223E+02  0.45105445849E+02  0.50434242596E+02  0.00000000000E+00 0. -1.
         11    1    1    2    0    0 -0.25791610203E+02  0.86838597207E+02  0.16321793803E+03  0.18667148796E+03  0.00000000000E+00 0.  1.
</event>
<event>
 7    1  0.2499014E-009  0.1293200E+03  0.7561462E-02  0.1228468E+00
          1   -1    0    0  501    0  0.00000000000E+00  0.00000000000E+00  0.13936132037E+03  0.13936132037E+03  0.00000000000E+00 0. -1.
         -1   -1    0    0    0  501 -0.00000000000E+00 -0.00000000000E+00 -0.14518258579E+03  0.14518258579E+03  0.00000000000E+00 0.  1.
         25    2    1    2    0    0 -0.64969946745E+01 -0.90437528877E+02 -0.17643794886E+02  0.15549049484E+03  0.12507930652E+03 0.  0.
          5    1    3    3  502    0  0.44362274527E+02 -0.35034603614E+02 -0.48004174758E+02  0.74278584032E+02  0.41800000000E+01 0. -1.
         -5    1    3    3    0  502 -0.50859269201E+02 -0.55402925263E+02  0.30360379873E+02  0.81211910810E+02  0.41800000000E+01 0. -1.
        -11    1    1    2    0    0 -0.84420370034E+01 -0.16565781852E+02  0.97460375957E+01  0.20992340650E+02  0.00000000000E+00 0.  1.
         11    1    1    2    0    0  0.14939031678E+02  0.10700331073E+03  0.20764918716E+01  0.10806107066E+03  0.00000000000E+00 0. -1.
</event>
<event>
 7    1  0.2499014E-009  0.8452884E+02  0.7561462E-02  0.1316669E+00
         -1   -1    0    0    0  501 -0.00000000000E+00  0.00000000000E+00  0.77813547065E+02  0.77813547065E+02  0.00000000000E+00 0.  1.
          1   -1    0    0  501    0  0.00000000000E+00 -0.00000000000E+00 -0.17176625211E+03  0.17176625211E+03  0.00000000000E+00 0. -1.
         25    2    1    2    0    0  0.31441912605E+02 -0.86649978534E+01 -0.24652770148E+02  0.13159758830E+03  0.12508593092E+03 0.  0.
          5    1    3    3  502    0  0.22036726915E+01  0.27714482720E+02 -0.64324418721E+02  0.70200085253E+02  0.41800000000E+01 0. -1.
         -5    1    3    3    0  502  0.29238239913E+02 -0.36379480573E+02  0.39671648573E+02  0.61397503048E+02  0.41800000000E+01 0. -1.
        -11    1    1    2    0    0  0.28585004507E+02  0.17340038935E+02 -0.34568432894E+02  0.48091121693E+02  0.00000000000E+00 0. -1.
         11    1    1    2    0    0 -0.60026917112E+02 -0.86750410818E+01 -0.34731502005E+02  0.69891089183E+02  0.00000000000E+00 0.  1.
</event>
<event>
 7    1  0.2499014E-009  0.7138978E+02  0.7561462E-02  0.1355430E+00
          1   -1    0    0  501    0  0.00000000000E+00  0.00000000000E+00  0.43515496995E+02  0.43515496995E+02  0.00000000000E+00 0. -1.
         -1   -1    0    0    0  501 -0.00000000000E+00 -0.00000000000E+00 -0.33515950398E+03  0.33515950398E+03  0.00000000000E+00 0.  1.
         25    2    1    2    0    0 -0.52765335002E+02 -0.85016796627E+01 -0.16901989568E+03  0.21695987387E+03  0.12508957831E+03 0.  0.
          5    1    3    3  502    0  0.73408541274E+01  0.95806395372E+01 -0.15097819097E+03  0.15151753476E+03  0.41800000000E+01 0. -1.
         -5    1    3    3    0  502 -0.60106189130E+02 -0.18082319200E+02 -0.18041704709E+02  0.65442339110E+02  0.41800000000E+01 0. -1.
        -11    1    1    2    0    0  0.24439929714E+02 -0.16361233998E+02  0.39260896761E+01  0.29671776531E+02  0.00000000000E+00 0. -1.
         11    1    1    2    0    0  0.28325405288E+02  0.24862913661E+02 -0.12655020099E+03  0.13204335057E+03  0.00000000000E+00 0.  1.
</event>
<event>
 7    1  0.2499014E-009  0.1331154E+03  0.7561462E-02  0.1222905E+00
          2   -1    0    0  501    0  0.00000000000E+00  0.00000000000E+00  0.45711132839E+03  0.45711132839E+03  0.00000000000E+00 0.  1.
         -2   -1    0    0    0  501 -0.00000000000E+00 -0.00000000000E+00 -0.59451750367E+02  0.59451750367E+02  0.00000000000E+00 0. -1.
         25    2    1    2    0    0  0.97217416449E+02  0.69714483706E+02  0.26841983337E+03  0.31939019193E+03  0.12509817127E+03 0.  0.
          5    1    3    3  502    0  0.84969428000E+02  0.11069820153E+02  0.65972252896E+02  0.10822271095E+03  0.41800000000E+01 0. -1.
         -5    1    3    3    0  502  0.12247988449E+02  0.58644663553E+02  0.20244758047E+03  0.21116748098E+03  0.41800000000E+01 0. -1.
        -11    1    1    2    0    0 -0.21675180499E+02 -0.22811366033E+02 -0.90683672159E+01  0.32747628218E+02  0.00000000000E+00 0. -1.
         11    1    1    2    0    0 -0.75542235950E+02 -0.46903117673E+02  0.13830811187E+03  0.16442525861E+03  0.00000000000E+00 0.  1.
</event>
<event>
 7    1  0.2499014E-009  0.1043679E+03  0.7561462E-02  0.1271370E+00
          1   -1    0    0  501    0  0.00000000000E+00  0.00000000000E+00  0.86440340260E+02  0.86440340260E+02  0.00000000000E+00 0. -1.
         -1   -1    0    0    0  501 -0.00000000000E+00 -0.00000000000E+00 -0.19927546456E+03  0.19927546456E+03  0.00000000000E+00 0.  1.
         25    2    1    2    0    0 -0.72077661032E+02 -0.26853086549E+02 -0.70670053236E+02  0.16297326815E+03  0.12509896975E+03 0.  0.
          5    1    3    3  502    0 -0.44647201912E+02 -0.56262248984E+02 -0.92371716706E+02  0.11708466913E+03  0.41800000000E+01 0. -1.
         -5    1    3    3    0  502 -0.27430459121E+02  0.29409162434E+02  0.21701663470E+02  0.45888599020E+02  0.41800000000E+01 0. -1.
        -11    1    1    2    0    0  0.51370004903E+02  0.45400544348E+02 -0.58823148599E+02  0.90334100106E+02  0.00000000000E+00 0.  1.
         11    1    1    2    0    0  0.20707656130E+02 -0.18547457799E+02  0.16658077535E+02  0.32408436561E+02  0.00000000000E+00 0. -1.
</event>
<event>
 7    1  0.2499014E-009  0.1230378E+03  0.7561462E-02  0.1238168E+00
         -3   -1    0    0    0  501 -0.00000000000E+00  0.00000000000E+00  0.63434755223E+02  0.63434755223E+02  0.00000000000E+00 0.  1.
          3   -1    0    0  501    0  0.00000000000E+00 -0.00000000000E+00 -0.26361072118E+03  0.26361072118E+03  0.00000000000E+00 0. -1.
         25    2    1    2    0    0 -0.34310760198E+02  0.61931172108E+02 -0.12567034350E+03  0.19092674946E+03  0.12508912854E+03 0.  0.
          5    1    3    3  502    0 -0.43526024041E+02  0.94420748186E+02 -0.69093257971E+02  0.12490453616E+03  0.41800000000E+01 0.  1.
         -5    1    3    3    0  502  0.92152638422E+01 -0.32489576078E+02 -0.56577085528E+02  0.66022213294E+02  0.41800000000E+01 0.  1.
        -11    1    1    2    0    0  0.54973697724E+02 -0.67049735509E+02 -0.75268224061E+02  0.11481759459E+03  0.00000000000E+00 0. -1.
         11    1    1    2    0    0 -0.20662937526E+02  0.51185634007E+01  0.76260160593E+00  0.21301132357E+02  0.00000000000E+00 0.  1.
</event>
<event>
 7    1  0.2499014E-009  0.9244140E+02  0.7561462E-02  0.1297045E+00
         -1   -1    0    0    0  501 -0.00000000000E+00  0.00000000000E+00  0.94580064646E+02  0.94580064646E+02  0.00000000000E+00 0.  1.
          1   -1    0    0  501    0  0.00000000000E+00 -0.00000000000E+00 -0.12729464037E+03  0.12729464037E+03  0.00000000000E+00 0. -1.
         25    2    1    2    0    0  0.11088909493E+02  0.36805354369E+01 -0.55939667545E+01  0.12575928673E+03  0.12509034927E+03 0.  0.
          5    1    3    3  502    0 -0.30488695741E+02 -0.36876438416E+02  0.30829885192E+02  0.57073518370E+02  0.41800000000E+01 0. -1.
         -5    1    3    3    0  502  0.41577605234E+02  0.40556973853E+02 -0.36423851947E+02  0.68685768363E+02  0.41800000000E+01 0. -1.
        -11    1    1    2    0    0 -0.37587878394E+02 -0.24545534883E+02  0.99666563272E+01  0.45985499053E+02  0.00000000000E+00 0.  1.
         11    1    1    2    0    0  0.26498968901E+02  0.20864999446E+02 -0.37087265299E+02  0.50129919230E+02  0.00000000000E+00 0. -1.
</event>
<event>
 7    1  0.2499014E-009  0.1111793E+03  0.7561462E-02  0.1258402E+00
         -2   -1    0    0    0  501 -0.00000000000E+00  0.00000000000E+00  0.32606816931E+02  0.32606816931E+02  0.00000000000E+00 0.  1.
          2   -1    0    0  501    0  0.00000000000E+00 -0.00000000000E+00 -0.79651146895E+03  0.79651146895E+03  0.00000000000E+00 0. -1.
         25    2    1    2    0    0  0.33664456234E+02 -0.15616334720E+02 -0.70056009592E+03  0.71260694105E+03  0.12508812456E+03 0.  0.
          5    1    3    3  502    0  0.71099573094E+02 -0.40174343609E+02 -0.52750439963E+03  0.53380473135E+03  0.41800000000E+01 0.  1.
         -5    1    3    3    0  502 -0.37435116860E+02  0.24558008889E+02 -0.17305569629E+03  0.17880220970E+03  0.41800000000E+01 0.  1.
        -11    1    1    2    0    0 -0.52702779397E+02 -0.19075103249E+02 -0.24869870820E+02  0.61318455580E+02  0.00000000000E+00 0. -1.
         11    1    1    2    0    0  0.19038323163E+02  0.34691437969E+02 -0.38474685283E+02  0.55192889259E+02  0.00000000000E+00 0.  1.
</event>
<event>
 7    1  0.2499014E-009  0.1431608E+03  0.7561462E-02  0.1209138E+00
          2   -1    0    0  501    0  0.00000000000E+00  0.00000000000E+00  0.10788800227E+03  0.10788800227E+03  0.00000000000E+00 0. -1.
         -2   -1    0    0    0  501 -0.00000000000E+00 -0.00000000000E+00 -0.29087845834E+03  0.29087845834E+03  0.00000000000E+00 0.  1.
         25    2    1    2    0    0 -0.98879413819E+02  0.96339815809E+01  0.12968255791E+02  0.16026752070E+03  0.12509016929E+03 0.  0.
          5    1    3    3  502    0  0.21748963770E+02  0.27613621699E+02  0.14430542050E+02  0.38226201384E+02  0.41800000000E+01 0. -1.
         -5    1    3    3    0  502 -0.12062837759E+03 -0.17979640119E+02 -0.14622862595E+01  0.12204131931E+03  0.41800000000E+01 0. -1.
        -11    1    1    2    0    0  0.18898892208E+02 -0.39282509543E+02 -0.10557399646E+03  0.11421975491E+03  0.00000000000E+00 0.  1.
         11    1    1    2    0    0  0.79980521610E+02  0.29648527962E+02 -0.90384715398E+02  0.12427918500E+03  0.00000000000E+00 0. -1.
</event>
<event>
 7    1  0.2499014E-009  0.1146533E+03  0.7561462E-02  0.1252188E+00
         -1   -1    0    0    0  501 -0.00000000000E+00  0.00000000000E+00  0.76168872780E+02  0.76168872780E+02  0.00000000000E+00 0.  1.
          1   -1    0    0  501    0  0.00000000000E+00 -0.00000000000E+00 -0.19647823097E+03  0.19647823097E+03  0.00000000000E+00 0. -1.
         25    2    1    2    0    0  0.35277310603E+02 -0.43288799348E+02 -0.86647271404E+02  0.16209525589E+03  0.12509481823E+03 0.  0.
          5    1    3    3  502    0  0.70497152005E+02 -0.51753782513E+02 -0.26005001832E+02  0.91334741285E+02  0.41800000000E+01 0. -1.
         -5    1    3    3    0  502 -0.35219841402E+02  0.84649831648E+01 -0.60642269572E+02  0.70760514605E+02  0.41800000000E+01 0. -1.
        -11    1    1    2    0    0 -0.63560420586E+00  0.64609044805E+02 -0.19799215217E+02  0.67577670769E+02  0.00000000000E+00 0. -1.
         11    1    1    2    0    0 -0.34641706398E+02 -0.21320245457E+02 -0.13862871567E+02  0.42974177090E+02  0.00000000000E+00 0.  1.
</event>
<event>
 7    1  0.2538990E-009  0.2351022E+03  0.7561462E-02  0.1123099E+00
         -2   -1    0    0    0  501 -0.00000000000E+00  0.00000000000E+00  0.10021501378E+03  0.10021501378E+03  0.00000000000E+00 0.  1.
          2   -1    0    0  501    0  0.00000000000E+00 -0.00000000000E+00 -0.62969617396E+03  0.62969617396E+03  0.00000000000E+00 0. -1.
         25    2    1    2    0    0 -0.27798646210E+01 -0.22603862817E+03 -0.28514448134E+03  0.38477935714E+03  0.12508632767E+03 0.  0.
          5    1    3    3  502    0  0.81337828488E+01 -0.64641461899E+02 -0.10665620508E+02  0.66150622679E+02  0.41800000000E+01 0. -1.
         -5    1    3    3    0  502 -0.10913647470E+02 -0.16139716627E+03 -0.27447886083E+03  0.31862873446E+03  0.41800000000E+01 0. -1.
        -11    1    1    2    0    0 -0.40853579606E+02  0.14966301081E+03 -0.16788598920E+03  0.22859076346E+03  0.00000000000E+00 0.  1.
         11    1    1    2    0    0  0.43633444227E+02  0.76375617362E+02 -0.76450689644E+02  0.11654106714E+03  0.00000000000E+00 0. -1.
</event>
<event>
 7    1  0.2499014E-009  0.1776030E+03  0.7561462E-02  0.1170143E+00
          1   -1    0    0  501    0  0.00000000000E+00  0.00000000000E+00  0.79521832539E+03  0.79521832539E+03  0.00000000000E+00 0. -1.
         -1   -1    0    0    0  501 -0.00000000000E+00 -0.00000000000E+00 -0.55478704416E+02  0.55478704416E+02  0.00000000000E+00 0.  1.
         25    2    1    2    0    0 -0.12451035285E+03 -0.92011617490E+02  0.57561544134E+03  0.60905618245E+03  0.12508929350E+03 0.  0.
          5    1    3    3  502    0  0.39692244490E+01 -0.66956065192E+02  0.22292255865E+03  0.23283214761E+03  0.41800000000E+01 0.  1.
         -5    1    3    3    0  502 -0.12847957730E+03 -0.25055552299E+02  0.35269288269E+03  0.37622403484E+03  0.41800000000E+01 0.  1.
        -11    1    1    2    0    0  0.57449960336E+02  0.26430625431E+02  0.12485166691E+03  0.13995361600E+03  0.00000000000E+00 0.  1.
         11    1    1    2    0    0  0.67060392518E+02  0.65580992060E+02  0.39272512725E+02  0.10168723135E+03  0.00000000000E+00 0. -1.
</event>
<event>
 7    1  0.2499014E-009  0.1037653E+03  0.7561462E-02  0.1272572E+00
         -3   -1    0    0    0  501 -0.00000000000E+00  0.00000000000E+00  0.14192583383E+04  0.14192583383E+04  0.00000000000E+00 0.  1.
          3   -1    0    0  501    0  0.00000000000E+00 -0.00000000000E+00 -0.12997283226E+02  0.12997283226E+02  0.00000000000E+00 0. -1.
         25    2    1    2    0    0 -0.39745721255E+02 -0.73170147354E+01  0.11491557596E+04  0.11566503133E+04  0.12509087319E+03 0.  0.
          5    1    3    3  502    0  0.19037159593E+02  0.46722494874E+02  0.51216043641E+03  0.51465638050E+03  0.41800000000E+01 0.  1.
         -5    1    3    3    0  502 -0.58782880848E+02 -0.54039509609E+02  0.63699532315E+03  0.64199393283E+03  0.41800000000E+01 0.  1.
        -11    1    1    2    0    0 -0.14294228211E+02  0.16826283195E+02  0.13459568045E+02  0.25857469680E+02  0.00000000000E+00 0. -1.
         11    1    1    2    0    0  0.54039949466E+02 -0.95092684592E+01  0.24364572748E+03  0.24974783851E+03  0.00000000000E+00 0.  1.
</event>
<event>
 7    1  0.2499014E-009  0.2201065E+03  0.7561462E-02  0.1133804E+00
          2   -1    0    0  501    0  0.00000000000E+00  0.00000000000E+00  0.26095475244E+04  0.26095475244E+04  0.00000000000E+00 0. -1.
         -2   -1    0    0    0  501 -0.00000000000E+00 -0.00000000000E+00 -0.32759731277E+02  0.32759731277E+02  0.00000000000E+00 0.  1.
         25    2    1    2    0    0 -0.15170415316E+03  0.15607365168E+03  0.20488978158E+04  0.20642195474E+04  0.12508775058E+03 0.  0.
          5    1    3    3  502    0 -0.11781247073E+03  0.91034771548E+02  0.17539061665E+04  0.17602191401E+04  0.41800000000E+01 0. -1.
         -5    1    3    3    0  502 -0.33891682432E+02  0.65038880133E+02  0.29499164931E+03  0.30400040729E+03  0.41800000000E+01 0. -1.
        -11    1    1    2    0    0  0.85639036751E+02 -0.93929663764E+02  0.41056992210E+03  0.42979586700E+03  0.00000000000E+00 0. -1.
         11    1    1    2    0    0  0.66065116407E+02 -0.62143987918E+02  0.11732005520E+03  0.14829184129E+03  0.00000000000E+00 0.  1.
</event>
<event>
 7    1  0.3061335E-009  0.6363184E+02  0.7561462E-02  0.1383193E+00
          3   -1    0    0  501    0  0.00000000000E+00  0.00000000000E+00  0.10570219893E+04  0.10570219893E+04  0.00000000000E+00 0. -1.
         -3   -1    0    0    0  501 -0.00000000000E+00 -0.00000000000E+00 -0.34400579384E+02  0.34400579384E+02  0.00000000000E+00 0.  1.
         25    2    1    2    0    0 -0.32655226644E+00  0.19197500794E+02  0.98126445547E+03  0.98939180218E+03  0.12509019136E+03 0.  0.
          5    1    3    3  502    0  0.44995412982E+02 -0.21734858927E+01  0.80012562405E+03  0.80140364230E+03  0.41800000000E+01 0.  1.
         -5    1    3    3    0  502 -0.45321965248E+02  0.21370986687E+02  0.18113883142E+03  0.18798815988E+03  0.41800000000E+01 0.  1.
        -11    1    1    2    0    0  0.12671017578E+02 -0.11996510332E+02 -0.27026513152E+02  0.32169913892E+02  0.00000000000E+00 0.  1.
         11    1    1    2    0    0 -0.12344465312E+02 -0.72009904621E+01  0.68383467626E+02  0.69860852644E+02  0.00000000000E+00 0. -1.
</event>
<event>
 7    1  0.2499014E-009  0.1065360E+03  0.7561462E-02  0.1267123E+00
         -2   -1    0    0    0  501 -0.00000000000E+00  0.00000000000E+00  0.39305002337E+03  0.39305002337E+03  0.00000000000E+00 0. -1.
          2   -1    0    0  501    0  0.00000000000E+00 -0.00000000000E+00 -0.41387523948E+02  0.41387523948E+02  0.00000000000E+00 0.  1.
         25    2    1    2    0    0 -0.65564050012E+01 -0.67008022085E+02  0.17227430887E+03  0.22329022936E+03  0.12508807920E+03 0.  0.
          5    1    3    3  502    0 -0.52896119545E+02 -0.83474906172E+01  0.12144797080E+03  0.13279594148E+03  0.41800000000E+01 0. -1.
         -5    1    3    3    0  502  0.46339714544E+02 -0.58660531468E+02  0.50826338072E+02  0.90494287875E+02  0.41800000000E+01 0. -1.
        -11    1    1    2    0    0 -0.21857235452E+02  0.20390978105E+02  0.75295361277E+01  0.30825714006E+02  0.00000000000E+00 0.  1.
         11    1    1    2    0    0  0.28413640453E+02  0.46617043980E+02  0.17185865442E+03  0.18032160396E+03  0.00000000000E+00 0. -1.
</event>
<event>
 7    1  0.2499014E-009  0.1035959E+03  0.7561462E-02  0.1272911E+00
          3   -1    0    0  501    0  0.00000000000E+00  0.00000000000E+00  0.17349770344E+03  0.17349770344E+03  0.00000000000E+00 0. -1.
         -3   -1    0    0    0  501 -0.00000000000E+00 -0.00000000000E+00 -0.12727573181E+03  0.12727573181E+03  0.00000000000E+00 0.  1.
         25    2    1    2    0    0 -0.46327948475E+02 -0.51197924044E+02  0.10256220202E+03  0.17587970107E+03  0.12508859951E+03 0.  0.
          5    1    3    3  502    0  0.49118128831E+01  0.35908678424E+02  0.78628129135E+01  0.37320976928E+02  0.41800000000E+01 0. -1.
         -5    1    3    3    0  502 -0.51239761358E+02 -0.87106602468E+02  0.94699389111E+02  0.13855872414E+03  0.41800000000E+01 0. -1.
        -11    1    1    2    0    0  0.34444854530E+02  0.43142777717E+02 -0.80011745878E+02  0.97209190672E+02  0.00000000000E+00 0.  1.
         11    1    1    2    0    0  0.11883093946E+02  0.80551463274E+01  0.23671515487E+02  0.27684543513E+02  0.00000000000E+00 0. -1.
</event>
<event>
 7    1  0.2499014E-009  0.1580746E+03  0.7561462E-02  0.1190888E+00
         -1   -1    0    0    0  501 -0.00000000000E+00  0.00000000000E+00  0.54000450713E+02  0.54000450713E+02  0.00000000000E+00 0.  1.
          1   -1    0    0  501    0  0.00000000000E+00 -0.00000000000E+00 -0.50104861514E+03  0.50104861514E+03  0.00000000000E+00 0. -1.
         25    2    1    2    0    0 -0.78958580184E+02 -0.90135173789E+02 -0.28530098656E+03  0.33377008923E+03  0.12508801939E+03 0.  0.
          5    1    3    3  502    0 -0.69801691294E+02  0.51103261189E+01 -0.74899937525E+02  0.10259563627E+03  0.41800000000E+01 0. -1.
         -5    1    3    3    0  502 -0.91568888903E+01 -0.95245499908E+02 -0.21040104904E+03  0.23117445296E+03  0.41800000000E+01 0. -1.
        -11    1    1    2    0    0  0.11782773431E+02 -0.18853326279E+02 -0.32318814700E+02  0.39227381318E+02  0.00000000000E+00 0. -1.
         11    1    1    2    0    0  0.67175806754E+02  0.10898850007E+03 -0.12942836316E+03  0.18205159530E+03  0.00000000000E+00 0.  1.
</event>
<event>
 7    1  0.2499014E-009  0.8826227E+02  0.7561462E-02  0.1307115E+00
         -2   -1    0    0    0  501 -0.00000000000E+00  0.00000000000E+00  0.75014645541E+02  0.75014645541E+02  0.00000000000E+00 0.  1.
          2   -1    0    0  501    0  0.00000000000E+00 -0.00000000000E+00 -0.16582684668E+03  0.16582684668E+03  0.00000000000E+00 0. -1.
         25    2    1    2    0    0  0.33156097729E+02  0.15542746645E+02 -0.41654707198E+02  0.13683278671E+03  0.12508874089E+03 0.  0.
          5    1    3    3  502    0 -0.14224939131E+02  0.34269523849E+02 -0.69298732093E+02  0.78718078151E+02  0.41800000000E+01 0. -1.
         -5    1    3    3    0  502  0.47381036859E+02 -0.18726777204E+02  0.27644024896E+02  0.58114708558E+02  0.41800000000E+01 0. -1.
        -11    1    1    2    0    0 -0.19068872244E+02  0.32675447139E+02 -0.70996486588E+01  0.38493009047E+02  0.00000000000E+00 0.  1.
         11    1    1    2    0    0 -0.14087225484E+02 -0.48218193784E+02 -0.42057845286E+02  0.65515696468E+02  0.00000000000E+00 0. -1.
</event>
<event>
 7    1  0.2499014E-009  0.1149750E+03  0.7561462E-02  0.1251625E+00
         -2   -1    0    0    0  501 -0.00000000000E+00  0.00000000000E+00  0.25470714124E+02  0.25470714124E+02  0.00000000000E+00 0.  1.
          2   -1    0    0  501    0  0.00000000000E+00 -0.00000000000E+00 -0.58135721888E+03  0.58135721888E+03  0.00000000000E+00 0. -1.
         25    2    1    2    0    0  0.34233662234E+02  0.39138152461E+02 -0.36444484813E+03  0.38880823090E+03  0.12509218394E+03 0.  0.
          5    1    3    3  502    0  0.26136479129E+02 -0.40697620882E+02 -0.83390867429E+02  0.96493114041E+02  0.41800000000E+01 0.  1.
         -5    1    3    3    0  502  0.80971831051E+01  0.79835773343E+02 -0.28105398070E+03  0.29231511686E+03  0.41800000000E+01 0.  1.
        -11    1    1    2    0    0 -0.51100126156E+02 -0.56951927942E+02 -0.16540896491E+03  0.18224947370E+03  0.00000000000E+00 0. -1.
         11    1    1    2    0    0  0.16866463922E+02  0.17813775481E+02 -0.26032691717E+02  0.35770228405E+02  0.00000000000E+00 0.  1.
</event>
<event>
 7    1  0.2499014E-009  0.1235553E+03  0.7561462E-02  0.1237345E+00
          2   -1    0    0  501    0  0.00000000000E+00  0.00000000000E+00  0.87422998898E+02  0.87422998898E+02  0.00000000000E+00 0.  1.
         -2   -1    0    0    0  501 -0.00000000000E+00 -0.00000000000E+00 -0.21563649719E+03  0.21563649719E+03  0.00000000000E+00 0. -1.
         25    2    1    2    0    0  0.77614724839E+02  0.23249440881E+02 -0.40524144563E+02  0.15444457934E+03  0.12508533000E+03 0.  0.
          5    1    3    3  502    0  0.25984280859E+02 -0.44267111591E+02 -0.46161549940E+02  0.69160112154E+02  0.41800000000E+01 0. -1.
         -5    1    3    3    0  502  0.51630443980E+02  0.67516552472E+02  0.56374053766E+01  0.85284467183E+02  0.41800000000E+01 0. -1.
        -11    1    1    2    0    0 -0.50917324467E+02 -0.50957033615E+02 -0.27353418137E+02  0.77054543600E+02  0.00000000000E+00 0.  1.
         11    1    1    2    0    0 -0.26697400372E+02  0.27707592734E+02 -0.60335935593E+02  0.71560373152E+02  0.00000000000E+00 0. -1.
</event>
<event>
 7    1  0.2499014E-009  0.9268577E+02  0.7561462E-02  0.1296475E+00
         -1   -1    0    0    0  501 -0.00000000000E+00  0.00000000000E+00  0.90383948038E+02  0.90383948038E+02  0.00000000000E+00 0.  1.
          1   -1    0    0  501    0  0.00000000000E+00 -0.00000000000E+00 -0.13667659967E+03  0.13667659967E+03  0.00000000000E+00 0. -1.
         25    2    1    2    0    0  0.20440840934E+02 -0.16252030292E+02 -0.82646181415E+01  0.12803950607E+03  0.12507539621E+03 0.  0.
          5    1    3    3  502    0  0.68701207235E+02 -0.32782890359E+02 -0.28573559384E+00  0.76237312523E+02  0.41800000000E+01 0.  1.
         -5    1    3    3    0  502 -0.48260366301E+02  0.16530860067E+02 -0.79788825476E+01  0.51802193551E+02  0.41800000000E+01 0.  1.
        -11    1    1    2    0    0 -0.36040103059E+02  0.88105151038E+00 -0.58712448773E+02  0.68897147409E+02  0.00000000000E+00 0. -1.
         11    1    1    2    0    0  0.15599262124E+02  0.15370978782E+02  0.20684415284E+02  0.30123894223E+02  0.00000000000E+00 0.  1.
</event>
<event>
 7    1  0.2499014E-009  0.1264878E+03  0.7561462E-02  0.1232762E+00
          1   -1    0    0  501    0  0.00000000000E+00  0.00000000000E+00  0.73252186108E+02  0.73252186108E+02  0.00000000000E+00 0. -1.
         -1   -1    0    0    0  501 -0.00000000000E+00 -0.00000000000E+00 -0.25148978175E+03  0.25148978175E+03  0.00000000000E+00 0.  1.
         25    2    1    2    0    0 -0.43074034145E+02 -0.65766731163E+02 -0.89814167898E+02  0.17290108584E+03  0.12509022898E+03 0.  0.
          5    1    3    3  502    0 -0.47730870439E+00 -0.95142656704E+02 -0.65436413137E+02  0.11554977072E+03  0.41800000000E+01 0. -1.
         -5    1    3    3    0  502 -0.42596725440E+02  0.29375925541E+02 -0.24377754761E+02  0.57351315128E+02  0.41800000000E+01 0. -1.
        -11    1    1    2    0    0 -0.14333197052E+02 -0.45638023937E+01  0.99053466522E+01  0.18010683561E+02  0.00000000000E+00 0. -1.
         11    1    1    2    0    0  0.57407231197E+02  0.70330533556E+02 -0.98328774398E+02  0.13383019846E+03  0.00000000000E+00 0.  1.
</event>
<event>
 7    1  0.2499014E-009  0.1257763E+03  0.7561462E-02  0.1233861E+00
          1   -1    0    0  501    0  0.00000000000E+00  0.00000000000E+00  0.71896877715E+03  0.71896877715E+03  0.00000000000E+00 0. -1.
         -1   -1    0    0    0  501 -0.00000000000E+00 -0.00000000000E+00 -0.28241919170E+02  0.28241919170E+02  0.00000000000E+00 0.  1.
         25    2    1    2    0    0  0.77076940626E+02  0.67087305800E+02  0.32361738895E+03  0.36168764326E+03  0.12509266756E+03 0.  0.
          5    1    3    3  502    0  0.72982364224E+02  0.12269432202E+00  0.77421488116E+02  0.10648004397E+03  0.41800000000E+01 0. -1.
         -5    1    3    3    0  502  0.40945764018E+01  0.66964611478E+02  0.24619590084E+03  0.25520759929E+03  0.41800000000E+01 0. -1.
        -11    1    1    2    0    0 -0.57617453052E+02 -0.21210695925E+02  0.26341535926E+03  0.27047609138E+03  0.00000000000E+00 0. -1.
         11    1    1    2    0    0 -0.19459487574E+02 -0.45876609875E+02  0.10369410977E+03  0.11504696168E+03  0.00000000000E+00 0.  1.
</event>
<event>
 7    1  0.2499014E-009  0.1201953E+03  0.7561462E-02  0.1242775E+00
         -2   -1    0    0    0  501 -0.00000000000E+00  0.00000000000E+00  0.31750062530E+03  0.31750062530E+03  0.00000000000E+00 0. -1.
          2   -1    0    0  501    0  0.00000000000E+00 -0.00000000000E+00 -0.50491976442E+02  0.50491976442E+02  0.00000000000E+00 0.  1.
         25    2    1    2    0    0 -0.56701958050E+02 -0.29632751654E+02  0.13094399293E+03  0.19205951030E+03  0.12508922494E+03 0.  0.
          5    1    3    3  502    0 -0.61301826555E+02 -0.72717899948E+02  0.75122298506E+02  0.12127093240E+03  0.41800000000E+01 0. -1.
         -5    1    3    3    0  502  0.45998685051E+01  0.43085148295E+02  0.55821694419E+02  0.70788577904E+02  0.41800000000E+01 0. -1.
        -11    1    1    2    0    0  0.70740504340E+02  0.21217917225E+01  0.56419706720E+02  0.90509139101E+02  0.00000000000E+00 0. -1.
         11    1    1    2    0    0 -0.14038546290E+02  0.27510959931E+02  0.79644949214E+02  0.85423952342E+02  0.00000000000E+00 0.  1.
</event>
<event>
 7    1  0.2499014E-009  0.1323155E+03  0.7561462E-02  0.1224060E+00
          1   -1    0    0  501    0  0.00000000000E+00  0.00000000000E+00  0.43186493371E+03  0.43186493371E+03  0.00000000000E+00 0. -1.
         -1   -1    0    0    0  501 -0.00000000000E+00 -0.00000000000E+00 -0.65013604174E+02  0.65013604174E+02  0.00000000000E+00 0.  1.
         25    2    1    2    0    0 -0.52621464826E+02  0.10348427915E+03  0.11909188723E+03  0.20810622776E+03  0.12508920752E+03 0.  0.
          5    1    3    3  502    0 -0.39698285464E+01 -0.54911384049E+00  0.89161312014E+02  0.89349163537E+02  0.41800000000E+01 0. -1.
         -5    1    3    3    0  502 -0.48651636279E+02  0.10403339299E+03  0.29930575213E+02  0.11875706422E+03  0.41800000000E+01 0. -1.
        -11    1    1    2    0    0  0.24462940697E+02 -0.11188787084E+03  0.22152170439E+03  0.24937761853E+03  0.00000000000E+00 0. -1.
         11    1    1    2    0    0  0.28158524129E+02  0.84035916866E+01  0.26237737919E+02  0.39394691590E+02  0.00000000000E+00 0.  1.
</event>
<event>
 7    1  0.2499014E-009  0.8149279E+02  0.7561462E-02  0.1324868E+00
         -2   -1    0    0    0  501 -0.00000000000E+00  0.00000000000E+00  0.43533492774E+02  0.43533492774E+02  0.00000000000E+00 0.  1.
          2   -1    0    0  501    0  0.00000000000E+00 -0.00000000000E+00 -0.32824546129E+03  0.32824546129E+03  0.00000000000E+00 0. -1.
         25    2    1    2    0    0  0.43616770749E+02  0.17694593350E+02 -0.16302540883E+03  0.21080808838E+03  0.12508894787E+03 0.  0.
          5    1    3    3  502    0  0.37815305715E+02  0.34997962456E+02 -0.52889955466E+01  0.51964416636E+02  0.41800000000E+01 0.  1.
         -5    1    3    3    0  502  0.58014650340E+01 -0.17303369106E+02 -0.15773641328E+03  0.15884367175E+03  0.41800000000E+01 0.  1.
        -11    1    1    2    0    0 -0.31714454830E+01  0.29923994489E+02 -0.81012523109E+02  0.86420671215E+02  0.00000000000E+00 0. -1.
         11    1    1    2    0    0 -0.40445325267E+02 -0.47618587838E+02 -0.40674036580E+02  0.74550194469E+02  0.00000000000E+00 0.  1.
</event>
<event>
 7    1  0.2499014E-009  0.4074503E+03  0.7561462E-02  0.1041230E+00
          2   -1    0    0  501    0  0.00000000000E+00  0.00000000000E+00  0.58915315116E+03  0.58915315116E+03  0.00000000000E+00 0. -1.
         -2   -1    0    0    0  501 -0.00000000000E+00 -0.00000000000E+00 -0.29364348395E+03  0.29364348395E+03  0.00000000000E+00 0.  1.
         25    2    1    2    0    0 -0.35714787170E+03 -0.18166532625E+03  0.12705401462E+03  0.43857409446E+03  0.12509045001E+03 0.  0.
          5    1    3    3  502    0 -0.30612582760E+03 -0.19183828927E+03  0.13517498371E+03  0.38575212271E+03  0.41800000000E+01 0. -1.
         -5    1    3    3    0  502 -0.51022044097E+02  0.10172963029E+02 -0.81209690912E+01  0.52821971750E+02  0.41800000000E+01 0. -1.
        -11    1    1    2    0    0  0.64488610006E+02  0.22692224071E+02 -0.53052186643E+01  0.68570133432E+02  0.00000000000E+00 0. -1.
         11    1    1    2    0    0  0.29265926169E+03  0.15897310217E+03  0.17376087125E+03  0.37565240721E+03  0.00000000000E+00 0.  1.
</event>
<event>
 7    1  0.2499014E-009  0.8364144E+02  0.7561462E-02  0.1319024E+00
          1   -1    0    0  501    0  0.00000000000E+00  0.00000000000E+00  0.50386999235E+02  0.50386999235E+02  0.00000000000E+00 0. -1.
         -1   -1    0    0    0  501 -0.00000000000E+00 -0.00000000000E+00 -0.26018900363E+03  0.26018900363E+03  0.00000000000E+00 0.  1.
         25    2    1    2    0    0 -0.11677017774E+02 -0.41010621930E+02 -0.11568913753E+03  0.17564266910E+03  0.12509255298E+03 0.  0.
          5    1    3    3  502    0  0.17284898451E+02 -0.45672985024E+02 -0.13270950561E+03  0.14147110855E+03  0.41800000000E+01 0.  1.
         -5    1    3    3    0  502 -0.28961916225E+02  0.46623630940E+01  0.17020368078E+02  0.34171560552E+02  0.41800000000E+01 0.  1.
        -11    1    1    2    0    0  0.44780467391E+02  0.29350367625E+02 -0.28820737198E+02  0.60805996679E+02  0.00000000000E+00 0. -1.
         11    1    1    2    0    0 -0.33103449617E+02  0.11660254305E+02 -0.65292129665E+02  0.74127337085E+02  0.00000000000E+00 0.  1.
</event>
<event>
 7    1  0.2499014E-009  0.1131771E+03  0.7561462E-02  0.1254797E+00
          2   -1    0    0  501    0  0.00000000000E+00  0.00000000000E+00  0.12205975463E+03  0.12205975463E+03  0.00000000000E+00 0. -1.
         -2   -1    0    0    0  501 -0.00000000000E+00 -0.00000000000E+00 -0.15886765056E+03  0.15886765056E+03  0.00000000000E+00 0.  1.
         25    2    1    2    0    0 -0.39941103508E+02 -0.75010308486E+02 -0.85800305491E+01  0.15146894466E+03  0.12508951252E+03 0.  0.
          5    1    3    3  502    0 -0.69135621522E+02 -0.99976576313E+01  0.22640907728E+02  0.73551141556E+02  0.41800000000E+01 0. -1.
         -5    1    3    3    0  502  0.29194518014E+02 -0.65012650855E+02 -0.31220938277E+02  0.77917803101E+02  0.41800000000E+01 0. -1.
        -11    1    1    2    0    0  0.31935375287E+02  0.60646266984E+02 -0.61664205438E+02  0.92197137299E+02  0.00000000000E+00 0.  1.
         11    1    1    2    0    0  0.80057282212E+01  0.14364041502E+02  0.33436340061E+02  0.37261323236E+02  0.00000000000E+00 0. -1.
</event>
<event>
 7    1  0.3209940E-009  0.2037788E+03  0.7561462E-02  0.1146589E+00
         -2   -1    0    0    0  501 -0.00000000000E+00  0.00000000000E+00  0.34943075826E+02  0.34943075826E+02  0.00000000000E+00 0.  1.
          2   -1    0    0  501    0  0.00000000000E+00 -0.00000000000E+00 -0.12209733501E+04  0.12209733501E+04  0.00000000000E+00 0. -1.
         25    2    1    2    0    0 -0.16558193899E+03  0.53317292337E+02 -0.55339970974E+03  0.59342973847E+03  0.12508998194E+03 0.  0.
          5    1    3    3  502    0 -0.85560737390E+02  0.91010321219E+02 -0.34760016358E+03  0.36938714714E+03  0.41800000000E+01 0. -1.
         -5    1    3    3    0  502 -0.80021201599E+02 -0.37693028882E+02 -0.20579954616E+03  0.22404259133E+03  0.41800000000E+01 0. -1.
        -11    1    1    2    0    0  0.38153670392E+02 -0.54571202237E+02 -0.27097670187E+03  0.27903779607E+03  0.00000000000E+00 0.  1.
         11    1    1    2    0    0  0.12742826860E+03  0.12539099001E+01 -0.36165386271E+03  0.38344889143E+03  0.00000000000E+00 0. -1.
</event>
<event>
 7    1  0.2499014E-009  0.7537408E+02  0.7561462E-02  0.1342717E+00
         -3   -1    0    0    0  501 -0.00000000000E+00  0.00000000000E+00  0.19769454412E+02  0.19769454412E+02  0.00000000000E+00 0.  1.
          3   -1    0    0  501    0  0.00000000000E+00 -0.00000000000E+00 -0.66689327892E+03  0.66689327892E+03  0.00000000000E+00 0. -1.
         25    2    1    2    0    0 -0.10444590149E+02 -0.30048308055E+02 -0.30615785370E+03  0.33225314460E+03  0.12509008929E+03 0.  0.
          5    1    3    3  502    0  0.66695825709E+01  0.14436456040E+02  0.51961194282E+01  0.17244322305E+02  0.41800000000E+01 0. -1.
         -5    1    3    3    0  502 -0.17114172720E+02 -0.44484764095E+02 -0.31135397312E+03  0.31500882230E+03  0.41800000000E+01 0. -1.
        -11    1    1    2    0    0 -0.28878346248E+01 -0.27365580458E+02 -0.45919388570E+02  0.53533212394E+02  0.00000000000E+00 0.  1.
         11    1    1    2    0    0  0.13332424774E+02  0.57413888513E+02 -0.29504658225E+03  0.30087637634E+03  0.00000000000E+00 0. -1.
</event>
<event>
 7    1  0.2499014E-009  0.2283245E+03  0.7561462E-02  0.1127825E+00
         -1   -1    0    0    0  501 -0.00000000000E+00  0.00000000000E+00  0.27070442196E+03  0.27070442196E+03  0.00000000000E+00 0.  1.
          1   -1    0    0  501    0  0.00000000000E+00 -0.00000000000E+00 -0.25267749233E+03  0.25267749233E+03  0.00000000000E+00 0. -1.
         25    2    1    2    0    0 -0.35337656444E+02 -0.21468616452E+03 -0.74992847556E+02  0.26193211518E+03  0.12508239916E+03 0.  0.
          5    1    3    3  502    0 -0.20229926715E+02 -0.39250228987E+02 -0.73434914430E+02  0.85790380974E+02  0.41800000000E+01 0. -1.
         -5    1    3    3    0  502 -0.15107729729E+02 -0.17543593553E+03 -0.15579331266E+01  0.17614173420E+03  0.41800000000E+01 0. -1.
        -11    1    1    2    0    0 -0.21984191526E+02  0.14149976340E+03  0.88582114182E+02  0.16838134895E+03  0.00000000000E+00 0.  1.
         11    1    1    2    0    0  0.57321847971E+02  0.73186401114E+02  0.44376630012E+01  0.93068450163E+02  0.00000000000E+00 0. -1.
</event>
<event>
 7    1  0.2499014E-009  0.3100359E+03  0.7561462E-02  0.1080329E+00
          2   -1    0    0  501    0  0.00000000000E+00  0.00000000000E+00  0.60151783645E+03  0.60151783645E+03  0.00000000000E+00 0. -1.
         -2   -1    0    0    0  501 -0.00000000000E+00 -0.00000000000E+00 -0.16702211322E+03  0.16702211322E+03  0.00000000000E+00 0.  1.
         25    2    1    2    0    0  0.74372868493E+02  0.28124722680E+03  0.14721872922E+03  0.34921684294E+03  0.12509085902E+03 0.  0.
          5    1    3    3  502    0 -0.26777049157E+02  0.14028213415E+03  0.59695973147E+02  0.15484563001E+03  0.41800000000E+01 0. -1.
         -5    1    3    3    0  502  0.10114991765E+03  0.14096509265E+03  0.87522756073E+02  0.19437121293E+03  0.41800000000E+01 0. -1.
        -11    1    1    2    0    0 -0.58347541083E+02 -0.67189562851E+02  0.10567801620E+03  0.13815468148E+03  0.00000000000E+00 0.  1.
         11    1    1    2    0    0 -0.16025327410E+02 -0.21405766395E+03  0.18159897781E+03  0.28116842525E+03  0.00000000000E+00 0. -1.
</event>
<event>
 7    1  0.2499014E-009  0.1383626E+03  0.7561462E-02  0.1215549E+00
         -2   -1    0    0    0  501 -0.00000000000E+00  0.00000000000E+00  0.69981250885E+02  0.69981250885E+02  0.00000000000E+00 0.  1.
          2   -1    0    0  501    0  0.00000000000E+00 -0.00000000000E+00 -0.36232106306E+03  0.36232106306E+03  0.00000000000E+00 0. -1.
         25    2    1    2    0    0 -0.88477889983E+02  0.73777602394E+02 -0.13538920432E+03  0.21736299200E+03  0.12507982258E+03 0.  0.
          5    1    3    3  502    0 -0.20853025216E+02  0.76227755897E+02 -0.17014281057E+02  0.80947375434E+02  0.41800000000E+01 0. -1.
         -5    1    3    3    0  502 -0.67624864767E+02 -0.24501535029E+01 -0.11837492326E+03  0.13641561657E+03  0.41800000000E+01 0. -1.
        -11    1    1    2    0    0 -0.91481366365E+01 -0.59723643346E+01  0.65957141935E+01  0.12761699941E+02  0.00000000000E+00 0.  1.
         11    1    1    2    0    0  0.97626026620E+02 -0.67805238060E+02 -0.16354632205E+03  0.20217762200E+03  0.00000000000E+00 0. -1.
</event>
<event>
 7    1  0.2499014E-009  0.1481662E+03  0.7561462E-02  0.1202745E+00
         -3   -1    0    0    0  501 -0.00000000000E+00  0.00000000000E+00  0.52553027925E+03  0.52553027925E+03  0.00000000000E+00 0.  1.
          3   -1    0    0  501    0  0.00000000000E+00 -0.00000000000E+00 -0.60934583786E+02  0.60934583786E+02  0.00000000000E+00 0. -1.
         25    2    1    2    0    0  0.68473425229E+02 -0.12698048547E+03  0.20192211598E+03  0.27790646790E+03  0.12508721088E+03 0.  0.
          5    1    3    3  502    0  0.62051020927E+02 -0.12670405521E+03  0.93704176331E+02  0.16941721243E+03  0.41800000000E+01 0.  1.
         -5    1    3    3    0  502  0.64224043012E+01 -0.27643025600E+00  0.10821793965E+03  0.10848925547E+03  0.41800000000E+01 0.  1.
        -11    1    1    2    0    0 -0.64930616059E+02  0.93393304475E+02  0.24571590673E+03  0.27076669116E+03  0.00000000000E+00 0.  1.
         11    1    1    2    0    0 -0.35428091701E+01  0.33587180995E+02  0.16957672754E+02  0.37791703974E+02  0.00000000000E+00 0. -1.
</event>
<event>
 7    1  0.2499014E-009  0.8945514E+02  0.7561462E-02  0.1304177E+00
         -1   -1    0    0    0  501 -0.00000000000E+00  0.00000000000E+00  0.10381119140E+02  0.10381119140E+02  0.00000000000E+00 0.  1.
          1   -1    0    0  501    0  0.00000000000E+00 -0.00000000000E+00 -0.14603513950E+04  0.14603513950E+04  0.00000000000E+00 0. -1.
         25    2    1    2    0    0  0.14750385802E+02 -0.11397079688E+02 -0.10879311793E+04  0.10952576657E+04  0.12509051150E+03 0.  0.
          5    1    3    3  502    0 -0.41433324393E+01  0.34654584036E+02 -0.98812303667E+02  0.10487826827E+03  0.41800000000E+01 0. -1.
         -5    1    3    3    0  502  0.18893718241E+02 -0.46051663725E+02 -0.98911887567E+03  0.99037939747E+03  0.41800000000E+01 0. -1.
        -11    1    1    2    0    0 -0.51465055145E+02  0.21427123024E+02 -0.14951762569E+03  0.15957222156E+03  0.00000000000E+00 0.  1.
         11    1    1    2    0    0  0.36714669343E+02 -0.10030043335E+02 -0.21252147085E+03  0.21590262686E+03  0.00000000000E+00 0. -1.
</event>
<event>
 7    1  0.2499014E-009  0.8932563E+02  0.7561462E-02  0.1304493E+00
         -1   -1    0    0    0  501 -0.00000000000E+00  0.00000000000E+00  0.15522538118E+03  0.15522538118E+03  0.00000000000E+00 0.  1.
          1   -1    0    0  501    0  0.00000000000E+00 -0.00000000000E+00 -0.12067223659E+03  0.12067223659E+03  0.00000000000E+00 0. -1.
         25    2    1    2    0    0 -0.22408416766E+02  0.86819575230E+01  0.99315763000E+02  0.16152128379E+03  0.12509192943E+03 0.  0.
          5    1    3    3  502    0 -0.86016608278E+01  0.47805027099E+02  0.10838829791E+03  0.11884782164E+03  0.41800000000E+01 0. -1.
         -5    1    3    3    0  502 -0.13806755939E+02 -0.39123069576E+02 -0.90725349073E+01  0.42673462155E+02  0.41800000000E+01 0. -1.
        -11    1    1    2    0    0  0.49503218024E+02  0.15511846624E+02 -0.57297151964E+02  0.77292623216E+02  0.00000000000E+00 0. -1.
         11    1    1    2    0    0 -0.27094801258E+02 -0.24193804147E+02 -0.74654664406E+01  0.37083710757E+02  0.00000000000E+00 0.  1.
</event>
<event>
 7    1  0.3037349E-009  0.1599685E+03  0.7561462E-02  0.1188732E+00
          1   -1    0    0  501    0  0.00000000000E+00  0.00000000000E+00  0.12432040487E+04  0.12432040487E+04  0.00000000000E+00 0. -1.
         -1   -1    0    0    0  501 -0.00000000000E+00 -0.00000000000E+00 -0.31700212343E+02  0.31700212343E+02  0.00000000000E+00 0.  1.
         25    2    1    2    0    0 -0.11873175743E+03  0.87853736480E+02  0.87488253783E+03  0.89603871614E+03  0.12510162507E+03 0.  0.
          5    1    3    3  502    0 -0.87637900550E+02  0.38988941939E+02  0.23978877961E+03  0.25829570348E+03  0.41800000000E+01 0. -1.
         -5    1    3    3    0  502 -0.31093856877E+02  0.48864794540E+02  0.63509375822E+03  0.63774301267E+03  0.41800000000E+01 0. -1.
        -11    1    1    2    0    0  0.11317487623E+03 -0.43642836361E+02  0.18822560582E+03  0.22392438112E+03  0.00000000000E+00 0.  1.
         11    1    1    2    0    0  0.55568812019E+01 -0.44210900119E+02  0.14839569270E+03  0.15494116376E+03  0.00000000000E+00 0. -1.
</event>
<event>
 7    1  0.2499014E-009  0.1431399E+03  0.7561462E-02  0.1209165E+00
         -2   -1    0    0    0  501 -0.00000000000E+00  0.00000000000E+00  0.47219310604E+03  0.47219310604E+03  0.00000000000E+00 0.  1.
          2   -1    0    0  501    0  0.00000000000E+00 -0.00000000000E+00 -0.45590773603E+02  0.45590773603E+02  0.00000000000E+00 0. -1.
         25    2    1    2    0    0  0.83506697704E+02  0.46464871622E+02  0.26205262642E+03  0.30569771233E+03  0.12508860641E+03 0.  0.
          5    1    3    3  502    0  0.10999324026E+03  0.12115109984E+02  0.15852234193E+03  0.19337035472E+03  0.41800000000E+01 0.  1.
         -5    1    3    3    0  502 -0.26486542560E+02  0.34349761638E+02  0.10353028449E+03  0.11232735761E+03  0.41800000000E+01 0.  1.
        -11    1    1    2    0    0 -0.87928927228E+02 -0.67261007244E+02  0.12348245317E+03  0.16584165816E+03  0.00000000000E+00 0. -1.
         11    1    1    2    0    0  0.44222295248E+01  0.20796135622E+02  0.41067252848E+02  0.46244509158E+02  0.00000000000E+00 0.  1.
</event>
<event>
 7    1  0.2499014E-009  0.8821659E+02  0.7561462E-02  0.1307229E+00
         -3   -1    0    0    0  501 -0.00000000000E+00  0.00000000000E+00  0.76224428858E+03  0.76224428858E+03  0.00000000000E+00 0.  1.
          3   -1    0    0  501    0  0.00000000000E+00 -0.00000000000E+00 -0.15709143877E+02  0.15709143877E+02  0.00000000000E+00 0. -1.
         25    2    1    2    0    0 -0.26871440202E+02 -0.40666785384E+02  0.50322710085E+03  0.52082813694E+03  0.12509425036E+03 0.  0.
          5    1    3    3  502    0  0.14213168890E+02 -0.61950807588E+02  0.13049031410E+03  0.14520713207E+03  0.41800000000E+01 0. -1.
         -5    1    3    3    0  502 -0.41084609092E+02  0.21284022204E+02  0.37273678675E+03  0.37562100487E+03  0.41800000000E+01 0. -1.
        -11    1    1    2    0    0 -0.16582564097E+01  0.37539468975E+02  0.20920325416E+03  0.21255108350E+03  0.00000000000E+00 0. -1.
         11    1    1    2    0    0  0.28529696612E+02  0.31273164088E+01  0.34104789696E+02  0.44574212017E+02  0.00000000000E+00 0.  1.
</event>
<event>
 7    1  0.2499014E-009  0.1081492E+03  0.7561462E-02  0.1264036E+00
         -2   -1    0    0    0  501 -0.00000000000E+00  0.00000000000E+00  0.74888053787E+02  0.74888053787E+02  0.00000000000E+00 0. -1.
          2   -1    0    0  501    0  0.00000000000E+00 -0.00000000000E+00 -0.20347632659E+03  0.20347632659E+03  0.00000000000E+00 0.  1.
         25    2    1    2    0    0 -0.49612629095E+02 -0.33061840499E+02 -0.62622471381E+02  0.15206839208E+03  0.12509485875E+03 0.  0.
          5    1    3    3  502    0 -0.43620038843E+02  0.42133221691E+02 -0.41558842802E+02  0.73637802614E+02  0.41800000000E+01 0. -1.
         -5    1    3    3    0  502 -0.59925902514E+01 -0.75195062190E+02 -0.21063628579E+02  0.78430589470E+02  0.41800000000E+01 0. -1.
        -11    1    1    2    0    0  0.14577258544E+02 -0.14715197400E+02  0.15282282662E+02  0.25740661695E+02  0.00000000000E+00 0. -1.
         11    1    1    2    0    0  0.35035370551E+02  0.47777037899E+02 -0.81248084081E+02  0.10055532660E+03  0.00000000000E+00 0.  1.
</event>
<event>
 7    1  0.2499014E-009  0.1037564E+03  0.7561462E-02  0.1272589E+00
         -4   -1    0    0    0  501 -0.00000000000E+00  0.00000000000E+00  0.18550179710E+02  0.18550179710E+02  0.00000000000E+00 0. -1.
          4   -1    0    0  501    0  0.00000000000E+00 -0.00000000000E+00 -0.75445902011E+03  0.75445902011E+03  0.00000000000E+00 0.  1.
         25    2    1    2    0    0  0.16708952036E+02  0.28782567237E+02 -0.54581993658E+03  0.56095757701E+03  0.12508546993E+03 0.  0.
          5    1    3    3  502    0 -0.49403910315E+00 -0.49037999319E+02 -0.18693971758E+03  0.19331037184E+03  0.41800000000E+01 0.  1.
         -5    1    3    3    0  502  0.17202991139E+02  0.77820566556E+02 -0.35888021900E+03  0.36764720517E+03  0.41800000000E+01 0.  1.
        -11    1    1    2    0    0 -0.27695534738E+02  0.16264520115E+02 -0.14065359668E+03  0.14427408471E+03  0.00000000000E+00 0.  1.
         11    1    1    2    0    0  0.10986582702E+02 -0.45047087353E+02 -0.49435307132E+02  0.67777538091E+02  0.00000000000E+00 0. -1.
</event>
<event>
 7    1  0.2499014E-009  0.8551190E+02  0.7561462E-02  0.1314099E+00
         -1   -1    0    0    0  501 -0.00000000000E+00  0.00000000000E+00  0.12213294481E+03  0.12213294481E+03  0.00000000000E+00 0.  1.
          1   -1    0    0  501    0  0.00000000000E+00 -0.00000000000E+00 -0.13367350046E+03  0.13367350046E+03  0.00000000000E+00 0. -1.
         25    2    1    2    0    0  0.58533635617E+02  0.11937819119E+02  0.21674866477E+02  0.14030413934E+03  0.12508698436E+03 0.  0.
          5    1    3    3  502    0  0.24957353460E+02  0.20940778250E+01 -0.52425978602E+02  0.58251268536E+02  0.41800000000E+01 0.  1.
         -5    1    3    3    0  502  0.33576282158E+02  0.98437412938E+01  0.74100845079E+02  0.82052870807E+02  0.41800000000E+01 0.  1.
        -11    1    1    2    0    0 -0.71438277219E+02  0.21458214248E+02 -0.18938451288E+02  0.76958088255E+02  0.00000000000E+00 0.  1.
         11    1    1    2    0    0  0.12904641601E+02 -0.33396033367E+02 -0.14276970834E+02  0.38544217668E+02  0.00000000000E+00 0. -1.
</event>
<event>
 7    1  0.2499014E-009  0.7795321E+02  0.7561462E-02  0.1334962E+00
         -2   -1    0    0    0  501 -0.00000000000E+00  0.00000000000E+00  0.60124169488E+02  0.60124169488E+02  0.00000000000E+00 0.  1.
          2   -1    0    0  501    0  0.00000000000E+00 -0.00000000000E+00 -0.27067261204E+03  0.27067261204E+03  0.00000000000E+00 0. -1.
         25    2    1    2    0    0 -0.74108951496E+01  0.35709874326E+02 -0.44298767218E+02  0.13762413410E+03  0.12509158652E+03 0.  0.
          5    1    3    3  502    0  0.26376005128E+01 -0.13770568880E+02 -0.76306897738E+02  0.77696850297E+02  0.41800000000E+01 0. -1.
         -5    1    3    3    0  502 -0.10048495662E+02  0.49480443206E+02  0.32008130520E+02  0.59927283806E+02  0.41800000000E+01 0. -1.
        -11    1    1    2    0    0  0.43709814597E+02 -0.68592639253E+01 -0.43885910797E+02  0.62318300363E+02  0.00000000000E+00 0.  1.
         11    1    1    2    0    0 -0.36298919447E+02 -0.28850610401E+02 -0.12236376454E+03  0.13085434707E+03  0.00000000000E+00 0. -1.
</event>
<event>
 7    1  0.2499014E-009  0.6834862E+02  0.7561462E-02  0.1365800E+00
          2   -1    0    0  501    0  0.00000000000E+00  0.00000000000E+00  0.13456077113E+03  0.13456077113E+03  0.00000000000E+00 0. -1.
         -2   -1    0    0    0  501 -0.00000000000E+00 -0.00000000000E+00 -0.14162190497E+03  0.14162190497E+03  0.00000000000E+00 0.  1.
         25    2    1    2    0    0 -0.34322451646E+02 -0.31229065971E+02 -0.65102620334E+02  0.14844782767E+03  0.12508045858E+03 0.  0.
          5    1    3    3  502    0  0.62914539160E+01 -0.30628578879E+01  0.35424255803E+02  0.36349880193E+02  0.41800000000E+01 0.  1.
         -5    1    3    3    0  502 -0.40613905562E+02 -0.28166208084E+02 -0.10052687614E+03  0.11209794748E+03  0.41800000000E+01 0.  1.
        -11    1    1    2    0    0  0.26337458230E+02  0.51122974449E+02  0.79026579152E+02  0.97736484667E+02  0.00000000000E+00 0. -1.
         11    1    1    2    0    0  0.79849934155E+01 -0.19893908477E+02 -0.20985092657E+02  0.29998363758E+02  0.00000000000E+00 0.  1.
</event>
<event>
 7    1  0.2499014E-009  0.1441560E+03  0.7561462E-02  0.1207844E+00
          4   -1    0    0  501    0  0.00000000000E+00  0.00000000000E+00  0.60413380837E+02  0.60413380837E+02  0.00000000000E+00 0.  1.
         -4   -1    0    0    0  501 -0.00000000000E+00 -0.00000000000E+00 -0.42482800239E+03  0.42482800239E+03  0.00000000000E+00 0. -1.
         25    2    1    2    0    0  0.99443226184E+02  0.61544083962E+02 -0.18628908918E+03  0.25303606433E+03  0.12508795146E+03 0.  0.
          5    1    3    3  502    0  0.42100290083E+02  0.70533278794E+02 -0.32204893078E+02  0.88328961166E+02  0.41800000000E+01 0.  1.
         -5    1    3    3    0  502  0.57342936101E+02 -0.89891948314E+01 -0.15408419610E+03  0.16470710316E+03  0.41800000000E+01 0.  1.
        -11    1    1    2    0    0 -0.40457433288E+01  0.21202800430E+02 -0.36923613709E+02  0.42770083405E+02  0.00000000000E+00 0. -1.
         11    1    1    2    0    0 -0.95397482856E+02 -0.82746884393E+02 -0.14120191867E+03  0.18943523550E+03  0.00000000000E+00 0.  1.
</event>
<event>
 7    1  0.2499014E-009  0.1306159E+03  0.7561462E-02  0.1226545E+00
         -1   -1    0    0    0  501 -0.00000000000E+00  0.00000000000E+00  0.66989796514E+02  0.66989796514E+02  0.00000000000E+00 0.  1.
          1   -1    0    0  501    0  0.00000000000E+00 -0.00000000000E+00 -0.27841391441E+03  0.27841391441E+03  0.00000000000E+00 0. -1.
         25    2    1    2    0    0  0.66081978085E+02  0.44214820423E+02 -0.83138696142E+02  0.16994393678E+03  0.12508845142E+03 0.  0.
          5    1    3    3  502    0  0.52197685147E+02  0.87364951242E+02 -0.65642883314E+02  0.12117629129E+03  0.41800000000E+01 0.  1.
         -5    1    3    3    0  502  0.13884292939E+02 -0.43150130820E+02 -0.17495812829E+02  0.48767645491E+02  0.41800000000E+01 0.  1.
        -11    1    1    2    0    0 -0.43601890875E+02  0.18400706204E+02 -0.27617255045E+02  0.54794376107E+02  0.00000000000E+00 0.  1.
         11    1    1    2    0    0 -0.22480087210E+02 -0.62615526627E+02 -0.10066816671E+03  0.12066539804E+03  0.00000000000E+00 0. -1.
</event>
<event>
 7    1  0.2676176E-009  0.1812061E+03  0.7561462E-02  0.1166641E+00
          2   -1    0    0  501    0  0.00000000000E+00  0.00000000000E+00  0.51184531347E+03  0.51184531347E+03  0.00000000000E+00 0. -1.
         -2   -1    0    0    0  501 -0.00000000000E+00 -0.00000000000E+00 -0.90765486589E+02  0.90765486589E+02  0.00000000000E+00 0.  1.
         25    2    1    2    0    0 -0.11729378362E+03  0.10271243753E+03  0.35966131216E+03  0.41147521050E+03  0.12509161799E+03 0.  0.
          5    1    3    3  502    0 -0.12692109390E+03  0.63871142059E+02  0.33592178457E+03  0.36475937906E+03  0.41800000000E+01 0.  1.
         -5    1    3    3    0  502  0.96273102720E+01  0.38841295472E+02  0.23739527593E+02  0.46715831442E+02  0.41800000000E+01 0.  1.
        -11    1    1    2    0    0  0.29018927069E+02 -0.85238019710E+02  0.40592735212E+02  0.98769369160E+02  0.00000000000E+00 0.  1.
         11    1    1    2    0    0  0.88274856555E+02 -0.17474417821E+02  0.20825779503E+02  0.92366220394E+02  0.00000000000E+00 0. -1.
</event>
<event>
 7    1  0.2499014E-009  0.1301167E+03  0.7561462E-02  0.1227283E+00
         -2   -1    0    0    0  501 -0.00000000000E+00  0.00000000000E+00  0.11516436752E+03  0.11516436752E+03  0.00000000000E+00 0.  1.
          2   -1    0    0  501    0  0.00000000000E+00 -0.00000000000E+00 -0.19223552035E+03  0.19223552035E+03  0.00000000000E+00 0. -1.
         25    2    1    2    0    0  0.48694090796E+02 -0.82299731412E+02 -0.76464233102E+02  0.17503890371E+03  0.12508988209E+03 0.  0.
          5    1    3    3  502    0 -0.19861945119E+02 -0.59504864904E+02 -0.80991679258E+02  0.10253024100E+03  0.41800000000E+01 0.  1.
         -5    1    3    3    0  502  0.68556035915E+02 -0.22794866507E+02  0.45274461558E+01  0.72508662711E+02  0.41800000000E+01 0.  1.
        -11    1    1    2    0    0 -0.57367373977E+02  0.18017510807E+02  0.21460753834E+02  0.63845205363E+02  0.00000000000E+00 0. -1.
         11    1    1    2    0    0  0.86732831811E+01  0.64282220604E+02 -0.22067673561E+02  0.68515778791E+02  0.00000000000E+00 0.  1.
</event>
<event>
 7    1  0.2499014E-009  0.8452186E+02  0.7561462E-02  0.1316688E+00
          4   -1    0    0  501    0  0.00000000000E+00  0.00000000000E+00  0.66926470373E+03  0.66926470373E+03  0.00000000000E+00 0. -1.
         -4   -1    0    0    0  501 -0.00000000000E+00 -0.00000000000E+00 -0.20584676543E+02  0.20584676543E+02  0.00000000000E+00 0.  1.
         25    2    1    2    0    0  0.42445398601E+02 -0.20235397511E+02  0.36084234933E+03  0.38479177303E+03  0.12508566803E+03 0.  0.
          5    1    3    3  502    0  0.49345887647E+02 -0.29615459401E+02  0.36662267221E+03  0.37113575447E+03  0.41800000000E+01 0.  1.
         -5    1    3    3    0  502 -0.69004890465E+01  0.93800618899E+01 -0.57803228886E+01  0.13656018557E+02  0.41800000000E+01 0.  1.
        -11    1    1    2    0    0  0.27207271365E+02  0.65499742396E+01  0.56109576430E+02  0.62701055372E+02  0.00000000000E+00 0.  1.
         11    1    1    2    0    0 -0.69652669966E+02  0.13685423271E+02  0.23172810144E+03  0.24235655188E+03  0.00000000000E+00 0. -1.
</event>
<event>
 7    1  0.2709908E-009  0.9659790E+02  0.7561462E-02  0.1287617E+00
         -1   -1    0    0    0  501 -0.00000000000E+00  0.00000000000E+00  0.57054898462E+03  0.57054898462E+03  0.00000000000E+00 0.  1.
          1   -1    0    0  501    0  0.00000000000E+00 -0.00000000000E+00 -0.32805900458E+02  0.32805900458E+02  0.00000000000E+00 0. -1.
         25    2    1    2    0    0 -0.51496456074E+02  0.63493183970E+02  0.32680817894E+03  0.35935209568E+03  0.12508826264E+03 0.  0.
          5    1    3    3  502    0 -0.34227535398E+02  0.28453967357E+02  0.18224962411E+02  0.48278091229E+02  0.41800000000E+01 0. -1.
         -5    1    3    3    0  502 -0.17268920676E+02  0.35039216613E+02  0.30858321653E+03  0.31107400446E+03  0.41800000000E+01 0. -1.
        -11    1    1    2    0    0  0.68579779471E+02 -0.37680929351E+02  0.19292775596E+03  0.20819259739E+03  0.00000000000E+00 0.  1.
         11    1    1    2    0    0 -0.17083323396E+02 -0.25812254620E+02  0.18007149258E+02  0.35810192002E+02  0.00000000000E+00 0. -1.
</event>
<event>
 7    1  0.2499014E-009  0.1025323E+03  0.7561462E-02  0.1275059E+00
          1   -1    0    0  501    0  0.00000000000E+00  0.00000000000E+00  0.49544048254E+03  0.49544048254E+03  0.00000000000E+00 0. -1.
         -1   -1    0    0    0  501 -0.00000000000E+00 -0.00000000000E+00 -0.29658517978E+02  0.29658517978E+02  0.00000000000E+00 0.  1.
         25    2    1    2    0    0 -0.40736843056E+02 -0.37449147090E+02  0.27517607451E+03  0.30729726178E+03  0.12509119120E+03 0.  0.
          5    1    3    3  502    0 -0.72777369691E+02  0.73108316921E+00  0.91818345411E+02  0.11723975851E+03  0.41800000000E+01 0.  1.
         -5    1    3    3    0  502  0.32040526635E+02 -0.38180230259E+02  0.18335772910E+03  0.19005750327E+03  0.41800000000E+01 0.  1.
        -11    1    1    2    0    0  0.19129913293E+02 -0.15715930154E+02  0.13717410626E+03  0.13939038515E+03  0.00000000000E+00 0. -1.
         11    1    1    2    0    0  0.21606929763E+02  0.53165077244E+02  0.53431783793E+02  0.78411353588E+02  0.00000000000E+00 0.  1.
</event>
<event>
 7    1  0.2499014E-009  0.1315551E+03  0.7561462E-02  0.1225166E+00
          1   -1    0    0  501    0  0.00000000000E+00  0.00000000000E+00  0.41388468200E+02  0.41388468200E+02  0.00000000000E+00 0. -1.
         -1   -1    0    0    0  501 -0.00000000000E+00 -0.00000000000E+00 -0.47120036381E+03  0.47120036381E+03  0.00000000000E+00 0.  1.
         25    2    1    2    0    0 -0.80218634229E+02  0.44187562619E+01 -0.16999480981E+03  0.22582627026E+03  0.12507883232E+03 0.  0.
          5    1    3    3  502    0 -0.33423157288E+02  0.63624478684E+02 -0.96577213552E+02  0.12045668229E+03  0.41800000000E+01 0. -1.
         -5    1    3    3    0  502 -0.46795476941E+02 -0.59205722423E+02 -0.73417596257E+02  0.10536958797E+03  0.41800000000E+01 0. -1.
        -11    1    1    2    0    0  0.38609474110E+02  0.39363228606E+02 -0.16837569917E+03  0.17717373205E+03  0.00000000000E+00 0.  1.
         11    1    1    2    0    0  0.41609160119E+02 -0.43781984868E+02 -0.91441386624E+02  0.10958882969E+03  0.00000000000E+00 0. -1.
</event>
<event>
 7    1  0.2499014E-009  0.1843969E+03  0.7561462E-02  0.1163614E+00
         -3   -1    0    0    0  501 -0.00000000000E+00  0.00000000000E+00  0.49676133570E+03  0.49676133570E+03  0.00000000000E+00 0.  1.
          3   -1    0    0  501    0  0.00000000000E+00 -0.00000000000E+00 -0.12293558387E+03  0.12293558387E+03  0.00000000000E+00 0. -1.
         25    2    1    2    0    0 -0.15970840315E+03 -0.41049904008E+02  0.39210877090E+03  0.44338319095E+03  0.12508995621E+03 0.  0.
          5    1    3    3  502    0 -0.22977614993E+02  0.37216556449E+02  0.13340249497E+03  0.14045191678E+03  0.41800000000E+01 0. -1.
         -5    1    3    3    0  502 -0.13673078815E+03 -0.78266460456E+02  0.25870627594E+03  0.30293127417E+03  0.41800000000E+01 0. -1.
        -11    1    1    2    0    0  0.86972025934E+02  0.79316423051E+01 -0.35984008417E+02  0.94455773283E+02  0.00000000000E+00 0. -1.
         11    1    1    2    0    0  0.72736377211E+02  0.33118261703E+02  0.17700989339E+02  0.81857955334E+02  0.00000000000E+00 0.  1.
</event>
<event>
 7    1  0.2499014E-009  0.1087786E+03  0.7561462E-02  0.1262849E+00
         -2   -1    0    0    0  501 -0.00000000000E+00  0.00000000000E+00  0.21320332720E+03  0.21320332720E+03  0.00000000000E+00 0.  1.
          2   -1    0    0  501    0  0.00000000000E+00 -0.00000000000E+00 -0.87740006801E+02  0.87740006801E+02  0.00000000000E+00 0. -1.
         25    2    1    2    0    0 -0.37957949875E+02  0.54296422282E+02  0.13815904811E+02  0.14222616894E+03  0.12509395059E+03 0.  0.
          5    1    3    3  502    0 -0.52938232804E+02  0.68641690207E+02 -0.31411304094E+02  0.92294531538E+02  0.41800000000E+01 0. -1.
         -5    1    3    3    0  502  0.14980282928E+02 -0.14345267925E+02  0.45227208905E+02  0.49931637403E+02  0.41800000000E+01 0. -1.
        -11    1    1    2    0    0  0.43079786190E+02  0.10722317391E+02  0.64241467353E+02  0.78088425493E+02  0.00000000000E+00 0.  1.
         11    1    1    2    0    0 -0.51218363141E+01 -0.65018739673E+02  0.47405948234E+02  0.80628739565E+02  0.00000000000E+00 0. -1.
</event>
<event>
 7    1  0.2499014E-009  0.1111834E+03  0.7561462E-02  0.1258394E+00
          4   -1    0    0  501    0  0.00000000000E+00  0.00000000000E+00  0.17877199810E+03  0.17877199810E+03  0.00000000000E+00 0. -1.
         -4   -1    0    0    0  501 -0.00000000000E+00 -0.00000000000E+00 -0.12940523056E+03  0.12940523056E+03  0.00000000000E+00 0.  1.
         25    2    1    2    0    0  0.72136133128E+02  0.80814351332E+02  0.16272749480E+02  0.16627208141E+03  0.12508805537E+03 0.  0.
          5    1    3    3  502    0  0.19665782951E+02  0.33545328204E+01 -0.48361757231E+02  0.52481690827E+02  0.41800000000E+01 0. -1.
         -5    1    3    3    0  502  0.52470350176E+02  0.77459818511E+02  0.64634506711E+02  0.11379039058E+03  0.41800000000E+01 0. -1.
        -11    1    1    2    0    0 -0.50810662724E+02 -0.57685062335E+02 -0.20679475225E+02  0.79604840045E+02  0.00000000000E+00 0.  1.
         11    1    1    2    0    0 -0.21325470404E+02 -0.23129288997E+02  0.53773493283E+02  0.62300307201E+02  0.00000000000E+00 0. -1.
</event>
<event>
 7    1  0.2499014E-009  0.1416827E+03  0.7561462E-02  0.1211083E+00
         -2   -1    0    0    0  501 -0.00000000000E+00  0.00000000000E+00  0.11425930927E+03  0.11425930927E+03  0.00000000000E+00 0.  1.
          2   -1    0    0  501    0  0.00000000000E+00 -0.00000000000E+00 -0.19591133984E+03  0.19591133984E+03  0.00000000000E+00 0. -1.
         25    2    1    2    0    0 -0.51723030860E+02  0.71247476121E+02  0.46498675090E+01  0.15303786326E+03  0.12508993384E+03 0.  0.
          5    1    3    3  502    0  0.32820444184E+02  0.57826299563E+02  0.89777916518E+01  0.67224516513E+02  0.41800000000E+01 0. -1.
         -5    1    3    3    0  502 -0.84543475044E+02  0.13421176558E+02 -0.43279241428E+01  0.85813346748E+02  0.41800000000E+01 0. -1.
        -11    1    1    2    0    0  0.44996495664E+02  0.12753498575E+02 -0.35702376169E+02  0.58838728845E+02  0.00000000000E+00 0. -1.
         11    1    1    2    0    0  0.67265351960E+01 -0.84000974696E+02 -0.50599521906E+02  0.98294057006E+02  0.00000000000E+00 0.  1.
</event>
<event>
 7    1  0.2499014E-009  0.1009715E+03  0.7561462E-02  0.1278266E+00
         -1   -1    0    0    0  501 -0.00000000000E+00  0.00000000000E+00  0.22997231278E+03  0.22997231278E+03  0.00000000000E+00 0. -1.
          1   -1    0    0  501    0  0.00000000000E+00 -0.00000000000E+00 -0.87256989016E+02  0.87256989016E+02  0.00000000000E+00 0.  1.
         25    2    1    2    0    0  0.55062563292E+02  0.52025775395E+02  0.13545477264E+03  0.19933527754E+03  0.12509192724E+03 0.  0.
          5    1    3    3  502    0  0.20270851450E+02 -0.23624777061E+02 -0.88902108091E+01  0.32642698386E+02  0.41800000000E+01 0.  1.
         -5    1    3    3    0  502  0.34791711842E+02  0.75650552455E+02  0.14434498344E+03  0.16669257915E+03  0.41800000000E+01 0.  1.
        -11    1    1    2    0    0 -0.30049663209E+02 -0.54285115683E+02  0.42073900398E+02  0.74967120382E+02  0.00000000000E+00 0. -1.
         11    1    1    2    0    0 -0.25012900083E+02  0.22593402886E+01 -0.34813349267E+02  0.42926903875E+02  0.00000000000E+00 0.  1.
</event>
<event>
 7    1  0.2499014E-009  0.8486704E+02  0.7561462E-02  0.1315781E+00
          1   -1    0    0  501    0  0.00000000000E+00  0.00000000000E+00  0.50998653850E+02  0.50998653850E+02  0.00000000000E+00 0. -1.
         -1   -1    0    0    0  501 -0.00000000000E+00 -0.00000000000E+00 -0.26267974765E+03  0.26267974765E+03  0.00000000000E+00 0.  1.
         25    2    1    2    0    0 -0.40988422434E+02 -0.19027996137E+02 -0.11611940505E+03  0.17656060394E+03  0.12509122761E+03 0.  0.
          5    1    3    3  502    0 -0.31257406429E+02 -0.46672335524E+02  0.41053788444E+00  0.56329151434E+02  0.41800000000E+01 0.  1.
         -5    1    3    3    0  502 -0.97310160050E+01  0.27644339386E+02 -0.11652994293E+03  0.12023145251E+03  0.41800000000E+01 0.  1.
        -11    1    1    2    0    0  0.61057077638E+02  0.18221046568E+02 -0.97992136714E+02  0.11688640693E+03  0.00000000000E+00 0.  1.
         11    1    1    2    0    0 -0.20068655204E+02  0.80694956960E+00  0.24304479637E+01  0.20231390624E+02  0.00000000000E+00 0. -1.
</event>
<event>
 7    1  0.2499014E-009  0.1306407E+03  0.7561462E-02  0.1226508E+00
          2   -1    0    0  501    0  0.00000000000E+00  0.00000000000E+00  0.92989283093E+03  0.92989283093E+03  0.00000000000E+00 0.  1.
         -2   -1    0    0    0  501 -0.00000000000E+00 -0.00000000000E+00 -0.26964986252E+02  0.26964986252E+02  0.00000000000E+00 0. -1.
         25    2    1    2    0    0 -0.84157822224E+02  0.20697162995E+02  0.25706738427E+03  0.29873469139E+03  0.12509142331E+03 0.  0.
          5    1    3    3  502    0 -0.23360481368E+02 -0.41543147910E+02  0.16582380059E+03  0.17258780510E+03  0.41800000000E+01 0.  1.
         -5    1    3    3    0  502 -0.60797340856E+02  0.62240310906E+02  0.91243583674E+02  0.12614688628E+03  0.41800000000E+01 0.  1.
        -11    1    1    2    0    0  0.45808479433E+02  0.35737043405E+02  0.31149442198E+03  0.31686641978E+03  0.00000000000E+00 0. -1.
         11    1    1    2    0    0  0.38349342791E+02 -0.56434206400E+02  0.33436603843E+03  0.34125670601E+03  0.00000000000E+00 0.  1.
</event>
<event>
 7    1  0.2499014E-009  0.1604856E+03  0.7561462E-02  0.1188150E+00
          2   -1    0    0  501    0  0.00000000000E+00  0.00000000000E+00  0.18625203977E+04  0.18625203977E+04  0.00000000000E+00 0. -1.
         -2   -1    0    0    0  501 -0.00000000000E+00 -0.00000000000E+00 -0.23296252575E+02  0.23296252575E+02  0.00000000000E+00 0.  1.
         25    2    1    2    0    0 -0.98162150452E+02  0.11367098293E+03  0.13937278834E+04  0.14073678826E+04  0.12510013605E+03 0.  0.
          5    1    3    3  502    0 -0.47001172362E+02  0.81968802168E+02  0.12161243822E+04  0.12197966962E+04  0.41800000000E+01 0.  1.
         -5    1    3    3    0  502 -0.51160978090E+02  0.31702180765E+02  0.17760350121E+03  0.18757118645E+03  0.41800000000E+01 0.  1.
        -11    1    1    2    0    0 -0.96655248332E+01 -0.23804758760E+02  0.28063524233E+02  0.38047999977E+02  0.00000000000E+00 0.  1.
         11    1    1    2    0    0  0.10782767528E+03 -0.89866224173E+02  0.41743273753E+03  0.44040076767E+03  0.00000000000E+00 0. -1.
</event>
<event>
 7    1  0.2499014E-009  0.1382590E+03  0.7561462E-02  0.1215691E+00
          2   -1    0    0  501    0  0.00000000000E+00  0.00000000000E+00  0.62470469946E+03  0.62470469946E+03  0.00000000000E+00 0.  1.
         -2   -1    0    0    0  501 -0.00000000000E+00 -0.00000000000E+00 -0.41539072790E+02  0.41539072790E+02  0.00000000000E+00 0. -1.
         25    2    1    2    0    0  0.94378788569E+01  0.10970687465E+03  0.40511664138E+03  0.43805565533E+03  0.12509433297E+03 0.  0.
          5    1    3    3  502    0 -0.54102487499E+02  0.77179389694E+02  0.20892226589E+03  0.22923726340E+03  0.41800000000E+01 0.  1.
         -5    1    3    3    0  502  0.63540366355E+02  0.32527484959E+02  0.19619437549E+03  0.20881839193E+03  0.41800000000E+01 0.  1.
        -11    1    1    2    0    0 -0.10910481125E+02 -0.63032220820E+02  0.25865140754E+02  0.69000760620E+02  0.00000000000E+00 0. -1.
         11    1    1    2    0    0  0.14726022676E+01 -0.46674653833E+02  0.15218384453E+03  0.15918735630E+03  0.00000000000E+00 0.  1.
</event>
<event>
 7    1  0.2499014E-009  0.8461098E+02  0.7561462E-02  0.1316453E+00
         -2   -1    0    0    0  501 -0.00000000000E+00  0.00000000000E+00  0.46473889868E+02  0.46473889868E+02  0.00000000000E+00 0.  1.
          2   -1    0    0  501    0  0.00000000000E+00 -0.00000000000E+00 -0.31700942144E+03  0.31700942144E+03  0.00000000000E+00 0. -1.
         25    2    1    2    0    0 -0.87675001527E+01  0.33322992473E+02 -0.84449883142E+02  0.15481245101E+03  0.12509125204E+03 0.  0.
          5    1    3    3  502    0  0.20240234782E+02 -0.25538384696E+02  0.14577829001E+02  0.35942477590E+02  0.41800000000E+01 0. -1.
         -5    1    3    3    0  502 -0.29007734935E+02  0.58861377169E+02 -0.99027712142E+02  0.11886997342E+03  0.41800000000E+01 0. -1.
        -11    1    1    2    0    0  0.25557219979E+02  0.73660830890E+01 -0.12130568253E+02  0.29233223552E+02  0.00000000000E+00 0.  1.
         11    1    1    2    0    0 -0.16789719826E+02 -0.40689075562E+02 -0.17395508017E+03  0.17943763674E+03  0.00000000000E+00 0. -1.
</event>
<event>
 7    1  0.2499014E-009  0.1077169E+03  0.7561462E-02  0.1264857E+00
          1   -1    0    0  501    0  0.00000000000E+00  0.00000000000E+00  0.35582388423E+03  0.35582388423E+03  0.00000000000E+00 0. -1.
         -1   -1    0    0    0  501 -0.00000000000E+00 -0.00000000000E+00 -0.75669352036E+02  0.75669352036E+02  0.00000000000E+00 0.  1.
         25    2    1    2    0    0 -0.56058995820E+02 -0.55979184323E+02  0.27270327483E+03  0.31030647329E+03  0.12508697445E+03 0.  0.
          5    1    3    3  502    0  0.10220483275E+02 -0.18283328802E+02  0.21113959320E+03  0.21221719677E+03  0.41800000000E+01 0.  1.
         -5    1    3    3    0  502 -0.66279479095E+02 -0.37695855521E+02  0.61563681632E+02  0.98089276522E+02  0.41800000000E+01 0.  1.
        -11    1    1    2    0    0 -0.22580437073E+02  0.23611573924E+02  0.14725570391E+02  0.35836084955E+02  0.00000000000E+00 0. -1.
         11    1    1    2    0    0  0.78639432892E+02  0.32367610399E+02 -0.72743130223E+01  0.85350678020E+02  0.00000000000E+00 0.  1.
</event>
<event>
 7    1  0.2499014E-009  0.1309185E+03  0.7561462E-02  0.1226099E+00
          2   -1    0    0  501    0  0.00000000000E+00  0.00000000000E+00  0.51849453363E+03  0.51849453363E+03  0.00000000000E+00 0. -1.
         -2   -1    0    0    0  501 -0.00000000000E+00 -0.00000000000E+00 -0.57587096583E+02  0.57587096583E+02  0.00000000000E+00 0.  1.
         25    2    1    2    0    0  0.94625464026E+02  0.20807559198E+02  0.90690201870E+02  0.18236973502E+03  0.12508826714E+03 0.  0.
          5    1    3    3  502    0  0.29760759522E+02  0.66472829721E+02  0.19043073836E+02  0.75395297994E+02  0.41800000000E+01 0.  1.
         -5    1    3    3    0  502  0.64864704504E+02 -0.45665270523E+02  0.71647128034E+02  0.10697443703E+03  0.41800000000E+01 0.  1.
        -11    1    1    2    0    0 -0.67307032202E+02  0.10254048265E+02  0.32651246202E+03  0.33353526042E+03  0.00000000000E+00 0. -1.
         11    1    1    2    0    0 -0.27318431824E+02 -0.31061607462E+02  0.43704773160E+02  0.60176634772E+02  0.00000000000E+00 0.  1.
</event>
<event>
 7    1  0.2499014E-009  0.9932323E+02  0.7561462E-02  0.1281726E+00
          1   -1    0    0  501    0  0.00000000000E+00  0.00000000000E+00  0.14139908747E+03  0.14139908747E+03  0.00000000000E+00 0. -1.
         -1   -1    0    0    0  501 -0.00000000000E+00 -0.00000000000E+00 -0.11592458662E+03  0.11592458662E+03  0.00000000000E+00 0.  1.
         25    2    1    2    0    0  0.20048684164E+02 -0.46833029985E+01  0.82175958086E+02  0.15107801933E+03  0.12509115386E+03 0.  0.
          5    1    3    3  502    0 -0.22095960704E-01  0.51186199960E+02  0.75333536635E+02  0.91173689717E+02  0.41800000000E+01 0. -1.
         -5    1    3    3    0  502  0.20070780125E+02 -0.55869502958E+02  0.68424214504E+01  0.59904329617E+02  0.41800000000E+01 0. -1.
        -11    1    1    2    0    0 -0.48917105416E+02 -0.16876941055E+02 -0.44364894697E+02  0.68161266296E+02  0.00000000000E+00 0. -1.
         11    1    1    2    0    0  0.28868421252E+02  0.21560244053E+02 -0.12336562539E+02  0.38084388462E+02  0.00000000000E+00 0.  1.
</event>
<event>
 7    1  0.2499014E-009  0.1446376E+03  0.7561462E-02  0.1207221E+00
         -1   -1    0    0    0  501 -0.00000000000E+00  0.00000000000E+00  0.37446821562E+03  0.37446821562E+03  0.00000000000E+00 0.  1.
          1   -1    0    0  501    0  0.00000000000E+00 -0.00000000000E+00 -0.78406408807E+02  0.78406408807E+02  0.00000000000E+00 0. -1.
         25    2    1    2    0    0 -0.51761393227E+00 -0.98178295020E+02  0.40147160549E+02  0.16400170445E+03  0.12508204917E+03 0.  0.
          5    1    3    3  502    0 -0.61949757377E+02 -0.40631339817E+02  0.25474997192E+02  0.78454611696E+02  0.41800000000E+01 0. -1.
         -5    1    3    3    0  502  0.61432143445E+02 -0.57546955203E+02  0.14672163357E+02  0.85547092755E+02  0.41800000000E+01 0. -1.
        -11    1    1    2    0    0 -0.67768903776E+01 -0.15480945314E+02  0.59215819868E+02  0.61580023008E+02  0.00000000000E+00 0.  1.
         11    1    1    2    0    0  0.72945043098E+01  0.11365924033E+03  0.19669882640E+03  0.22729289697E+03  0.00000000000E+00 0. -1.
</event>
<event>
 7    1  0.2499014E-009  0.9900613E+02  0.7561462E-02  0.1282400E+00
          1   -1    0    0  501    0  0.00000000000E+00  0.00000000000E+00  0.18544203760E+03  0.18544203760E+03  0.00000000000E+00 0. -1.
         -1   -1    0    0    0  501 -0.00000000000E+00 -0.00000000000E+00 -0.64028103145E+02  0.64028103145E+02  0.00000000000E+00 0.  1.
         25    2    1    2    0    0  0.12337305062E+02  0.23715052092E+01  0.73034657541E+02  0.14539190083E+03  0.12508761127E+03 0.  0.
          5    1    3    3  502    0 -0.54182372075E+01  0.62380435998E+02  0.41037761392E+02  0.74981640085E+02  0.41800000000E+01 0. -1.
         -5    1    3    3    0  502  0.17755542270E+02 -0.60008930789E+02  0.31996896149E+02  0.70410260750E+02  0.41800000000E+01 0. -1.
        -11    1    1    2    0    0 -0.23479922596E+01 -0.36705179320E+02 -0.76918728491E+01  0.37575898719E+02  0.00000000000E+00 0.  1.
         11    1    1    2    0    0 -0.99893128028E+01  0.34333674111E+02  0.56071149765E+02  0.66502341194E+02  0.00000000000E+00 0. -1.
</event>
<event>
 7    1  0.2499014E-009  0.9683680E+02  0.7561462E-02  0.1287092E+00
          1   -1    0    0  501    0  0.00000000000E+00  0.00000000000E+00  0.84562339832E+02  0.84562339832E+02  0.00000000000E+00 0. -1.
         -1   -1    0    0    0  501 -0.00000000000E+00 -0.00000000000E+00 -0.18967221171E+03  0.18967221171E+03  0.00000000000E+00 0.  1.
         25    2    1    2    0    0  0.30575741355E+02  0.14460978169E+02  0.46618234808E+00  0.12957760191E+03  0.12508453838E+03 0.  0.
          5    1    3    3  502    0  0.51975457721E+02 -0.40379250239E+02  0.17350116686E+02  0.68194068688E+02  0.41800000000E+01 0.  1.
         -5    1    3    3    0  502 -0.21399716366E+02  0.54840228408E+02 -0.16883934338E+02  0.61383533225E+02  0.41800000000E+01 0.  1.
        -11    1    1    2    0    0 -0.38660664348E+02  0.12444158959E+02 -0.10903281501E+03  0.11635144524E+03  0.00000000000E+00 0.  1.
         11    1    1    2    0    0  0.80849229921E+01 -0.26905137128E+02  0.34567607844E+01  0.28305504391E+02  0.00000000000E+00 0. -1.
</event>
<event>
 7    1  0.2499014E-009  0.1053127E+03  0.7561462E-02  0.1269505E+00
         -3   -1    0    0    0  501 -0.00000000000E+00  0.00000000000E+00  0.25302172143E+03  0.25302172143E+03  0.00000000000E+00 0.  1.
          3   -1    0    0  501    0  0.00000000000E+00 -0.00000000000E+00 -0.66562541075E+02  0.66562541075E+02  0.00000000000E+00 0. -1.
         25    2    1    2    0    0  0.32608428986E+02  0.54941690284E+02  0.14191814398E+03  0.19967547865E+03  0.12509052007E+03 0.  0.
          5    1    3    3  502    0  0.63206594656E+02  0.57573629316E+02  0.14515271401E+03  0.16851284576E+03  0.41800000000E+01 0.  1.
         -5    1    3    3    0  502 -0.30598165669E+02 -0.26319390317E+01 -0.32345700314E+01  0.31162632891E+02  0.41800000000E+01 0.  1.
        -11    1    1    2    0    0 -0.36349134338E+02 -0.69806595731E+02  0.65896328951E+01  0.78978754335E+02  0.00000000000E+00 0. -1.
         11    1    1    2    0    0  0.37407053520E+01  0.14864905446E+02  0.37951403481E+02  0.40930029521E+02  0.00000000000E+00 0.  1.
</event>
<event>
 7    1  0.2499014E-009  0.1422486E+03  0.7561462E-02  0.1210335E+00
         -2   -1    0    0    0  501 -0.00000000000E+00  0.00000000000E+00  0.63373619958E+02  0.63373619958E+02  0.00000000000E+00 0.  1.
          2   -1    0    0  501    0  0.00000000000E+00 -0.00000000000E+00 -0.45768624940E+03  0.45768624940E+03  0.00000000000E+00 0. -1.
         25    2    1    2    0    0 -0.11001051968E+03  0.19914593576E+02 -0.10435134834E+03  0.19757773550E+03  0.12509537237E+03 0.  0.
          5    1    3    3  502    0 -0.91218099687E+01 -0.38478358100E+02 -0.61653219831E+02  0.73364728410E+02  0.41800000000E+01 0.  1.
         -5    1    3    3    0  502 -0.10088870972E+03  0.58392951676E+02 -0.42698128505E+02  0.12421300709E+03  0.41800000000E+01 0.  1.
        -11    1    1    2    0    0  0.24245474132E+02  0.21901078582E+02 -0.15370509396E+03  0.15713928906E+03  0.00000000000E+00 0. -1.
         11    1    1    2    0    0  0.85765045553E+02 -0.41815672158E+02 -0.13625618715E+03  0.16634284479E+03  0.00000000000E+00 0.  1.
</event>
<event>
 7    1  0.2499014E-009  0.9548398E+02  0.7561462E-02  0.1290090E+00
          2   -1    0    0  501    0  0.00000000000E+00  0.00000000000E+00  0.25395295787E+03  0.25395295787E+03  0.00000000000E+00 0. -1.
         -2   -1    0    0    0  501 -0.00000000000E+00 -0.00000000000E+00 -0.45939537781E+02  0.45939537781E+02  0.00000000000E+00 0.  1.
         25    2    1    2    0    0 -0.50616880186E+01 -0.35053535738E+01  0.12461284441E+03  0.17667421581E+03  0.12509000499E+03 0.  0.
          5    1    3    3  502    0 -0.53660565724E+02  0.28910516445E+02  0.37444192785E+02  0.71657618215E+02  0.41800000000E+01 0. -1.
         -5    1    3    3    0  502  0.48598877705E+02 -0.32415870019E+02  0.87168651629E+02  0.10501659759E+03  0.41800000000E+01 0. -1.
        -11    1    1    2    0    0  0.28001304855E+02  0.26694037618E+02  0.59006283350E+01  0.39133900044E+02  0.00000000000E+00 0.  1.
         11    1    1    2    0    0 -0.22939616836E+02 -0.23188684044E+02  0.77499947337E+02  0.84084379795E+02  0.00000000000E+00 0. -1.
</event>
<event>
 7    1  0.2499014E-009  0.1803275E+03  0.7561462E-02  0.1167486E+00
         -1   -1    0    0    0  501 -0.00000000000E+00  0.00000000000E+00  0.15262617018E+03  0.15262617018E+03  0.00000000000E+00 0.  1.
          1   -1    0    0  501    0  0.00000000000E+00 -0.00000000000E+00 -0.38271183966E+03  0.38271183966E+03  0.00000000000E+00 0. -1.
         25    2    1    2    0    0 -0.70042714913E+02 -0.15965905715E+03  0.21318773297E+02  0.21564462006E+03  0.12510441888E+03 0.  0.
          5    1    3    3  502    0 -0.25484573719E+02 -0.12788182206E+03  0.64754032917E+02  0.14564951455E+03  0.41800000000E+01 0. -1.
         -5    1    3    3    0  502 -0.44558141194E+02 -0.31777235092E+02 -0.43435259620E+02  0.69995105508E+02  0.41800000000E+01 0. -1.
        -11    1    1    2    0    0  0.15645322189E+02  0.57182686327E+02 -0.16414296426E+03  0.17452091117E+03  0.00000000000E+00 0. -1.
         11    1    1    2    0    0  0.54397392724E+02  0.10247637082E+03 -0.87261478524E+02  0.14517247861E+03  0.00000000000E+00 0.  1.
</event>
<event>
 7    1  0.2499014E-009  0.1129813E+03  0.7561462E-02  0.1255146E+00
          1   -1    0    0  501    0  0.00000000000E+00  0.00000000000E+00  0.15653563630E+03  0.15653563630E+03  0.00000000000E+00 0. -1.
         -1   -1    0    0    0  501 -0.00000000000E+00 -0.00000000000E+00 -0.10510402932E+03  0.10510402932E+03  0.00000000000E+00 0.  1.
         25    2    1    2    0    0 -0.22881744634E+02  0.60294755321E+02  0.22122791543E+02  0.14246402339E+03  0.12509016067E+03 0.  0.
          5    1    3    3  502    0 -0.64094232377E+02  0.31384191148E+02 -0.22621971651E+02  0.74981758311E+02  0.41800000000E+01 0.  1.
         -5    1    3    3    0  502  0.41212487743E+02  0.28910564173E+02  0.44744763193E+02  0.67482265077E+02  0.41800000000E+01 0.  1.
        -11    1    1    2    0    0 -0.24998369951E+02 -0.48630487424E+02 -0.10678838563E+02  0.55712479754E+02  0.00000000000E+00 0.  1.
         11    1    1    2    0    0  0.47880114585E+02 -0.11664267897E+02  0.39987654006E+02  0.63463162473E+02  0.00000000000E+00 0. -1.
</event>
<event>
 7    1  0.2499014E-009  0.1000525E+03  0.7561462E-02  0.1280186E+00
         -1   -1    0    0    0  501 -0.00000000000E+00  0.00000000000E+00  0.67949875010E+02  0.67949875010E+02  0.00000000000E+00 0.  1.
          1   -1    0    0  501    0  0.00000000000E+00 -0.00000000000E+00 -0.21354366860E+03  0.21354366860E+03  0.00000000000E+00 0. -1.
         25    2    1    2    0    0  0.42852762820E+02  0.28820786733E+02 -0.92528044837E+02  0.16394183548E+03  0.12509392195E+03 0.  0.
          5    1    3    3  502    0  0.23547834239E+02 -0.32569681484E+02  0.11083283945E+02  0.41899835708E+02  0.41800000000E+01 0.  1.
         -5    1    3    3    0  502  0.19304928581E+02  0.61390468217E+02 -0.10361132878E+03  0.12204199977E+03  0.41800000000E+01 0.  1.
        -11    1    1    2    0    0  0.76091616136E+01 -0.42298047328E+02 -0.48979479342E+02  0.65161442164E+02  0.00000000000E+00 0. -1.
         11    1    1    2    0    0 -0.50461924433E+02  0.13477260595E+02 -0.40862694099E+01  0.52390265970E+02  0.00000000000E+00 0.  1.
</event>
<event>
 7    1  0.2499014E-009  0.1131132E+03  0.7561462E-02  0.1254911E+00
          1   -1    0    0  501    0  0.00000000000E+00  0.00000000000E+00  0.10089825401E+04  0.10089825401E+04  0.00000000000E+00 0. -1.
         -1   -1    0    0    0  501 -0.00000000000E+00 -0.00000000000E+00 -0.13025960908E+02  0.13025960908E+02  0.00000000000E+00 0.  1.
         25    2    1    2    0    0 -0.31095216419E+02 -0.10088377976E+02  0.49956863870E+03  0.51602739931E+03  0.12508702653E+03 0.  0.
          5    1    3    3  502    0 -0.78216499859E+02 -0.19317711874E+02  0.33232113292E+03  0.34197339462E+03  0.41800000000E+01 0.  1.
         -5    1    3    3    0  502  0.47121283440E+02  0.92293338973E+01  0.16724750578E+03  0.17405400469E+03  0.41800000000E+01 0.  1.
        -11    1    1    2    0    0  0.54178027478E+02  0.34123683866E+02  0.29653678444E+03  0.30337064622E+03  0.00000000000E+00 0.  1.
         11    1    1    2    0    0 -0.23082811058E+02 -0.24035305889E+02  0.19985115604E+03  0.20261045547E+03  0.00000000000E+00 0. -1.
</event>
<event>
 7    1  0.2499014E-009  0.1002725E+03  0.7561462E-02  0.1279724E+00
          2   -1    0    0  501    0  0.00000000000E+00  0.00000000000E+00  0.64445636452E+02  0.64445636452E+02  0.00000000000E+00 0. -1.
         -2   -1    0    0    0  501 -0.00000000000E+00 -0.00000000000E+00 -0.21310825136E+03  0.21310825136E+03  0.00000000000E+00 0.  1.
         25    2    1    2    0    0  0.39807341433E+02 -0.74352997578E+01 -0.57036923480E+02  0.14332102395E+03  0.12509115537E+03 0.  0.
          5    1    3    3  502    0 -0.28429039396E+02 -0.28729497960E+02 -0.59060797294E+02  0.71688524263E+02  0.41800000000E+01 0.  1.
         -5    1    3    3    0  502  0.68236380829E+02  0.21294198202E+02  0.20238738139E+01  0.71632499684E+02  0.41800000000E+01 0.  1.
        -11    1    1    2    0    0 -0.53376102583E+02  0.30553225274E+02 -0.33061113442E+02  0.69825103820E+02  0.00000000000E+00 0. -1.
         11    1    1    2    0    0  0.13568761150E+02 -0.23117925516E+02 -0.58564577984E+02  0.64407760043E+02  0.00000000000E+00 0.  1.
</event>
<event>
 7    1  0.2499014E-009  0.1094911E+03  0.7561462E-02  0.1261515E+00
         -1   -1    0    0    0  501 -0.00000000000E+00  0.00000000000E+00  0.57665736028E+03  0.57665736028E+03  0.00000000000E+00 0.  1.
          1   -1    0    0  501    0  0.00000000000E+00 -0.00000000000E+00 -0.24683891980E+02  0.24683891980E+02  0.00000000000E+00 0. -1.
         25    2    1    2    0    0 -0.27680073159E+02  0.28367078979E+02  0.23163002800E+03  0.26621553588E+03  0.12508942421E+03 0.  0.
          5    1    3    3  502    0  0.45701419756E+02 -0.89275074348E+01  0.62297599429E+02  0.77889559321E+02  0.41800000000E+01 0.  1.
         -5    1    3    3    0  502 -0.73381492914E+02  0.37294586414E+02  0.16933242858E+03  0.18832597656E+03  0.41800000000E+01 0.  1.
        -11    1    1    2    0    0  0.38503796863E+02  0.17779052631E+02  0.22127170214E+03  0.22529936364E+03  0.00000000000E+00 0.  1.
         11    1    1    2    0    0 -0.10823723704E+02 -0.46146131609E+02  0.99071738152E+02  0.10982635275E+03  0.00000000000E+00 0. -1.
</event>
<event>
 7    1  0.2499014E-009  0.1535504E+03  0.7561462E-02  0.1196177E+00
          1   -1    0    0  501    0  0.00000000000E+00  0.00000000000E+00  0.18969621927E+03  0.18969621927E+03  0.00000000000E+00 0. -1.
         -1   -1    0    0    0  501 -0.00000000000E+00 -0.00000000000E+00 -0.18582047538E+03  0.18582047538E+03  0.00000000000E+00 0.  1.
         25    2    1    2    0    0 -0.30114102967E+02  0.12478828108E+03 -0.80901402744E+02  0.19664999823E+03  0.12508881063E+03 0.  0.
          5    1    3    3  502    0 -0.48837037255E+02  0.55301687756E+01 -0.53539944097E+02  0.72798605676E+02  0.41800000000E+01 0.  1.
         -5    1    3    3    0  502  0.18722934288E+02  0.11925811230E+03 -0.27361458647E+02  0.12385139255E+03  0.41800000000E+01 0.  1.
        -11    1    1    2    0    0  0.39583179861E+02 -0.12002454256E+03  0.39569299360E+02  0.13243280710E+03  0.00000000000E+00 0.  1.
         11    1    1    2    0    0 -0.94690768947E+01 -0.47637385144E+01  0.45207847273E+02  0.46433889316E+02  0.00000000000E+00 0. -1.
</event>
<event>
 7    1  0.2499014E-009  0.1513271E+03  0.7561462E-02  0.1198852E+00
         -2   -1    0    0    0  501 -0.00000000000E+00  0.00000000000E+00  0.58372402116E+02  0.58372402116E+02  0.00000000000E+00 0. -1.
          2   -1    0    0  501    0  0.00000000000E+00 -0.00000000000E+00 -0.47922909395E+03  0.47922909395E+03  0.00000000000E+00 0.  1.
         25    2    1    2    0    0  0.12205772168E+03  0.24621530949E+02 -0.26660320675E+03  0.31973289662E+03  0.12509015997E+03 0.  0.
          5    1    3    3  502    0  0.46766262216E+02  0.62239737166E+02 -0.66001123238E+02  0.10214934573E+03  0.41800000000E+01 0.  1.
         -5    1    3    3    0  502  0.75291459461E+02 -0.37618206217E+02 -0.20060208351E+03  0.21758355089E+03  0.41800000000E+01 0.  1.
        -11    1    1    2    0    0 -0.38750221625E+02 -0.40015347099E+02 -0.20127271740E+02  0.59227651879E+02  0.00000000000E+00 0. -1.
         11    1    1    2    0    0 -0.83307500052E+02  0.15393816150E+02 -0.13412621334E+03  0.15864094757E+03  0.00000000000E+00 0.  1.
</event>
<event>
 7    1  0.2499014E-009  0.1118050E+03  0.7561462E-02  0.1257263E+00
         -2   -1    0    0    0  501 -0.00000000000E+00  0.00000000000E+00  0.15414530458E+02  0.15414530458E+02  0.00000000000E+00 0.  1.
          2   -1    0    0  501    0  0.00000000000E+00 -0.00000000000E+00 -0.93460399946E+03  0.93460399946E+03  0.00000000000E+00 0. -1.
         25    2    1    2    0    0 -0.59181955382E+01  0.46638208387E+02 -0.57147969123E+03  0.58689602898E+03  0.12509102218E+03 0.  0.
          5    1    3    3  502    0 -0.30158342354E+02  0.78190196337E+02 -0.47654314898E+03  0.48387403077E+03  0.41800000000E+01 0.  1.
         -5    1    3    3    0  502  0.24240146815E+02 -0.31551987950E+02 -0.94936542246E+02  0.10302199821E+03  0.41800000000E+01 0.  1.
        -11    1    1    2    0    0 -0.33363520566E+02  0.61175114040E+01 -0.70767364628E+02  0.78476546475E+02  0.00000000000E+00 0. -1.
         11    1    1    2    0    0  0.39281716104E+02 -0.52755719791E+02 -0.27694241315E+03  0.28464595446E+03  0.00000000000E+00 0.  1.
</event>
<event>
 7    1  0.2499014E-009  0.1293202E+03  0.7561462E-02  0.1228468E+00
         -1   -1    0    0    0  501 -0.00000000000E+00  0.00000000000E+00  0.97971269631E+03  0.97971269631E+03  0.00000000000E+00 0.  1.
          1   -1    0    0  501    0  0.00000000000E+00 -0.00000000000E+00 -0.32994974939E+02  0.32994974939E+02  0.00000000000E+00 0. -1.
         25    2    1    2    0    0 -0.58695955450E+02  0.45747206974E+02  0.84120230985E+03  0.85370165264E+03  0.12508862260E+03 0.  0.
          5    1    3    3  502    0  0.96188683204E+01 -0.33475691496E+02  0.33199809834E+03  0.33384630334E+03  0.41800000000E+01 0.  1.
         -5    1    3    3    0  502 -0.68314823771E+02  0.79222898470E+02  0.50920421150E+03  0.51985534931E+03  0.41800000000E+01 0.  1.
        -11    1    1    2    0    0  0.73712132754E+02 -0.32375361534E+01  0.62574900091E+02  0.96744913442E+02  0.00000000000E+00 0.  1.
         11    1    1    2    0    0 -0.15016177304E+02 -0.42509670821E+02  0.42940511433E+02  0.62261105164E+02  0.00000000000E+00 0. -1.
</event>
<event>
 7    1  0.2499014E-009  0.1118341E+03  0.7561462E-02  0.1257211E+00
         -2   -1    0    0    0  501 -0.00000000000E+00  0.00000000000E+00  0.20262771658E+03  0.20262771658E+03  0.00000000000E+00 0.  1.
          2   -1    0    0  501    0  0.00000000000E+00 -0.00000000000E+00 -0.71989040902E+02  0.71989040902E+02  0.00000000000E+00 0. -1.
         25    2    1    2    0    0 -0.62975596592E+02  0.54359787042E+02  0.85963860864E+02  0.17308424700E+03  0.12508980363E+03 0.  0.
          5    1    3    3  502    0 -0.90822767796E+02  0.31418717395E+02  0.95481912042E+02  0.13553663298E+03  0.41800000000E+01 0.  1.
         -5    1    3    3    0  502  0.27847171204E+02  0.22941069647E+02 -0.95180511784E+01  0.37547614023E+02  0.41800000000E+01 0.  1.
        -11    1    1    2    0    0  0.11665090091E+02 -0.34008228247E+02  0.18744730100E+02  0.40546255337E+02  0.00000000000E+00 0. -1.
         11    1    1    2    0    0  0.51310506501E+02 -0.20351558794E+02  0.25930084714E+02  0.60986255140E+02  0.00000000000E+00 0.  1.
</event>
<event>
 7    1  0.2499014E-009  0.9682229E+02  0.7561462E-02  0.1287124E+00
         -1   -1    0    0    0  501 -0.00000000000E+00  0.00000000000E+00  0.14316160570E+03  0.14316160570E+03  0.00000000000E+00 0.  1.
          1   -1    0    0  501    0  0.00000000000E+00 -0.00000000000E+00 -0.88949278057E+02  0.88949278057E+02  0.00000000000E+00 0. -1.
         25    2    1    2    0    0 -0.19471854087E+02 -0.73803361704E+01  0.55822913679E+02  0.13855184755E+03  0.12508714684E+03 0.  0.
          5    1    3    3  502    0  0.95166524829E+01  0.55895937329E+02  0.20947172896E+02  0.60590254470E+02  0.41800000000E+01 0.  1.
         -5    1    3    3    0  502 -0.28988506570E+02 -0.63276273500E+02  0.34875740782E+02  0.77961593085E+02  0.41800000000E+01 0.  1.
        -11    1    1    2    0    0  0.42681652506E+02  0.96029600976E+01 -0.32756430460E+02  0.54652758757E+02  0.00000000000E+00 0. -1.
         11    1    1    2    0    0 -0.23209798418E+02 -0.22226239271E+01  0.31145844423E+02  0.38906277444E+02  0.00000000000E+00 0.  1.
</event>
<event>
 7    1  0.2499014E-009  0.8061990E+02  0.7561462E-02  0.1327301E+00
          3   -1    0    0  501    0  0.00000000000E+00  0.00000000000E+00  0.42916302170E+03  0.42916302170E+03  0.00000000000E+00 0. -1.
         -3   -1    0    0    0  501 -0.00000000000E+00 -0.00000000000E+00 -0.27830640125E+02  0.27830640125E+02  0.00000000000E+00 0.  1.
         25    2    1    2    0    0  0.15522140157E+02 -0.17066758456E+01  0.22929168747E+03  0.26165986982E+03  0.12508940784E+03 0.  0.
          5    1    3    3  502    0 -0.81833805777E+01 -0.49188398537E+02  0.37265321028E+02  0.62391047592E+02  0.41800000000E+01 0. -1.
         -5    1    3    3    0  502  0.23705520735E+02  0.47481722692E+02  0.19202636644E+03  0.19926882223E+03  0.41800000000E+01 0. -1.
        -11    1    1    2    0    0 -0.21060118564E+02 -0.23849078858E+02  0.16529433869E+03  0.16832862370E+03  0.00000000000E+00 0. -1.
         11    1    1    2    0    0  0.55379784074E+01  0.25555754704E+02  0.67463554145E+01  0.27005168296E+02  0.00000000000E+00 0.  1.
</event>
<event>
 7    1  0.2499014E-009  0.1329581E+03  0.7561462E-02  0.1223131E+00
         -2   -1    0    0    0  501 -0.00000000000E+00  0.00000000000E+00  0.32460944106E+02  0.32460944106E+02  0.00000000000E+00 0.  1.
          2   -1    0    0  501    0  0.00000000000E+00 -0.00000000000E+00 -0.73370992901E+03  0.73370992901E+03  0.00000000000E+00 0. -1.
         25    2    1    2    0    0  0.11144606548E+02 -0.10731135341E+03 -0.33634128978E+03  0.37471715039E+03  0.12509017053E+03 0.  0.
          5    1    3    3  502    0  0.32028677395E+02 -0.20384129157E+02 -0.24077787897E+03  0.24378844989E+03  0.41800000000E+01 0.  1.
         -5    1    3    3    0  502 -0.20884070847E+02 -0.86927224252E+02 -0.95563410811E+02  0.13092870051E+03  0.41800000000E+01 0.  1.
        -11    1    1    2    0    0  0.35637346667E+02  0.69373884896E+02 -0.24750282797E+03  0.25950030103E+03  0.00000000000E+00 0. -1.
         11    1    1    2    0    0 -0.46781953215E+02  0.37937468513E+02 -0.11740486716E+03  0.13195342169E+03  0.00000000000E+00 0.  1.
</event>
<event>
 7    1  0.2499014E-009  0.1081796E+03  0.7561462E-02  0.1263979E+00
         -3   -1    0    0    0  501 -0.00000000000E+00  0.00000000000E+00  0.94470651496E+02  0.94470651496E+02  0.00000000000E+00 0.  1.
          3   -1    0    0  501    0  0.00000000000E+00 -0.00000000000E+00 -0.18636581669E+03  0.18636581669E+03  0.00000000000E+00 0. -1.
         25    2    1    2    0    0  0.35560175363E+02  0.69611042002E+02 -0.61582012731E+02  0.15984389281E+03  0.12508997776E+03 0.  0.
          5    1    3    3  502    0 -0.15567746763E+02 -0.22262522569E+02 -0.45839066710E+02  0.53447797778E+02  0.41800000000E+01 0. -1.
         -5    1    3    3    0  502  0.51127922126E+02  0.91873564571E+02 -0.15742946021E+02  0.10639609503E+03  0.41800000000E+01 0. -1.
        -11    1    1    2    0    0 -0.26581494531E+02 -0.20087460370E+02  0.28314596827E+02  0.43724115875E+02  0.00000000000E+00 0.  1.
         11    1    1    2    0    0 -0.89786808320E+01 -0.49523581633E+02 -0.58627749288E+02  0.77268459502E+02  0.00000000000E+00 0. -1.
</event>
<event>
 7    1  0.2499014E-009  0.1002946E+03  0.7561462E-02  0.1279678E+00
          1   -1    0    0  501    0  0.00000000000E+00  0.00000000000E+00  0.49090714658E+03  0.49090714658E+03  0.00000000000E+00 0. -1.
         -1   -1    0    0    0  501 -0.00000000000E+00 -0.00000000000E+00 -0.31515338885E+02  0.31515338885E+02  0.00000000000E+00 0.  1.
         25    2    1    2    0    0 -0.21782966189E+02  0.53753797574E+02  0.19670845665E+03  0.24021836846E+03  0.12508668697E+03 0.  0.
          5    1    3    3  502    0 -0.40453344703E+02  0.64113078891E+02  0.47775698251E+02  0.89704792101E+02  0.41800000000E+01 0. -1.
         -5    1    3    3    0  502  0.18670378514E+02 -0.10359281317E+02  0.14893275840E+03  0.15051357636E+03  0.41800000000E+01 0. -1.
        -11    1    1    2    0    0  0.46934573985E+02 -0.39336376172E+01  0.12957245590E+03  0.13786714282E+03  0.00000000000E+00 0.  1.
         11    1    1    2    0    0 -0.25151607796E+02 -0.49820159957E+02  0.13311089515E+03  0.14433697419E+03  0.00000000000E+00 0. -1.
</event>
<event>
 7    1  0.2499014E-009  0.9390986E+02  0.7561462E-02  0.1293650E+00
         -2   -1    0    0    0  501 -0.00000000000E+00  0.00000000000E+00  0.79853559873E+02  0.79853559873E+02  0.00000000000E+00 0.  1.
          2   -1    0    0  501    0  0.00000000000E+00 -0.00000000000E+00 -0.19579121474E+03  0.19579121474E+03  0.00000000000E+00 0. -1.
         25    2    1    2    0    0 -0.21036056041E+02  0.15034714021E+02 -0.23351595808E+01  0.12775478477E+03  0.12508906340E+03 0.  0.
          5    1    3    3  502    0  0.33223793295E+02  0.30799491866E+02 -0.39287424701E+02  0.60111590228E+02  0.41800000000E+01 0. -1.
         -5    1    3    3    0  502 -0.54259849336E+02 -0.15764777845E+02  0.36952265120E+02  0.67643194543E+02  0.41800000000E+01 0. -1.
        -11    1    1    2    0    0  0.37231284110E+01 -0.48152075134E+02 -0.94023400877E+02  0.10570186345E+03  0.00000000000E+00 0. -1.
         11    1    1    2    0    0  0.17312927630E+02  0.33117361113E+02 -0.19579094406E+02  0.42188126386E+02  0.00000000000E+00 0.  1.
</event>
<event>
 7    1  0.2499014E-009  0.1065946E+03  0.7561462E-02  0.1267009E+00
          1   -1    0    0  501    0  0.00000000000E+00  0.00000000000E+00  0.37453870880E+02  0.37453870880E+02  0.00000000000E+00 0. -1.
         -1   -1    0    0    0  501 -0.00000000000E+00 -0.00000000000E+00 -0.48774383390E+03  0.48774383390E+03  0.00000000000E+00 0.  1.
         25    2    1    2    0    0  0.44769023277E+02 -0.54608126641E+02 -0.31633091049E+03  0.34741734144E+03  0.12508897338E+03 0.  0.
          5    1    3    3  502    0  0.60573026183E+02 -0.83691693166E+02 -0.18519438659E+03  0.21210333385E+03  0.41800000000E+01 0.  1.
         -5    1    3    3    0  502 -0.15804002905E+02  0.29083566524E+02 -0.13113652389E+03  0.13531400758E+03  0.41800000000E+01 0.  1.
        -11    1    1    2    0    0 -0.22411010759E+02  0.64282299659E+01  0.92163611248E+01  0.25070238454E+02  0.00000000000E+00 0. -1.
         11    1    1    2    0    0 -0.22358012518E+02  0.48179896675E+02 -0.14317541366E+03  0.15271012489E+03  0.00000000000E+00 0.  1.
</event>
<event>
 7    1  0.2499014E-009  0.9317846E+02  0.7561462E-02  0.1295332E+00
         -1   -1    0    0    0  501 -0.00000000000E+00  0.00000000000E+00  0.66875153846E+02  0.66875153846E+02  0.00000000000E+00 0.  1.
          1   -1    0    0  501    0  0.00000000000E+00 -0.00000000000E+00 -0.25851008737E+03  0.25851008737E+03  0.00000000000E+00 0. -1.
         25    2    1    2    0    0  0.27957764177E+02 -0.14793280616E+01 -0.20935084314E+02  0.12988168726E+03  0.12508856838E+03 0.  0.
          5    1    3    3  502    0  0.53112111942E+02  0.31989835340E+02 -0.49142309185E+02  0.79225532199E+02  0.41800000000E+01 0.  1.
         -5    1    3    3    0  502 -0.25154347766E+02 -0.33469163401E+02  0.28207224871E+02  0.50656155058E+02  0.41800000000E+01 0.  1.
        -11    1    1    2    0    0 -0.10422932202E+02  0.39188763769E+02 -0.13412587654E+03  0.14012190221E+03  0.00000000000E+00 0. -1.
         11    1    1    2    0    0 -0.17534831975E+02 -0.37709435707E+02 -0.36573972672E+02  0.55381651752E+02  0.00000000000E+00 0.  1.
</event>
<event>
 7    1  0.2499014E-009  0.8040131E+02  0.7561462E-02  0.1327916E+00
         -1   -1    0    0    0  501 -0.00000000000E+00  0.00000000000E+00  0.56662726895E+02  0.56662726895E+02  0.00000000000E+00 0. -1.
          1   -1    0    0  501    0  0.00000000000E+00 -0.00000000000E+00 -0.27873892983E+03  0.27873892983E+03  0.00000000000E+00 0.  1.
         25    2    1    2    0    0 -0.20349694767E+02 -0.67399740805E+01 -0.20290867263E+03  0.23933096808E+03  0.12509134872E+03 0.  0.
          5    1    3    3  502    0 -0.20397538579E+02 -0.64333309289E+02 -0.90655415610E+02  0.11309602576E+03  0.41800000000E+01 0.  1.
         -5    1    3    3    0  502  0.47843811652E-01  0.57593335208E+02 -0.11225325702E+03  0.12623494231E+03  0.41800000000E+01 0.  1.
        -11    1    1    2    0    0  0.95102828665E+01  0.17656639669E+02 -0.54209627928E+02  0.57800399348E+02  0.00000000000E+00 0.  1.
         11    1    1    2    0    0  0.10839411901E+02 -0.10916665589E+02  0.35042097618E+02  0.38270289304E+02  0.00000000000E+00 0. -1.
</event>
<event>
 7    1  0.2499014E-009  0.9748823E+02  0.7561462E-02  0.1285668E+00
         -2   -1    0    0    0  501 -0.00000000000E+00  0.00000000000E+00  0.21191654533E+03  0.21191654533E+03  0.00000000000E+00 0.  1.
          2   -1    0    0  501    0  0.00000000000E+00 -0.00000000000E+00 -0.10052879782E+03  0.10052879782E+03  0.00000000000E+00 0. -1.
         25    2    1    2    0    0  0.86259835380E+02  0.42492040822E+02  0.82581533397E+02  0.17808591925E+03  0.12509417350E+03 0.  0.
          5    1    3    3  502    0  0.44377123382E+02  0.28606615111E+02 -0.27312067690E+02  0.59591013997E+02  0.41800000000E+01 0. -1.
         -5    1    3    3    0  502  0.41882711998E+02  0.13885425711E+02  0.10989360109E+03  0.11849490525E+03  0.41800000000E+01 0. -1.
        -11    1    1    2    0    0 -0.11148798926E+02  0.47446609120E+00 -0.28476721828E+02  0.30585037545E+02  0.00000000000E+00 0. -1.
         11    1    1    2    0    0 -0.75111036454E+02 -0.42966506913E+02  0.57282935933E+02  0.10377438635E+03  0.00000000000E+00 0.  1.
</event>
<event>
 7    1  0.2499014E-009  0.3664444E+03  0.7561462E-02  0.1056061E+00
         -1   -1    0    0    0  501 -0.00000000000E+00  0.00000000000E+00  0.11427969996E+04  0.11427969996E+04  0.00000000000E+00 0.  1.
          1   -1    0    0  501    0  0.00000000000E+00 -0.00000000000E+00 -0.15523046561E+03  0.15523046561E+03  0.00000000000E+00 0. -1.
         25    2    1    2    0    0  0.16451478484E+03  0.31393508504E+03  0.19112810894E+03  0.42166034922E+03  0.12508854473E+03 0.  0.
          5    1    3    3  502    0  0.57925824967E+02  0.22393034156E+03  0.85525785553E+02  0.24664211211E+03  0.41800000000E+01 0. -1.
         -5    1    3    3    0  502  0.10658895988E+03  0.90004743478E+02  0.10560232339E+03  0.17501823711E+03  0.41800000000E+01 0. -1.
        -11    1    1    2    0    0 -0.85188734606E+02 -0.23546063611E+03  0.49053476883E+03  0.55074784711E+03  0.00000000000E+00 0. -1.
         11    1    1    2    0    0 -0.79326050238E+02 -0.78474448929E+02  0.30590365627E+03  0.32561926893E+03  0.00000000000E+00 0.  1.
</event>
<event>
 7    1  0.2499014E-009  0.2669062E+03  0.7561462E-02  0.1103063E+00
          1   -1    0    0  501    0  0.00000000000E+00  0.00000000000E+00  0.13802398611E+04  0.13802398611E+04  0.00000000000E+00 0. -1.
         -1   -1    0    0    0  501 -0.00000000000E+00 -0.00000000000E+00 -0.57630874735E+02  0.57630874735E+02  0.00000000000E+00 0.  1.
         25    2    1    2    0    0  0.22954507644E+03  0.11524549755E+03  0.77808637370E+03  0.82887731206E+03  0.12508687655E+03 0.  0.
          5    1    3    3  502    0  0.18626336597E+03  0.70666788358E+02  0.41345736922E+03  0.45896874081E+03  0.41800000000E+01 0.  1.
         -5    1    3    3    0  502  0.43281710472E+02  0.44578709189E+02  0.36462900448E+03  0.36990857124E+03  0.41800000000E+01 0.  1.
        -11    1    1    2    0    0 -0.18336593086E+02  0.15384561712E+02  0.38877331188E+02  0.45654816453E+02  0.00000000000E+00 0.  1.
         11    1    1    2    0    0 -0.21120848336E+03 -0.13063005926E+03  0.50564528150E+03  0.56333860735E+03  0.00000000000E+00 0. -1.
</event>
<event>
 7    1  0.2499014E-009  0.2273752E+03  0.7561462E-02  0.1128501E+00
         -2   -1    0    0    0  501 -0.00000000000E+00  0.00000000000E+00  0.18093030516E+04  0.18093030516E+04  0.00000000000E+00 0.  1.
          2   -1    0    0  501    0  0.00000000000E+00 -0.00000000000E+00 -0.32801440115E+02  0.32801440115E+02  0.00000000000E+00 0. -1.
         25    2    1    2    0    0 -0.21526816939E+03 -0.19658320083E+02  0.10220704390E+04  0.10521414176E+04  0.12508695417E+03 0.  0.
          5    1    3    3  502    0 -0.10593750353E+03  0.37845284204E+02  0.66059509809E+03  0.67011818078E+03  0.41800000000E+01 0.  1.
         -5    1    3    3    0  502 -0.10933066586E+03 -0.57503604286E+02  0.36147534091E+03  0.38202323684E+03  0.41800000000E+01 0.  1.
        -11    1    1    2    0    0  0.78981604514E+02  0.22956986242E+02  0.15773343542E+03  0.17789028562E+03  0.00000000000E+00 0.  1.
         11    1    1    2    0    0  0.13628656488E+03 -0.32986661596E+01  0.59669773703E+03  0.61207278843E+03  0.00000000000E+00 0. -1.
</event>
<event>
 7    1  0.2499014E-009  0.9937863E+02  0.7561462E-02  0.1281608E+00
          1   -1    0    0  501    0  0.00000000000E+00  0.00000000000E+00  0.76132627971E+02  0.76132627971E+02  0.00000000000E+00 0. -1.
         -1   -1    0    0    0  501 -0.00000000000E+00 -0.00000000000E+00 -0.26656858964E+03  0.26656858964E+03  0.00000000000E+00 0.  1.
         25    2    1    2    0    0 -0.28182499549E+02  0.68184464567E+02 -0.37117013755E+02  0.14989624937E+03  0.12509132014E+03 0.  0.
          5    1    3    3  502    0 -0.26399924983E+02  0.87708192771E+02  0.16042033406E+02  0.93083308675E+02  0.41800000000E+01 0.  1.
         -5    1    3    3    0  502 -0.17825745663E+01 -0.19523728204E+02 -0.53159047161E+02  0.56812940693E+02  0.41800000000E+01 0.  1.
        -11    1    1    2    0    0  0.31718829390E+02 -0.17524731374E+02 -0.56854239470E+01  0.36681390283E+02  0.00000000000E+00 0. -1.
         11    1    1    2    0    0 -0.35363298413E+01 -0.50659733193E+02 -0.14763352396E+03  0.15612357796E+03  0.00000000000E+00 0.  1.
</event>
<event>
 7    1  0.2499014E-009  0.1805023E+03  0.7561462E-02  0.1167318E+00
          2   -1    0    0  501    0  0.00000000000E+00  0.00000000000E+00  0.57062978681E+03  0.57062978681E+03  0.00000000000E+00 0. -1.
         -2   -1    0    0    0  501 -0.00000000000E+00 -0.00000000000E+00 -0.99420834082E+02  0.99420834082E+02  0.00000000000E+00 0.  1.
         25    2    1    2    0    0 -0.94225518517E+02 -0.14507750719E+03  0.41576326768E+03  0.46736594965E+03  0.12508359089E+03 0.  0.
          5    1    3    3  502    0 -0.55119688777E+02 -0.78117836681E+02  0.86262586021E+02  0.12883820336E+03  0.41800000000E+01 0. -1.
         -5    1    3    3    0  502 -0.39105829740E+02 -0.66959670505E+02  0.32950068166E+03  0.33852774629E+03  0.41800000000E+01 0. -1.
        -11    1    1    2    0    0  0.10610421290E+03  0.12191692671E+03  0.26540731974E+02  0.16378721399E+03  0.00000000000E+00 0.  1.
         11    1    1    2    0    0 -0.11878694381E+02  0.23160580473E+02  0.28904953070E+02  0.38897457243E+02  0.00000000000E+00 0. -1.
</event>
<event>
 7    1  0.2499014E-009  0.9930832E+02  0.7561462E-02  0.1281757E+00
          1   -1    0    0  501    0  0.00000000000E+00  0.00000000000E+00  0.31773350019E+03  0.31773350019E+03  0.00000000000E+00 0. -1.
         -1   -1    0    0    0  501 -0.00000000000E+00 -0.00000000000E+00 -0.61989370590E+02  0.61989370590E+02  0.00000000000E+00 0.  1.
         25    2    1    2    0    0  0.24346728868E+00 -0.76422112157E+02  0.20151044147E+03  0.24918826259E+03  0.12509170112E+03 0.  0.
          5    1    3    3  502    0  0.25929245437E+02 -0.41576438017E+02  0.67586357290E+01  0.49639475460E+02  0.41800000000E+01 0. -1.
         -5    1    3    3    0  502 -0.25685778148E+02 -0.34845674140E+02  0.19475180574E+03  0.19954878713E+03  0.41800000000E+01 0. -1.
        -11    1    1    2    0    0  0.11771226246E+02 -0.11943876782E+02 -0.10989374948E+02  0.20049546670E+02  0.00000000000E+00 0. -1.
         11    1    1    2    0    0 -0.12014693535E+02  0.88365988938E+02  0.65223063078E+02  0.11048506152E+03  0.00000000000E+00 0.  1.
</event>
<event>
 7    1  0.2499014E-009  0.1164489E+03  0.7561462E-02  0.1249073E+00
         -1   -1    0    0    0  501 -0.00000000000E+00  0.00000000000E+00  0.71864915730E+02  0.71864915730E+02  0.00000000000E+00 0.  1.
          1   -1    0    0  501    0  0.00000000000E+00 -0.00000000000E+00 -0.20187453435E+03  0.20187453435E+03  0.00000000000E+00 0. -1.
         25    2    1    2    0    0 -0.37580245589E+01  0.54346008615E+02 -0.85661206650E+02  0.16109195848E+03  0.12508063544E+03 0.  0.
          5    1    3    3  502    0  0.32450202744E+02  0.79361079494E+02 -0.32106697430E+02  0.91648835325E+02  0.41800000000E+01 0. -1.
         -5    1    3    3    0  502 -0.36208227303E+02 -0.25015070879E+02 -0.53554509220E+02  0.69443123154E+02  0.41800000000E+01 0. -1.
        -11    1    1    2    0    0 -0.36820672848E+02 -0.23527665154E+01 -0.22271795178E+02  0.43096755327E+02  0.00000000000E+00 0.  1.
         11    1    1    2    0    0  0.40578697407E+02 -0.51993242100E+02 -0.22076616793E+02  0.69550736275E+02  0.00000000000E+00 0. -1.
</event>
<event>
 7    1  0.2499014E-009  0.2062375E+03  0.7561462E-02  0.1144581E+00
         -2   -1    0    0    0  501 -0.00000000000E+00  0.00000000000E+00  0.20197588740E+03  0.20197588740E+03  0.00000000000E+00 0.  1.
          2   -1    0    0  501    0  0.00000000000E+00 -0.00000000000E+00 -0.24829657708E+03  0.24829657708E+03  0.00000000000E+00 0. -1.
         25    2    1    2    0    0 -0.18678991986E+03  0.31621875994E+02 -0.70973511776E+02  0.23785547697E+03  0.12509025281E+03 0.  0.
          5    1    3    3  502    0 -0.10943819513E+03  0.62171984481E+02  0.37249859536E+01  0.12598976993E+03  0.41800000000E+01 0.  1.
         -5    1    3    3    0  502 -0.77351724737E+02 -0.30550108487E+02 -0.74698497729E+02  0.11186570704E+03  0.41800000000E+01 0.  1.
        -11    1    1    2    0    0  0.11284441309E+03  0.17924741406E+02 -0.14501438963E+02  0.11517573378E+03  0.00000000000E+00 0.  1.
         11    1    1    2    0    0  0.73945506770E+02 -0.49546617400E+02  0.39154261060E+02  0.97241253727E+02  0.00000000000E+00 0. -1.
</event>
<event>
 7    1  0.2499014E-009  0.2722890E+03  0.7561462E-02  0.1099977E+00
          1   -1    0    0  501    0  0.00000000000E+00  0.00000000000E+00  0.56547264167E+03  0.56547264167E+03  0.00000000000E+00 0. -1.
         -1   -1    0    0    0  501 -0.00000000000E+00 -0.00000000000E+00 -0.18472922447E+03  0.18472922447E+03  0.00000000000E+00 0.  1.
         25    2    1    2    0    0 -0.23120796597E+03  0.11072268589E+03  0.38364574541E+03  0.47806575344E+03  0.12508465112E+03 0.  0.
          5    1    3    3  502    0 -0.16589773751E+03  0.13615598688E+03  0.27831656419E+03  0.35147986340E+03  0.41800000000E+01 0. -1.
         -5    1    3    3    0  502 -0.65310228453E+02 -0.25433300994E+02  0.10532918122E+03  0.12658589003E+03  0.41800000000E+01 0. -1.
        -11    1    1    2    0    0  0.14069547021E+03 -0.44529681998E+02  0.38649173783E+02  0.15255119321E+03  0.00000000000E+00 0. -1.
         11    1    1    2    0    0  0.90512495754E+02 -0.66193003892E+02 -0.41551501993E+02  0.11958491949E+03  0.00000000000E+00 0.  1.
</event>
<event>
 7    1  0.2861294E-009  0.1897319E+03  0.7561462E-02  0.1158703E+00
          2   -1    0    0  501    0  0.00000000000E+00  0.00000000000E+00  0.86653193056E+03  0.86653193056E+03  0.00000000000E+00 0. -1.
         -2   -1    0    0    0  501 -0.00000000000E+00 -0.00000000000E+00 -0.46622196357E+02  0.46622196357E+02  0.00000000000E+00 0.  1.
         25    2    1    2    0    0 -0.16909500720E+03 -0.26923865180E+00  0.43182232670E+03  0.48032381627E+03  0.12508897908E+03 0.  0.
          5    1    3    3  502    0 -0.48560050754E+02  0.58522239434E+02  0.15649351974E+03  0.17404202124E+03  0.41800000000E+01 0. -1.
         -5    1    3    3    0  502 -0.12053495644E+03 -0.58791478086E+02  0.27532880696E+03  0.30628179502E+03  0.41800000000E+01 0. -1.
        -11    1    1    2    0    0  0.11618076499E+03  0.17692560173E+01  0.34664910639E+03  0.36560457243E+03  0.00000000000E+00 0. -1.
         11    1    1    2    0    0  0.52914242203E+02 -0.15000173655E+01  0.41438301108E+02  0.67225738216E+02  0.00000000000E+00 0.  1.
</event>
<event>
 7    1  0.2499014E-009  0.1294795E+03  0.7561462E-02  0.1228230E+00
         -4   -1    0    0    0  501 -0.00000000000E+00  0.00000000000E+00  0.48794267884E+03  0.48794267884E+03  0.00000000000E+00 0. -1.
          4   -1    0    0  501    0  0.00000000000E+00 -0.00000000000E+00 -0.63631497554E+02  0.63631497554E+02  0.00000000000E+00 0.  1.
         25    2    1    2    0    0  0.48186670278E+02 -0.86713173560E+02  0.37511957110E+03  0.40768056056E+03  0.12509043597E+03 0.  0.
          5    1    3    3  502    0 -0.29496963438E+01  0.30389668984E+02  0.92225076211E+02  0.97237697277E+02  0.41800000000E+01 0. -1.
         -5    1    3    3    0  502  0.51136366622E+02 -0.11710284254E+03  0.28289449489E+03  0.31044286328E+03  0.41800000000E+01 0. -1.
        -11    1    1    2    0    0 -0.48279471006E+01  0.21112545531E+02  0.60675379739E+02  0.64424765102E+02  0.00000000000E+00 0. -1.
         11    1    1    2    0    0 -0.43358723178E+02  0.65600628030E+02 -0.11483769557E+02  0.79468850732E+02  0.00000000000E+00 0.  1.
</event>
<event>
 7    1  0.2499014E-009  0.7359294E+02  0.7561462E-02  0.1348284E+00
          2   -1    0    0  501    0  0.00000000000E+00  0.00000000000E+00  0.72772837894E+03  0.72772837894E+03  0.00000000000E+00 0. -1.
         -2   -1    0    0    0  501 -0.00000000000E+00 -0.00000000000E+00 -0.17391250591E+02  0.17391250591E+02  0.00000000000E+00 0.  1.
         25    2    1    2    0    0 -0.14887441936E+02 -0.24207463009E+01  0.47337754774E+03  0.48985708421E+03  0.12508462856E+03 0.  0.
          5    1    3    3  502    0  0.17150645143E+02  0.80588534757E+01  0.47209668409E+01  0.19971221197E+02  0.41800000000E+01 0.  1.
         -5    1    3    3    0  502 -0.32038087079E+02 -0.10479599777E+02  0.46865658090E+03  0.46988586301E+03  0.41800000000E+01 0.  1.
        -11    1    1    2    0    0 -0.31598050773E+02  0.26701559269E+02  0.85551959733E+02  0.95029194957E+02  0.00000000000E+00 0.  1.
         11    1    1    2    0    0  0.46485492709E+02 -0.24280812968E+02  0.15140762087E+03  0.16023335037E+03  0.00000000000E+00 0. -1.
</event>
<event>
 7    1  0.2499014E-009  0.8508488E+02  0.7561462E-02  0.1315211E+00
          2   -1    0    0  501    0  0.00000000000E+00  0.00000000000E+00  0.46262004979E+02  0.46262004979E+02  0.00000000000E+00 0. -1.
         -2   -1    0    0    0  501 -0.00000000000E+00 -0.00000000000E+00 -0.29294718421E+03  0.29294718421E+03  0.00000000000E+00 0.  1.
         25    2    1    2    0    0  0.26613347533E+02  0.21908959329E+02 -0.10504166641E+03  0.16694474395E+03  0.12509405695E+03 0.  0.
          5    1    3    3  502    0 -0.23674082974E+02  0.60700703450E+02 -0.62552094296E+02  0.90417224603E+02  0.41800000000E+01 0.  1.
         -5    1    3    3    0  502  0.50287430507E+02 -0.38791744121E+02 -0.42489572111E+02  0.76527519345E+02  0.41800000000E+01 0.  1.
        -11    1    1    2    0    0 -0.13593739300E+02  0.22606136380E+01  0.10712706045E+02  0.17454575130E+02  0.00000000000E+00 0. -1.
         11    1    1    2    0    0 -0.13019608233E+02 -0.24169572967E+02 -0.15235621887E+03  0.15480987011E+03  0.00000000000E+00 0.  1.
</event>
<event>
 7    1  0.2499014E-009  0.9609631E+02  0.7561462E-02  0.1288726E+00
         -2   -1    0    0    0  501 -0.00000000000E+00  0.00000000000E+00  0.42606061802E+02  0.42606061802E+02  0.00000000000E+00 0. -1.
          2   -1    0    0  501    0  0.00000000000E+00 -0.00000000000E+00 -0.57296417824E+03  0.57296417824E+03  0.00000000000E+00 0.  1.
         25    2    1    2    0    0 -0.48386765750E+02  0.48939419567E+02 -0.11090972790E+03  0.18078716141E+03  0.12508670633E+03 0.  0.
          5    1    3    3  502    0 -0.44004331816E+02  0.54055589644E+02 -0.13686472760E+03  0.15364834543E+03  0.41800000000E+01 0.  1.
         -5    1    3    3    0  502 -0.43824339344E+01 -0.51161700766E+01  0.25954999702E+02  0.27138815983E+02  0.41800000000E+01 0.  1.
        -11    1    1    2    0    0  0.69188369075E+02 -0.94856125628E+01 -0.25249556310E+03  0.26197522143E+03  0.00000000000E+00 0.  1.
         11    1    1    2    0    0 -0.20801603324E+02 -0.39453807004E+02 -0.16695282544E+03  0.17280785720E+03  0.00000000000E+00 0. -1.
</event>
<event>
 7    1  0.2499014E-009  0.1564791E+03  0.7561462E-02  0.1192730E+00
          4   -1    0    0  501    0  0.00000000000E+00  0.00000000000E+00  0.83800725885E+02  0.83800725885E+02  0.00000000000E+00 0.  1.
         -4   -1    0    0    0  501 -0.00000000000E+00 -0.00000000000E+00 -0.33186817341E+03  0.33186817341E+03  0.00000000000E+00 0. -1.
         25    2    1    2    0    0  0.10935625690E+03 -0.40721494879E+02 -0.19473198067E+03  0.25920167394E+03  0.12509169600E+03 0.  0.
          5    1    3    3  502    0  0.10330792744E+03 -0.78238340544E+02 -0.12740800961E+03  0.18178019451E+03  0.41800000000E+01 0. -1.
         -5    1    3    3    0  502  0.60483294585E+01  0.37516845665E+02 -0.67323971061E+02  0.77421479432E+02  0.41800000000E+01 0. -1.
        -11    1    1    2    0    0 -0.92130142771E+02 -0.88846344907E+01 -0.46281136853E+02  0.10348354249E+03  0.00000000000E+00 0.  1.
         11    1    1    2    0    0 -0.17226114125E+02  0.49606129370E+02 -0.70543300025E+01  0.52983682872E+02  0.00000000000E+00 0. -1.
</event>
<event>
 7    1  0.2499014E-009  0.1160550E+03  0.7561462E-02  0.1249751E+00
         -2   -1    0    0    0  501 -0.00000000000E+00  0.00000000000E+00  0.28266502232E+02  0.28266502232E+02  0.00000000000E+00 0.  1.
          2   -1    0    0  501    0  0.00000000000E+00 -0.00000000000E+00 -0.78606967554E+03  0.78606967554E+03  0.00000000000E+00 0. -1.
         25    2    1    2    0    0 -0.62961370122E+02 -0.16439305201E+02 -0.62497722238E+03  0.64068502144E+03  0.12508550403E+03 0.  0.
          5    1    3    3  502    0 -0.52983559083E+02  0.37629426239E+02 -0.16454160097E+03  0.17695943632E+03  0.41800000000E+01 0.  1.
         -5    1    3    3    0  502 -0.99778110385E+01 -0.54068731440E+02 -0.46043562141E+03  0.46372558513E+03  0.41800000000E+01 0.  1.
        -11    1    1    2    0    0  0.52512966500E+02  0.52529829356E+02 -0.89184949211E+02  0.11606442086E+03  0.00000000000E+00 0. -1.
         11    1    1    2    0    0  0.10448403622E+02 -0.36090524155E+02 -0.43641001717E+02  0.57586735477E+02  0.00000000000E+00 0.  1.
</event>
<event>
 7    1  0.2499014E-009  0.1161953E+03  0.7561462E-02  0.1249509E+00
          1   -1    0    0  501    0  0.00000000000E+00  0.00000000000E+00  0.14400273960E+03  0.14400273960E+03  0.00000000000E+00 0.  1.
         -1   -1    0    0    0  501 -0.00000000000E+00 -0.00000000000E+00 -0.12750169682E+03  0.12750169682E+03  0.00000000000E+00 0. -1.
         25    2    1    2    0    0  0.18648629007E+02 -0.68266504243E+02 -0.34312529954E+02  0.14775957545E+03  0.12508978960E+03 0.  0.
          5    1    3    3  502    0  0.52457195933E+02 -0.47192107075E+01  0.21030364433E+02  0.56866307978E+02  0.41800000000E+01 0. -1.
         -5    1    3    3    0  502 -0.33808566927E+02 -0.63547293535E+02 -0.55342894388E+02  0.90893267476E+02  0.41800000000E+01 0. -1.
        -11    1    1    2    0    0  0.16016627146E+02 -0.12005293502E+02 -0.41842747685E+01  0.20449146010E+02  0.00000000000E+00 0. -1.
         11    1    1    2    0    0 -0.34665256153E+02  0.80271797745E+02  0.54997847507E+02  0.10329571495E+03  0.00000000000E+00 0.  1.
</event>
<event>
 7    1  0.2555908E-009  0.1897592E+03  0.7561462E-02  0.1158679E+00
         -2   -1    0    0    0  501 -0.00000000000E+00  0.00000000000E+00  0.42504875167E+02  0.42504875167E+02  0.00000000000E+00 0.  1.
          2   -1    0    0  501    0  0.00000000000E+00 -0.00000000000E+00 -0.11533090316E+04  0.11533090316E+04  0.00000000000E+00 0. -1.
         25    2    1    2    0    0 -0.12726561302E+03  0.13959354459E+03 -0.47848314973E+03  0.52941166096E+03  0.12509072002E+03 0.  0.
          5    1    3    3  502    0 -0.87926092073E+02  0.90364708487E+02 -0.43451899529E+03  0.45246105675E+03  0.41800000000E+01 0.  1.
         -5    1    3    3    0  502 -0.39339520952E+02  0.49228836099E+02 -0.43964154440E+02  0.76950604208E+02  0.41800000000E+01 0.  1.
        -11    1    1    2    0    0  0.73151948358E+02 -0.96167024880E+02 -0.52411002489E+03  0.53785743689E+03  0.00000000000E+00 0. -1.
         11    1    1    2    0    0  0.54113664667E+02 -0.43426519705E+02 -0.10821098183E+03  0.12854480895E+03  0.00000000000E+00 0.  1.
</event>
<event>
 7    1  0.2499014E-009  0.1225216E+03  0.7561462E-02  0.1238994E+00
         -2   -1    0    0    0  501 -0.00000000000E+00  0.00000000000E+00  0.80163198951E+02  0.80163198951E+02  0.00000000000E+00 0.  1.
          2   -1    0    0  501    0  0.00000000000E+00 -0.00000000000E+00 -0.33386516970E+03  0.33386516970E+03  0.00000000000E+00 0. -1.
         25    2    1    2    0    0 -0.11847886233E+03 -0.18992684606E+02 -0.18556852244E+03  0.25393292490E+03  0.12509312907E+03 0.  0.
          5    1    3    3  502    0 -0.60649713062E+02 -0.77471740499E+01 -0.22403430543E+01  0.61326160301E+02  0.41800000000E+01 0.  1.
         -5    1    3    3    0  502 -0.57829149268E+02 -0.11245510556E+02 -0.18332817938E+03  0.19260676460E+03  0.41800000000E+01 0.  1.
        -11    1    1    2    0    0  0.59360380351E+02 -0.76528040993E+01  0.76688028978E+01  0.60340953786E+02  0.00000000000E+00 0. -1.
         11    1    1    2    0    0  0.59118481979E+02  0.26645488705E+02 -0.75802251205E+02  0.99754489962E+02  0.00000000000E+00 0.  1.
</event>
<event>
 7    1  0.2499014E-009  0.8898408E+02  0.7561462E-02  0.1305331E+00
         -3   -1    0    0    0  501 -0.00000000000E+00  0.00000000000E+00  0.13963326443E+03  0.13963326443E+03  0.00000000000E+00 0.  1.
          3   -1    0    0  501    0  0.00000000000E+00 -0.00000000000E+00 -0.11021619400E+03  0.11021619400E+03  0.00000000000E+00 0. -1.
         25    2    1    2    0    0 -0.48059848611E+02  0.34993271258E+02  0.26860447489E+02  0.14108190575E+03  0.12509333479E+03 0.  0.
          5    1    3    3  502    0 -0.30052713622E+02  0.58244029852E+02  0.65226616003E+02  0.92560879666E+02  0.41800000000E+01 0.  1.
         -5    1    3    3    0  502 -0.18007134990E+02 -0.23250758594E+02 -0.38366168514E+02  0.48521026083E+02  0.41800000000E+01 0.  1.
        -11    1    1    2    0    0 -0.12221353485E+02  0.11976943994E+01  0.30675801286E+02  0.33042408167E+02  0.00000000000E+00 0.  1.
         11    1    1    2    0    0  0.60281202097E+02 -0.36190965658E+02 -0.28119178341E+02  0.75725144516E+02  0.00000000000E+00 0. -1.
</event>
<event>
 7    1  0.2499014E-009  0.1313975E+03  0.7561462E-02  0.1225397E+00
          1   -1    0    0  501    0  0.00000000000E+00  0.00000000000E+00  0.11102618178E+04  0.11102618178E+04  0.00000000000E+00 0. -1.
         -1   -1    0    0    0  501 -0.00000000000E+00 -0.00000000000E+00 -0.20364319626E+02  0.20364319626E+02  0.00000000000E+00 0.  1.
         25    2    1    2    0    0  0.73563055963E+02  0.66123772089E+02  0.69962850039E+03  0.71757344308E+03  0.12509089183E+03 0.  0.
          5    1    3    3  502    0  0.37143785516E+01  0.63319994781E+02  0.53370054987E+03  0.53747275995E+03  0.41800000000E+01 0. -1.
         -5    1    3    3    0  502  0.69848677411E+02  0.28037773074E+01  0.16592795051E+03  0.18010068313E+03  0.41800000000E+01 0. -1.
        -11    1    1    2    0    0  0.24338903936E+01 -0.51808206215E+02  0.99889207018E+02  0.11255162252E+03  0.00000000000E+00 0.  1.
         11    1    1    2    0    0 -0.75996946356E+02 -0.14315565874E+02  0.29037979078E+03  0.30050107183E+03  0.00000000000E+00 0. -1.
</event>
<event>
 7    1  0.2499014E-009  0.1679958E+03  0.7561462E-02  0.1179954E+00
          1   -1    0    0  501    0  0.00000000000E+00  0.00000000000E+00  0.67070850404E+02  0.67070850404E+02  0.00000000000E+00 0. -1.
         -1   -1    0    0    0  501 -0.00000000000E+00 -0.00000000000E+00 -0.55101685046E+03  0.55101685046E+03  0.00000000000E+00 0.  1.
         25    2    1    2    0    0 -0.10466119071E+03  0.11833120840E+03 -0.25446775161E+03  0.32458703637E+03  0.12508664137E+03 0.  0.
          5    1    3    3  502    0 -0.72690945046E+02  0.65265338043E+02 -0.24233684427E+03  0.26132002666E+03  0.41800000000E+01 0. -1.
         -5    1    3    3    0  502 -0.31970245664E+02  0.53065870362E+02 -0.12130907336E+02  0.63267009712E+02  0.41800000000E+01 0. -1.
        -11    1    1    2    0    0  0.74642507870E+01 -0.64655610624E+02 -0.12554903915E+03  0.14141649217E+03  0.00000000000E+00 0.  1.
         11    1    1    2    0    0  0.97196939923E+02 -0.53675597780E+02 -0.10392920930E+03  0.15208417233E+03  0.00000000000E+00 0. -1.
</event>
<event>
 7    1  0.2499014E-009  0.1043388E+03  0.7561462E-02  0.1271428E+00
          2   -1    0    0  501    0  0.00000000000E+00  0.00000000000E+00  0.16546557506E+03  0.16546557506E+03  0.00000000000E+00 0. -1.
         -2   -1    0    0    0  501 -0.00000000000E+00 -0.00000000000E+00 -0.90879809077E+02  0.90879809077E+02  0.00000000000E+00 0.  1.
         25    2    1    2    0    0  0.37324045231E+02 -0.65905833162E+01 -0.54028539878E+01  0.13081761641E+03  0.12509011868E+03 0.  0.
          5    1    3    3  502    0 -0.43622541948E+02  0.10663463455E+02  0.10804222346E+02  0.46377141345E+02  0.41800000000E+01 0. -1.
         -5    1    3    3    0  502  0.80946587179E+02 -0.17254046772E+02 -0.16207076334E+02  0.84440475065E+02  0.41800000000E+01 0. -1.
        -11    1    1    2    0    0 -0.30846803551E+02 -0.30307127891E+02  0.74420482326E+01  0.43879737604E+02  0.00000000000E+00 0.  1.
         11    1    1    2    0    0 -0.64772416807E+01  0.36897711207E+02  0.72546571734E+02  0.81648030120E+02  0.00000000000E+00 0. -1.
</event>
<event>
 7    1  0.2499014E-009  0.9936346E+02  0.7561462E-02  0.1281640E+00
         -2   -1    0    0    0  501 -0.00000000000E+00  0.00000000000E+00  0.80263472396E+02  0.80263472396E+02  0.00000000000E+00 0. -1.
          2   -1    0    0  501    0  0.00000000000E+00 -0.00000000000E+00 -0.22027528647E+03  0.22027528647E+03  0.00000000000E+00 0.  1.
         25    2    1    2    0    0  0.30409436688E+01 -0.54772402952E+02 -0.17798385564E+02  0.13774634667E+03  0.12509200625E+03 0.  0.
          5    1    3    3  502    0  0.95091497225E-01  0.18615004622E+02  0.39917384891E+02  0.44242484741E+02  0.41800000000E+01 0.  1.
         -5    1    3    3    0  502  0.29458521716E+01 -0.73387407575E+02 -0.57715770455E+02  0.93503861925E+02  0.41800000000E+01 0.  1.
        -11    1    1    2    0    0 -0.44461906182E+02  0.10965847413E+02 -0.39741978091E+02  0.60634443457E+02  0.00000000000E+00 0. -1.
         11    1    1    2    0    0  0.41420962513E+02  0.43806555540E+02 -0.82471450422E+02  0.10215796875E+03  0.00000000000E+00 0.  1.
</event>
<event>
 7    1  0.2499014E-009  0.1230645E+03  0.7561462E-02  0.1238126E+00
         -1   -1    0    0    0  501 -0.00000000000E+00  0.00000000000E+00  0.11946100163E+03  0.11946100163E+03  0.00000000000E+00 0.  1.
          1   -1    0    0  501    0  0.00000000000E+00 -0.00000000000E+00 -0.15228720629E+03  0.15228720629E+03  0.00000000000E+00 0. -1.
         25    2    1    2    0    0 -0.41853752089E+02 -0.71821985919E+02 -0.14005814691E+02  0.15084260737E+03  0.12508874901E+03 0.  0.
          5    1    3    3  502    0  0.28083722294E+02  0.19952359260E+02 -0.20231244715E+01  0.34761437406E+02  0.41800000000E+01 0. -1.
         -5    1    3    3    0  502 -0.69937474383E+02 -0.91774345180E+02 -0.11982690220E+02  0.11608116997E+03  0.41800000000E+01 0. -1.
        -11    1    1    2    0    0  0.25160818650E+02  0.32251384316E+01 -0.39852358930E+02  0.47240648020E+02  0.00000000000E+00 0. -1.
         11    1    1    2    0    0  0.16692933439E+02  0.68596847488E+02  0.21031968958E+02  0.73664952524E+02  0.00000000000E+00 0.  1.
</event>
<event>
 7    1  0.2499014E-009  0.1205688E+03  0.7561462E-02  0.1242162E+00
          2   -1    0    0  501    0  0.00000000000E+00  0.00000000000E+00  0.86594509115E+03  0.86594509115E+03  0.00000000000E+00 0. -1.
         -2   -1    0    0    0  501 -0.00000000000E+00 -0.00000000000E+00 -0.17615495381E+02  0.17615495381E+02  0.00000000000E+00 0.  1.
         25    2    1    2    0    0 -0.26649006687E+02 -0.53049595798E+02  0.55478140338E+03  0.57179914952E+03  0.12508969857E+03 0.  0.
          5    1    3    3  502    0 -0.13051514443E+02  0.40041941783E+02  0.21953051957E+03  0.22357285290E+03  0.41800000000E+01 0.  1.
         -5    1    3    3    0  502 -0.13597492245E+02 -0.93091537581E+02  0.33525088381E+03  0.34822629662E+03  0.41800000000E+01 0.  1.
        -11    1    1    2    0    0  0.26986008514E+02 -0.18738835456E+02  0.80636248886E+02  0.87072344887E+02  0.00000000000E+00 0.  1.
         11    1    1    2    0    0 -0.33700182738E+00  0.71788431254E+02  0.21291194350E+03  0.22468909212E+03  0.00000000000E+00 0. -1.
</event>
<event>
 7    1  0.2499014E-009  0.8044797E+02  0.7561462E-02  0.1327785E+00
         -1   -1    0    0    0  501 -0.00000000000E+00  0.00000000000E+00  0.95267844307E+02  0.95267844307E+02  0.00000000000E+00 0.  1.
          1   -1    0    0  501    0  0.00000000000E+00 -0.00000000000E+00 -0.18476394231E+03  0.18476394231E+03  0.00000000000E+00 0. -1.
         25    2    1    2    0    0 -0.23412667759E+02 -0.22554536262E+02 -0.12125894254E+03  0.17722274286E+03  0.12508920547E+03 0.  0.
          5    1    3    3  502    0 -0.99250001514E+01  0.32957660763E+02  0.82252225347E+01  0.35634810463E+02  0.41800000000E+01 0.  1.
         -5    1    3    3    0  502 -0.13487667608E+02 -0.55512197025E+02 -0.12948416507E+03  0.14158793240E+03  0.41800000000E+01 0.  1.
        -11    1    1    2    0    0  0.24804603754E+02  0.42360563019E+02  0.54013831829E+02  0.72987531096E+02  0.00000000000E+00 0.  1.
         11    1    1    2    0    0 -0.13919359948E+01 -0.19806026756E+02 -0.22250987292E+02  0.29821512657E+02  0.00000000000E+00 0. -1.
</event>
<event>
 7    1  0.3808154E-009  0.8807124E+02  0.7561462E-02  0.1307591E+00
          2   -1    0    0  501    0  0.00000000000E+00  0.00000000000E+00  0.89962373569E+03  0.89962373569E+03  0.00000000000E+00 0. -1.
         -2   -1    0    0    0  501 -0.00000000000E+00 -0.00000000000E+00 -0.16587389630E+02  0.16587389630E+02  0.00000000000E+00 0.  1.
         25    2    1    2    0    0  0.30244124067E+01  0.52929351515E+01  0.70376843745E+03  0.71482377038E+03  0.12508335985E+03 0.  0.
          5    1    3    3  502    0 -0.32575152452E+02  0.27856253208E+02  0.91885987667E+02  0.10147718231E+03  0.41800000000E+01 0. -1.
         -5    1    3    3    0  502  0.35599564859E+02 -0.22563318056E+02  0.61188244978E+03  0.61334658807E+03  0.41800000000E+01 0. -1.
        -11    1    1    2    0    0 -0.57273693504E+01 -0.47794112431E+02  0.11005985042E+03  0.12012597811E+03  0.00000000000E+00 0. -1.
         11    1    1    2    0    0  0.27029569437E+01  0.42501177279E+02  0.69208058192E+02  0.81261376835E+02  0.00000000000E+00 0.  1.
</event>
<event>
 7    1  0.2499014E-009  0.5210469E+02  0.7561462E-02  0.1434309E+00
          2   -1    0    0  501    0  0.00000000000E+00  0.00000000000E+00  0.18413344523E+03  0.18413344523E+03  0.00000000000E+00 0. -1.
         -2   -1    0    0    0  501 -0.00000000000E+00 -0.00000000000E+00 -0.11261159600E+03  0.11261159600E+03  0.00000000000E+00 0.  1.
         25    2    1    2    0    0 -0.59869289538E+01 -0.17981742879E+02  0.13422013195E+03  0.18444806566E+03  0.12508740428E+03 0.  0.
          5    1    3    3  502    0  0.47519998637E+01  0.15610156200E+02 -0.20025006699E+02  0.26167379934E+02  0.41800000000E+01 0.  1.
         -5    1    3    3    0  502 -0.10738928817E+02 -0.33591899079E+02  0.15424513865E+03  0.15828068572E+03  0.41800000000E+01 0.  1.
        -11    1    1    2    0    0 -0.19574162302E+02 -0.16180680502E+01 -0.75217093073E+02  0.77739160430E+02  0.00000000000E+00 0.  1.
         11    1    1    2    0    0  0.25561091256E+02  0.19599810930E+02  0.12518810346E+02  0.34557815139E+02  0.00000000000E+00 0. -1.
</event>
<event>
 7    1  0.2499014E-009  0.2017872E+03  0.7561462E-02  0.1148240E+00
         -1   -1    0    0    0  501 -0.00000000000E+00  0.00000000000E+00  0.63436472600E+03  0.63436472600E+03  0.00000000000E+00 0.  1.
          1   -1    0    0  501    0  0.00000000000E+00 -0.00000000000E+00 -0.70987696683E+02  0.70987696683E+02  0.00000000000E+00 0. -1.
         25    2    1    2    0    0  0.16955217764E+03 -0.47820141514E+02  0.35612931463E+03  0.41654639755E+03  0.12509238864E+03 0.  0.
          5    1    3    3  502    0 -0.13227751338E+02 -0.15063910896E+01  0.45575203959E+00  0.13961473042E+02  0.41800000000E+01 0.  1.
         -5    1    3    3    0  502  0.18277992898E+03 -0.46313750425E+02  0.35567356259E+03  0.40258492451E+03  0.41800000000E+01 0.  1.
        -11    1    1    2    0    0 -0.15658503683E+03  0.54197210142E+01  0.16563997862E+03  0.22800186327E+03  0.00000000000E+00 0.  1.
         11    1    1    2    0    0 -0.12967140813E+02  0.42400420500E+02  0.41607736060E+02  0.60804161860E+02  0.00000000000E+00 0. -1.
</event>
<event>
 7    1  0.2499014E-009  0.1302597E+03  0.7561462E-02  0.1227071E+00
          1   -1    0    0  501    0  0.00000000000E+00  0.00000000000E+00  0.29525068119E+03  0.29525068119E+03  0.00000000000E+00 0. -1.
         -1   -1    0    0    0  501 -0.00000000000E+00 -0.00000000000E+00 -0.82297178662E+02  0.82297178662E+02  0.00000000000E+00 0.  1.
         25    2    1    2    0    0  0.66819330839E+02  0.85142330127E+02  0.99482357884E+02  0.19302462667E+03  0.12509087743E+03 0.  0.
          5    1    3    3  502    0 -0.22635479400E+01  0.51883239235E+02  0.10377432920E+03  0.11611880969E+03  0.41800000000E+01 0. -1.
         -5    1    3    3    0  502  0.69082878779E+02  0.33259090893E+02 -0.42919713140E+01  0.76905816979E+02  0.41800000000E+01 0. -1.
        -11    1    1    2    0    0  0.15780201004E+02 -0.50239342546E+01  0.50927487982E+02  0.53552438706E+02  0.00000000000E+00 0. -1.
         11    1    1    2    0    0 -0.82599531843E+02 -0.80118395873E+02  0.62543656661E+02  0.13097079448E+03  0.00000000000E+00 0.  1.
</event>
<event>
 7    1  0.2499014E-009  0.1090520E+03  0.7561462E-02  0.1262336E+00
          2   -1    0    0  501    0  0.00000000000E+00  0.00000000000E+00  0.35325201149E+03  0.35325201149E+03  0.00000000000E+00 0. -1.
         -2   -1    0    0    0  501 -0.00000000000E+00 -0.00000000000E+00 -0.39238479670E+02  0.39238479670E+02  0.00000000000E+00 0.  1.
         25    2    1    2    0    0 -0.34436177176E+02  0.13098566211E+02  0.23495128627E+03  0.26871255889E+03  0.12508760789E+03 0.  0.
          5    1    3    3  502    0 -0.12206417474E+02  0.65666186691E+02  0.84802900452E+02  0.10802800113E+03  0.41800000000E+01 0.  1.
         -5    1    3    3    0  502 -0.22229759702E+02 -0.52567620480E+02  0.15014838582E+03  0.16068455777E+03  0.41800000000E+01 0.  1.
        -11    1    1    2    0    0  0.62015956452E+02  0.28761452477E+01  0.42302406661E+02  0.75124860568E+02  0.00000000000E+00 0.  1.
         11    1    1    2    0    0 -0.27579779276E+02 -0.15974711458E+02  0.36759838884E+02  0.48653071700E+02  0.00000000000E+00 0. -1.
</event>
<event>
 7    1  0.2499014E-009  0.1451944E+03  0.7561462E-02  0.1206506E+00
         -1   -1    0    0    0  501 -0.00000000000E+00  0.00000000000E+00  0.78479878816E+02  0.78479878816E+02  0.00000000000E+00 0.  1.
          1   -1    0    0  501    0  0.00000000000E+00 -0.00000000000E+00 -0.35180813302E+03  0.35180813302E+03  0.00000000000E+00 0. -1.
         25    2    1    2    0    0  0.11164689205E+03  0.35671046349E+02 -0.20134179531E+03  0.26443013030E+03  0.12508926100E+03 0.  0.
          5    1    3    3  502    0  0.51781390423E+02  0.80669374683E+02 -0.12256661380E+03  0.15565637675E+03  0.41800000000E+01 0.  1.
         -5    1    3    3    0  502  0.59865501631E+02 -0.44998328333E+02 -0.78775181509E+02  0.10877375354E+03  0.41800000000E+01 0.  1.
        -11    1    1    2    0    0 -0.47687340843E+02 -0.27238164060E+02  0.15587003867E+02  0.57087255562E+02  0.00000000000E+00 0.  1.
         11    1    1    2    0    0 -0.63959551212E+02 -0.84328822892E+01 -0.87573462758E+02  0.10877062597E+03  0.00000000000E+00 0. -1.
</event>
<event>
 7    1  0.2499014E-009  0.9111249E+02  0.7561462E-02  0.1300180E+00
         -2   -1    0    0    0  501 -0.00000000000E+00  0.00000000000E+00  0.14653853020E+02  0.14653853020E+02  0.00000000000E+00 0.  1.
          2   -1    0    0  501    0  0.00000000000E+00 -0.00000000000E+00 -0.88300315905E+03  0.88300315905E+03  0.00000000000E+00 0. -1.
         25    2    1    2    0    0  0.69358721578E+00  0.16974680902E+02 -0.64966935000E+03  0.66182041407E+03  0.12508946918E+03 0.  0.
          5    1    3    3  502    0 -0.53526061588E+02  0.27027010007E+02 -0.47013087663E+03  0.47395781679E+03  0.41800000000E+01 0. -1.
         -5    1    3    3    0  502  0.54219648804E+02 -0.10052329105E+02 -0.17953847337E+03  0.18786259728E+03  0.41800000000E+01 0. -1.
        -11    1    1    2    0    0  0.25426805672E+02  0.11732476292E+02 -0.22693328740E+02  0.36043870713E+02  0.00000000000E+00 0. -1.
         11    1    1    2    0    0 -0.26120392888E+02 -0.28707157194E+02 -0.19598662730E+03  0.19979272729E+03  0.00000000000E+00 0.  1.
</event>
<event>
 7    1  0.2499014E-009  0.1100351E+03  0.7561462E-02  0.1260505E+00
         -2   -1    0    0    0  501 -0.00000000000E+00  0.00000000000E+00  0.18010478797E+03  0.18010478797E+03  0.00000000000E+00 0.  1.
          2   -1    0    0  501    0  0.00000000000E+00 -0.00000000000E+00 -0.97792080702E+02  0.97792080702E+02  0.00000000000E+00 0. -1.
         25    2    1    2    0    0 -0.48383117912E+02  0.52795348351E+02  0.24869824905E+02  0.14626637424E+03  0.12508824540E+03 0.  0.
          5    1    3    3  502    0 -0.40657352097E+02 -0.32174385925E+02  0.31121335904E+02  0.60615355626E+02  0.41800000000E+01 0. -1.
         -5    1    3    3    0  502 -0.77257658144E+01  0.84969734276E+02 -0.62515109993E+01  0.85651018617E+02  0.41800000000E+01 0. -1.
        -11    1    1    2    0    0  0.11708371603E+02  0.61370258417E+01  0.60718634913E+02  0.62140982270E+02  0.00000000000E+00 0.  1.
         11    1    1    2    0    0  0.36674746309E+02 -0.58932374192E+02 -0.32757525535E+01  0.69489512155E+02  0.00000000000E+00 0. -1.
</event>
<event>
 7    1  0.3361235E-009  0.1191330E+03  0.7561462E-02  0.1244534E+00
         -1   -1    0    0    0  501 -0.00000000000E+00  0.00000000000E+00  0.27381786145E+02  0.27381786145E+02  0.00000000000E+00 0. -1.
          1   -1    0    0  501    0  0.00000000000E+00 -0.00000000000E+00 -0.65775052439E+03  0.65775052439E+03  0.00000000000E+00 0.  1.
         25    2    1    2    0    0 -0.12157585602E+01 -0.71169309544E+02 -0.26238720286E+03  0.29926763589E+03  0.12509006745E+03 0.  0.
          5    1    3    3  502    0  0.55506878124E+02 -0.26999936552E+02 -0.67807607554E+02  0.91789727830E+02  0.41800000000E+01 0. -1.
         -5    1    3    3    0  502 -0.56722636685E+02 -0.44169372991E+02 -0.19457959530E+03  0.20747790806E+03  0.41800000000E+01 0. -1.
        -11    1    1    2    0    0  0.31872976905E+02  0.60926792207E+01 -0.48293900995E+02  0.58183402017E+02  0.00000000000E+00 0. -1.
         11    1    1    2    0    0 -0.30657218345E+02  0.65076630323E+02 -0.31968763439E+03  0.32768127263E+03  0.00000000000E+00 0.  1.
</event>
<event>
 7    1  0.2499014E-009  0.1031763E+03  0.7561462E-02  0.1273755E+00
         -3   -1    0    0    0  501 -0.00000000000E+00  0.00000000000E+00  0.40839793881E+03  0.40839793881E+03  0.00000000000E+00 0.  1.
          3   -1    0    0  501    0  0.00000000000E+00 -0.00000000000E+00 -0.39874074427E+02  0.39874074427E+02  0.00000000000E+00 0. -1.
         25    2    1    2    0    0  0.30113247868E+02  0.51501089126E+02  0.19743400153E+03  0.24121952614E+03  0.12508998741E+03 0.  0.
          5    1    3    3  502    0 -0.43838909173E+02  0.15173633068E+02  0.32477705923E+02  0.56783473652E+02  0.41800000000E+01 0. -1.
         -5    1    3    3    0  502  0.73952157041E+02  0.36327456058E+02  0.16495629561E+03  0.18443605249E+03  0.41800000000E+01 0. -1.
        -11    1    1    2    0    0  0.17565664211E+01 -0.44640776032E+02  0.16853155350E+03  0.17435242739E+03  0.00000000000E+00 0.  1.
         11    1    1    2    0    0 -0.31869814289E+02 -0.68603130942E+01  0.25583093488E+01  0.32700059714E+02  0.00000000000E+00 0. -1.
</event>
<event>
 7    1  0.2499014E-009  0.1610300E+03  0.7561462E-02  0.1187539E+00
          1   -1    0    0  501    0  0.00000000000E+00  0.00000000000E+00  0.21749108266E+03  0.21749108266E+03  0.00000000000E+00 0. -1.
         -1   -1    0    0    0  501 -0.00000000000E+00 -0.00000000000E+00 -0.15195431708E+03  0.15195431708E+03  0.00000000000E+00 0.  1.
         25    2    1    2    0    0 -0.11932775752E+03  0.21435223079E+02  0.11758277318E+03  0.21017063382E+03  0.12508958497E+03 0.  0.
          5    1    3    3  502    0 -0.13451781749E+03 -0.13380715143E+02  0.99435695947E+02  0.16786606801E+03  0.41800000000E+01 0. -1.
         -5    1    3    3    0  502  0.15190059971E+02  0.34815938221E+02  0.18147077234E+02  0.42304565809E+02  0.41800000000E+01 0. -1.
        -11    1    1    2    0    0  0.69252558394E+00 -0.29670231177E+02 -0.21036092806E+02  0.36377457447E+02  0.00000000000E+00 0. -1.
         11    1    1    2    0    0  0.11863523194E+03  0.82350080979E+01 -0.31009914791E+02  0.12289730847E+03  0.00000000000E+00 0.  1.
</event>
<event>
 7    1  0.2631581E-009  0.1014577E+03  0.7561462E-02  0.1277260E+00
          1   -1    0    0  501    0  0.00000000000E+00  0.00000000000E+00  0.23238524844E+03  0.23238524844E+03  0.00000000000E+00 0. -1.
         -1   -1    0    0    0  501 -0.00000000000E+00 -0.00000000000E+00 -0.82309203041E+02  0.82309203041E+02  0.00000000000E+00 0.  1.
         25    2    1    2    0    0  0.21620313580E+02  0.13404944855E+02  0.17534386237E+03  0.21688626140E+03  0.12508816813E+03 0.  0.
          5    1    3    3  502    0 -0.10711505890E+02  0.65316621288E+02  0.93393416816E+02  0.11454606095E+03  0.41800000000E+01 0. -1.
         -5    1    3    3    0  502  0.32331819471E+02 -0.51911676432E+02  0.81950445555E+02  0.10234020044E+03  0.41800000000E+01 0. -1.
        -11    1    1    2    0    0  0.25847254329E+02 -0.99692220300E+01 -0.39398137408E+02  0.48163047822E+02  0.00000000000E+00 0.  1.
         11    1    1    2    0    0 -0.47467567910E+02 -0.34357228253E+01  0.14130320435E+02  0.49645142262E+02  0.00000000000E+00 0. -1.
</event>
<event>
 7    1  0.2499014E-009  0.1041856E+03  0.7561462E-02  0.1271733E+00
         -2   -1    0    0    0  501 -0.00000000000E+00  0.00000000000E+00  0.31339290248E+02  0.31339290248E+02  0.00000000000E+00 0.  1.
          2   -1    0    0  501    0  0.00000000000E+00 -0.00000000000E+00 -0.41293574098E+03  0.41293574098E+03  0.00000000000E+00 0. -1.
         25    2    1    2    0    0  0.17458152538E+02 -0.31361459004E+02 -0.20727668592E+03  0.24475018884E+03  0.12510276660E+03 0.  0.
          5    1    3    3  502    0  0.30500455947E+02  0.33215773320E+02 -0.26903859768E+02  0.52676897029E+02  0.41800000000E+01 0. -1.
         -5    1    3    3    0  502 -0.13042303410E+02 -0.64577232324E+02 -0.18037282616E+03  0.19207329181E+03  0.41800000000E+01 0. -1.
        -11    1    1    2    0    0  0.24538959385E+02  0.46376640646E+02 -0.93614175379E+02  0.10731526992E+03  0.00000000000E+00 0. -1.
         11    1    1    2    0    0 -0.41997111922E+02 -0.15015181642E+02 -0.80705589427E+02  0.92209572466E+02  0.00000000000E+00 0.  1.
</event>
<event>
 7    1  0.2499014E-009  0.4481933E+03  0.7561462E-02  0.1028262E+00
         -2   -1    0    0    0  501 -0.00000000000E+00  0.00000000000E+00  0.12195426498E+03  0.12195426498E+03  0.00000000000E+00 0.  1.
          2   -1    0    0  501    0  0.00000000000E+00 -0.00000000000E+00 -0.17248022272E+04  0.17248022272E+04  0.00000000000E+00 0. -1.
         25    2    1    2    0    0 -0.13879525974E+03  0.42202496474E+03 -0.74709756578E+03  0.87816386404E+03  0.12509118398E+03 0.  0.
          5    1    3    3  502    0 -0.34210893959E+02  0.12844394795E+03 -0.12575792117E+03  0.18303212879E+03  0.41800000000E+01 0.  1.
         -5    1    3    3    0  502 -0.10458436578E+03  0.29358101679E+03 -0.62133964461E+03  0.69513173525E+03  0.41800000000E+01 0.  1.
        -11    1    1    2    0    0  0.90714625309E+02 -0.14862420243E+03 -0.37498802176E+03  0.41344203131E+03  0.00000000000E+00 0. -1.
         11    1    1    2    0    0  0.48080634431E+02 -0.27340076232E+03 -0.48076237464E+03  0.55515059679E+03  0.00000000000E+00 0.  1.
</event>
<event>
 7    1  0.2499014E-009  0.1255262E+03  0.7561462E-02  0.1234249E+00
          1   -1    0    0  501    0  0.00000000000E+00  0.00000000000E+00  0.22475399186E+03  0.22475399186E+03  0.00000000000E+00 0. -1.
         -1   -1    0    0    0  501 -0.00000000000E+00 -0.00000000000E+00 -0.92453286616E+02  0.92453286616E+02  0.00000000000E+00 0.  1.
         25    2    1    2    0    0  0.72542389012E+02 -0.27660308783E+02  0.12762298841E+03  0.19483898544E+03  0.12508841749E+03 0.  0.
          5    1    3    3  502    0 -0.29617838488E+02 -0.32886872950E+02  0.45276975716E+02  0.63452657147E+02  0.41800000000E+01 0.  1.
         -5    1    3    3    0  502  0.10216022750E+03  0.52265641668E+01  0.82346012693E+02  0.13138632829E+03  0.41800000000E+01 0.  1.
        -11    1    1    2    0    0 -0.73193364112E+01  0.37543839892E+02 -0.29282548198E+02  0.48172401106E+02  0.00000000000E+00 0.  1.
         11    1    1    2    0    0 -0.65223052601E+02 -0.98835311096E+01  0.33960265030E+02  0.74195891926E+02  0.00000000000E+00 0. -1.
</event>
<event>
 7    1  0.2499014E-009  0.1284622E+03  0.7561462E-02  0.1229756E+00
          2   -1    0    0  501    0  0.00000000000E+00  0.00000000000E+00  0.49247658671E+03  0.49247658671E+03  0.00000000000E+00 0. -1.
         -2   -1    0    0    0  501 -0.00000000000E+00 -0.00000000000E+00 -0.53388331316E+02  0.53388331316E+02  0.00000000000E+00 0.  1.
         25    2    1    2    0    0  0.83277714186E+02 -0.66083268506E+02  0.14313658113E+03  0.21780021527E+03  0.12508667738E+03 0.  0.
          5    1    3    3  502    0  0.80874658430E+02 -0.92931924813E+02  0.74715778713E+02  0.14414219720E+03  0.41800000000E+01 0.  1.
         -5    1    3    3    0  502  0.24030557560E+01  0.26848656307E+02  0.68420802417E+02  0.73658018069E+02  0.41800000000E+01 0.  1.
        -11    1    1    2    0    0 -0.24504953182E+02  0.17254863081E+02  0.92645582245E+01  0.31369652047E+02  0.00000000000E+00 0.  1.
         11    1    1    2    0    0 -0.58772761004E+02  0.48828405424E+02  0.28668711604E+03  0.29669505071E+03  0.00000000000E+00 0. -1.
</event>
<event>
 7    1  0.2499014E-009  0.1142006E+03  0.7561462E-02  0.1252983E+00
         -1   -1    0    0    0  501 -0.00000000000E+00  0.00000000000E+00  0.13051632161E+03  0.13051632161E+03  0.00000000000E+00 0.  1.
          1   -1    0    0  501    0  0.00000000000E+00 -0.00000000000E+00 -0.20041744307E+03  0.20041744307E+03  0.00000000000E+00 0. -1.
         25    2    1    2    0    0  0.11966886607E+02 -0.86767351329E+02  0.27581841642E+02  0.15517751098E+03  0.12509005674E+03 0.  0.
          5    1    3    3  502    0  0.29595744755E+02 -0.61886331116E+01 -0.38693281761E+02  0.49283361704E+02  0.41800000000E+01 0. -1.
         -5    1    3    3    0  502 -0.17628858148E+02 -0.80578718217E+02  0.66275123403E+02  0.10589414928E+03  0.41800000000E+01 0. -1.
        -11    1    1    2    0    0  0.31946929311E+02  0.38638385093E+02 -0.98578242294E+02  0.11059476004E+03  0.00000000000E+00 0. -1.
         11    1    1    2    0    0 -0.43913815917E+02  0.48128966236E+02  0.10952791976E+01  0.65161493659E+02  0.00000000000E+00 0.  1.
</event>
<event>
 7    1  0.2499014E-009  0.6124517E+02  0.7561462E-02  0.1392679E+00
         -2   -1    0    0    0  501 -0.00000000000E+00  0.00000000000E+00  0.55097541575E+02  0.55097541575E+02  0.00000000000E+00 0.  1.
          2   -1    0    0  501    0  0.00000000000E+00 -0.00000000000E+00 -0.27285893036E+03  0.27285893036E+03  0.00000000000E+00 0. -1.
         25    2    1    2    0    0 -0.38482209112E+02  0.27075912900E+02 -0.16680220006E+03  0.21373966941E+03  0.12509071451E+03 0.  0.
          5    1    3    3  502    0 -0.80852897314E+01  0.39407554705E+01  0.20373784475E+02  0.22659765170E+02  0.41800000000E+01 0.  1.
         -5    1    3    3    0  502 -0.30396919381E+02  0.23135157430E+02 -0.18717598453E+03  0.19107990424E+03  0.41800000000E+01 0.  1.
        -11    1    1    2    0    0  0.51807893234E+02 -0.30846331087E+02  0.11421044502E+01  0.60306370687E+02  0.00000000000E+00 0.  1.
         11    1    1    2    0    0 -0.13325684122E+02  0.37704181872E+01 -0.52101293176E+02  0.53910431840E+02  0.00000000000E+00 0. -1.
</event>
<event>
 7    1  0.2499014E-009  0.1088255E+03  0.7561462E-02  0.1262761E+00
          1   -1    0    0  501    0  0.00000000000E+00  0.00000000000E+00  0.12443290825E+03  0.12443290825E+03  0.00000000000E+00 0. -1.
         -1   -1    0    0    0  501 -0.00000000000E+00 -0.00000000000E+00 -0.12695134890E+03  0.12695134890E+03  0.00000000000E+00 0.  1.
         25    2    1    2    0    0 -0.53300630684E+02  0.31243066282E+02  0.18738246709E+02  0.14076758529E+03  0.12508918720E+03 0.  0.
          5    1    3    3  502    0  0.34720973129E+02  0.26841186141E+02 -0.14613460107E+02  0.46443738703E+02  0.41800000000E+01 0.  1.
         -5    1    3    3    0  502 -0.88021603812E+02  0.44018801411E+01  0.33351706815E+02  0.94323846582E+02  0.41800000000E+01 0.  1.
        -11    1    1    2    0    0 -0.13038271550E+02 -0.42255155563E+01 -0.35082695453E+02  0.37664930997E+02  0.00000000000E+00 0.  1.
         11    1    1    2    0    0  0.66338902233E+02 -0.27017550726E+02  0.13826008092E+02  0.72951740874E+02  0.00000000000E+00 0. -1.
</event>
<event>
 7    1  0.2499014E-009  0.1061052E+03  0.7561462E-02  0.1267957E+00
         -2   -1    0    0    0  501 -0.00000000000E+00  0.00000000000E+00  0.30183315021E+02  0.30183315021E+02  0.00000000000E+00 0.  1.
          2   -1    0    0  501    0  0.00000000000E+00 -0.00000000000E+00 -0.48749122184E+03  0.48749122184E+03  0.00000000000E+00 0. -1.
         25    2    1    2    0    0  0.27797582601E+02  0.31106196321E+02 -0.31829323080E+03  0.34452677795E+03  0.12509124232E+03 0.  0.
          5    1    3    3  502    0 -0.40102118963E+02 -0.20419825682E+02 -0.13442736298E+03  0.14182149888E+03  0.41800000000E+01 0.  1.
         -5    1    3    3    0  502  0.67899701564E+02  0.51526022003E+02 -0.18386586782E+03  0.20270527907E+03  0.41800000000E+01 0.  1.
        -11    1    1    2    0    0 -0.33941009088E+02 -0.50772440611E+02 -0.13977018193E+03  0.15253044476E+03  0.00000000000E+00 0. -1.
         11    1    1    2    0    0  0.61434264865E+01  0.19666244290E+02  0.75550590560E+00  0.20617314147E+02  0.00000000000E+00 0.  1.
</event>
<event>
 7    1  0.2499014E-009  0.1068862E+03  0.7561462E-02  0.1266447E+00
         -2   -1    0    0    0  501 -0.00000000000E+00  0.00000000000E+00  0.43904018490E+02  0.43904018490E+02  0.00000000000E+00 0.  1.
          2   -1    0    0  501    0  0.00000000000E+00 -0.00000000000E+00 -0.44366208724E+03  0.44366208724E+03  0.00000000000E+00 0. -1.
         25    2    1    2    0    0  0.66781670176E+02 -0.49961996717E+02 -0.21658996628E+03  0.26365278799E+03  0.12508231903E+03 0.  0.
          5    1    3    3  502    0  0.42092292865E+01 -0.65595701319E+01  0.16326381709E+02  0.18567948492E+02  0.41800000000E+01 0. -1.
         -5    1    3    3    0  502  0.62572440890E+02 -0.43402426585E+02 -0.23291634799E+03  0.24508483950E+03  0.41800000000E+01 0. -1.
        -11    1    1    2    0    0 -0.14882433085E+02 -0.29910730496E+02 -0.52011133951E+02  0.61816637471E+02  0.00000000000E+00 0. -1.
         11    1    1    2    0    0 -0.51899237091E+02  0.79872727213E+02 -0.13115696852E+03  0.16209668027E+03  0.00000000000E+00 0.  1.
</event>
<event>
 7    1  0.2499014E-009  0.2271597E+03  0.7561462E-02  0.1128655E+00
         -2   -1    0    0    0  501 -0.00000000000E+00  0.00000000000E+00  0.11011995759E+03  0.11011995759E+03  0.00000000000E+00 0.  1.
          2   -1    0    0  501    0  0.00000000000E+00 -0.00000000000E+00 -0.56823971724E+03  0.56823971724E+03  0.00000000000E+00 0. -1.
         25    2    1    2    0    0  0.19394422908E+03  0.11591995545E+03 -0.19770879108E+03  0.32525052968E+03  0.12508933177E+03 0.  0.
          5    1    3    3  502    0  0.17051880799E+03  0.95686305456E+02 -0.94101016512E+02  0.21703687852E+03  0.41800000000E+01 0.  1.
         -5    1    3    3    0  502  0.23425421086E+02  0.20233649989E+02 -0.10360777457E+03  0.10821365115E+03  0.41800000000E+01 0.  1.
        -11    1    1    2    0    0 -0.15880116103E+03 -0.82243840961E+02 -0.15364806809E+03  0.23577444083E+03  0.00000000000E+00 0. -1.
         11    1    1    2    0    0 -0.35143068053E+02 -0.33676114485E+02 -0.10676290048E+03  0.11733470432E+03  0.00000000000E+00 0.  1.
</event>
<event>
 7    1  0.2499014E-009  0.9123572E+02  0.7561462E-02  0.1299887E+00
          2   -1    0    0  501    0  0.00000000000E+00  0.00000000000E+00  0.21599242674E+03  0.21599242674E+03  0.00000000000E+00 0.  1.
         -2   -1    0    0    0  501 -0.00000000000E+00 -0.00000000000E+00 -0.62385753645E+02  0.62385753645E+02  0.00000000000E+00 0. -1.
         25    2    1    2    0    0 -0.10924917680E+02  0.15364053809E+02  0.45894565261E+02  0.13457281450E+03  0.12509245903E+03 0.  0.
          5    1    3    3  502    0 -0.51475243083E+02 -0.72632302973E+01  0.65728316797E+02  0.83905537325E+02  0.41800000000E+01 0. -1.
         -5    1    3    3    0  502  0.40550325403E+02  0.22627284106E+02 -0.19833751536E+02  0.50667277174E+02  0.41800000000E+01 0. -1.
        -11    1    1    2    0    0  0.14237122126E+02 -0.48421715027E+02  0.28625742539E+02  0.58024057670E+02  0.00000000000E+00 0. -1.
         11    1    1    2    0    0 -0.33122044451E+01  0.33057661219E+02  0.79086365299E+02  0.85781308219E+02  0.00000000000E+00 0.  1.
</event>
<event>
 7    1  0.2499014E-009  0.1041542E+03  0.7561462E-02  0.1271795E+00
         -2   -1    0    0    0  501 -0.00000000000E+00  0.00000000000E+00  0.17925290416E+02  0.17925290416E+02  0.00000000000E+00 0.  1.
          2   -1    0    0  501    0  0.00000000000E+00 -0.00000000000E+00 -0.82394922702E+03  0.82394922702E+03  0.00000000000E+00 0. -1.
         25    2    1    2    0    0  0.43811844315E+02 -0.22536840103E+02 -0.36754536442E+03  0.39136294566E+03  0.12509186010E+03 0.  0.
          5    1    3    3  502    0 -0.19683698430E+02 -0.36883014157E+02 -0.42223670834E+02  0.59566059933E+02  0.41800000000E+01 0. -1.
         -5    1    3    3    0  502  0.63495542745E+02  0.14346174055E+02 -0.32532169359E+03  0.33179688573E+03  0.41800000000E+01 0. -1.
        -11    1    1    2    0    0 -0.16740748874E+02  0.55753304154E+02 -0.20370073349E+03  0.21185531010E+03  0.00000000000E+00 0.  1.
         11    1    1    2    0    0 -0.27071095441E+02 -0.33216464051E+02 -0.23477783870E+03  0.23865626167E+03  0.00000000000E+00 0. -1.
</event>
<event>
 7    1  0.2499014E-009  0.1605345E+03  0.7561462E-02  0.1188095E+00
         -1   -1    0    0    0  501 -0.00000000000E+00  0.00000000000E+00  0.29229976229E+02  0.29229976229E+02  0.00000000000E+00 0.  1.
          1   -1    0    0  501    0  0.00000000000E+00 -0.00000000000E+00 -0.96529450959E+03  0.96529450959E+03  0.00000000000E+00 0. -1.
         25    2    1    2    0    0  0.22909691333E+02 -0.12547147806E+03 -0.54893392660E+03  0.57727287395E+03  0.12509024525E+03 0.  0.
          5    1    3    3  502    0  0.59236670726E+02 -0.11355138637E+03 -0.49307378141E+03  0.50945277193E+03  0.41800000000E+01 0. -1.
         -5    1    3    3    0  502 -0.36326979393E+02 -0.11920091688E+02 -0.55860145189E+02  0.67820102022E+02  0.41800000000E+01 0. -1.
        -11    1    1    2    0    0  0.84643957908E+01  0.12267654885E+03 -0.32727171784E+03  0.34961115390E+03  0.00000000000E+00 0. -1.
         11    1    1    2    0    0 -0.31374087124E+02  0.27949292144E+01 -0.59858888913E+02  0.67640457968E+02  0.00000000000E+00 0.  1.
</event>
<event>
 7    1  0.2499014E-009  0.1179786E+03  0.7561462E-02  0.1246469E+00
          2   -1    0    0  501    0  0.00000000000E+00  0.00000000000E+00  0.81763204024E+03  0.81763204024E+03  0.00000000000E+00 0. -1.
         -2   -1    0    0    0  501 -0.00000000000E+00 -0.00000000000E+00 -0.17201838897E+02  0.17201838897E+02  0.00000000000E+00 0.  1.
         25    2    1    2    0    0 -0.34970176513E+01 -0.44536637097E+02  0.41098298009E+03  0.43191383219E+03  0.12508719894E+03 0.  0.
          5    1    3    3  502    0  0.53968974272E+02 -0.51423759617E+02  0.22155966965E+03  0.23380165280E+03  0.41800000000E+01 0. -1.
         -5    1    3    3    0  502 -0.57465991923E+02  0.68871225197E+01  0.18942331044E+03  0.19811217939E+03  0.41800000000E+01 0. -1.
        -11    1    1    2    0    0 -0.44612270220E+02  0.16386263414E+02  0.18583381218E+03  0.19181493693E+03  0.00000000000E+00 0. -1.
         11    1    1    2    0    0  0.48109287871E+02  0.28150373683E+02  0.20361340907E+03  0.21110511001E+03  0.00000000000E+00 0.  1.
</event>
<event>
 7    1  0.2499014E-009  0.1392535E+03  0.7561462E-02  0.1214337E+00
         -2   -1    0    0    0  501 -0.00000000000E+00  0.00000000000E+00  0.12811024202E+03  0.12811024202E+03  0.00000000000E+00 0.  1.
          2   -1    0    0  501    0  0.00000000000E+00 -0.00000000000E+00 -0.27910434040E+03  0.27910434040E+03  0.00000000000E+00 0. -1.
         25    2    1    2    0    0 -0.11078313674E+03 -0.30317394107E+02 -0.19160303922E+03  0.25602999277E+03  0.12509030653E+03 0.  0.
          5    1    3    3  502    0 -0.13275448024E+03 -0.13292428483E+02 -0.12149173914E+03  0.18049419868E+03  0.41800000000E+01 0. -1.
         -5    1    3    3    0  502  0.21971343500E+02 -0.17024965623E+02 -0.70111300075E+02  0.75535794084E+02  0.41800000000E+01 0. -1.
        -11    1    1    2    0    0  0.49301103874E+02  0.23121050344E+01  0.62981833933E+02  0.80016598768E+02  0.00000000000E+00 0.  1.
         11    1    1    2    0    0  0.61482032862E+02  0.28005289072E+02 -0.22372893099E+02  0.71167990884E+02  0.00000000000E+00 0. -1.
</event>
<event>
 7    1  0.2499014E-009  0.1256924E+03  0.7561462E-02  0.1233991E+00
          2   -1    0    0  501    0  0.00000000000E+00  0.00000000000E+00  0.12291639136E+04  0.12291639136E+04  0.00000000000E+00 0. -1.
         -2   -1    0    0    0  501 -0.00000000000E+00 -0.00000000000E+00 -0.17430141263E+02  0.17430141263E+02  0.00000000000E+00 0.  1.
         25    2    1    2    0    0  0.41595764710E+02 -0.90076399154E+02  0.69272830970E+03  0.71088905039E+03  0.12508703201E+03 0.  0.
          5    1    3    3  502    0  0.77859586242E+02 -0.43263253590E+02  0.27845565405E+03  0.29238476013E+03  0.41800000000E+01 0.  1.
         -5    1    3    3    0  502 -0.36263821531E+02 -0.46813145564E+02  0.41427265565E+03  0.41850429026E+03  0.41800000000E+01 0.  1.
        -11    1    1    2    0    0  0.32447582135E+01  0.15469827242E+02  0.87270234537E+01  0.18055607138E+02  0.00000000000E+00 0.  1.
         11    1    1    2    0    0 -0.44840522924E+02  0.74606571912E+02  0.51027843918E+03  0.51764939734E+03  0.00000000000E+00 0. -1.
</event>
<event>
 7    1  0.2499014E-009  0.1653584E+03  0.7561462E-02  0.1182777E+00
         -1   -1    0    0    0  501 -0.00000000000E+00  0.00000000000E+00  0.67229778159E+02  0.67229778159E+02  0.00000000000E+00 0.  1.
          1   -1    0    0  501    0  0.00000000000E+00 -0.00000000000E+00 -0.44504262413E+03  0.44504262413E+03  0.00000000000E+00 0. -1.
         25    2    1    2    0    0 -0.18844885806E+02  0.12632628679E+03 -0.24930359096E+03  0.30677797145E+03  0.12508790047E+03 0.  0.
          5    1    3    3  502    0 -0.60897894819E+02  0.12093172040E+03 -0.17749266342E+03  0.22328043479E+03  0.41800000000E+01 0. -1.
         -5    1    3    3    0  502  0.42053009012E+02  0.53945663889E+01 -0.71810927541E+02  0.83497536657E+02  0.41800000000E+01 0. -1.
        -11    1    1    2    0    0 -0.23666401291E+02 -0.99740285466E+02 -0.11397077342E+03  0.15328913950E+03  0.00000000000E+00 0.  1.
         11    1    1    2    0    0  0.42511287097E+02 -0.26586001325E+02 -0.14538481595E+02  0.52205291343E+02  0.00000000000E+00 0. -1.
</event>
<event>
 7    1  0.2499014E-009  0.1225669E+03  0.7561462E-02  0.1238922E+00
         -2   -1    0    0    0  501 -0.00000000000E+00  0.00000000000E+00  0.86601067161E+02  0.86601067161E+02  0.00000000000E+00 0.  1.
          2   -1    0    0  501    0  0.00000000000E+00 -0.00000000000E+00 -0.32097025284E+03  0.32097025284E+03  0.00000000000E+00 0. -1.
         25    2    1    2    0    0 -0.97940356365E+02  0.91717831573E+01 -0.22178828318E+03  0.27297329826E+03  0.12509174232E+03 0.  0.
          5    1    3    3  502    0 -0.47141245882E+02 -0.22337178593E+02 -0.10531203609E+02  0.53381881386E+02  0.41800000000E+01 0.  1.
         -5    1    3    3    0  502 -0.50799110482E+02  0.31508961750E+02 -0.21125707957E+03  0.21959141688E+03  0.41800000000E+01 0.  1.
        -11    1    1    2    0    0 -0.10429575934E+02  0.18314537142E+02 -0.84902942397E+01  0.22721870987E+02  0.00000000000E+00 0. -1.
         11    1    1    2    0    0  0.10836993230E+03 -0.27486320299E+02 -0.40906082536E+01  0.11187615075E+03  0.00000000000E+00 0.  1.
</event>
<event>
 7    1  0.2499014E-009  0.1125204E+03  0.7561462E-02  0.1255972E+00
         -3   -1    0    0    0  501 -0.00000000000E+00  0.00000000000E+00  0.24530847767E+03  0.24530847767E+03  0.00000000000E+00 0.  1.
          3   -1    0    0  501    0  0.00000000000E+00 -0.00000000000E+00 -0.93320394934E+02  0.93320394934E+02  0.00000000000E+00 0. -1.
         25    2    1    2    0    0  0.21524179601E+02 -0.54790523706E+02 -0.16837260336E+02  0.13927236457E+03  0.12509199175E+03 0.  0.
          5    1    3    3  502    0 -0.19439869337E+02 -0.72091075114E+02 -0.44224111799E+02  0.86880815462E+02  0.41800000000E+01 0. -1.
         -5    1    3    3    0  502  0.40964048938E+02  0.17300551408E+02  0.27386851463E+02  0.52391549103E+02  0.41800000000E+01 0. -1.
        -11    1    1    2    0    0 -0.48510244422E+02  0.60965767898E+02  0.11634694732E+03  0.14002385804E+03  0.00000000000E+00 0. -1.
         11    1    1    2    0    0  0.26986064822E+02 -0.61752441919E+01  0.52478395750E+02  0.59332649999E+02  0.00000000000E+00 0.  1.
</event>
<event>
 7    1  0.2499014E-009  0.1760899E+03  0.7561462E-02  0.1171642E+00
          1   -1    0    0  501    0  0.00000000000E+00  0.00000000000E+00  0.63443754780E+02  0.63443754780E+02  0.00000000000E+00 0. -1.
         -1   -1    0    0    0  501 -0.00000000000E+00 -0.00000000000E+00 -0.64812558995E+03  0.64812558995E+03  0.00000000000E+00 0.  1.
         25    2    1    2    0    0 -0.50577314072E+02 -0.15388155453E+03 -0.20901557643E+03  0.29252693258E+03  0.12508755961E+03 0.  0.
          5    1    3    3  502    0 -0.52453383379E+02 -0.43892835524E+02 -0.16063773903E+02  0.70380790492E+02  0.41800000000E+01 0.  1.
         -5    1    3    3    0  502  0.18760693072E+01 -0.10998871901E+03 -0.19295180252E+03  0.22214614208E+03  0.41800000000E+01 0.  1.
        -11    1    1    2    0    0  0.10780772513E+02  0.12228191460E+03 -0.18730584074E+03  0.22394769405E+03  0.00000000000E+00 0.  1.
         11    1    1    2    0    0  0.39796541559E+02  0.31599639936E+02 -0.18836041800E+03  0.19509471811E+03  0.00000000000E+00 0. -1.
</event>
<event>
 7    1  0.2499014E-009  0.2940238E+03  0.7561462E-02  0.1088267E+00
          1   -1    0    0  501    0  0.00000000000E+00  0.00000000000E+00  0.13077390435E+04  0.13077390435E+04  0.00000000000E+00 0. -1.
         -1   -1    0    0    0  501 -0.00000000000E+00 -0.00000000000E+00 -0.87180139172E+02  0.87180139172E+02  0.00000000000E+00 0.  1.
         25    2    1    2    0    0 -0.16759097915E+03 -0.21630505152E+03  0.27984597870E+03  0.41089715382E+03  0.12509231638E+03 0.  0.
          5    1    3    3  502    0 -0.13440274727E+03 -0.22785459667E+03  0.23585380131E+03  0.35443801107E+03  0.41800000000E+01 0.  1.
         -5    1    3    3    0  502 -0.33188231880E+02  0.11549545151E+02  0.43992177392E+02  0.56459142751E+02  0.41800000000E+01 0.  1.
        -11    1    1    2    0    0 -0.45562594228E+01  0.44990917982E+02  0.17281845654E+03  0.17863695341E+03  0.00000000000E+00 0. -1.
         11    1    1    2    0    0  0.17214723857E+03  0.17131413354E+03  0.76789446910E+03  0.80538507546E+03  0.00000000000E+00 0.  1.
</event>
<event>
 7    1  0.2499014E-009  0.1488847E+03  0.7561462E-02  0.1201850E+00
          1   -1    0    0  501    0  0.00000000000E+00  0.00000000000E+00  0.37532120230E+03  0.37532120230E+03  0.00000000000E+00 0. -1.
         -1   -1    0    0    0  501 -0.00000000000E+00 -0.00000000000E+00 -0.67527386817E+02  0.67527386817E+02  0.00000000000E+00 0.  1.
         25    2    1    2    0    0  0.97242960025E+02  0.53491398269E+02  0.21292666038E+03  0.27074441181E+03  0.12508897179E+03 0.  0.
          5    1    3    3  502    0  0.76252465556E+02 -0.26704208845E+02  0.78301952098E+02  0.11258872668E+03  0.41800000000E+01 0. -1.
         -5    1    3    3    0  502  0.20990494469E+02  0.80195607114E+02  0.13462470828E+03  0.15815568513E+03  0.41800000000E+01 0. -1.
        -11    1    1    2    0    0 -0.37195155584E+02  0.17313023808E+02  0.60520069356E+02  0.73115656238E+02  0.00000000000E+00 0. -1.
         11    1    1    2    0    0 -0.60047804441E+02 -0.70804422077E+02  0.34347085746E+02  0.98988521067E+02  0.00000000000E+00 0.  1.
</event>
<event>
 7    1  0.2499014E-009  0.1700578E+03  0.7561462E-02  0.1177788E+00
          2   -1    0    0  501    0  0.00000000000E+00  0.00000000000E+00  0.14885718471E+03  0.14885718471E+03  0.00000000000E+00 0. -1.
         -2   -1    0    0    0  501 -0.00000000000E+00 -0.00000000000E+00 -0.27751779616E+03  0.27751779616E+03  0.00000000000E+00 0.  1.
         25    2    1    2    0    0  0.39069890906E+02  0.13441890248E+03 -0.17156092915E+03  0.25430837171E+03  0.12507876634E+03 0.  0.
          5    1    3    3  502    0 -0.72848406810E+01  0.13944865099E+03 -0.14046291569E+03  0.19810678497E+03  0.41800000000E+01 0.  1.
         -5    1    3    3    0  502  0.46354731587E+02 -0.50297485106E+01 -0.31098013460E+02  0.56201586737E+02  0.41800000000E+01 0.  1.
        -11    1    1    2    0    0 -0.42640733013E+01 -0.11225696866E+03 -0.28389979969E+00  0.11233828347E+03  0.00000000000E+00 0. -1.
         11    1    1    2    0    0 -0.34805817605E+02 -0.22161933828E+02  0.43184217492E+02  0.59728325697E+02  0.00000000000E+00 0.  1.
</event>
<event>
 7    1  0.2499014E-009  0.2566214E+03  0.7561462E-02  0.1109190E+00
          2   -1    0    0  501    0  0.00000000000E+00  0.00000000000E+00  0.26484569425E+04  0.26484569425E+04  0.00000000000E+00 0. -1.
         -2   -1    0    0    0  501 -0.00000000000E+00 -0.00000000000E+00 -0.28537994303E+02  0.28537994303E+02  0.00000000000E+00 0.  1.
         25    2    1    2    0    0  0.18320245128E+03  0.14527426798E+03  0.18032492512E+04  0.18226423638E+04  0.12509825415E+03 0.  0.
          5    1    3    3  502    0  0.33288696102E+02  0.10320833585E+03  0.66816001637E+03  0.67691607881E+03  0.41800000000E+01 0. -1.
         -5    1    3    3    0  502  0.14991375517E+03  0.42065932137E+02  0.11350892348E+04  0.11457262850E+04  0.41800000000E+01 0. -1.
        -11    1    1    2    0    0 -0.16305084872E+03 -0.81913715469E+02  0.64304573743E+03  0.66843343459E+03  0.00000000000E+00 0. -1.
         11    1    1    2    0    0 -0.20151602556E+02 -0.63360552514E+02  0.17362395953E+03  0.18591913840E+03  0.00000000000E+00 0.  1.
</event>
<event>
 7    1  0.2499014E-009  0.9790141E+02  0.7561462E-02  0.1284772E+00
         -2   -1    0    0    0  501 -0.00000000000E+00  0.00000000000E+00  0.92001170620E+01  0.92001170620E+01  0.00000000000E+00 0.  1.
          2   -1    0    0  501    0  0.00000000000E+00 -0.00000000000E+00 -0.20004077152E+04  0.20004077152E+04  0.00000000000E+00 0. -1.
         25    2    1    2    0    0  0.31062361402E+02  0.59810871013E-01 -0.16456218762E+04  0.16506623600E+04  0.12509993311E+03 0.  0.
          5    1    3    3  502    0 -0.65012780757E+01  0.43306035988E+02 -0.24872104919E+03  0.25258129796E+03  0.41800000000E+01 0.  1.
         -5    1    3    3    0  502  0.37563639477E+02 -0.43246225117E+02 -0.13969008270E+04  0.13980810620E+04  0.41800000000E+01 0.  1.
        -11    1    1    2    0    0  0.27761367083E+02  0.17709293427E+02 -0.83637329928E+02  0.89886125367E+02  0.00000000000E+00 0. -1.
         11    1    1    2    0    0 -0.58823728485E+02 -0.17769104299E+02 -0.26194839201E+03  0.26905934694E+03  0.00000000000E+00 0.  1.
</event>
<event>
 7    1  0.2499014E-009  0.1183467E+03  0.7561462E-02  0.1245850E+00
          2   -1    0    0  501    0  0.00000000000E+00  0.00000000000E+00  0.15027475535E+03  0.15027475535E+03  0.00000000000E+00 0. -1.
         -2   -1    0    0    0  501 -0.00000000000E+00 -0.00000000000E+00 -0.15118002697E+03  0.15118002697E+03  0.00000000000E+00 0.  1.
         25    2    1    2    0    0  0.10185664624E+03  0.27346505969E+01  0.21396330529E+02  0.16274915966E+03  0.12508889364E+03 0.  0.
          5    1    3    3  502    0  0.10040039696E+03  0.24198677877E+02 -0.29372142872E+02  0.10745236571E+03  0.41800000000E+01 0.  1.
         -5    1    3    3    0  502  0.14562492809E+01 -0.21464027280E+02  0.50768473402E+02  0.55296793945E+02  0.41800000000E+01 0.  1.
        -11    1    1    2    0    0 -0.82284530711E+02 -0.20702305936E+02 -0.51478765676E+02  0.99244107034E+02  0.00000000000E+00 0.  1.
         11    1    1    2    0    0 -0.19572115527E+02  0.17967655339E+02  0.29177163530E+02  0.39461515635E+02  0.00000000000E+00 0. -1.
</event>
<event>
 7    1  0.2499014E-009  0.1517315E+03  0.7561462E-02  0.1198361E+00
          1   -1    0    0  501    0  0.00000000000E+00  0.00000000000E+00  0.15152821027E+04  0.15152821027E+04  0.00000000000E+00 0. -1.
         -1   -1    0    0    0  501 -0.00000000000E+00 -0.00000000000E+00 -0.24031031547E+02  0.24031031547E+02  0.00000000000E+00 0.  1.
         25    2    1    2    0    0 -0.10758253930E+03 -0.68124361113E+02  0.11561252240E+04  0.11698245872E+04  0.12509636189E+03 0.  0.
          5    1    3    3  502    0 -0.12617286196E+03 -0.65443968924E+02  0.75723473871E+03  0.77047026294E+03  0.41800000000E+01 0.  1.
         -5    1    3    3    0  502  0.18590322661E+02 -0.26803921889E+01  0.39889048532E+03  0.39935432422E+03  0.41800000000E+01 0.  1.
        -11    1    1    2    0    0  0.38790296046E+02 -0.78032389157E+01  0.36710085605E+02  0.53974141865E+02  0.00000000000E+00 0.  1.
         11    1    1    2    0    0  0.68792243255E+02  0.75927600029E+02  0.29841576154E+03  0.31551440524E+03  0.00000000000E+00 0. -1.
</event>
<event>
 7    1  0.2499014E-009  0.9676421E+02  0.7561462E-02  0.1287251E+00
          2   -1    0    0  501    0  0.00000000000E+00  0.00000000000E+00  0.12413733518E+03  0.12413733518E+03  0.00000000000E+00 0. -1.
         -2   -1    0    0    0  501 -0.00000000000E+00 -0.00000000000E+00 -0.16727140516E+03  0.16727140516E+03  0.00000000000E+00 0.  1.
         25    2    1    2    0    0 -0.49121763851E+02  0.56123649184E+02  0.35099089637E+02  0.14981000792E+03  0.12509308813E+03 0.  0.
          5    1    3    3  502    0 -0.16191314943E+02 -0.22918800182E+02  0.54923246897E+02  0.61818003293E+02  0.41800000000E+01 0. -1.
         -5    1    3    3    0  502 -0.32930448908E+02  0.79042449366E+02 -0.19824157261E+02  0.87992004627E+02  0.41800000000E+01 0. -1.
        -11    1    1    2    0    0  0.14915362171E+02 -0.37770409991E+02  0.12845875437E+02  0.42592116821E+02  0.00000000000E+00 0. -1.
         11    1    1    2    0    0  0.34206401680E+02 -0.18353239194E+02 -0.91079035058E+02  0.99006615597E+02  0.00000000000E+00 0.  1.
</event>
<event>
 7    1  0.2499014E-009  0.9775175E+02  0.7561462E-02  0.1285096E+00
          1   -1    0    0  501    0  0.00000000000E+00  0.00000000000E+00  0.46969630418E+03  0.46969630418E+03  0.00000000000E+00 0. -1.
         -1   -1    0    0    0  501 -0.00000000000E+00 -0.00000000000E+00 -0.40515548462E+02  0.40515548462E+02  0.00000000000E+00 0.  1.
         25    2    1    2    0    0 -0.11181817216E+01  0.19307905417E+02  0.82392698169E+02  0.15103072864E+03  0.12509068206E+03 0.  0.
          5    1    3    3  502    0  0.48012568918E+02  0.34510660643E+02  0.70232261669E+01  0.59690791399E+02  0.41800000000E+01 0.  1.
         -5    1    3    3    0  502 -0.49130750639E+02 -0.15202755225E+02  0.75369472002E+02  0.91339937239E+02  0.41800000000E+01 0.  1.
        -11    1    1    2    0    0  0.29682660915E+02  0.20179668839E+02  0.76087198799E+02  0.84128123802E+02  0.00000000000E+00 0.  1.
         11    1    1    2    0    0 -0.28564479194E+02 -0.39487574256E+02  0.27070085875E+03  0.27505300020E+03  0.00000000000E+00 0. -1.
</event>
<event>
 7    1  0.2499014E-009  0.1062003E+03  0.7561462E-02  0.1267773E+00
          2   -1    0    0  501    0  0.00000000000E+00  0.00000000000E+00  0.46427334767E+03  0.46427334767E+03  0.00000000000E+00 0. -1.
         -2   -1    0    0    0  501 -0.00000000000E+00 -0.00000000000E+00 -0.30019677934E+02  0.30019677934E+02  0.00000000000E+00 0.  1.
         25    2    1    2    0    0 -0.46404646445E+02  0.12155613828E+02  0.24764329564E+03  0.28155907800E+03  0.12508861806E+03 0.  0.
          5    1    3    3  502    0  0.10564277480E+02 -0.48873624179E+02  0.10049300542E+03  0.11232342426E+03  0.41800000000E+01 0. -1.
         -5    1    3    3    0  502 -0.56968923924E+02  0.61029238007E+02  0.14715029022E+03  0.16923565374E+03  0.41800000000E+01 0. -1.
        -11    1    1    2    0    0 -0.12489354969E+02 -0.15184210488E+02  0.30032333662E+01  0.19888781922E+02  0.00000000000E+00 0.  1.
         11    1    1    2    0    0  0.58894001413E+02  0.30285966601E+01  0.18360714073E+03  0.19284516568E+03  0.00000000000E+00 0. -1.
</event>
<event>
 7    1  0.2499014E-009  0.1218040E+03  0.7561462E-02  0.1240150E+00
          3   -1    0    0  501    0  0.00000000000E+00  0.00000000000E+00  0.22269955892E+03  0.22269955892E+03  0.00000000000E+00 0. -1.
         -3   -1    0    0    0  501 -0.00000000000E+00 -0.00000000000E+00 -0.74881660056E+02  0.74881660056E+02  0.00000000000E+00 0.  1.
         25    2    1    2    0    0  0.54632022354E+02  0.25237544105E+02  0.41441486214E+02  0.14486458088E+03  0.12508700378E+03 0.  0.
          5    1    3    3  502    0  0.93254909172E+02  0.26946940153E+02  0.42300794175E+02  0.10596907689E+03  0.41800000000E+01 0. -1.
         -5    1    3    3    0  502 -0.38622886817E+02 -0.17093960474E+01 -0.85930796096E+00  0.38895503996E+02  0.41800000000E+01 0. -1.
        -11    1    1    2    0    0 -0.54329712596E+02 -0.55285325638E+02  0.62675760571E+02  0.99681672662E+02  0.00000000000E+00 0.  1.
         11    1    1    2    0    0 -0.30230975892E+00  0.30047781533E+02  0.43700652079E+02  0.53034965432E+02  0.00000000000E+00 0. -1.
</event>
<event>
 7    1  0.2499014E-009  0.1745427E+03  0.7561462E-02  0.1173192E+00
          2   -1    0    0  501    0  0.00000000000E+00  0.00000000000E+00  0.29486663914E+03  0.29486663914E+03  0.00000000000E+00 0. -1.
         -2   -1    0    0    0  501 -0.00000000000E+00 -0.00000000000E+00 -0.11972903414E+03  0.11972903414E+03  0.00000000000E+00 0.  1.
         25    2    1    2    0    0 -0.92121505316E+02  0.12053091082E+03  0.78365547176E+02  0.21166610787E+03  0.12508920830E+03 0.  0.
          5    1    3    3  502    0  0.19104198388E+02  0.40327636701E+02  0.57490531867E+02  0.72896655151E+02  0.41800000000E+01 0.  1.
         -5    1    3    3    0  502 -0.11122570370E+03  0.80203274120E+02  0.20875015309E+02  0.13876945272E+03  0.41800000000E+01 0.  1.
        -11    1    1    2    0    0  0.98804879770E+02 -0.83251711692E+02  0.41072802406E+02  0.13557369532E+03  0.00000000000E+00 0.  1.
         11    1    1    2    0    0 -0.66833744541E+01 -0.37279199129E+02  0.55699255413E+02  0.67355870089E+02  0.00000000000E+00 0. -1.
</event>
<event>
 7    1  0.2499014E-009  0.9684956E+02  0.7561462E-02  0.1287064E+00
          2   -1    0    0  501    0  0.00000000000E+00  0.00000000000E+00  0.64867192786E+03  0.64867192786E+03  0.00000000000E+00 0. -1.
         -2   -1    0    0    0  501 -0.00000000000E+00 -0.00000000000E+00 -0.28407978881E+02  0.28407978881E+02  0.00000000000E+00 0.  1.
         25    2    1    2    0    0  0.61490350028E+02  0.11273938187E+02  0.47092135426E+03  0.49124681203E+03  0.12509333954E+03 0.  0.
          5    1    3    3  502    0  0.39946341902E+02  0.50397598666E+02  0.10953238543E+03  0.12708439731E+03  0.41800000000E+01 0.  1.
         -5    1    3    3    0  502  0.21544008126E+02 -0.39123660479E+02  0.36138896883E+03  0.36416241471E+03  0.41800000000E+01 0.  1.
        -11    1    1    2    0    0 -0.17084286613E+02  0.22752409985E+02  0.11866874690E+03  0.12203203063E+03  0.00000000000E+00 0. -1.
         11    1    1    2    0    0 -0.44406063415E+02 -0.34026348173E+02  0.30673847813E+02  0.63801064079E+02  0.00000000000E+00 0.  1.
</event>
<event>
 7    1  0.2499014E-009  0.1099057E+03  0.7561462E-02  0.1260745E+00
         -2   -1    0    0    0  501 -0.00000000000E+00  0.00000000000E+00  0.23439126565E+03  0.23439126565E+03  0.00000000000E+00 0.  1.
          2   -1    0    0  501    0  0.00000000000E+00 -0.00000000000E+00 -0.13747693494E+03  0.13747693494E+03  0.00000000000E+00 0. -1.
         25    2    1    2    0    0 -0.74983945606E+02 -0.62227722979E+02  0.16274908431E+03  0.22722333025E+03  0.12509314834E+03 0.  0.
          5    1    3    3  502    0 -0.82143346312E+02 -0.58354482635E+02  0.47259722570E+02  0.11137202864E+03  0.41800000000E+01 0. -1.
         -5    1    3    3    0  502  0.71594007058E+01 -0.38732403442E+01  0.11548936174E+03  0.11585130161E+03  0.41800000000E+01 0. -1.
        -11    1    1    2    0    0  0.46667804960E+02  0.62541440204E+01 -0.67018570849E+02  0.81905354989E+02  0.00000000000E+00 0. -1.
         11    1    1    2    0    0  0.28316140646E+02  0.55973578959E+02  0.11838172539E+01  0.62739515346E+02  0.00000000000E+00 0.  1.
</event>
<event>
 7    1  0.2499014E-009  0.1252535E+03  0.7561462E-02  0.1234674E+00
          2   -1    0    0  501    0  0.00000000000E+00  0.00000000000E+00  0.13579069616E+03  0.13579069616E+03  0.00000000000E+00 0. -1.
         -2   -1    0    0    0  501 -0.00000000000E+00 -0.00000000000E+00 -0.12860466607E+03  0.12860466607E+03  0.00000000000E+00 0.  1.
         25    2    1    2    0    0 -0.65132703362E+02  0.25443480201E+02 -0.23091414891E+02  0.14515785851E+03  0.12509176917E+03 0.  0.
          5    1    3    3  502    0 -0.19104878874E+02 -0.48768443823E+02  0.63066354275E+01  0.52920729021E+02  0.41800000000E+01 0. -1.
         -5    1    3    3    0  502 -0.46027824488E+02  0.74211924023E+02 -0.29398050319E+02  0.92237129492E+02  0.41800000000E+01 0. -1.
        -11    1    1    2    0    0 -0.21020972982E+02 -0.88076959816E+01 -0.70872389975E+01  0.23868091047E+02  0.00000000000E+00 0.  1.
         11    1    1    2    0    0  0.86153676344E+02 -0.16635784219E+02  0.37364683978E+02  0.95369412670E+02  0.00000000000E+00 0. -1.
</event>
<event>
 7    1  0.2499014E-009  0.1568697E+03  0.7561462E-02  0.1192277E+00
         -2   -1    0    0    0  501 -0.00000000000E+00  0.00000000000E+00  0.42662455274E+03  0.42662455274E+03  0.00000000000E+00 0.  1.
          2   -1    0    0  501    0  0.00000000000E+00 -0.00000000000E+00 -0.20032210695E+03  0.20032210695E+03  0.00000000000E+00 0. -1.
         25    2    1    2    0    0 -0.76770337687E+02  0.12317424495E+03 -0.12983193112E+03  0.23145005769E+03  0.12508884643E+03 0.  0.
          5    1    3    3  502    0 -0.46618202653E+02  0.11539489084E+03 -0.14935682372E+03  0.19445866101E+03  0.41800000000E+01 0.  1.
         -5    1    3    3    0  502 -0.30152135034E+02  0.77793541127E+01  0.19524892601E+02  0.36991396684E+02  0.41800000000E+01 0.  1.
        -11    1    1    2    0    0  0.42200516567E+02 -0.11467785587E+03  0.32831279343E+03  0.35031583544E+03  0.00000000000E+00 0. -1.
         11    1    1    2    0    0  0.34569821120E+02 -0.84963890838E+01  0.27821583475E+02  0.45180766558E+02  0.00000000000E+00 0.  1.
</event>
<event>
 7    1  0.2499014E-009  0.1344354E+03  0.7561462E-02  0.1221019E+00
         -1   -1    0    0    0  501 -0.00000000000E+00  0.00000000000E+00  0.22139107200E+03  0.22139107200E+03  0.00000000000E+00 0.  1.
          1   -1    0    0  501    0  0.00000000000E+00 -0.00000000000E+00 -0.10038125898E+03  0.10038125898E+03  0.00000000000E+00 0. -1.
         25    2    1    2    0    0 -0.70179042394E+02 -0.52605846285E+02  0.12471627141E+03  0.19721588682E+03  0.12508990608E+03 0.  0.
          5    1    3    3  502    0 -0.53856249032E+02  0.28847156058E+02  0.85728923588E+02  0.10535451918E+03  0.41800000000E+01 0.  1.
         -5    1    3    3    0  502 -0.16322793362E+02 -0.81453002343E+02  0.38987347823E+02  0.91861367636E+02  0.41800000000E+01 0.  1.
        -11    1    1    2    0    0  0.22219364345E+02  0.69997465898E+02 -0.51798448936E+00  0.73441226106E+02  0.00000000000E+00 0. -1.
         11    1    1    2    0    0  0.47959678049E+02 -0.17391619613E+02 -0.31884739012E+01  0.51115218058E+02  0.00000000000E+00 0.  1.
</event>
<event>
 7    1  0.2499014E-009  0.1878666E+03  0.7561462E-02  0.1160400E+00
          2   -1    0    0  501    0  0.00000000000E+00  0.00000000000E+00  0.20213769420E+04  0.20213769420E+04  0.00000000000E+00 0. -1.
         -2   -1    0    0    0  501 -0.00000000000E+00 -0.00000000000E+00 -0.30792604966E+02  0.30792604966E+02  0.00000000000E+00 0.  1.
         25    2    1    2    0    0 -0.56830910691E+01 -0.16339703215E+03  0.16667824433E+04  0.16794469206E+04  0.12508939964E+03 0.  0.
          5    1    3    3  502    0  0.57040072010E+02 -0.49723943768E+02  0.58095042123E+03  0.58587277179E+03  0.41800000000E+01 0. -1.
         -5    1    3    3    0  502 -0.62723163080E+02 -0.11367308838E+03  0.10858320221E+04  0.10935741488E+04  0.41800000000E+01 0. -1.
        -11    1    1    2    0    0 -0.85580438850E+01  0.15078380973E+03  0.21787455960E+03  0.26510058678E+03  0.00000000000E+00 0.  1.
         11    1    1    2    0    0  0.14241134954E+02  0.12613222420E+02  0.10592733405E+03  0.10762203959E+03  0.00000000000E+00 0. -1.
</event>
<event>
 7    1  0.2499014E-009  0.9549807E+02  0.7561462E-02  0.1290058E+00
         -3   -1    0    0    0  501 -0.00000000000E+00  0.00000000000E+00  0.14624174294E+02  0.14624174294E+02  0.00000000000E+00 0.  1.
          3   -1    0    0  501    0  0.00000000000E+00 -0.00000000000E+00 -0.95642316523E+03  0.95642316523E+03  0.00000000000E+00 0. -1.
         25    2    1    2    0    0 -0.14270709951E+02  0.31909462879E+02 -0.66519805116E+03  0.67775904446E+03  0.12508800139E+03 0.  0.
          5    1    3    3  502    0  0.36752603035E+02  0.90593057966E+00 -0.51123494088E+03  0.51257215270E+03  0.41800000000E+01 0.  1.
         -5    1    3    3    0  502 -0.51023312986E+02  0.31003532300E+02 -0.15396311028E+03  0.16518689176E+03  0.41800000000E+01 0.  1.
        -11    1    1    2    0    0  0.49299481791E+02 -0.41934069032E+01 -0.18307842623E+03  0.18964633853E+03  0.00000000000E+00 0. -1.
         11    1    1    2    0    0 -0.35028771840E+02 -0.27716055976E+02 -0.93522513552E+02  0.10364195655E+03  0.00000000000E+00 0.  1.
</event>
<event>
 7    1  0.2499014E-009  0.1179078E+03  0.7561462E-02  0.1246589E+00
         -1   -1    0    0    0  501 -0.00000000000E+00  0.00000000000E+00  0.57610854858E+02  0.57610854858E+02  0.00000000000E+00 0.  1.
          1   -1    0    0  501    0  0.00000000000E+00 -0.00000000000E+00 -0.32214138380E+03  0.32214138380E+03  0.00000000000E+00 0. -1.
         25    2    1    2    0    0  0.65491205147E+02 -0.34879131955E+02 -0.10160942882E+03  0.17742362885E+03  0.12509602812E+03 0.  0.
          5    1    3    3  502    0 -0.12457630472E+02 -0.40921554284E+02 -0.88028036298E+02  0.97960061946E+02  0.41800000000E+01 0. -1.
         -5    1    3    3    0  502  0.77948835619E+02  0.60424223281E+01 -0.13581392519E+02  0.79463566901E+02  0.41800000000E+01 0. -1.
        -11    1    1    2    0    0 -0.50069722638E+02 -0.22669510286E+02 -0.48395364014E+02  0.73232472850E+02  0.00000000000E+00 0.  1.
         11    1    1    2    0    0 -0.15421482509E+02  0.57548642241E+02 -0.11452573611E+03  0.12909613696E+03  0.00000000000E+00 0. -1.
</event>
<event>
 7    1  0.2499014E-009  0.8326709E+02  0.7561462E-02  0.1320027E+00
         -2   -1    0    0    0  501 -0.00000000000E+00  0.00000000000E+00  0.42851166311E+02  0.42851166311E+02  0.00000000000E+00 0.  1.
          2   -1    0    0  501    0  0.00000000000E+00 -0.00000000000E+00 -0.31081954026E+03  0.31081954026E+03  0.00000000000E+00 0. -1.
         25    2    1    2    0    0  0.61584086191E+01 -0.41960997166E+02 -0.14639248376E+03  0.19717261094E+03  0.12509047894E+03 0.  0.
          5    1    3    3  502    0 -0.28931250998E+02  0.11347457641E+02  0.59795595999E+01  0.31921929958E+02  0.41800000000E+01 0.  1.
         -5    1    3    3    0  502  0.35089659617E+02 -0.53308454806E+02 -0.15237204336E+03  0.16525068098E+03  0.41800000000E+01 0.  1.
        -11    1    1    2    0    0  0.23556777407E+02  0.32292037541E+02 -0.10807781528E+02  0.41406588750E+02  0.00000000000E+00 0.  1.
         11    1    1    2    0    0 -0.29715186027E+02  0.96689596245E+01 -0.11076810866E+03  0.11509150688E+03  0.00000000000E+00 0. -1.
</event>
<event>
 7    1  0.2499014E-009  0.5286403E+02  0.7561462E-02  0.1430479E+00
         -1   -1    0    0    0  501 -0.00000000000E+00  0.00000000000E+00  0.11575157195E+03  0.11575157195E+03  0.00000000000E+00 0.  1.
          1   -1    0    0  501    0  0.00000000000E+00 -0.00000000000E+00 -0.10631596706E+03  0.10631596706E+03  0.00000000000E+00 0. -1.
         25    2    1    2    0    0 -0.54184853562E+01  0.23675415231E+02  0.30840650889E+01  0.12746317165E+03  0.12508982132E+03 0.  0.
          5    1    3    3  502    0 -0.28428124673E+02  0.24062518422E+02  0.57270778819E+02  0.68443973962E+02  0.41800000000E+01 0.  1.
         -5    1    3    3    0  502  0.23009639317E+02 -0.38710319079E+00 -0.54186713730E+02  0.59019197684E+02  0.41800000000E+01 0.  1.
        -11    1    1    2    0    0 -0.80540006835E+01  0.74329573462E+01 -0.37561806278E+02  0.39128059916E+02  0.00000000000E+00 0. -1.
         11    1    1    2    0    0  0.13472486040E+02 -0.31108372577E+02  0.43913346083E+02  0.55476307454E+02  0.00000000000E+00 0.  1.
</event>
<event>
 7    1  0.2499014E-009  0.1776866E+03  0.7561462E-02  0.1170061E+00
          1   -1    0    0  501    0  0.00000000000E+00  0.00000000000E+00  0.70591503893E+03  0.70591503893E+03  0.00000000000E+00 0. -1.
         -1   -1    0    0    0  501 -0.00000000000E+00 -0.00000000000E+00 -0.56448046750E+02  0.56448046750E+02  0.00000000000E+00 0.  1.
         25    2    1    2    0    0 -0.11258410411E+03 -0.10932003123E+03  0.23146745029E+03  0.30635044640E+03  0.12508943096E+03 0.  0.
          5    1    3    3  502    0 -0.12087641301E+03 -0.60927148443E+02  0.10736575011E+03  0.17282390268E+03  0.41800000000E+01 0. -1.
         -5    1    3    3    0  502  0.82923088935E+01 -0.48392882783E+02  0.12410170018E+03  0.13352654372E+03  0.41800000000E+01 0. -1.
        -11    1    1    2    0    0  0.51283412209E+01  0.45297885098E+02  0.19569304718E+03  0.20093274246E+03  0.00000000000E+00 0.  1.
         11    1    1    2    0    0  0.10745576289E+03  0.64022146128E+02  0.22230649470E+03  0.25507989682E+03  0.00000000000E+00 0. -1.
</event>
<event>
 7    1  0.2499014E-009  0.8377453E+02  0.7561462E-02  0.1318669E+00
         -1   -1    0    0    0  501 -0.00000000000E+00  0.00000000000E+00  0.35661343565E+02  0.35661343565E+02  0.00000000000E+00 0.  1.
          1   -1    0    0  501    0  0.00000000000E+00 -0.00000000000E+00 -0.36878101655E+03  0.36878101655E+03  0.00000000000E+00 0. -1.
         25    2    1    2    0    0 -0.34019250990E+02  0.14806517422E+02 -0.19329674245E+03  0.23321299561E+03  0.12509247893E+03 0.  0.
          5    1    3    3  502    0 -0.69665874128E+01 -0.42105231006E+02 -0.15157245290E+03  0.15752163247E+03  0.41800000000E+01 0.  1.
         -5    1    3    3    0  502 -0.27052663578E+02  0.56911748428E+02 -0.41724289544E+02  0.75691363138E+02  0.41800000000E+01 0.  1.
        -11    1    1    2    0    0 -0.18995781350E+01  0.14827717248E+02  0.74982879472E+01  0.16724052081E+02  0.00000000000E+00 0.  1.
         11    1    1    2    0    0  0.35918829125E+02 -0.29634234670E+02 -0.14732121849E+03  0.15450531243E+03  0.00000000000E+00 0. -1.
</event>
<event>
 7    1  0.2499014E-009  0.1042083E+03  0.7561462E-02  0.1271687E+00
         -4   -1    0    0    0  501 -0.00000000000E+00  0.00000000000E+00  0.57440290476E+02  0.57440290476E+02  0.00000000000E+00 0.  1.
          4   -1    0    0  501    0  0.00000000000E+00 -0.00000000000E+00 -0.21189120701E+03  0.21189120701E+03  0.00000000000E+00 0. -1.
         25    2    1    2    0    0 -0.16686902330E+02  0.12902560932E+02 -0.95735113990E+02  0.15892679819E+03  0.12509031275E+03 0.  0.
          5    1    3    3  502    0 -0.60309074993E+01  0.63137449863E+02 -0.85267206854E+02  0.10635167317E+03  0.41800000000E+01 0.  1.
         -5    1    3    3    0  502 -0.10655994830E+02 -0.50234888931E+02 -0.10467907136E+02  0.52575125026E+02  0.41800000000E+01 0.  1.
        -11    1    1    2    0    0  0.40261477877E+02  0.25940381778E+02 -0.26850399611E+02  0.54907503739E+02  0.00000000000E+00 0. -1.
         11    1    1    2    0    0 -0.23574575547E+02 -0.38842942710E+02 -0.31865402938E+02  0.55497195560E+02  0.00000000000E+00 0.  1.
</event>
<event>
 7    1  0.2499014E-009  0.1322460E+03  0.7561462E-02  0.1224161E+00
          1   -1    0    0  501    0  0.00000000000E+00  0.00000000000E+00  0.51626672292E+02  0.51626672292E+02  0.00000000000E+00 0. -1.
         -1   -1    0    0    0  501 -0.00000000000E+00 -0.00000000000E+00 -0.36137154479E+03  0.36137154479E+03  0.00000000000E+00 0.  1.
         25    2    1    2    0    0 -0.46896593733E+02  0.64590878762E+02 -0.19004772414E+03  0.24111464578E+03  0.12508742079E+03 0.  0.
          5    1    3    3  502    0 -0.72825388218E+02  0.81905711460E+02 -0.11104200714E+03  0.15607652767E+03  0.41800000000E+01 0. -1.
         -5    1    3    3    0  502  0.25928794485E+02 -0.17314832699E+02 -0.79005716995E+02  0.85038118116E+02  0.41800000000E+01 0. -1.
        -11    1    1    2    0    0 -0.26329981993E+02 -0.36321626804E+02 -0.43728551632E+02  0.62647543872E+02  0.00000000000E+00 0.  1.
         11    1    1    2    0    0  0.73226575726E+02 -0.28269251958E+02 -0.75968596735E+02  0.10923602743E+03  0.00000000000E+00 0. -1.
</event>
<event>
 7    1  0.2499014E-009  0.1395488E+03  0.7561462E-02  0.1213937E+00
         -1   -1    0    0    0  501 -0.00000000000E+00  0.00000000000E+00  0.20907570257E+02  0.20907570257E+02  0.00000000000E+00 0.  1.
          1   -1    0    0  501    0  0.00000000000E+00 -0.00000000000E+00 -0.99279161217E+03  0.99279161217E+03  0.00000000000E+00 0. -1.
         25    2    1    2    0    0  0.85581890056E+02  0.32761270654E+02 -0.59605982157E+03  0.61589944257E+03  0.12508897521E+03 0.  0.
          5    1    3    3  502    0  0.54808846072E+01 -0.41486279398E+02 -0.11154703611E+03  0.11921143040E+03  0.41800000000E+01 0. -1.
         -5    1    3    3    0  502  0.80101005449E+02  0.74247550052E+02 -0.48451278546E+03  0.49668801217E+03  0.41800000000E+01 0. -1.
        -11    1    1    2    0    0 -0.85094319505E+02 -0.57692087885E+02 -0.26590207441E+03  0.28508478281E+03  0.00000000000E+00 0.  1.
         11    1    1    2    0    0 -0.48757055185E+00  0.24930817232E+02 -0.10992214594E+03  0.11271495704E+03  0.00000000000E+00 0. -1.
</event>
<event>
 7    1  0.2499014E-009  0.1872617E+03  0.7561462E-02  0.1160955E+00
          1   -1    0    0  501    0  0.00000000000E+00  0.00000000000E+00  0.50090777024E+03  0.50090777024E+03  0.00000000000E+00 0. -1.
         -1   -1    0    0    0  501 -0.00000000000E+00 -0.00000000000E+00 -0.85104046926E+02  0.85104046926E+02  0.00000000000E+00 0.  1.
         25    2    1    2    0    0  0.12881591741E+03 -0.10596417712E+03  0.14126741576E+03  0.25184397186E+03  0.12508779315E+03 0.  0.
          5    1    3    3  502    0  0.14440667785E+03 -0.10757160803E+03  0.96738121703E+02  0.20445213634E+03  0.41800000000E+01 0.  1.
         -5    1    3    3    0  502 -0.15590760439E+02  0.16074309083E+01  0.44529294053E+02  0.47391835521E+02  0.41800000000E+01 0.  1.
        -11    1    1    2    0    0 -0.34123295466E+02  0.68159511753E+02  0.61323222366E+02  0.97829729311E+02  0.00000000000E+00 0. -1.
         11    1    1    2    0    0 -0.94692621947E+02  0.37804665372E+02  0.21321308519E+03  0.23633811600E+03  0.00000000000E+00 0.  1.
</event>
<event>
 7    1  0.2499014E-009  0.8757881E+02  0.7561462E-02  0.1308823E+00
         -2   -1    0    0    0  501 -0.00000000000E+00  0.00000000000E+00  0.13102163758E+03  0.13102163758E+03  0.00000000000E+00 0.  1.
          2   -1    0    0  501    0  0.00000000000E+00 -0.00000000000E+00 -0.10011364801E+03  0.10011364801E+03  0.00000000000E+00 0. -1.
         25    2    1    2    0    0  0.19110271994E+02  0.13174225019E+02 -0.10558655211E+02  0.12765448188E+03  0.12508164871E+03 0.  0.
          5    1    3    3  502    0  0.64523048298E+02  0.31878485640E+02  0.12618735493E+02  0.73185835336E+02  0.41800000000E+01 0. -1.
         -5    1    3    3    0  502 -0.45412776304E+02 -0.18704260621E+02 -0.23177390704E+02  0.54468646549E+02  0.41800000000E+01 0. -1.
        -11    1    1    2    0    0 -0.35136984797E+02 -0.41432233318E+01  0.64762840780E+02  0.73797015835E+02  0.00000000000E+00 0.  1.
         11    1    1    2    0    0  0.16026712803E+02 -0.90310016868E+01 -0.23296195993E+02  0.29683787873E+02  0.00000000000E+00 0. -1.
</event>
<event>
 7    1  0.2499014E-009  0.9299665E+02  0.7561462E-02  0.1295753E+00
          2   -1    0    0  501    0  0.00000000000E+00  0.00000000000E+00  0.20044479124E+03  0.20044479124E+03  0.00000000000E+00 0.  1.
         -2   -1    0    0    0  501 -0.00000000000E+00 -0.00000000000E+00 -0.97225452109E+02  0.97225452109E+02  0.00000000000E+00 0. -1.
         25    2    1    2    0    0 -0.50645725941E+01  0.12959049804E+02  0.14941256403E+03  0.19535876297E+03  0.12508934851E+03 0.  0.
          5    1    3    3  502    0 -0.48539453124E+02  0.42470886597E+02  0.46139997306E+02  0.79411752715E+02  0.41800000000E+01 0.  1.
         -5    1    3    3    0  502  0.43474880530E+02 -0.29511836794E+02  0.10327256672E+03  0.11594701025E+03  0.41800000000E+01 0.  1.
        -11    1    1    2    0    0  0.11314867056E+01 -0.40657580681E+02  0.78800710248E+01  0.41429634905E+02  0.00000000000E+00 0.  1.
         11    1    1    2    0    0  0.39330858885E+01  0.27698530878E+02 -0.54073295921E+02  0.60881845481E+02  0.00000000000E+00 0. -1.
</event>
<event>
 7    1  0.2499014E-009  0.1919635E+03  0.7561462E-02  0.1156702E+00
         -2   -1    0    0    0  501 -0.00000000000E+00  0.00000000000E+00  0.30293491811E+02  0.30293491811E+02  0.00000000000E+00 0.  1.
          2   -1    0    0  501    0  0.00000000000E+00 -0.00000000000E+00 -0.15963938141E+04  0.15963938141E+04  0.00000000000E+00 0. -1.
         25    2    1    2    0    0 -0.13944437293E+03 -0.12874108833E+03 -0.89509016119E+03  0.92350106597E+03  0.12509524856E+03 0.  0.
          5    1    3    3  502    0 -0.55277305749E+02 -0.43656376094E+02 -0.11995197601E+03  0.13916683748E+03  0.41800000000E+01 0.  1.
         -5    1    3    3    0  502 -0.84167067185E+02 -0.85084712237E+02 -0.77513818518E+03  0.78433422848E+03  0.41800000000E+01 0.  1.
        -11    1    1    2    0    0  0.78271845341E+02  0.97166314705E+02 -0.54990752503E+03  0.56388479371E+03  0.00000000000E+00 0. -1.
         11    1    1    2    0    0  0.61172527593E+02  0.31574773627E+02 -0.12110263606E+03  0.13930144623E+03  0.00000000000E+00 0.  1.
</event>
<event>
 7    1  0.2499014E-009  0.1057577E+03  0.7561462E-02  0.1268634E+00
         -1   -1    0    0    0  501 -0.00000000000E+00  0.00000000000E+00  0.18856451155E+02  0.18856451155E+02  0.00000000000E+00 0.  1.
          1   -1    0    0  501    0  0.00000000000E+00 -0.00000000000E+00 -0.10529262497E+04  0.10529262497E+04  0.00000000000E+00 0. -1.
         25    2    1    2    0    0 -0.71621027670E+02 -0.44622398918E+01 -0.77561667320E+03  0.78891048257E+03  0.12509613332E+03 0.  0.
          5    1    3    3  502    0  0.18258657550E+02 -0.36651511514E+02 -0.13288633881E+03  0.13911492844E+03  0.41800000000E+01 0.  1.
         -5    1    3    3    0  502 -0.89879685220E+02  0.32189271622E+02 -0.64273033439E+03  0.64979555413E+03  0.41800000000E+01 0.  1.
        -11    1    1    2    0    0  0.62620878832E+02  0.11117321932E+02 -0.26315492717E+03  0.27073138903E+03  0.00000000000E+00 0. -1.
         11    1    1    2    0    0  0.90001488379E+01 -0.66550820401E+01  0.47018017828E+01  0.12140829299E+02  0.00000000000E+00 0.  1.
</event>
<event>
 7    1  0.2499014E-009  0.1195388E+03  0.7561462E-02  0.1243860E+00
         -2   -1    0    0    0  501 -0.00000000000E+00  0.00000000000E+00  0.55449059269E+02  0.55449059269E+02  0.00000000000E+00 0.  1.
          2   -1    0    0  501    0  0.00000000000E+00 -0.00000000000E+00 -0.28854459778E+03  0.28854459778E+03  0.00000000000E+00 0. -1.
         25    2    1    2    0    0 -0.37304315222E+02  0.49947996640E+02 -0.10957283398E+03  0.17759488654E+03  0.12508926203E+03 0.  0.
          5    1    3    3  502    0 -0.63635362516E+00  0.84838997321E+02 -0.47258666258E+02  0.97205526329E+02  0.41800000000E+01 0.  1.
         -5    1    3    3    0  502 -0.36667961597E+02 -0.34891000681E+02 -0.62314167726E+02  0.80389360214E+02  0.41800000000E+01 0.  1.
        -11    1    1    2    0    0  0.58501775443E+02 -0.11764635355E+02 -0.39079841004E+02  0.71330907382E+02  0.00000000000E+00 0.  1.
         11    1    1    2    0    0 -0.21197460222E+02 -0.38183361285E+02 -0.84442863526E+02  0.95067863126E+02  0.00000000000E+00 0. -1.
</event>
<event>
 7    1  0.2499014E-009  0.1328959E+03  0.7561462E-02  0.1223221E+00
         -1   -1    0    0    0  501 -0.00000000000E+00  0.00000000000E+00  0.47404245563E+03  0.47404245563E+03  0.00000000000E+00 0.  1.
          1   -1    0    0  501    0  0.00000000000E+00 -0.00000000000E+00 -0.37801718797E+02  0.37801718797E+02  0.00000000000E+00 0. -1.
         25    2    1    2    0    0 -0.56345846224E+02  0.54019265705E+02  0.23523820806E+03  0.27762927438E+03  0.12509222200E+03 0.  0.
          5    1    3    3  502    0  0.21756715602E+02 -0.25911849945E+02  0.39330752157E+02  0.52049583155E+02  0.41800000000E+01 0. -1.
         -5    1    3    3    0  502 -0.78102561826E+02  0.79931115651E+02  0.19590745590E+03  0.22557969122E+03  0.41800000000E+01 0. -1.
        -11    1    1    2    0    0  0.56292227450E+02  0.88626834729E+01  0.10462810645E+03  0.11914026477E+03  0.00000000000E+00 0.  1.
         11    1    1    2    0    0  0.53618774718E-01 -0.62881949178E+02  0.96374422320E+02  0.11507463528E+03  0.00000000000E+00 0. -1.
</event>
<event>
 7    1  0.2499014E-009  0.1029852E+03  0.7561462E-02  0.1274141E+00
         -2   -1    0    0    0  501 -0.00000000000E+00  0.00000000000E+00  0.13460725205E+02  0.13460725205E+02  0.00000000000E+00 0.  1.
          2   -1    0    0  501    0  0.00000000000E+00 -0.00000000000E+00 -0.11324239477E+04  0.11324239477E+04  0.00000000000E+00 0. -1.
         25    2    1    2    0    0 -0.58756398700E+02 -0.23709911695E+01 -0.65760046402E+03  0.67196951424E+03  0.12508685702E+03 0.  0.
          5    1    3    3  502    0  0.17153327185E+02 -0.12481263064E+02 -0.19010058904E+02  0.28790159790E+02  0.41800000000E+01 0. -1.
         -5    1    3    3    0  502 -0.75909725885E+02  0.10110271895E+02 -0.63859040512E+03  0.64317935445E+03  0.41800000000E+01 0. -1.
        -11    1    1    2    0    0  0.70905000918E+02  0.30368783750E+02 -0.35350167676E+03  0.36181931631E+03  0.00000000000E+00 0.  1.
         11    1    1    2    0    0 -0.12148602218E+02 -0.27997792580E+02 -0.10786108171E+03  0.11209584236E+03  0.00000000000E+00 0. -1.
</event>
<event>
 7    1  0.2656458E-009  0.1509892E+03  0.7561462E-02  0.1199263E+00
          1   -1    0    0  501    0  0.00000000000E+00  0.00000000000E+00  0.79474929902E+03  0.79474929902E+03  0.00000000000E+00 0. -1.
         -1   -1    0    0    0  501 -0.00000000000E+00 -0.00000000000E+00 -0.37082717447E+02  0.37082717447E+02  0.00000000000E+00 0.  1.
         25    2    1    2    0    0  0.10807426275E+03 -0.76303750566E+02  0.40763733148E+03  0.44644992394E+03  0.12508809678E+03 0.  0.
          5    1    3    3  502    0  0.11185253260E+03 -0.67873607805E+02  0.20289956480E+03  0.24146122148E+03  0.41800000000E+01 0. -1.
         -5    1    3    3    0  502 -0.37782698525E+01 -0.84301427605E+01  0.20473776668E+03  0.20498870246E+03  0.41800000000E+01 0. -1.
        -11    1    1    2    0    0 -0.90403808455E+01  0.59870028949E+02  0.14332964690E+03  0.15559414042E+03  0.00000000000E+00 0.  1.
         11    1    1    2    0    0 -0.99033881905E+02  0.16433721616E+02  0.20669960320E+03  0.22978795211E+03  0.00000000000E+00 0. -1.
</event>
<event>
 7    1  0.2499014E-009  0.1051776E+03  0.7561462E-02  0.1269770E+00
          1   -1    0    0  501    0  0.00000000000E+00  0.00000000000E+00  0.73153381224E+02  0.73153381224E+02  0.00000000000E+00 0. -1.
         -1   -1    0    0    0  501 -0.00000000000E+00 -0.00000000000E+00 -0.19593149695E+03  0.19593149695E+03  0.00000000000E+00 0.  1.
         25    2    1    2    0    0  0.16658836098E+02 -0.48871538684E+02 -0.68447791785E+02  0.15164965761E+03  0.12508626760E+03 0.  0.
          5    1    3    3  502    0  0.68794923600E+02 -0.89674386965E+01 -0.36853107652E+02  0.78668802034E+02  0.41800000000E+01 0. -1.
         -5    1    3    3    0  502 -0.52136087502E+02 -0.39904099988E+02 -0.31594684133E+02  0.72980855581E+02  0.41800000000E+01 0. -1.
        -11    1    1    2    0    0  0.20132357796E+02  0.15750273524E+02 -0.62257717085E+02  0.67300863911E+02  0.00000000000E+00 0.  1.
         11    1    1    2    0    0 -0.36791193893E+02  0.33121265161E+02  0.79273931489E+01  0.50134356644E+02  0.00000000000E+00 0. -1.
</event>
<event>
 7    1  0.2499014E-009  0.9827956E+02  0.7561462E-02  0.1283956E+00
          2   -1    0    0  501    0  0.00000000000E+00  0.00000000000E+00  0.79174251178E+03  0.79174251178E+03  0.00000000000E+00 0. -1.
         -2   -1    0    0    0  501 -0.00000000000E+00 -0.00000000000E+00 -0.17237918316E+02  0.17237918316E+02  0.00000000000E+00 0.  1.
         25    2    1    2    0    0 -0.40758570439E+02  0.45564378225E+01  0.39709378235E+03  0.41834591508E+03  0.12509120868E+03 0.  0.
          5    1    3    3  502    0 -0.69522320476E+02  0.19623413097E+02  0.36637360243E+03  0.37345082721E+03  0.41800000000E+01 0.  1.
         -5    1    3    3    0  502  0.28763750038E+02 -0.15066975275E+02  0.30720179918E+02  0.44895087864E+02  0.41800000000E+01 0.  1.
        -11    1    1    2    0    0  0.26133624305E+02 -0.43005876391E+02  0.28600316795E+03  0.29039676961E+03  0.00000000000E+00 0.  1.
         11    1    1    2    0    0  0.14624946134E+02  0.38449438568E+02  0.91407643167E+02  0.10023774541E+03  0.00000000000E+00 0. -1.
</event>
<event>
 7    1  0.2499014E-009  0.1645943E+03  0.7561462E-02  0.1183605E+00
         -1   -1    0    0    0  501 -0.00000000000E+00  0.00000000000E+00  0.24477138673E+02  0.24477138673E+02  0.00000000000E+00 0.  1.
          1   -1    0    0  501    0  0.00000000000E+00 -0.00000000000E+00 -0.13028990658E+04  0.13028990658E+04  0.00000000000E+00 0. -1.
         25    2    1    2    0    0  0.11964712909E+02 -0.14094225995E+03 -0.68226115535E+03  0.70791023549E+03  0.12509493365E+03 0.  0.
          5    1    3    3  502    0 -0.26077278331E+02 -0.10634730894E+03 -0.25501438667E+03  0.27756005544E+03  0.41800000000E+01 0. -1.
         -5    1    3    3    0  502  0.38041991239E+02 -0.34594951009E+02 -0.42724676867E+03  0.43035018006E+03  0.41800000000E+01 0. -1.
        -11    1    1    2    0    0  0.27592732408E+02  0.12025732671E+03 -0.45348566330E+03  0.46997066965E+03  0.00000000000E+00 0. -1.
         11    1    1    2    0    0 -0.39557445317E+02  0.20684933238E+02 -0.14267510846E+03  0.14949529931E+03  0.00000000000E+00 0.  1.
</event>
<event>
 7    1  0.2499014E-009  0.1661726E+03  0.7561462E-02  0.1181899E+00
          1   -1    0    0  501    0  0.00000000000E+00  0.00000000000E+00  0.15550454572E+04  0.15550454572E+04  0.00000000000E+00 0. -1.
         -1   -1    0    0    0  501 -0.00000000000E+00 -0.00000000000E+00 -0.52549776829E+02  0.52549776829E+02  0.00000000000E+00 0.  1.
         25    2    1    2    0    0  0.81803705370E+02 -0.12774541068E+03  0.13799425990E+04  0.13938795140E+04  0.12509111462E+03 0.  0.
          5    1    3    3  502    0  0.12935146192E+02 -0.10800125682E+03  0.53909529802E+03  0.54997527420E+03  0.41800000000E+01 0. -1.
         -5    1    3    3    0  502  0.68868559177E+02 -0.19744153857E+02  0.84084730095E+03  0.84390423981E+03  0.41800000000E+01 0. -1.
        -11    1    1    2    0    0 -0.50937785568E+02  0.82413105076E+02  0.12579227164E+03  0.15877743383E+03  0.00000000000E+00 0. -1.
         11    1    1    2    0    0 -0.30865919802E+02  0.45332305602E+02 -0.32391902444E+01  0.54938286193E+02  0.00000000000E+00 0.  1.
</event>
<event>
 7    1  0.2499014E-009  0.1129308E+03  0.7561462E-02  0.1255237E+00
          4   -1    0    0  501    0  0.00000000000E+00  0.00000000000E+00  0.16795417730E+03  0.16795417730E+03  0.00000000000E+00 0. -1.
         -4   -1    0    0    0  501 -0.00000000000E+00 -0.00000000000E+00 -0.10565134399E+03  0.10565134399E+03  0.00000000000E+00 0.  1.
         25    2    1    2    0    0  0.50478718488E+02  0.29180139434E+02 -0.12156603370E+02  0.13854491797E+03  0.12508928704E+03 0.  0.
          5    1    3    3  502    0  0.22450354350E+02  0.69632659469E+02 -0.38273046490E+02  0.82674204942E+02  0.41800000000E+01 0.  1.
         -5    1    3    3    0  502  0.28028364137E+02 -0.40452520035E+02  0.26116443121E+02  0.55870713032E+02  0.41800000000E+01 0.  1.
        -11    1    1    2    0    0 -0.22253346454E+02 -0.58440423415E+02  0.70462291423E+02  0.94209495434E+02  0.00000000000E+00 0.  1.
         11    1    1    2    0    0 -0.28225372033E+02  0.29260283981E+02  0.39971452610E+01  0.40851107884E+02  0.00000000000E+00 0. -1.
</event>
<event>
 7    1  0.2499014E-009  0.1445965E+03  0.7561462E-02  0.1207274E+00
         -2   -1    0    0    0  501 -0.00000000000E+00  0.00000000000E+00  0.20743717718E+03  0.20743717718E+03  0.00000000000E+00 0.  1.
          2   -1    0    0  501    0  0.00000000000E+00 -0.00000000000E+00 -0.13020631034E+03  0.13020631034E+03  0.00000000000E+00 0. -1.
         25    2    1    2    0    0 -0.73873855471E+02 -0.90632564148E+02  0.23569364582E+01  0.17124365996E+03  0.12508887929E+03 0.  0.
          5    1    3    3  502    0 -0.55639074549E+02  0.13863128786E+02 -0.23293060441E+02  0.62031701743E+02  0.41800000000E+01 0. -1.
         -5    1    3    3    0  502 -0.18234780922E+02 -0.10449569293E+03  0.25649996899E+02  0.10921195822E+03  0.41800000000E+01 0. -1.
        -11    1    1    2    0    0  0.47611842376E+01  0.38959995241E+02 -0.14801348224E+02  0.41947944095E+02  0.00000000000E+00 0. -1.
         11    1    1    2    0    0  0.69112671233E+02  0.51672568907E+02  0.89675278612E+02  0.12445188346E+03  0.00000000000E+00 0.  1.
</event>
<event>
 7    1  0.2499014E-009  0.6468672E+02  0.7561462E-02  0.1379154E+00
          1   -1    0    0  501    0  0.00000000000E+00  0.00000000000E+00  0.39365633545E+02  0.39365633545E+02  0.00000000000E+00 0. -1.
         -1   -1    0    0    0  501 -0.00000000000E+00 -0.00000000000E+00 -0.47424418445E+03  0.47424418445E+03  0.00000000000E+00 0.  1.
         25    2    1    2    0    0  0.48003828178E+02  0.30055994137E+02 -0.35675923385E+03  0.38227252529E+03  0.12508957729E+03 0.  0.
          5    1    3    3  502    0  0.42356075063E+02  0.34673255592E+02 -0.46627524255E+02  0.72026871140E+02  0.41800000000E+01 0. -1.
         -5    1    3    3    0  502  0.56477531150E+01 -0.46172614547E+01 -0.31013170960E+03  0.31024565415E+03  0.41800000000E+01 0. -1.
        -11    1    1    2    0    0 -0.43776778203E+02 -0.91289189567E+01 -0.94421202045E+02  0.10447538881E+03  0.00000000000E+00 0.  1.
         11    1    1    2    0    0 -0.42270499744E+01 -0.20927075181E+02  0.16301884990E+02  0.26861903904E+02  0.00000000000E+00 0. -1.
</event>
<event>
 7    1  0.2499014E-009  0.1735468E+03  0.7561462E-02  0.1174199E+00
          2   -1    0    0  501    0  0.00000000000E+00  0.00000000000E+00  0.93884526554E+02  0.93884526554E+02  0.00000000000E+00 0. -1.
         -2   -1    0    0    0  501 -0.00000000000E+00 -0.00000000000E+00 -0.41749064175E+03  0.41749064175E+03  0.00000000000E+00 0.  1.
         25    2    1    2    0    0  0.15474419890E+03 -0.54897285043E+02 -0.13727387938E+03  0.24789992948E+03  0.12510306981E+03 0.  0.
          5    1    3    3  502    0  0.24554790481E+02 -0.32599319073E+02 -0.10374395363E+03  0.11156134480E+03  0.41800000000E+01 0. -1.
         -5    1    3    3    0  502  0.13018940842E+03 -0.22297965970E+02 -0.33529925756E+02  0.13633858468E+03  0.41800000000E+01 0. -1.
        -11    1    1    2    0    0 -0.14693764829E+03  0.32901072964E+02 -0.18704632928E+03  0.24012388966E+03  0.00000000000E+00 0.  1.
         11    1    1    2    0    0 -0.78065506105E+01  0.21996212080E+02  0.71409347061E+00  0.23351349164E+02  0.00000000000E+00 0. -1.
</event>
<event>
 7    1  0.2499014E-009  0.9346534E+02  0.7561462E-02  0.1294670E+00
          4   -1    0    0  501    0  0.00000000000E+00  0.00000000000E+00  0.24947319832E+02  0.24947319832E+02  0.00000000000E+00 0. -1.
         -4   -1    0    0    0  501 -0.00000000000E+00 -0.00000000000E+00 -0.62072162222E+03  0.62072162222E+03  0.00000000000E+00 0.  1.
         25    2    1    2    0    0 -0.69946905660E+01 -0.56241141919E+02 -0.39650296775E+03  0.41961182029E+03  0.12508990587E+03 0.  0.
          5    1    3    3  502    0 -0.43662150150E+02 -0.75700818339E+02 -0.32742389058E+03  0.33891130665E+03  0.41800000000E+01 0. -1.
         -5    1    3    3    0  502  0.36667459584E+02  0.19459676421E+02 -0.69079077166E+02  0.80700513634E+02  0.41800000000E+01 0. -1.
        -11    1    1    2    0    0  0.52734772220E+01  0.88838120182E+01  0.82330148433E+01  0.13210382712E+02  0.00000000000E+00 0. -1.
         11    1    1    2    0    0  0.17212133440E+01  0.47357329900E+02 -0.20750434948E+03  0.21284673905E+03  0.00000000000E+00 0.  1.
</event>
<event>
 7    1  0.2499014E-009  0.8733443E+02  0.7561462E-02  0.1309438E+00
          1   -1    0    0  501    0  0.00000000000E+00  0.00000000000E+00  0.29684788082E+03  0.29684788082E+03  0.00000000000E+00 0. -1.
         -1   -1    0    0    0  501 -0.00000000000E+00 -0.00000000000E+00 -0.41449981502E+02  0.41449981502E+02  0.00000000000E+00 0.  1.
         25    2    1    2    0    0 -0.80327735775E+00 -0.96440814581E+01  0.17356894368E+03  0.21416790069E+03  0.12509219765E+03 0.  0.
          5    1    3    3  502    0 -0.39388819547E+02  0.98387808598E+01  0.62307213719E+01  0.41286499039E+02  0.41800000000E+01 0. -1.
         -5    1    3    3    0  502  0.38585542189E+02 -0.19482862318E+02  0.16733822231E+03  0.17288140165E+03  0.41800000000E+01 0. -1.
        -11    1    1    2    0    0 -0.11067302237E+02 -0.38905270855E+02  0.52166650741E+02  0.66011095496E+02  0.00000000000E+00 0. -1.
         11    1    1    2    0    0  0.11870579595E+02  0.48549352313E+02  0.29662304903E+02  0.58118866146E+02  0.00000000000E+00 0.  1.
</event>
<event>
 7    1  0.2499014E-009  0.1104207E+03  0.7561462E-02  0.1259793E+00
          1   -1    0    0  501    0  0.00000000000E+00  0.00000000000E+00  0.30481344351E+03  0.30481344351E+03  0.00000000000E+00 0. -1.
         -1   -1    0    0    0  501 -0.00000000000E+00 -0.00000000000E+00 -0.58108237731E+02  0.58108237731E+02  0.00000000000E+00 0.  1.
         25    2    1    2    0    0  0.57261296157E+02  0.60851424640E+01  0.66352038184E+02  0.15285768181E+03  0.12508794075E+03 0.  0.
          5    1    3    3  502    0 -0.18218565481E+02 -0.25206576378E+02  0.63686728539E+02  0.70998305704E+02  0.41800000000E+01 0.  1.
         -5    1    3    3    0  502  0.75479861638E+02  0.31291718842E+02  0.26653096453E+01  0.81859376106E+02  0.41800000000E+01 0.  1.
        -11    1    1    2    0    0  0.22047253259E+02  0.13632749866E+02  0.46399536683E+02  0.53149320311E+02  0.00000000000E+00 0.  1.
         11    1    1    2    0    0 -0.79308549416E+02 -0.19717892330E+02  0.13395363091E+03  0.15691467912E+03  0.00000000000E+00 0. -1.
</event>
<event>
 7    1  0.2499014E-009  0.2397728E+03  0.7561462E-02  0.1119944E+00
         -2   -1    0    0    0  501 -0.00000000000E+00  0.00000000000E+00  0.33152837121E+03  0.33152837121E+03  0.00000000000E+00 0.  1.
          2   -1    0    0  501    0  0.00000000000E+00 -0.00000000000E+00 -0.19501270130E+03  0.19501270130E+03  0.00000000000E+00 0. -1.
         25    2    1    2    0    0 -0.37744262507E+02  0.21884093566E+03  0.98481757381E+01  0.25507154250E+03  0.12509404765E+03 0.  0.
          5    1    3    3  502    0  0.24001447403E+02  0.12326282022E+03  0.48708410164E+02  0.13475820549E+03  0.41800000000E+01 0. -1.
         -5    1    3    3    0  502 -0.61745709910E+02  0.95578115435E+02 -0.38860234426E+02  0.12031333701E+03  0.41800000000E+01 0. -1.
        -11    1    1    2    0    0 -0.25611207579E+02 -0.11946745354E+03  0.67818562828E+02  0.13974177569E+03  0.00000000000E+00 0.  1.
         11    1    1    2    0    0  0.63355470085E+02 -0.99373482112E+02  0.58848931350E+02  0.13172775432E+03  0.00000000000E+00 0. -1.
</event>
<event>
 7    1  0.2499014E-009  0.9266252E+02  0.7561462E-02  0.1296529E+00
          1   -1    0    0  501    0  0.00000000000E+00  0.00000000000E+00  0.13846176451E+03  0.13846176451E+03  0.00000000000E+00 0. -1.
         -1   -1    0    0    0  501 -0.00000000000E+00 -0.00000000000E+00 -0.94602064928E+02  0.94602064928E+02  0.00000000000E+00 0.  1.
         25    2    1    2    0    0  0.43942936562E+01  0.35458356855E+02  0.11932196352E+02  0.13063591383E+03  0.12508700885E+03 0.  0.
          5    1    3    3  502    0  0.47291074379E+02  0.62912119902E+02  0.39405592123E+01  0.78913756427E+02  0.41800000000E+01 0. -1.
         -5    1    3    3    0  502 -0.42896780722E+02 -0.27453763047E+02  0.79916371397E+01  0.51722157399E+02  0.41800000000E+01 0. -1.
        -11    1    1    2    0    0  0.12207109371E+02 -0.36781881323E+02 -0.22976426791E+02  0.45053706850E+02  0.00000000000E+00 0.  1.
         11    1    1    2    0    0 -0.16601403027E+02  0.13235244685E+01  0.54903930018E+02  0.57374208760E+02  0.00000000000E+00 0. -1.
</event>
<event>
 7    1  0.2499014E-009  0.1201266E+03  0.7561462E-02  0.1242888E+00
          1   -1    0    0  501    0  0.00000000000E+00  0.00000000000E+00  0.56534340624E+02  0.56534340624E+02  0.00000000000E+00 0. -1.
         -1   -1    0    0    0  501 -0.00000000000E+00 -0.00000000000E+00 -0.28377487200E+03  0.28377487200E+03  0.00000000000E+00 0.  1.
         25    2    1    2    0    0  0.39197311424E+02 -0.54957540547E+02 -0.13948331112E+03  0.19914734169E+03  0.12508920472E+03 0.  0.
          5    1    3    3  502    0  0.75399610041E+02 -0.69759128359E+02 -0.10133049935E+03  0.14434950531E+03  0.41800000000E+01 0. -1.
         -5    1    3    3    0  502 -0.36202298617E+02  0.14801587812E+02 -0.38152811766E+02  0.54797836386E+02  0.41800000000E+01 0. -1.
        -11    1    1    2    0    0 -0.39735631584E+02 -0.32829676309E+01 -0.69499686205E+02  0.80124307651E+02  0.00000000000E+00 0.  1.
         11    1    1    2    0    0  0.53832016014E+00  0.58240508178E+02 -0.18257534050E+02  0.61037563279E+02  0.00000000000E+00 0. -1.
</event>
<event>
 7    1  0.2499014E-009  0.7545327E+02  0.7561462E-02  0.1342473E+00
         -2   -1    0    0    0  501 -0.00000000000E+00  0.00000000000E+00  0.33392168152E+02  0.33392168152E+02  0.00000000000E+00 0.  1.
          2   -1    0    0  501    0  0.00000000000E+00 -0.00000000000E+00 -0.36899591335E+03  0.36899591335E+03  0.00000000000E+00 0. -1.
         25    2    1    2    0    0  0.14513440082E+02 -0.11469942268E+02 -0.22284604322E+03  0.25622243480E+03  0.12508947836E+03 0.  0.
          5    1    3    3  502    0 -0.77821495294E+01  0.24450528697E+02 -0.21033430887E+03  0.21193485813E+03  0.41800000000E+01 0.  1.
         -5    1    3    3    0  502  0.22295589612E+02 -0.35920470965E+02 -0.12511734356E+02  0.44287576668E+02  0.41800000000E+01 0.  1.
        -11    1    1    2    0    0  0.72125428800E+01 -0.32548258638E+02 -0.14552779938E+02  0.36375724310E+02  0.00000000000E+00 0.  1.
         11    1    1    2    0    0 -0.21725982962E+02  0.44018200906E+02 -0.98204922034E+02  0.10978992239E+03  0.00000000000E+00 0. -1.
</event>
<event>
 7    1  0.2499014E-009  0.1249612E+03  0.7561462E-02  0.1235130E+00
          1   -1    0    0  501    0  0.00000000000E+00  0.00000000000E+00  0.16426796472E+03  0.16426796472E+03  0.00000000000E+00 0. -1.
         -1   -1    0    0    0  501 -0.00000000000E+00 -0.00000000000E+00 -0.10903947438E+03  0.10903947438E+03  0.00000000000E+00 0.  1.
         25    2    1    2    0    0  0.19390400754E+00  0.72234456334E+02  0.60402173194E+02  0.15656988404E+03  0.12509137373E+03 0.  0.
          5    1    3    3  502    0  0.49863222158E+02  0.72840026024E+02  0.15989058945E+02  0.89806083987E+02  0.41800000000E+01 0.  1.
         -5    1    3    3    0  502 -0.49669318151E+02 -0.60556968978E+00  0.44413114250E+02  0.66763800054E+02  0.41800000000E+01 0.  1.
        -11    1    1    2    0    0 -0.38603469882E+02 -0.12298327953E+02  0.14249658910E+02  0.42947986407E+02  0.00000000000E+00 0. -1.
         11    1    1    2    0    0  0.38409565875E+02 -0.59936128381E+02 -0.19423341765E+02  0.73789568648E+02  0.00000000000E+00 0.  1.
</event>
<event>
 7    1  0.2499014E-009  0.5003726E+02  0.7561462E-02  0.1445141E+00
         -2   -1    0    0    0  501 -0.00000000000E+00  0.00000000000E+00  0.15380611940E+03  0.15380611940E+03  0.00000000000E+00 0.  1.
          2   -1    0    0  501    0  0.00000000000E+00 -0.00000000000E+00 -0.17303417185E+03  0.17303417185E+03  0.00000000000E+00 0. -1.
         25    2    1    2    0    0 -0.41056283155E+02 -0.14243735473E+02 -0.12333455633E+03  0.18096284044E+03  0.12509050503E+03 0.  0.
          5    1    3    3  502    0 -0.34084851755E+02 -0.25391307822E+02  0.12444952848E+02  0.44484209372E+02  0.41800000000E+01 0. -1.
         -5    1    3    3    0  502 -0.69714314001E+01  0.11147572349E+02 -0.13577950918E+03  0.13647863106E+03  0.41800000000E+01 0. -1.
        -11    1    1    2    0    0  0.14907401434E+02  0.35853875465E+01 -0.16197766125E+02  0.22303659987E+02  0.00000000000E+00 0. -1.
         11    1    1    2    0    0  0.26148881721E+02  0.10658347926E+02  0.12030427001E+03  0.12357379082E+03  0.00000000000E+00 0.  1.
</event>
<event>
 7    1  0.2499014E-009  0.1137969E+03  0.7561462E-02  0.1253696E+00
         -2   -1    0    0    0  501 -0.00000000000E+00  0.00000000000E+00  0.25281106517E+02  0.25281106517E+02  0.00000000000E+00 0.  1.
          2   -1    0    0  501    0  0.00000000000E+00 -0.00000000000E+00 -0.21150597137E+04  0.21150597137E+04  0.00000000000E+00 0. -1.
         25    2    1    2    0    0 -0.34081965088E+02 -0.54735241250E+02 -0.19724770116E+04  0.19774908250E+04  0.12508746751E+03 0.  0.
          5    1    3    3  502    0  0.36451562502E+02 -0.54422593052E+02 -0.70604593245E+03  0.70909016787E+03  0.41800000000E+01 0.  1.
         -5    1    3    3    0  502 -0.70533527590E+02 -0.31264819829E+00 -0.12664310791E+04  0.12684006571E+04  0.41800000000E+01 0.  1.
        -11    1    1    2    0    0  0.32145505429E+02 -0.41244009188E+01 -0.94148792711E+02  0.99570775688E+02  0.00000000000E+00 0. -1.
         11    1    1    2    0    0  0.19364596594E+01  0.58859642169E+02 -0.23152802918E+02  0.63279219616E+02  0.00000000000E+00 0.  1.
</event>
<event>
 7    1  0.2499014E-009  0.1154740E+03  0.7561462E-02  0.1250756E+00
         -1   -1    0    0    0  501 -0.00000000000E+00  0.00000000000E+00  0.18819990724E+03  0.18819990724E+03  0.00000000000E+00 0.  1.
          1   -1    0    0  501    0  0.00000000000E+00 -0.00000000000E+00 -0.10427487904E+03  0.10427487904E+03  0.00000000000E+00 0. -1.
         25    2    1    2    0    0 -0.17348852850E+02 -0.83964267339E+02  0.26489263043E+02  0.15394818500E+03  0.12508949486E+03 0.  0.
          5    1    3    3  502    0  0.36624390768E+02 -0.55861786693E+01  0.43386603944E+02  0.57205080133E+02  0.41800000000E+01 0.  1.
         -5    1    3    3    0  502 -0.53973243618E+02 -0.78378088669E+02 -0.16897340900E+02  0.96743104869E+02  0.41800000000E+01 0.  1.
        -11    1    1    2    0    0 -0.14269854034E+01  0.78966447823E+02  0.77460568896E+02  0.11062493346E+03  0.00000000000E+00 0.  1.
         11    1    1    2    0    0  0.18775838253E+02  0.49978195154E+01 -0.20024803748E+02  0.27901667820E+02  0.00000000000E+00 0. -1.
</event>
<event>
 7    1  0.2499014E-009  0.1516790E+03  0.7561462E-02  0.1198425E+00
         -2   -1    0    0    0  501 -0.00000000000E+00  0.00000000000E+00  0.61620143945E+02  0.61620143945E+02  0.00000000000E+00 0.  1.
          2   -1    0    0  501    0  0.00000000000E+00 -0.00000000000E+00 -0.62127989682E+03  0.62127989682E+03  0.00000000000E+00 0. -1.
         25    2    1    2    0    0  0.12513328625E+03  0.15113116369E+02 -0.11627456839E+03  0.21225662219E+03  0.12508538201E+03 0.  0.
          5    1    3    3  502    0  0.59238765371E+02  0.68495899041E+02 -0.75923181438E+02  0.11824855766E+03  0.41800000000E+01 0. -1.
         -5    1    3    3    0  502  0.65894520882E+02 -0.53382782672E+02 -0.40351386951E+02  0.94008064532E+02  0.41800000000E+01 0. -1.
        -11    1    1    2    0    0 -0.64996887702E+02 -0.18454689374E+02 -0.36800657350E+03  0.37415773293E+03  0.00000000000E+00 0. -1.
         11    1    1    2    0    0 -0.60136398552E+02  0.33415730048E+01 -0.75378610987E+02  0.96485685650E+02  0.00000000000E+00 0.  1.
</event>
<event>
 7    1  0.2499014E-009  0.1010155E+03  0.7561462E-02  0.1278175E+00
         -1   -1    0    0    0  501 -0.00000000000E+00  0.00000000000E+00  0.84571687150E+03  0.84571687150E+03  0.00000000000E+00 0.  1.
          1   -1    0    0  501    0  0.00000000000E+00 -0.00000000000E+00 -0.17065688840E+02  0.17065688840E+02  0.00000000000E+00 0. -1.
         25    2    1    2    0    0  0.27231817034E+02 -0.42313828465E+02  0.47104990616E+03  0.48996671645E+03  0.12508931687E+03 0.  0.
          5    1    3    3  502    0  0.22183277226E+02  0.32499550036E+02  0.58429876913E+02  0.70567991732E+02  0.41800000000E+01 0. -1.
         -5    1    3    3    0  502  0.50485398081E+01 -0.74813378501E+02  0.41262002925E+03  0.41939872472E+03  0.41800000000E+01 0. -1.
        -11    1    1    2    0    0 -0.16183133668E+02  0.62384960791E+02  0.33307435679E+03  0.33925256712E+03  0.00000000000E+00 0.  1.
         11    1    1    2    0    0 -0.11048683366E+02 -0.20071132326E+02  0.24526919705E+02  0.33563276765E+02  0.00000000000E+00 0. -1.
</event>
<event>
 7    1  0.2499014E-009  0.1116824E+03  0.7561462E-02  0.1257486E+00
         -2   -1    0    0    0  501 -0.00000000000E+00  0.00000000000E+00  0.22217018995E+03  0.22217018995E+03  0.00000000000E+00 0.  1.
          2   -1    0    0  501    0  0.00000000000E+00 -0.00000000000E+00 -0.14661503872E+03  0.14661503872E+03  0.00000000000E+00 0. -1.
         25    2    1    2    0    0 -0.14151832105E+02 -0.65722505572E+02  0.16979347710E+03  0.22135292195E+03  0.12509024382E+03 0.  0.
          5    1    3    3  502    0 -0.42163670980E+02 -0.88377483317E+02  0.87353272818E+02  0.13128755227E+03  0.41800000000E+01 0. -1.
         -5    1    3    3    0  502  0.28011838875E+02  0.22654977745E+02  0.82440204282E+02  0.90065369682E+02  0.41800000000E+01 0. -1.
        -11    1    1    2    0    0 -0.20805586882E+02  0.94740197181E+01 -0.75090727955E+02  0.78493610695E+02  0.00000000000E+00 0. -1.
         11    1    1    2    0    0  0.34957418987E+02  0.56248485854E+02 -0.19147597920E+02  0.68938696022E+02  0.00000000000E+00 0.  1.
</event>
<event>
 7    1  0.2689117E-009  0.1354458E+03  0.7561462E-02  0.1219592E+00
          2   -1    0    0  501    0  0.00000000000E+00  0.00000000000E+00  0.66929336754E+03  0.66929336754E+03  0.00000000000E+00 0. -1.
         -2   -1    0    0    0  501 -0.00000000000E+00 -0.00000000000E+00 -0.30175570920E+02  0.30175570920E+02  0.00000000000E+00 0.  1.
         25    2    1    2    0    0 -0.51395478324E+02  0.75468667224E+02  0.32559094582E+03  0.36054581801E+03  0.12508720141E+03 0.  0.
          5    1    3    3  502    0 -0.21999735722E+02  0.10746336355E+03  0.20942746850E+03  0.23645232044E+03  0.41800000000E+01 0. -1.
         -5    1    3    3    0  502 -0.29395742602E+02 -0.31994696325E+02  0.11616347732E+03  0.12409349757E+03  0.41800000000E+01 0. -1.
        -11    1    1    2    0    0  0.59591663514E+02 -0.22227144981E+02  0.23667482925E+03  0.24507179996E+03  0.00000000000E+00 0. -1.
         11    1    1    2    0    0 -0.81961851901E+01 -0.53241522243E+02  0.76852021545E+02  0.93851320491E+02  0.00000000000E+00 0.  1.
</event>
<event>
 7    1  0.2499014E-009  0.1861048E+03  0.7561462E-02  0.1162022E+00
          2   -1    0    0  501    0  0.00000000000E+00  0.00000000000E+00  0.33581347786E+03  0.33581347786E+03  0.00000000000E+00 0. -1.
         -2   -1    0    0    0  501 -0.00000000000E+00 -0.00000000000E+00 -0.11084518854E+03  0.11084518854E+03  0.00000000000E+00 0.  1.
         25    2    1    2    0    0  0.13055142859E+03  0.91949157413E+02  0.11622967247E+03  0.23378418643E+03  0.12508951197E+03 0.  0.
          5    1    3    3  502    0  0.28534352729E+02 -0.22798632549E+02  0.59707867886E+02  0.70117678365E+02  0.41800000000E+01 0. -1.
         -5    1    3    3    0  502  0.10201707586E+03  0.11474778996E+03  0.56521804585E+02  0.16366650807E+03  0.41800000000E+01 0. -1.
        -11    1    1    2    0    0 -0.12136108699E+02 -0.57154748274E+02  0.46350124713E+02  0.74580724357E+02  0.00000000000E+00 0.  1.
         11    1    1    2    0    0 -0.11841531989E+03 -0.34794409139E+02  0.62388492134E+02  0.13829375562E+03  0.00000000000E+00 0. -1.
</event>
<event>
 7    1  0.2499014E-009  0.8986029E+02  0.7561462E-02  0.1303190E+00
          1   -1    0    0  501    0  0.00000000000E+00  0.00000000000E+00  0.63906767183E+02  0.63906767183E+02  0.00000000000E+00 0. -1.
         -1   -1    0    0    0  501 -0.00000000000E+00 -0.00000000000E+00 -0.23627901902E+03  0.23627901902E+03  0.00000000000E+00 0.  1.
         25    2    1    2    0    0  0.31582313110E+02 -0.36629249649E+02 -0.13078694078E+03  0.18732885468E+03  0.12509089289E+03 0.  0.
          5    1    3    3  502    0 -0.20241336523E+02  0.25602176956E+02  0.62601888117E+00  0.32909686549E+02  0.41800000000E+01 0.  1.
         -5    1    3    3    0  502  0.51823649632E+02 -0.62231426605E+02 -0.13141295966E+03  0.15441916813E+03  0.41800000000E+01 0.  1.
        -11    1    1    2    0    0 -0.13057244201E+02 -0.94123918773E+01  0.25047178440E+02  0.29773241254E+02  0.00000000000E+00 0. -1.
         11    1    1    2    0    0 -0.18525068908E+02  0.46041641527E+02 -0.66632489493E+02  0.83083690268E+02  0.00000000000E+00 0.  1.
</event>
<event>
 7    1  0.2499014E-009  0.6973110E+02  0.7561462E-02  0.1361010E+00
         -1   -1    0    0    0  501 -0.00000000000E+00  0.00000000000E+00  0.37161421848E+02  0.37161421848E+02  0.00000000000E+00 0.  1.
          1   -1    0    0  501    0  0.00000000000E+00 -0.00000000000E+00 -0.36933885421E+03  0.36933885421E+03  0.00000000000E+00 0. -1.
         25    2    1    2    0    0 -0.42979488929E+02 -0.68572239115E+01 -0.16990257317E+03  0.21542544735E+03  0.12508789313E+03 0.  0.
          5    1    3    3  502    0 -0.22262153810E+02  0.25188873620E+02 -0.17358661184E+03  0.17686115191E+03  0.41800000000E+01 0. -1.
         -5    1    3    3    0  502 -0.20717335118E+02 -0.32046097531E+02  0.36840386695E+01  0.38564295434E+02  0.41800000000E+01 0. -1.
        -11    1    1    2    0    0 -0.83678606724E+01  0.13025930954E+02  0.47757688175E+01  0.16201973252E+02  0.00000000000E+00 0.  1.
         11    1    1    2    0    0  0.51347349601E+02 -0.61687070423E+01 -0.16705062801E+03  0.17487285546E+03  0.00000000000E+00 0. -1.
</event>
<event>
 7    1  0.2499014E-009  0.1162201E+03  0.7561462E-02  0.1249466E+00
         -1   -1    0    0    0  501 -0.00000000000E+00  0.00000000000E+00  0.10377321750E+03  0.10377321750E+03  0.00000000000E+00 0.  1.
          1   -1    0    0  501    0  0.00000000000E+00 -0.00000000000E+00 -0.16138391406E+03  0.16138391406E+03  0.00000000000E+00 0. -1.
         25    2    1    2    0    0 -0.13898154765E+02  0.48766554236E+02  0.19608196971E+02  0.13639226294E+03  0.12508809889E+03 0.  0.
          5    1    3    3  502    0 -0.66825053811E+02  0.36516577795E+02 -0.53662585164E+01  0.76454675470E+02  0.41800000000E+01 0.  1.
         -5    1    3    3    0  502  0.52926899046E+02  0.12249976441E+02  0.24974455487E+02  0.59937587475E+02  0.41800000000E+01 0.  1.
        -11    1    1    2    0    0 -0.20724729649E+02 -0.61422024832E+02 -0.38934739479E+02  0.75618076488E+02  0.00000000000E+00 0.  1.
         11    1    1    2    0    0  0.34622884415E+02  0.12655470596E+02 -0.38284154056E+02  0.53146792123E+02  0.00000000000E+00 0. -1.
</event>
<event>
 7    1  0.2499014E-009  0.7443429E+02  0.7561462E-02  0.1345632E+00
         -1   -1    0    0    0  501 -0.00000000000E+00  0.00000000000E+00  0.15172995427E+02  0.15172995427E+02  0.00000000000E+00 0.  1.
          1   -1    0    0  501    0  0.00000000000E+00 -0.00000000000E+00 -0.94578657366E+03  0.94578657366E+03  0.00000000000E+00 0. -1.
         25    2    1    2    0    0  0.37627904110E+02 -0.12641205745E+02 -0.62575014878E+03  0.63936428440E+03  0.12509108766E+03 0.  0.
          5    1    3    3  502    0  0.17429943877E+02 -0.35607458243E+02 -0.59307707878E+03  0.59441533274E+03  0.41800000000E+01 0. -1.
         -5    1    3    3    0  502  0.20197960233E+02  0.22966252498E+02 -0.32673070002E+02  0.44948951653E+02  0.41800000000E+01 0. -1.
        -11    1    1    2    0    0 -0.24912121120E+02  0.40479210739E+02 -0.27413896576E+03  0.27822895756E+03  0.00000000000E+00 0.  1.
         11    1    1    2    0    0 -0.12715782990E+02 -0.27838004994E+02 -0.30724463690E+02  0.43366327123E+02  0.00000000000E+00 0. -1.
</event>
<event>
 7    1  0.2499014E-009  0.1063274E+03  0.7561462E-02  0.1267526E+00
          1   -1    0    0  501    0  0.00000000000E+00  0.00000000000E+00  0.81845506509E+02  0.81845506509E+02  0.00000000000E+00 0. -1.
         -1   -1    0    0    0  501 -0.00000000000E+00 -0.00000000000E+00 -0.19661111194E+03  0.19661111194E+03  0.00000000000E+00 0.  1.
         25    2    1    2    0    0 -0.42403723928E+02  0.48773542175E+02 -0.12479793824E+03  0.18814501477E+03  0.12508831669E+03 0.  0.
          5    1    3    3  502    0  0.31023503026E+02  0.56571560953E+02 -0.41869369008E+02  0.77028018992E+02  0.41800000000E+01 0. -1.
         -5    1    3    3    0  502 -0.73427226955E+02 -0.77980187777E+01 -0.82928569236E+02  0.11111699578E+03  0.41800000000E+01 0. -1.
        -11    1    1    2    0    0 -0.53261494954E+01 -0.14025220619E+02  0.25225083916E+02  0.29349268141E+02  0.00000000000E+00 0. -1.
         11    1    1    2    0    0  0.47729873424E+02 -0.34748321556E+02 -0.15192751099E+02  0.60962335536E+02  0.00000000000E+00 0.  1.
</event>
<event>
 7    1  0.2499014E-009  0.1026781E+03  0.7561462E-02  0.1274763E+00
          3   -1    0    0  501    0  0.00000000000E+00  0.00000000000E+00  0.15302759633E+03  0.15302759633E+03  0.00000000000E+00 0. -1.
         -3   -1    0    0    0  501 -0.00000000000E+00 -0.00000000000E+00 -0.12635067554E+03  0.12635067554E+03  0.00000000000E+00 0.  1.
         25    2    1    2    0    0 -0.62218142942E+02  0.10651057960E+02  0.30022689882E+02  0.14329947738E+03  0.12509530751E+03 0.  0.
          5    1    3    3  502    0 -0.35292387691E+01 -0.21731165364E+02 -0.40267062351E+02  0.46082619118E+02  0.41800000000E+01 0. -1.
         -5    1    3    3    0  502 -0.58688904173E+02  0.32382223325E+02  0.70289752233E+02  0.97216858257E+02  0.41800000000E+01 0. -1.
        -11    1    1    2    0    0  0.30938448814E+02  0.43423125075E+02 -0.37212782178E+02  0.65019586001E+02  0.00000000000E+00 0.  1.
         11    1    1    2    0    0  0.31279694128E+02 -0.54074183035E+02  0.33867013090E+02  0.71059208490E+02  0.00000000000E+00 0. -1.
</event>
<event>
 7    1  0.2499014E-009  0.1072853E+03  0.7561462E-02  0.1265681E+00
          1   -1    0    0  501    0  0.00000000000E+00  0.00000000000E+00  0.73492809321E+03  0.73492809321E+03  0.00000000000E+00 0. -1.
         -1   -1    0    0    0  501 -0.00000000000E+00 -0.00000000000E+00 -0.29652002206E+02  0.29652002206E+02  0.00000000000E+00 0.  1.
         25    2    1    2    0    0 -0.44364873868E+02  0.73008079726E+02  0.50267515348E+03  0.52500522345E+03  0.12509897274E+03 0.  0.
          5    1    3    3  502    0  0.11089382515E+02  0.69583593824E+02  0.12766821107E+03  0.14588178588E+03  0.41800000000E+01 0. -1.
         -5    1    3    3    0  502 -0.55454256383E+02  0.34244859027E+01  0.37500694241E+03  0.37912343757E+03  0.41800000000E+01 0. -1.
        -11    1    1    2    0    0  0.11330857096E+02 -0.39981976331E+02  0.18507587235E+03  0.18968401430E+03  0.00000000000E+00 0. -1.
         11    1    1    2    0    0  0.33034016772E+02 -0.33026103396E+02  0.17525065165E+02  0.49890857666E+02  0.00000000000E+00 0.  1.
</event>
<event>
 7    1  0.2499014E-009  0.1913676E+03  0.7561462E-02  0.1157234E+00
         -2   -1    0    0    0  501 -0.00000000000E+00  0.00000000000E+00  0.32572123172E+02  0.32572123172E+02  0.00000000000E+00 0.  1.
          2   -1    0    0  501    0  0.00000000000E+00 -0.00000000000E+00 -0.11643675040E+04  0.11643675040E+04  0.00000000000E+00 0. -1.
         25    2    1    2    0    0 -0.16165486385E+02  0.15933629457E+03 -0.65540324760E+03  0.68618525417E+03  0.12508960134E+03 0.  0.
          5    1    3    3  502    0 -0.63574729747E+02  0.13497282000E+03 -0.46068365442E+03  0.48425851593E+03  0.41800000000E+01 0. -1.
         -5    1    3    3    0  502  0.47409243363E+02  0.24363474572E+02 -0.19471959317E+03  0.20192673824E+03  0.41800000000E+01 0. -1.
        -11    1    1    2    0    0 -0.17867508906E+02 -0.82075916385E+00 -0.89426113643E+02  0.91197320802E+02  0.00000000000E+00 0. -1.
         11    1    1    2    0    0  0.34032995290E+02 -0.15851553540E+03 -0.38696601956E+03  0.41955705217E+03  0.00000000000E+00 0.  1.
</event>
<event>
 7    1  0.2499014E-009  0.1406569E+03  0.7561462E-02  0.1212448E+00
          2   -1    0    0  501    0  0.00000000000E+00  0.00000000000E+00  0.78000144024E+03  0.78000144024E+03  0.00000000000E+00 0. -1.
         -2   -1    0    0    0  501 -0.00000000000E+00 -0.00000000000E+00 -0.29584687403E+02  0.29584687403E+02  0.00000000000E+00 0.  1.
         25    2    1    2    0    0  0.92296185674E+02 -0.51944912965E+02  0.38102050819E+03  0.41477883745E+03  0.12509195203E+03 0.  0.
          5    1    3    3  502    0  0.11283218155E+03 -0.68125092377E+01  0.24228315552E+03  0.26738756764E+03  0.41800000000E+01 0.  1.
         -5    1    3    3    0  502 -0.20535995878E+02 -0.45132403727E+02  0.13873735267E+03  0.14739126982E+03  0.41800000000E+01 0.  1.
        -11    1    1    2    0    0 -0.68374054363E+02  0.85769792466E+01  0.10352641400E+03  0.12436355687E+03  0.00000000000E+00 0.  1.
         11    1    1    2    0    0 -0.23922131311E+02  0.43367933718E+02  0.26586983065E+03  0.27044373332E+03  0.00000000000E+00 0. -1.
</event>
<event>
 7    1  0.2499014E-009  0.1123899E+03  0.7561462E-02  0.1256207E+00
          1   -1    0    0  501    0  0.00000000000E+00  0.00000000000E+00  0.30603433405E+02  0.30603433405E+02  0.00000000000E+00 0. -1.
         -1   -1    0    0    0  501 -0.00000000000E+00 -0.00000000000E+00 -0.63680462667E+03  0.63680462667E+03  0.00000000000E+00 0.  1.
         25    2    1    2    0    0  0.78170348034E+02  0.76506731320E+01 -0.41958795520E+03  0.44482752237E+03  0.12509331076E+03 0.  0.
          5    1    3    3  502    0  0.14170032043E+02 -0.29333111526E+02 -0.20032519181E+02  0.38470709177E+02  0.41800000000E+01 0.  1.
         -5    1    3    3    0  502  0.64000315991E+02  0.36983784658E+02 -0.39955543602E+03  0.40635681319E+03  0.41800000000E+01 0.  1.
        -11    1    1    2    0    0 -0.58491660167E+02 -0.46254339135E+02 -0.91319562286E+02  0.11789826400E+03  0.00000000000E+00 0. -1.
         11    1    1    2    0    0 -0.19678687866E+02  0.38603666003E+02 -0.95293675778E+02  0.10468227371E+03  0.00000000000E+00 0.  1.
</event>
<event>
 7    1  0.2499014E-009  0.1261431E+03  0.7561462E-02  0.1233293E+00
         -2   -1    0    0    0  501 -0.00000000000E+00  0.00000000000E+00  0.66477449405E+02  0.66477449405E+02  0.00000000000E+00 0.  1.
          2   -1    0    0  501    0  0.00000000000E+00 -0.00000000000E+00 -0.49478948732E+03  0.49478948732E+03  0.00000000000E+00 0. -1.
         25    2    1    2    0    0 -0.17219564816E+02  0.10968771588E+03 -0.81744417078E+02  0.18616627237E+03  0.12509125796E+03 0.  0.
          5    1    3    3  502    0 -0.36414995758E+02  0.52934720357E+02  0.20514630708E+02  0.67575579971E+02  0.41800000000E+01 0. -1.
         -5    1    3    3    0  502  0.19195430942E+02  0.56752995526E+02 -0.10225904779E+03  0.11859069240E+03  0.41800000000E+01 0. -1.
        -11    1    1    2    0    0 -0.19311859822E+02 -0.75071629182E+02 -0.28617322605E+03  0.29648577158E+03  0.00000000000E+00 0. -1.
         11    1    1    2    0    0  0.36531424638E+02 -0.34616086702E+02 -0.60394394781E+02  0.78614892772E+02  0.00000000000E+00 0.  1.
</event>
<event>
 7    1  0.2499014E-009  0.1294847E+03  0.7561462E-02  0.1228222E+00
          2   -1    0    0  501    0  0.00000000000E+00  0.00000000000E+00  0.45047332228E+03  0.45047332228E+03  0.00000000000E+00 0. -1.
         -2   -1    0    0    0  501 -0.00000000000E+00 -0.00000000000E+00 -0.45494654597E+02  0.45494654597E+02  0.00000000000E+00 0.  1.
         25    2    1    2    0    0  0.91300161558E+02 -0.31577079010E+01  0.24904729290E+03  0.29329112546E+03  0.12509772001E+03 0.  0.
          5    1    3    3  502    0  0.59521900572E+02 -0.48131175420E+02  0.63020211189E+02  0.99239539062E+02  0.41800000000E+01 0. -1.
         -5    1    3    3    0  502  0.31778260986E+02  0.44973467519E+02  0.18602708171E+03  0.19405158640E+03  0.41800000000E+01 0. -1.
        -11    1    1    2    0    0 -0.24329949116E+02 -0.40423032576E+02  0.77382673659E+02  0.90631375193E+02  0.00000000000E+00 0. -1.
         11    1    1    2    0    0 -0.66970212442E+02  0.43580740477E+02  0.78548701124E+02  0.11204547623E+03  0.00000000000E+00 0.  1.
</event>
<event>
 7    1  0.2499014E-009  0.8850691E+02  0.7561462E-02  0.1306508E+00
          2   -1    0    0  501    0  0.00000000000E+00  0.00000000000E+00  0.64070859734E+02  0.64070859734E+02  0.00000000000E+00 0. -1.
         -2   -1    0    0    0  501 -0.00000000000E+00 -0.00000000000E+00 -0.18859307601E+03  0.18859307601E+03  0.00000000000E+00 0.  1.
         25    2    1    2    0    0 -0.79154274788E+01 -0.14585593529E+02 -0.87396598149E+02  0.15349508383E+03  0.12508869598E+03 0.  0.
          5    1    3    3  502    0  0.17372834359E+02 -0.43490645990E+02  0.10565282975E+02  0.48190759141E+02  0.41800000000E+01 0. -1.
         -5    1    3    3    0  502 -0.25288261838E+02  0.28905052461E+02 -0.97961881124E+02  0.10530432469E+03  0.41800000000E+01 0. -1.
        -11    1    1    2    0    0  0.88852664920E+01  0.52595475391E+02 -0.27184850825E+02  0.59868590318E+02  0.00000000000E+00 0. -1.
         11    1    1    2    0    0 -0.96983901323E+00 -0.38009881863E+02 -0.99407673009E+01  0.39300261595E+02  0.00000000000E+00 0.  1.
</event>
<event>
 7    1  0.2499014E-009  0.1980932E+03  0.7561462E-02  0.1151358E+00
          2   -1    0    0  501    0  0.00000000000E+00  0.00000000000E+00  0.38765137984E+03  0.38765137984E+03  0.00000000000E+00 0. -1.
         -2   -1    0    0    0  501 -0.00000000000E+00 -0.00000000000E+00 -0.13629520372E+03  0.13629520372E+03  0.00000000000E+00 0.  1.
         25    2    1    2    0    0  0.76353913289E+02  0.16087773149E+03  0.23664463813E+03  0.32149567787E+03  0.12508885470E+03 0.  0.
          5    1    3    3  502    0  0.87911504826E+02  0.10465968300E+03  0.22421149491E+03  0.26262206453E+03  0.41800000000E+01 0. -1.
         -5    1    3    3    0  502 -0.11557591536E+02  0.56218048483E+02  0.12433143216E+02  0.58873613339E+02  0.41800000000E+01 0. -1.
        -11    1    1    2    0    0  0.22732969779E+02 -0.26094631096E+02  0.36324716949E+01  0.34798168596E+02  0.00000000000E+00 0. -1.
         11    1    1    2    0    0 -0.99086883068E+02 -0.13478310039E+03  0.11079066295E+02  0.16765273710E+03  0.00000000000E+00 0.  1.
</event>
<event>
 7    1  0.2499014E-009  0.1091438E+03  0.7561462E-02  0.1262164E+00
          1   -1    0    0  501    0  0.00000000000E+00  0.00000000000E+00  0.80966224315E+03  0.80966224315E+03  0.00000000000E+00 0. -1.
         -1   -1    0    0    0  501 -0.00000000000E+00 -0.00000000000E+00 -0.21521138778E+02  0.21521138778E+02  0.00000000000E+00 0.  1.
         25    2    1    2    0    0  0.67644316953E+01 -0.53515446130E+02  0.61764028322E+03  0.63248407864E+03  0.12508768833E+03 0.  0.
          5    1    3    3  502    0 -0.36243063787E+02  0.25564538754E+02  0.16174611454E+03  0.16776883884E+03  0.41800000000E+01 0. -1.
         -5    1    3    3    0  502  0.43007495482E+02 -0.79079984884E+02  0.45589416868E+03  0.46471523981E+03  0.41800000000E+01 0. -1.
        -11    1    1    2    0    0  0.28480545484E+02  0.18625386891E+02  0.18333839145E+02  0.38654574964E+02  0.00000000000E+00 0.  1.
         11    1    1    2    0    0 -0.35244977179E+02  0.34890059239E+02  0.15216698201E+03  0.16004472832E+03  0.00000000000E+00 0. -1.
</event>
<event>
 7    1  0.2499014E-009  0.1324718E+03  0.7561462E-02  0.1223833E+00
         -1   -1    0    0    0  501 -0.00000000000E+00  0.00000000000E+00  0.20906291501E+02  0.20906291501E+02  0.00000000000E+00 0.  1.
          1   -1    0    0  501    0  0.00000000000E+00 -0.00000000000E+00 -0.12394036718E+04  0.12394036718E+04  0.00000000000E+00 0. -1.
         25    2    1    2    0    0 -0.59862281960E+02 -0.79901725786E+02 -0.90701615953E+03  0.92102862176E+03  0.12509048670E+03 0.  0.
          5    1    3    3  502    0  0.86969255717E+01  0.12751340166E+02 -0.42889548538E+03  0.42919347964E+03  0.41800000000E+01 0.  1.
         -5    1    3    3    0  502 -0.68559207532E+02 -0.92653065952E+02 -0.47812067416E+03  0.49183514212E+03  0.41800000000E+01 0.  1.
        -11    1    1    2    0    0 -0.89161901156E+01 -0.14376401270E+02 -0.27921287669E+02  0.32646250393E+02  0.00000000000E+00 0. -1.
         11    1    1    2    0    0  0.68778472076E+02  0.94278127056E+02 -0.28355993305E+03  0.30663509110E+03  0.00000000000E+00 0.  1.
</event>
<event>
 7    1  0.2499014E-009  0.1115505E+03  0.7561462E-02  0.1257725E+00
         -1   -1    0    0    0  501 -0.00000000000E+00  0.00000000000E+00  0.93130976923E+02  0.93130976923E+02  0.00000000000E+00 0.  1.
          1   -1    0    0  501    0  0.00000000000E+00 -0.00000000000E+00 -0.20793620204E+03  0.20793620204E+03  0.00000000000E+00 0. -1.
         25    2    1    2    0    0 -0.76809401164E+01  0.84101542279E+02 -0.40513077581E+02  0.15627079469E+03  0.12508871078E+03 0.  0.
          5    1    3    3  502    0 -0.20854212706E+02  0.21522919298E+01  0.36932161248E+02  0.42673029921E+02  0.41800000000E+01 0.  1.
         -5    1    3    3    0  502  0.13173272589E+02  0.81949250349E+02 -0.77445238830E+02  0.11359776477E+03  0.41800000000E+01 0.  1.
        -11    1    1    2    0    0  0.45555370568E+02 -0.41643333584E+02 -0.16924973824E+02  0.63999326235E+02  0.00000000000E+00 0.  1.
         11    1    1    2    0    0 -0.37874430452E+02 -0.42458208695E+02 -0.57367173708E+02  0.80797058034E+02  0.00000000000E+00 0. -1.
</event>
<event>
 7    1  0.2499014E-009  0.2564877E+03  0.7561462E-02  0.1109272E+00
         -2   -1    0    0    0  501 -0.00000000000E+00  0.00000000000E+00  0.73965313874E+02  0.73965313874E+02  0.00000000000E+00 0. -1.
          2   -1    0    0  501    0  0.00000000000E+00 -0.00000000000E+00 -0.98865276347E+03  0.98865276347E+03  0.00000000000E+00 0.  1.
         25    2    1    2    0    0  0.12231657813E+03  0.21083888036E+03 -0.55305815608E+03  0.61719936584E+03  0.12508938575E+03 0.  0.
          5    1    3    3  502    0 -0.72445549128E+01  0.52390096542E+02 -0.21957194654E+03  0.22589049980E+03  0.41800000000E+01 0. -1.
         -5    1    3    3    0  502  0.12956113304E+03  0.15844878382E+03 -0.33348620954E+03  0.39130886604E+03  0.41800000000E+01 0. -1.
        -11    1    1    2    0    0 -0.88105209724E+02 -0.76837191352E+02 -0.12359587578E+03  0.17012472621E+03  0.00000000000E+00 0. -1.
         11    1    1    2    0    0 -0.34211368406E+02 -0.13400168901E+03 -0.23803341773E+03  0.27529398530E+03  0.00000000000E+00 0.  1.
</event>
<event>
 7    1  0.2499014E-009  0.1098264E+03  0.7561462E-02  0.1260892E+00
         -2   -1    0    0    0  501 -0.00000000000E+00  0.00000000000E+00  0.75066890337E+02  0.75066890337E+02  0.00000000000E+00 0. -1.
          2   -1    0    0  501    0  0.00000000000E+00 -0.00000000000E+00 -0.32940785748E+03  0.32940785748E+03  0.00000000000E+00 0.  1.
         25    2    1    2    0    0  0.90796286024E+02  0.31792582966E+02 -0.56628898127E+02  0.16764893669E+03  0.12507837536E+03 0.  0.
          5    1    3    3  502    0  0.12398570206E+02 -0.55157892348E+01 -0.77059906894E+02  0.78357195742E+02  0.41800000000E+01 0.  1.
         -5    1    3    3    0  502  0.78397715818E+02  0.37308372201E+02  0.20431008767E+02  0.89291740945E+02  0.41800000000E+01 0.  1.
        -11    1    1    2    0    0 -0.69891229426E+02 -0.53782733730E+02 -0.18292373226E+03  0.20307254424E+03  0.00000000000E+00 0.  1.
         11    1    1    2    0    0 -0.20905056597E+02  0.21990150764E+02 -0.14788336754E+02  0.33753266892E+02  0.00000000000E+00 0. -1.
</event>
<event>
 7    1  0.2499014E-009  0.8340795E+02  0.7561462E-02  0.1319649E+00
          1   -1    0    0  501    0  0.00000000000E+00  0.00000000000E+00  0.49147776273E+02  0.49147776273E+02  0.00000000000E+00 0. -1.
         -1   -1    0    0    0  501 -0.00000000000E+00 -0.00000000000E+00 -0.27578936723E+03  0.27578936723E+03  0.00000000000E+00 0.  1.
         25    2    1    2    0    0  0.82640968214E+01  0.42737587934E+02 -0.11490725650E+03  0.17535185888E+03  0.12509916107E+03 0.  0.
          5    1    3    3  502    0  0.37824087712E+02  0.33786546444E+02  0.53054612351E+01  0.51164564405E+02  0.41800000000E+01 0. -1.
         -5    1    3    3    0  502 -0.29559990890E+02  0.89510414896E+01 -0.12021271773E+03  0.12418729448E+03  0.41800000000E+01 0. -1.
        -11    1    1    2    0    0  0.25697819829E+02  0.49946340386E+01 -0.77346533981E+02  0.81656663121E+02  0.00000000000E+00 0.  1.
         11    1    1    2    0    0 -0.33961916651E+02 -0.47732221973E+02 -0.34387800480E+02  0.67928621500E+02  0.00000000000E+00 0. -1.
</event>
<event>
 7    1  0.2499014E-009  0.9738952E+02  0.7561462E-02  0.1285883E+00
         -1   -1    0    0    0  501 -0.00000000000E+00  0.00000000000E+00  0.22628583613E+02  0.22628583613E+02  0.00000000000E+00 0.  1.
          1   -1    0    0  501    0  0.00000000000E+00 -0.00000000000E+00 -0.74799441738E+03  0.74799441738E+03  0.00000000000E+00 0. -1.
         25    2    1    2    0    0 -0.66097748802E+02  0.44336565992E+02 -0.44556682898E+03  0.46958720771E+03  0.12509077935E+03 0.  0.
          5    1    3    3  502    0 -0.93635287049E+01  0.27542762764E+02 -0.11616939399E+02  0.31602296301E+02  0.41800000000E+01 0. -1.
         -5    1    3    3    0  502 -0.56734220097E+02  0.16793803228E+02 -0.43394988958E+03  0.43798491141E+03  0.41800000000E+01 0. -1.
        -11    1    1    2    0    0  0.30170563918E+02  0.17265215894E+02 -0.53804862342E+02  0.64057113724E+02  0.00000000000E+00 0.  1.
         11    1    1    2    0    0  0.35927184884E+02 -0.61601781886E+02 -0.22599414244E+03  0.23697867955E+03  0.00000000000E+00 0. -1.
</event>
<event>
 7    1  0.2499014E-009  0.2109182E+03  0.7561462E-02  0.1140841E+00
         -1   -1    0    0    0  501 -0.00000000000E+00  0.00000000000E+00  0.43116601135E+02  0.43116601135E+02  0.00000000000E+00 0.  1.
          1   -1    0    0  501    0  0.00000000000E+00 -0.00000000000E+00 -0.14099344609E+04  0.14099344609E+04  0.00000000000E+00 0. -1.
         25    2    1    2    0    0  0.20171444423E+03  0.26738130926E+02 -0.96037066552E+03  0.98962769022E+03  0.12508998925E+03 0.  0.
          5    1    3    3  502    0  0.16664094468E+02 -0.11600275281E+02 -0.15110267706E+02  0.25652505163E+02  0.41800000000E+01 0.  1.
         -5    1    3    3    0  502  0.18505034976E+03  0.38338406208E+02 -0.94526039781E+03  0.96397518506E+03  0.41800000000E+01 0.  1.
        -11    1    1    2    0    0 -0.13657074169E+03  0.10622938358E+02 -0.32473114215E+03  0.35244110003E+03  0.00000000000E+00 0. -1.
         11    1    1    2    0    0 -0.65143702541E+02 -0.37361069285E+02 -0.81716052064E+02  0.11098227175E+03  0.00000000000E+00 0.  1.
</event>
<event>
 7    1  0.2499014E-009  0.1036240E+03  0.7561462E-02  0.1272855E+00
          1   -1    0    0  501    0  0.00000000000E+00  0.00000000000E+00  0.10849316215E+03  0.10849316215E+03  0.00000000000E+00 0. -1.
         -1   -1    0    0    0  501 -0.00000000000E+00 -0.00000000000E+00 -0.26545750488E+03  0.26545750488E+03  0.00000000000E+00 0.  1.
         25    2    1    2    0    0 -0.48788343157E+02  0.47854863485E+02  0.38710383829E+02  0.14770450242E+03  0.12509091027E+03 0.  0.
          5    1    3    3  502    0 -0.13527825876E+02  0.60464615129E+02  0.73637119447E+02  0.96326888852E+02  0.41800000000E+01 0. -1.
         -5    1    3    3    0  502 -0.35260517281E+02 -0.12609751644E+02 -0.34926735617E+02  0.51377613572E+02  0.41800000000E+01 0. -1.
        -11    1    1    2    0    0  0.27157811682E+02  0.21614189629E+02 -0.10129566939E+03  0.10707722711E+03  0.00000000000E+00 0. -1.
         11    1    1    2    0    0  0.21630531474E+02 -0.69469053114E+02 -0.94379057164E+02  0.11916893749E+03  0.00000000000E+00 0.  1.
</event>
<event>
 7    1  0.2499014E-009  0.1481869E+03  0.7561462E-02  0.1202719E+00
          3   -1    0    0  501    0  0.00000000000E+00  0.00000000000E+00  0.71943119691E+02  0.71943119691E+02  0.00000000000E+00 0. -1.
         -3   -1    0    0    0  501 -0.00000000000E+00 -0.00000000000E+00 -0.38269807599E+03  0.38269807599E+03  0.00000000000E+00 0.  1.
         25    2    1    2    0    0 -0.16726888785E+01 -0.10912806367E+03 -0.24450719490E+03  0.29553851960E+03  0.12509003173E+03 0.  0.
          5    1    3    3  502    0 -0.11891053498E+01  0.22690993126E+02 -0.74699229917E+01  0.24281006776E+02  0.41800000000E+01 0.  1.
         -5    1    3    3    0  502 -0.48358352862E+00 -0.13181905680E+03 -0.23703727191E+03  0.27125751282E+03  0.41800000000E+01 0.  1.
        -11    1    1    2    0    0  0.45548639720E+02  0.48375486633E+02 -0.48012926344E+02  0.81976261097E+02  0.00000000000E+00 0.  1.
         11    1    1    2    0    0 -0.43875950841E+02  0.60752577037E+02 -0.18234835052E+02  0.77126414984E+02  0.00000000000E+00 0. -1.
</event>
<event>
 7    1  0.2499014E-009  0.1044303E+03  0.7561462E-02  0.1271246E+00
          2   -1    0    0  501    0  0.00000000000E+00  0.00000000000E+00  0.81565723035E+03  0.81565723035E+03  0.00000000000E+00 0. -1.
         -2   -1    0    0    0  501 -0.00000000000E+00 -0.00000000000E+00 -0.14730042726E+02  0.14730042726E+02  0.00000000000E+00 0.  1.
         25    2    1    2    0    0  0.27891792376E+01  0.72753869113E+01  0.57779529887E+03  0.59123303270E+03  0.12509348818E+03 0.  0.
          5    1    3    3  502    0  0.31432666455E+02 -0.51099621791E+02  0.28472670817E+03  0.29100851296E+03  0.41800000000E+01 0. -1.
         -5    1    3    3    0  502 -0.28643487217E+02  0.58375008703E+02  0.29306859070E+03  0.30022451974E+03  0.41800000000E+01 0. -1.
        -11    1    1    2    0    0  0.15569175038E+02 -0.41721063314E+02  0.89936497368E+02  0.10035746058E+03  0.00000000000E+00 0. -1.
         11    1    1    2    0    0 -0.18358354275E+02  0.34445676402E+02  0.13319539138E+03  0.13879677979E+03  0.00000000000E+00 0.  1.
</event>
<event>
 7    1  0.2789052E-009  0.1089680E+03  0.7561462E-02  0.1262493E+00
         -2   -1    0    0    0  501 -0.00000000000E+00  0.00000000000E+00  0.32975277333E+02  0.32975277333E+02  0.00000000000E+00 0.  1.
          2   -1    0    0  501    0  0.00000000000E+00 -0.00000000000E+00 -0.54563833109E+03  0.54563833109E+03  0.00000000000E+00 0. -1.
         25    2    1    2    0    0  0.14997395979E+02  0.73309866085E+02 -0.23338164716E+03  0.27515877262E+03  0.12508436580E+03 0.  0.
          5    1    3    3  502    0 -0.18866076142E+02 -0.99790325629E+01 -0.15283249329E+03  0.15437212612E+03  0.41800000000E+01 0.  1.
         -5    1    3    3    0  502  0.33863472121E+02  0.83288898648E+02 -0.80549153875E+02  0.12078664650E+03  0.41800000000E+01 0.  1.
        -11    1    1    2    0    0  0.10972341395E+02 -0.78864215472E+02 -0.13485635571E+03  0.15660840793E+03  0.00000000000E+00 0.  1.
         11    1    1    2    0    0 -0.25969737374E+02  0.55543493867E+01 -0.14442505088E+03  0.14684642787E+03  0.00000000000E+00 0. -1.
</event>
<event>
 7    1  0.2499014E-009  0.1036456E+03  0.7561462E-02  0.1272811E+00
         -2   -1    0    0    0  501 -0.00000000000E+00  0.00000000000E+00  0.41909729381E+03  0.41909729381E+03  0.00000000000E+00 0.  1.
          2   -1    0    0  501    0  0.00000000000E+00 -0.00000000000E+00 -0.31067117850E+02  0.31067117850E+02  0.00000000000E+00 0. -1.
         25    2    1    2    0    0 -0.18400785744E+02 -0.38690652162E+02  0.26701205037E+03  0.29795718449E+03  0.12508994071E+03 0.  0.
          5    1    3    3  502    0 -0.35853462626E+02 -0.74517241249E+02  0.12151325743E+03  0.14704160689E+03  0.41800000000E+01 0.  1.
         -5    1    3    3    0  502  0.17452676882E+02  0.35826589087E+02  0.14549879294E+03  0.15091557761E+03  0.41800000000E+01 0.  1.
        -11    1    1    2    0    0 -0.27783010669E+02  0.77930585873E+01  0.15026578058E+02  0.32533451894E+02  0.00000000000E+00 0. -1.
         11    1    1    2    0    0  0.46183796413E+02  0.30897593575E+02  0.10599154753E+03  0.11967377527E+03  0.00000000000E+00 0.  1.
</event>
<event>
 7    1  0.2499014E-009  0.9983676E+02  0.7561462E-02  0.1280640E+00
         -2   -1    0    0    0  501 -0.00000000000E+00  0.00000000000E+00  0.40630941461E+02  0.40630941461E+02  0.00000000000E+00 0.  1.
          2   -1    0    0  501    0  0.00000000000E+00 -0.00000000000E+00 -0.42148264306E+03  0.42148264306E+03  0.00000000000E+00 0. -1.
         25    2    1    2    0    0 -0.14500291131E+02  0.70873994411E+02 -0.22456045573E+03  0.26704318239E+03  0.12510508166E+03 0.  0.
          5    1    3    3  502    0 -0.38264630280E+02  0.28839849714E+02 -0.21142563177E+03  0.21682755598E+03  0.41800000000E+01 0. -1.
         -5    1    3    3    0  502  0.23764339149E+02  0.42034144696E+02 -0.13134823963E+02  0.50215626413E+02  0.41800000000E+01 0. -1.
        -11    1    1    2    0    0  0.61206251552E+01  0.15325534304E+02 -0.13199106209E+00  0.16503074732E+02  0.00000000000E+00 0.  1.
         11    1    1    2    0    0  0.83796659758E+01 -0.86199528715E+02 -0.15615925480E+03  0.17856732739E+03  0.00000000000E+00 0. -1.
</event>
<event>
 7    1  0.2499014E-009  0.1004757E+03  0.7561462E-02  0.1279299E+00
          2   -1    0    0  501    0  0.00000000000E+00  0.00000000000E+00  0.21790406062E+03  0.21790406062E+03  0.00000000000E+00 0. -1.
         -2   -1    0    0    0  501 -0.00000000000E+00 -0.00000000000E+00 -0.75425293506E+02  0.75425293506E+02  0.00000000000E+00 0.  1.
         25    2    1    2    0    0 -0.51856145001E+02 -0.43681891137E+02  0.89395801997E+02  0.16803685525E+03  0.12509039899E+03 0.  0.
          5    1    3    3  502    0 -0.65054996452E+02 -0.67304671000E+02  0.10146741445E+03  0.13811292444E+03  0.41800000000E+01 0.  1.
         -5    1    3    3    0  502  0.13198851452E+02  0.23622779863E+02 -0.12071612448E+02  0.29923930811E+02  0.41800000000E+01 0.  1.
        -11    1    1    2    0    0  0.34784768966E+02  0.50640132398E+02 -0.75691032091E+01  0.61900682425E+02  0.00000000000E+00 0.  1.
         11    1    1    2    0    0  0.17071376035E+02 -0.69582412608E+01  0.60652068324E+02  0.63391816452E+02  0.00000000000E+00 0. -1.
</event>
<event>
 7    1  0.2499014E-009  0.1085495E+03  0.7561462E-02  0.1263280E+00
          1   -1    0    0  501    0  0.00000000000E+00  0.00000000000E+00  0.71067315146E+03  0.71067315146E+03  0.00000000000E+00 0.  1.
         -1   -1    0    0    0  501 -0.00000000000E+00 -0.00000000000E+00 -0.17148114306E+02  0.17148114306E+02  0.00000000000E+00 0. -1.
         25    2    1    2    0    0 -0.20040514887E+02 -0.11308180828E+01  0.44578105618E+03  0.46343354485E+03  0.12508796688E+03 0.  0.
          5    1    3    3  502    0  0.53125875185E+02  0.15977646353E+01  0.18209147640E+03  0.18973584175E+03  0.41800000000E+01 0. -1.
         -5    1    3    3    0  502 -0.73166390072E+02 -0.27285827180E+01  0.26368957978E+03  0.27369770310E+03  0.41800000000E+01 0. -1.
        -11    1    1    2    0    0 -0.16131340169E+02  0.36470523449E+02  0.83485493484E+02  0.92521061595E+02  0.00000000000E+00 0. -1.
         11    1    1    2    0    0  0.36171855056E+02 -0.35339705366E+02  0.16425848749E+03  0.17186665932E+03  0.00000000000E+00 0.  1.
</event>
<event>
 7    1  0.2499014E-009  0.1382678E+03  0.7561462E-02  0.1215679E+00
         -1   -1    0    0    0  501 -0.00000000000E+00  0.00000000000E+00  0.99203345806E+02  0.99203345806E+02  0.00000000000E+00 0.  1.
          1   -1    0    0  501    0  0.00000000000E+00 -0.00000000000E+00 -0.21770209522E+03  0.21770209522E+03  0.00000000000E+00 0. -1.
         25    2    1    2    0    0 -0.74845817048E+02  0.70749944850E+02 -0.46193199187E+02  0.16848827428E+03  0.12508811251E+03 0.  0.
          5    1    3    3  502    0 -0.82478649127E+02  0.10104171650E+03 -0.38189982596E+02  0.13597096457E+03  0.41800000000E+01 0. -1.
         -5    1    3    3    0  502  0.76328320785E+01 -0.30291771647E+02 -0.80032165903E+01  0.32517309711E+02  0.41800000000E+01 0. -1.
        -11    1    1    2    0    0  0.27668658667E+02 -0.60090405913E+02 -0.74961122420E+02  0.99977904707E+02  0.00000000000E+00 0. -1.
         11    1    1    2    0    0  0.47177158381E+02 -0.10659538937E+02  0.26555721942E+01  0.48439262040E+02  0.00000000000E+00 0.  1.
</event>
<event>
 7    1  0.2499014E-009  0.1613722E+03  0.7561462E-02  0.1187156E+00
          2   -1    0    0  501    0  0.00000000000E+00  0.00000000000E+00  0.12028924667E+03  0.12028924667E+03  0.00000000000E+00 0.  1.
         -2   -1    0    0    0  501 -0.00000000000E+00 -0.00000000000E+00 -0.30102020764E+03  0.30102020764E+03  0.00000000000E+00 0. -1.
         25    2    1    2    0    0 -0.23873342954E+02  0.13098695510E+03 -0.18709459091E+03  0.26149447192E+03  0.12508978370E+03 0.  0.
          5    1    3    3  502    0  0.39651453260E+02  0.29983393222E+02 -0.15099927398E+02  0.52122181670E+02  0.41800000000E+01 0.  1.
         -5    1    3    3    0  502 -0.63524796213E+02  0.10100356188E+03 -0.17199466352E+03  0.20937229025E+03  0.41800000000E+01 0.  1.
        -11    1    1    2    0    0  0.14000061921E+02 -0.13963774859E+03 -0.77356170865E+01  0.14055085321E+03  0.00000000000E+00 0. -1.
         11    1    1    2    0    0  0.98732810331E+01  0.86507934885E+01  0.14099247025E+02  0.19264129179E+02  0.00000000000E+00 0.  1.
</event>
<event>
 7    1  0.2499014E-009  0.8938694E+02  0.7561462E-02  0.1304343E+00
          1   -1    0    0  501    0  0.00000000000E+00  0.00000000000E+00  0.29885517114E+03  0.29885517114E+03  0.00000000000E+00 0. -1.
         -1   -1    0    0    0  501 -0.00000000000E+00 -0.00000000000E+00 -0.54335617571E+02  0.54335617571E+02  0.00000000000E+00 0.  1.
         25    2    1    2    0    0 -0.34290478608E+02  0.50693100870E+02  0.99737651091E+02  0.17128337179E+03  0.12507904303E+03 0.  0.
          5    1    3    3  502    0  0.40465106133E+01  0.25727460387E+02 -0.26230687281E+02  0.37199433078E+02  0.41800000000E+01 0. -1.
         -5    1    3    3    0  502 -0.38336989221E+02  0.24965640483E+02  0.12596833837E+03  0.13408393871E+03  0.41800000000E+01 0. -1.
        -11    1    1    2    0    0 -0.19149721939E+02 -0.49421154543E+02  0.95395201404E+02  0.10913022871E+03  0.00000000000E+00 0. -1.
         11    1    1    2    0    0  0.53440200547E+02 -0.12719463266E+01  0.49386701072E+02  0.72777188217E+02  0.00000000000E+00 0.  1.
</event>
<event>
 7    1  0.2499014E-009  0.9005878E+02  0.7561462E-02  0.1302709E+00
         -1   -1    0    0    0  501 -0.00000000000E+00  0.00000000000E+00  0.10492061334E+04  0.10492061334E+04  0.00000000000E+00 0.  1.
          1   -1    0    0  501    0  0.00000000000E+00 -0.00000000000E+00 -0.13157246785E+02  0.13157246785E+02  0.00000000000E+00 0. -1.
         25    2    1    2    0    0  0.78100749176E+01  0.67556735044E+02  0.85387267003E+03  0.86566311214E+03  0.12509667210E+03 0.  0.
          5    1    3    3  502    0 -0.26771671649E+02  0.70491022426E+02  0.78304960506E+03  0.78668282238E+03  0.41800000000E+01 0.  1.
         -5    1    3    3    0  502  0.34581746567E+02 -0.29342873824E+01  0.70823064974E+02  0.78980289759E+02  0.41800000000E+01 0.  1.
        -11    1    1    2    0    0 -0.11260491134E+02 -0.32112831476E+02  0.12313442644E+03  0.12775022341E+03  0.00000000000E+00 0.  1.
         11    1    1    2    0    0  0.34504162166E+01 -0.35443903568E+02  0.59041790134E+02  0.68950044629E+02  0.00000000000E+00 0. -1.
</event>
<event>
 7    1  0.2499014E-009  0.9021530E+02  0.7561462E-02  0.1302331E+00
         -1   -1    0    0    0  501 -0.00000000000E+00  0.00000000000E+00  0.85939422906E+02  0.85939422906E+02  0.00000000000E+00 0.  1.
          1   -1    0    0  501    0  0.00000000000E+00 -0.00000000000E+00 -0.25659082704E+03  0.25659082704E+03  0.00000000000E+00 0. -1.
         25    2    1    2    0    0 -0.10759535048E+02  0.98520464111E+01 -0.16029329522E+03  0.20385135766E+03  0.12509438482E+03 0.  0.
          5    1    3    3  502    0 -0.89809322066E+01  0.28226466357E+02 -0.17644875040E+03  0.17896654566E+03  0.41800000000E+01 0. -1.
         -5    1    3    3    0  502 -0.17786028415E+01 -0.18374419946E+02  0.16155455176E+02  0.24884812002E+02  0.41800000000E+01 0. -1.
        -11    1    1    2    0    0  0.68663672516E+02 -0.22620006774E+02 -0.26873327501E+02  0.77126781087E+02  0.00000000000E+00 0.  1.
         11    1    1    2    0    0 -0.57904137468E+02  0.12767960363E+02  0.16515218594E+02  0.61552111198E+02  0.00000000000E+00 0. -1.
</event>
<event>
 7    1  0.2499014E-009  0.3236847E+03  0.7561462E-02  0.1073966E+00
          2   -1    0    0  501    0  0.00000000000E+00  0.00000000000E+00  0.24476417176E+04  0.24476417176E+04  0.00000000000E+00 0. -1.
         -2   -1    0    0    0  501 -0.00000000000E+00 -0.00000000000E+00 -0.52641469382E+02  0.52641469382E+02  0.00000000000E+00 0.  1.
         25    2    1    2    0    0 -0.28178228171E+02  0.31894094630E+03  0.16309891286E+04  0.16668205576E+04  0.12509154273E+03 0.  0.
          5    1    3    3  502    0 -0.20035662383E+02  0.11512689732E+03  0.91132773378E+03  0.91879885776E+03  0.41800000000E+01 0.  1.
         -5    1    3    3    0  502 -0.81425657879E+01  0.20381404897E+03  0.71966139479E+03  0.74802169988E+03  0.41800000000E+01 0.  1.
        -11    1    1    2    0    0  0.47233922461E+02 -0.17661976730E+03  0.34370585289E+03  0.38930617635E+03  0.00000000000E+00 0. -1.
         11    1    1    2    0    0 -0.19055694290E+02 -0.14232117899E+03  0.42030526671E+03  0.44415645296E+03  0.00000000000E+00 0.  1.
</event>
<event>
 7    1  0.2499014E-009  0.1264817E+03  0.7561462E-02  0.1232772E+00
          1   -1    0    0  501    0  0.00000000000E+00  0.00000000000E+00  0.13967829835E+04  0.13967829835E+04  0.00000000000E+00 0. -1.
         -1   -1    0    0    0  501 -0.00000000000E+00 -0.00000000000E+00 -0.15847113058E+02  0.15847113058E+02  0.00000000000E+00 0.  1.
         25    2    1    2    0    0  0.51760722179E+02 -0.46099495181E+02  0.10950060426E+04  0.11043053458E+04  0.12509087694E+03 0.  0.
          5    1    3    3  502    0 -0.30459956866E+02  0.15940393187E+02  0.16446325079E+03  0.16807004007E+03  0.41800000000E+01 0.  1.
         -5    1    3    3    0  502  0.82220679045E+02 -0.62039888368E+02  0.93054279183E+03  0.93623530570E+03  0.41800000000E+01 0.  1.
        -11    1    1    2    0    0  0.11638763739E+02  0.50375222653E+02  0.13517366330E+03  0.14472402402E+03  0.00000000000E+00 0.  1.
         11    1    1    2    0    0 -0.63399485918E+02 -0.42757274714E+01  0.15075616455E+03  0.16360072680E+03  0.00000000000E+00 0. -1.
</event>
<event>
 7    1  0.2499014E-009  0.1337244E+03  0.7561462E-02  0.1222032E+00
         -1   -1    0    0    0  501 -0.00000000000E+00  0.00000000000E+00  0.24959284142E+02  0.24959284142E+02  0.00000000000E+00 0.  1.
          1   -1    0    0  501    0  0.00000000000E+00 -0.00000000000E+00 -0.90625344273E+03  0.90625344273E+03  0.00000000000E+00 0. -1.
         25    2    1    2    0    0 -0.77147570489E+02  0.63460974868E+02 -0.57701005392E+03  0.59880493970E+03  0.12509080909E+03 0.  0.
          5    1    3    3  502    0  0.20746898107E+02  0.23976158228E+01 -0.17672484933E+02  0.27676189521E+02  0.41800000000E+01 0. -1.
         -5    1    3    3    0  502 -0.97894468596E+02  0.61063359045E+02 -0.55933756899E+03  0.57112875018E+03  0.41800000000E+01 0. -1.
        -11    1    1    2    0    0 -0.13831157722E+02 -0.31266216365E+02 -0.51374731540E+02  0.61710941092E+02  0.00000000000E+00 0.  1.
         11    1    1    2    0    0  0.90978728212E+02 -0.32194758503E+02 -0.25290937313E+03  0.27069684608E+03  0.00000000000E+00 0. -1.
</event>
<event>
 7    1  0.2499014E-009  0.1259179E+03  0.7561462E-02  0.1233642E+00
          1   -1    0    0  501    0  0.00000000000E+00  0.00000000000E+00  0.41886575943E+02  0.41886575943E+02  0.00000000000E+00 0. -1.
         -1   -1    0    0    0  501 -0.00000000000E+00 -0.00000000000E+00 -0.44521531884E+03  0.44521531884E+03  0.00000000000E+00 0.  1.
         25    2    1    2    0    0 -0.63663087934E+02 -0.23896429987E+02 -0.30567103013E+03  0.33720440365E+03  0.12509197837E+03 0.  0.
          5    1    3    3  502    0 -0.96599195488E+02 -0.35544527001E+02 -0.25916484874E+03  0.27888834539E+03  0.41800000000E+01 0.  1.
         -5    1    3    3    0  502  0.32936107555E+02  0.11648097014E+02 -0.46506181382E+02  0.58316058266E+02  0.41800000000E+01 0.  1.
        -11    1    1    2    0    0  0.95024308048E+01  0.51831237412E+02 -0.48171901789E+02  0.71395416413E+02  0.00000000000E+00 0.  1.
         11    1    1    2    0    0  0.54160657129E+02 -0.27934807424E+02 -0.49485810983E+02  0.78502074719E+02  0.00000000000E+00 0. -1.
</event>
<event>
 7    1  0.2499014E-009  0.8863380E+02  0.7561462E-02  0.1306194E+00
         -3   -1    0    0    0  501 -0.00000000000E+00  0.00000000000E+00  0.16629789603E+03  0.16629789603E+03  0.00000000000E+00 0.  1.
          3   -1    0    0  501    0  0.00000000000E+00 -0.00000000000E+00 -0.86764157014E+02  0.86764157014E+02  0.00000000000E+00 0. -1.
         25    2    1    2    0    0  0.35637996659E+02  0.38207610457E+01  0.59386825963E+01  0.13026744064E+03  0.12509865355E+03 0.  0.
          5    1    3    3  502    0  0.64252646197E+02 -0.11885525603E+02 -0.37744039304E+02  0.75576141507E+02  0.41800000000E+01 0.  1.
         -5    1    3    3    0  502 -0.28614649538E+02  0.15706286649E+02  0.43682721900E+02  0.54691299135E+02  0.41800000000E+01 0.  1.
        -11    1    1    2    0    0 -0.38097191798E+02  0.27803122420E+02  0.52591621560E+01  0.47455963016E+02  0.00000000000E+00 0. -1.
         11    1    1    2    0    0  0.24591951394E+01 -0.31623883466E+02  0.68335894259E+02  0.75338649380E+02  0.00000000000E+00 0.  1.
</event>
<event>
 7    1  0.2499014E-009  0.8345742E+02  0.7561462E-02  0.1319517E+00
         -1   -1    0    0    0  501 -0.00000000000E+00  0.00000000000E+00  0.22828582193E+03  0.22828582193E+03  0.00000000000E+00 0.  1.
          1   -1    0    0  501    0  0.00000000000E+00 -0.00000000000E+00 -0.63506864605E+02  0.63506864605E+02  0.00000000000E+00 0. -1.
         25    2    1    2    0    0 -0.70176272575E+01 -0.29339909453E+02  0.14862880332E+03  0.19659372699E+03  0.12509394445E+03 0.  0.
          5    1    3    3  502    0 -0.39371430455E+02 -0.35033680388E+02  0.96711025850E+01  0.53744496675E+02  0.41800000000E+01 0. -1.
         -5    1    3    3    0  502  0.32353803197E+02  0.56937709355E+01  0.13895770073E+03  0.14284923032E+03  0.41800000000E+01 0. -1.
        -11    1    1    2    0    0  0.35595330386E+02 -0.53406466991E+01  0.31378262461E+02  0.47750868134E+02  0.00000000000E+00 0.  1.
         11    1    1    2    0    0 -0.28577703129E+02  0.34680556152E+02 -0.15228108457E+02  0.47448091408E+02  0.00000000000E+00 0. -1.
</event>
<event>
 7    1  0.2499014E-009  0.4747944E+02  0.7561462E-02  0.1459431E+00
         -2   -1    0    0    0  501 -0.00000000000E+00  0.00000000000E+00  0.29439076149E+03  0.29439076149E+03  0.00000000000E+00 0.  1.
          2   -1    0    0  501    0  0.00000000000E+00 -0.00000000000E+00 -0.40420929118E+02  0.40420929118E+02  0.00000000000E+00 0. -1.
         25    2    1    2    0    0  0.12125496535E+02 -0.37453578922E+00  0.17805701117E+03  0.21794301503E+03  0.12509072960E+03 0.  0.
          5    1    3    3  502    0  0.25730639535E+02  0.63424129446E+01  0.19382020928E+03  0.19566818325E+03  0.41800000000E+01 0.  1.
         -5    1    3    3    0  502 -0.13605143001E+02 -0.67169487339E+01 -0.15763198105E+02  0.22274831781E+02  0.41800000000E+01 0.  1.
        -11    1    1    2    0    0  0.83364856768E+01 -0.21125928880E+02  0.83251583733E+02  0.86293847165E+02  0.00000000000E+00 0.  1.
         11    1    1    2    0    0 -0.20461982212E+02  0.21500464669E+02 -0.73387625309E+01  0.30574828413E+02  0.00000000000E+00 0. -1.
</event>
<event>
 7    1  0.2499014E-009  0.1070779E+03  0.7561462E-02  0.1266079E+00
         -2   -1    0    0    0  501 -0.00000000000E+00  0.00000000000E+00  0.22014485054E+03  0.22014485054E+03  0.00000000000E+00 0.  1.
          2   -1    0    0  501    0  0.00000000000E+00 -0.00000000000E+00 -0.58577557941E+02  0.58577557941E+02  0.00000000000E+00 0. -1.
         25    2    1    2    0    0  0.31650511312E+02  0.52234324599E+01  0.78043197383E+02  0.15088780880E+03  0.12508937235E+03 0.  0.
          5    1    3    3  502    0 -0.29801914438E+02  0.37481343432E+02  0.23760353040E+01  0.48126117165E+02  0.41800000000E+01 0.  1.
         -5    1    3    3    0  502  0.61452425750E+02 -0.32257910972E+02  0.75667162079E+02  0.10276169164E+03  0.41800000000E+01 0.  1.
        -11    1    1    2    0    0 -0.13153781481E+01  0.41135383882E+02  0.39858161709E+02  0.57293307477E+02  0.00000000000E+00 0.  1.
         11    1    1    2    0    0 -0.30335133164E+02 -0.46358816342E+02  0.43665933506E+02  0.70541292203E+02  0.00000000000E+00 0. -1.
</event>
<event>
 7    1  0.2499014E-009  0.2023041E+03  0.7561462E-02  0.1147809E+00
         -2   -1    0    0    0  501 -0.00000000000E+00  0.00000000000E+00  0.74689253078E+02  0.74689253078E+02  0.00000000000E+00 0.  1.
          2   -1    0    0  501    0  0.00000000000E+00 -0.00000000000E+00 -0.77177211985E+03  0.77177211985E+03  0.00000000000E+00 0. -1.
         25    2    1    2    0    0 -0.18005708456E+03  0.58516162722E+00 -0.15631887332E+03  0.26926675927E+03  0.12509237138E+03 0.  0.
          5    1    3    3  502    0 -0.11230274283E+03  0.60325971241E+02 -0.77050640354E+02  0.14901477253E+03  0.41800000000E+01 0.  1.
         -5    1    3    3    0  502 -0.67754341722E+02 -0.59740809614E+02 -0.79268232967E+02  0.12025198673E+03  0.41800000000E+01 0.  1.
        -11    1    1    2    0    0  0.66880296723E+02 -0.24005223009E+02 -0.32232876689E+03  0.33006826383E+03  0.00000000000E+00 0. -1.
         11    1    1    2    0    0  0.11317678783E+03  0.23420061382E+02 -0.21843522656E+03  0.24712634984E+03  0.00000000000E+00 0.  1.
</event>
<event>
 7    1  0.2499014E-009  0.8470791E+02  0.7561462E-02  0.1316198E+00
          1   -1    0    0  501    0  0.00000000000E+00  0.00000000000E+00  0.46677532319E+03  0.46677532319E+03  0.00000000000E+00 0. -1.
         -1   -1    0    0    0  501 -0.00000000000E+00 -0.00000000000E+00 -0.32272614582E+02  0.32272614582E+02  0.00000000000E+00 0.  1.
         25    2    1    2    0    0  0.20783701420E+02 -0.34713008615E+02  0.32600866609E+03  0.35151371534E+03  0.12507312460E+03 0.  0.
          5    1    3    3  502    0  0.10313986673E+02 -0.57577873099E+02  0.58638318461E+02  0.82930781882E+02  0.41800000000E+01 0.  1.
         -5    1    3    3    0  502  0.10469714747E+02  0.22864864484E+02  0.26737034763E+03  0.26858293346E+03  0.41800000000E+01 0.  1.
        -11    1    1    2    0    0 -0.39224883951E+01 -0.23935729444E+02  0.14264955187E+01  0.24296912328E+02  0.00000000000E+00 0.  1.
         11    1    1    2    0    0 -0.16861213025E+02  0.58648738059E+02  0.10706754700E+03  0.12323731010E+03  0.00000000000E+00 0. -1.
</event>
<event>
 7    1  0.2499014E-009  0.1423277E+03  0.7561462E-02  0.1210231E+00
         -3   -1    0    0    0  501 -0.00000000000E+00  0.00000000000E+00  0.72690777905E+03  0.72690777905E+03  0.00000000000E+00 0.  1.
          3   -1    0    0  501    0  0.00000000000E+00 -0.00000000000E+00 -0.33124863538E+02  0.33124863538E+02  0.00000000000E+00 0. -1.
         25    2    1    2    0    0  0.74092629084E+01 -0.10269707364E+03  0.27319637936E+03  0.31762237012E+03  0.12508446024E+03 0.  0.
          5    1    3    3  502    0 -0.49380139165E+02 -0.88420437815E+01  0.10959150899E+03  0.12059996321E+03  0.41800000000E+01 0. -1.
         -5    1    3    3    0  502  0.56789402074E+02 -0.93855029857E+02  0.16360487037E+03  0.19702240691E+03  0.41800000000E+01 0. -1.
        -11    1    1    2    0    0  0.18030434818E+02  0.96745227233E+02  0.38980520915E+03  0.40203586488E+03  0.00000000000E+00 0.  1.
         11    1    1    2    0    0 -0.25439697727E+02  0.59518464048E+01  0.30781327009E+02  0.40374407593E+02  0.00000000000E+00 0. -1.
</event>
<event>
 7    1  0.2499014E-009  0.1574514E+03  0.7561462E-02  0.1191605E+00
          2   -1    0    0  501    0  0.00000000000E+00  0.00000000000E+00  0.32440313129E+04  0.32440313129E+04  0.00000000000E+00 0. -1.
         -2   -1    0    0    0  501 -0.00000000000E+00 -0.00000000000E+00 -0.13578251210E+02  0.13578251210E+02  0.00000000000E+00 0.  1.
         25    2    1    2    0    0  0.13556285502E+03 -0.61474032804E+02  0.24532288324E+04  0.24609218483E+04  0.12509314596E+03 0.  0.
          5    1    3    3  502    0  0.13087496411E+03 -0.60311712185E+02  0.24490487106E+04  0.24532881645E+04  0.41800000000E+01 0.  1.
         -5    1    3    3    0  502  0.46878909084E+01 -0.11623206197E+01  0.41801217795E+01  0.76336838082E+01  0.41800000000E+01 0.  1.
        -11    1    1    2    0    0 -0.10909351543E+03  0.13988240596E+02  0.63445815811E+03  0.64392097370E+03  0.00000000000E+00 0. -1.
         11    1    1    2    0    0 -0.26469339595E+02  0.47485792208E+02  0.14276607116E+03  0.15276674205E+03  0.00000000000E+00 0.  1.
</event>
<event>
 7    1  0.2499014E-009  0.1105152E+03  0.7561462E-02  0.1259619E+00
         -4   -1    0    0    0  501 -0.00000000000E+00  0.00000000000E+00  0.59387967621E+02  0.59387967621E+02  0.00000000000E+00 0.  1.
          4   -1    0    0  501    0  0.00000000000E+00 -0.00000000000E+00 -0.31381886193E+03  0.31381886193E+03  0.00000000000E+00 0. -1.
         25    2    1    2    0    0  0.25332396039E+02  0.71843010370E+02 -0.18475351045E+03  0.23576386585E+03  0.12509033691E+03 0.  0.
          5    1    3    3  502    0 -0.10995480887E+02 -0.29869574264E+02 -0.17328433598E+02  0.36480667176E+02  0.41800000000E+01 0.  1.
         -5    1    3    3    0  502  0.36327876926E+02  0.10171258463E+03 -0.16742507685E+03  0.19928319868E+03  0.41800000000E+01 0.  1.
        -11    1    1    2    0    0  0.48785955658E+01 -0.22190771215E+02 -0.75676027273E+02  0.79013240192E+02  0.00000000000E+00 0. -1.
         11    1    1    2    0    0 -0.30210991605E+02 -0.49652239155E+02  0.59986434122E+01  0.58429723512E+02  0.00000000000E+00 0.  1.
</event>
<event>
 7    1  0.2520998E-009  0.8811774E+02  0.7561462E-02  0.1307475E+00
         -2   -1    0    0    0  501 -0.00000000000E+00  0.00000000000E+00  0.24560464651E+02  0.24560464651E+02  0.00000000000E+00 0.  1.
          2   -1    0    0  501    0  0.00000000000E+00 -0.00000000000E+00 -0.57927091365E+03  0.57927091365E+03  0.00000000000E+00 0. -1.
         25    2    1    2    0    0 -0.16878936394E+02  0.45593133286E+02 -0.28574529803E+03  0.31568912041E+03  0.12508242521E+03 0.  0.
          5    1    3    3  502    0  0.12054393583E+02  0.43708391304E+02 -0.28257927293E+03  0.28622412506E+03  0.41800000000E+01 0. -1.
         -5    1    3    3    0  502 -0.28933329977E+02  0.18847419812E+01 -0.31660251032E+01  0.29464995348E+02  0.41800000000E+01 0. -1.
        -11    1    1    2    0    0  0.49696899302E+02 -0.47216468641E+02 -0.20620593147E+03  0.21730177837E+03  0.00000000000E+00 0.  1.
         11    1    1    2    0    0 -0.32817962908E+02  0.16233353554E+01 -0.62759219504E+02  0.70840479529E+02  0.00000000000E+00 0. -1.
</event>
<event>
 7    1  0.2800911E-009  0.8158368E+02  0.7561462E-02  0.1324616E+00
          1   -1    0    0  501    0  0.00000000000E+00  0.00000000000E+00  0.23511014505E+03  0.23511014505E+03  0.00000000000E+00 0. -1.
         -1   -1    0    0    0  501 -0.00000000000E+00 -0.00000000000E+00 -0.58746711825E+02  0.58746711825E+02  0.00000000000E+00 0.  1.
         25    2    1    2    0    0 -0.69527061404E+01 -0.16637833704E+01  0.15485485427E+03  0.19919727755E+03  0.12509364970E+03 0.  0.
          5    1    3    3  502    0 -0.30229239956E+02  0.47536654244E+02  0.12454785792E+03  0.13675957647E+03  0.41800000000E+01 0. -1.
         -5    1    3    3    0  502  0.23276533815E+02 -0.49200437614E+02  0.30306996351E+02  0.62437701077E+02  0.41800000000E+01 0. -1.
        -11    1    1    2    0    0  0.29379182913E+02  0.35046012128E+01  0.50155250972E+02  0.58232017124E+02  0.00000000000E+00 0. -1.
         11    1    1    2    0    0 -0.22426476773E+02 -0.18408178424E+01 -0.28646672013E+02  0.36427562205E+02  0.00000000000E+00 0.  1.
</event>
<event>
 7    1  0.2499014E-009  0.2051898E+03  0.7561462E-02  0.1145433E+00
          1   -1    0    0  501    0  0.00000000000E+00  0.00000000000E+00  0.46663585622E+03  0.46663585622E+03  0.00000000000E+00 0. -1.
         -1   -1    0    0    0  501 -0.00000000000E+00 -0.00000000000E+00 -0.10247153387E+03  0.10247153387E+03  0.00000000000E+00 0.  1.
         25    2    1    2    0    0 -0.16114563420E+03 -0.97102099644E+02  0.19956037637E+03  0.30144481848E+03  0.12509157285E+03 0.  0.
          5    1    3    3  502    0 -0.15643543835E+02  0.26562171769E+02  0.10856884543E+02  0.32948653611E+02  0.41800000000E+01 0. -1.
         -5    1    3    3    0  502 -0.14550209037E+03 -0.12366427141E+03  0.18870349182E+03  0.26849616487E+03  0.41800000000E+01 0. -1.
        -11    1    1    2    0    0  0.68720487091E+02  0.37379558392E+02  0.13104234505E+03  0.15261662074E+03  0.00000000000E+00 0. -1.
         11    1    1    2    0    0  0.92425147111E+02  0.59722541252E+02  0.33561600935E+02  0.11504595086E+03  0.00000000000E+00 0.  1.
</event>
<event>
 7    1  0.2499014E-009  0.1899839E+03  0.7561462E-02  0.1158476E+00
         -2   -1    0    0    0  501 -0.00000000000E+00  0.00000000000E+00  0.12938262880E+03  0.12938262880E+03  0.00000000000E+00 0.  1.
          2   -1    0    0  501    0  0.00000000000E+00 -0.00000000000E+00 -0.38500422177E+03  0.38500422177E+03  0.00000000000E+00 0. -1.
         25    2    1    2    0    0  0.16313890524E+03  0.45511707536E+02 -0.24367447003E+03  0.32203987484E+03  0.12508723244E+03 0.  0.
          5    1    3    3  502    0  0.11951116381E+03  0.88801695341E+02 -0.17230441359E+03  0.22776071372E+03  0.41800000000E+01 0.  1.
         -5    1    3    3    0  502  0.43627741432E+02 -0.43289987805E+02 -0.71370056436E+02  0.94279161124E+02  0.41800000000E+01 0.  1.
        -11    1    1    2    0    0 -0.13148853726E+03 -0.38310770287E+02  0.29103220224E+02  0.14001409921E+03  0.00000000000E+00 0.  1.
         11    1    1    2    0    0 -0.31650367975E+02 -0.72009372489E+01 -0.41050343167E+02  0.52332876515E+02  0.00000000000E+00 0. -1.
</event>
<event>
 7    1  0.2499014E-009  0.1936292E+03  0.7561462E-02  0.1155228E+00
          2   -1    0    0  501    0  0.00000000000E+00  0.00000000000E+00  0.50679523547E+03  0.50679523547E+03  0.00000000000E+00 0. -1.
         -2   -1    0    0    0  501 -0.00000000000E+00 -0.00000000000E+00 -0.97837253870E+02  0.97837253870E+02  0.00000000000E+00 0.  1.
         25    2    1    2    0    0  0.57369695998E+02  0.16953789438E+03  0.29598897975E+03  0.36782062673E+03  0.12509259637E+03 0.  0.
          5    1    3    3  502    0  0.35609026189E+02  0.12578988009E+03  0.96904690690E+02  0.16278540523E+03  0.41800000000E+01 0.  1.
         -5    1    3    3    0  502  0.21760669808E+02  0.43748014292E+02  0.19908428906E+03  0.20503522150E+03  0.41800000000E+01 0.  1.
        -11    1    1    2    0    0  0.30943805601E+02 -0.49912387820E+02  0.40966549580E+02  0.71603238387E+02  0.00000000000E+00 0. -1.
         11    1    1    2    0    0 -0.88313501598E+02 -0.11962550656E+03  0.72002452270E+02  0.16520862422E+03  0.00000000000E+00 0.  1.
</event>
<event>
 7    1  0.2499014E-009  0.7744257E+02  0.7561462E-02  0.1336470E+00
          2   -1    0    0  501    0  0.00000000000E+00  0.00000000000E+00  0.69371263930E+02  0.69371263930E+02  0.00000000000E+00 0. -1.
         -2   -1    0    0    0  501 -0.00000000000E+00 -0.00000000000E+00 -0.20226306767E+03  0.20226306767E+03  0.00000000000E+00 0.  1.
         25    2    1    2    0    0  0.21474906732E+02  0.39710703871E+02 -0.90999374261E+02  0.16114218709E+03  0.12509119363E+03 0.  0.
          5    1    3    3  502    0  0.85307745744E+01 -0.44712927692E+01 -0.11047928261E+03  0.11097707358E+03  0.41800000000E+01 0.  1.
         -5    1    3    3    0  502  0.12944132158E+02  0.44181996641E+02  0.19479908351E+02  0.50165113514E+02  0.41800000000E+01 0.  1.
        -11    1    1    2    0    0  0.18675452671E+02  0.19252349898E+02  0.17273683338E+01  0.26877673084E+02  0.00000000000E+00 0. -1.
         11    1    1    2    0    0 -0.40150359403E+02 -0.58963053769E+02 -0.43619797812E+02  0.83614471422E+02  0.00000000000E+00 0.  1.
</event>
<event>
 7    1  0.2499014E-009  0.1137787E+03  0.7561462E-02  0.1253728E+00
         -1   -1    0    0    0  501 -0.00000000000E+00  0.00000000000E+00  0.51514244027E+02  0.51514244027E+02  0.00000000000E+00 0.  1.
          1   -1    0    0  501    0  0.00000000000E+00 -0.00000000000E+00 -0.31256024652E+03  0.31256024652E+03  0.00000000000E+00 0. -1.
         25    2    1    2    0    0  0.32306484716E+02 -0.41827116843E+02 -0.86049041609E+02  0.16076303885E+03  0.12508837052E+03 0.  0.
          5    1    3    3  502    0  0.11664236167E+02 -0.79905849319E+02 -0.84881894568E+02  0.11723228048E+03  0.41800000000E+01 0. -1.
         -5    1    3    3    0  502  0.20642248549E+02  0.38078732476E+02 -0.11671470407E+01  0.43530758371E+02  0.41800000000E+01 0. -1.
        -11    1    1    2    0    0 -0.44999415365E+02  0.63641288343E+02 -0.12509632013E+03  0.14739148644E+03  0.00000000000E+00 0.  1.
         11    1    1    2    0    0  0.12692930648E+02 -0.21814171500E+02 -0.49900640758E+02  0.55919965261E+02  0.00000000000E+00 0. -1.
</event>
<event>
 7    1  0.2499014E-009  0.1446310E+03  0.7561462E-02  0.1207230E+00
         -2   -1    0    0    0  501 -0.00000000000E+00  0.00000000000E+00  0.14120123858E+03  0.14120123858E+03  0.00000000000E+00 0.  1.
          2   -1    0    0  501    0  0.00000000000E+00 -0.00000000000E+00 -0.19183328747E+03  0.19183328747E+03  0.00000000000E+00 0. -1.
         25    2    1    2    0    0 -0.30705218054E+01  0.10712265286E+03 -0.88554261584E+02  0.18701726233E+03  0.12509559667E+03 0.  0.
          5    1    3    3  502    0 -0.54917966621E+02  0.94515412947E+02 -0.72131158450E+02  0.13103252559E+03  0.41800000000E+01 0. -1.
         -5    1    3    3    0  502  0.51847444816E+02  0.12607239910E+02 -0.16423103135E+02  0.55984736747E+02  0.41800000000E+01 0. -1.
        -11    1    1    2    0    0 -0.92372253500E+01 -0.11252746806E+03  0.53921109702E+02  0.12512091541E+03  0.00000000000E+00 0.  1.
         11    1    1    2    0    0  0.12307747155E+02  0.54048152068E+01 -0.15998897008E+02  0.20896348316E+02  0.00000000000E+00 0. -1.
</event>
<event>
 7    1  0.2499014E-009  0.1260501E+03  0.7561462E-02  0.1233437E+00
         -2   -1    0    0    0  501 -0.00000000000E+00  0.00000000000E+00  0.18956686470E+02  0.18956686470E+02  0.00000000000E+00 0.  1.
          2   -1    0    0  501    0  0.00000000000E+00 -0.00000000000E+00 -0.10536139330E+04  0.10536139330E+04  0.00000000000E+00 0. -1.
         25    2    1    2    0    0  0.80878336927E+02 -0.41788082493E+02 -0.57042812854E+03  0.59103533465E+03  0.12508784017E+03 0.  0.
          5    1    3    3  502    0  0.54070552100E+02 -0.67672250577E+02 -0.52507293005E+03  0.53218625722E+03  0.41800000000E+01 0.  1.
         -5    1    3    3    0  502  0.26807784828E+02  0.25884168083E+02 -0.45355198489E+02  0.58849077433E+02  0.41800000000E+01 0.  1.
        -11    1    1    2    0    0 -0.79785013754E+02 -0.60645823982E+01 -0.29727835060E+03  0.30785848261E+03  0.00000000000E+00 0. -1.
         11    1    1    2    0    0 -0.10933231729E+01  0.47852664891E+02 -0.16695076741E+03  0.17367680223E+03  0.00000000000E+00 0.  1.
</event>
<event>
 7    1  0.2499014E-009  0.7402785E+02  0.7561462E-02  0.1346908E+00
         -1   -1    0    0    0  501 -0.00000000000E+00  0.00000000000E+00  0.77300759905E+02  0.77300759905E+02  0.00000000000E+00 0. -1.
          1   -1    0    0  501    0  0.00000000000E+00 -0.00000000000E+00 -0.17705055896E+03  0.17705055896E+03  0.00000000000E+00 0.  1.
         25    2    1    2    0    0 -0.31266795143E+02 -0.27173371012E+02 -0.37047983098E+02  0.13688046927E+03  0.12509078801E+03 0.  0.
          5    1    3    3  502    0  0.16318277760E+02 -0.33993851074E+02 -0.69185638519E+02  0.78904962310E+02  0.41800000000E+01 0. -1.
         -5    1    3    3    0  502 -0.47585072902E+02  0.68204800620E+01  0.32137655421E+02  0.57975506961E+02  0.41800000000E+01 0. -1.
        -11    1    1    2    0    0  0.23205417158E+02 -0.89356255453E+01 -0.74577373538E+02  0.78613748373E+02  0.00000000000E+00 0.  1.
         11    1    1    2    0    0  0.80613779848E+01  0.36108996558E+02  0.11875557582E+02  0.38857101221E+02  0.00000000000E+00 0. -1.
</event>
<event>
 7    1  0.2499014E-009  0.2347973E+03  0.7561462E-02  0.1123308E+00
          1   -1    0    0  501    0  0.00000000000E+00  0.00000000000E+00  0.77935705043E+03  0.77935705043E+03  0.00000000000E+00 0.  1.
         -1   -1    0    0    0  501 -0.00000000000E+00 -0.00000000000E+00 -0.93300834428E+02  0.93300834428E+02  0.00000000000E+00 0. -1.
         25    2    1    2    0    0 -0.10970757840E+03 -0.20475702158E+03  0.48648524869E+03  0.55342184191E+03  0.12508655910E+03 0.  0.
          5    1    3    3  502    0 -0.58933852708E+02 -0.15375824411E+03  0.43413323104E+03  0.46433170398E+03  0.41800000000E+01 0. -1.
         -5    1    3    3    0  502 -0.50773725696E+02 -0.50998777479E+02  0.52352017645E+02  0.89090137933E+02  0.41800000000E+01 0. -1.
        -11    1    1    2    0    0  0.43712531836E+02  0.97591652124E+02  0.14945046054E+03  0.18376712480E+03  0.00000000000E+00 0.  1.
         11    1    1    2    0    0  0.65995046568E+02  0.10716536946E+03  0.50120506779E+02  0.13546891814E+03  0.00000000000E+00 0. -1.
</event>
<event>
 7    1  0.2499014E-009  0.9186321E+02  0.7561462E-02  0.1298401E+00
         -1   -1    0    0    0  501 -0.00000000000E+00  0.00000000000E+00  0.26101059832E+03  0.26101059832E+03  0.00000000000E+00 0.  1.
          1   -1    0    0  501    0  0.00000000000E+00 -0.00000000000E+00 -0.50144818510E+02  0.50144818510E+02  0.00000000000E+00 0. -1.
         25    2    1    2    0    0 -0.36407665454E+01  0.17860498250E+02  0.16158639543E+03  0.20515961279E+03  0.12509216984E+03 0.  0.
          5    1    3    3  502    0  0.10849000651E+02 -0.47975779285E+02  0.31426214427E+02  0.58518847957E+02  0.41800000000E+01 0.  1.
         -5    1    3    3    0  502 -0.14489767196E+02  0.65836277535E+02  0.13016018100E+03  0.14664076483E+03  0.41800000000E+01 0.  1.
        -11    1    1    2    0    0 -0.27631252332E+02 -0.21941543741E+02  0.62522253633E+02  0.71791013689E+02  0.00000000000E+00 0.  1.
         11    1    1    2    0    0  0.31272018878E+02  0.40810454910E+01 -0.13242869249E+02  0.34204790350E+02  0.00000000000E+00 0. -1.
</event>
<event>
 7    1  0.2499014E-009  0.1177546E+03  0.7561462E-02  0.1246848E+00
         -1   -1    0    0    0  501 -0.00000000000E+00  0.00000000000E+00  0.76506864459E+03  0.76506864459E+03  0.00000000000E+00 0.  1.
          1   -1    0    0  501    0  0.00000000000E+00 -0.00000000000E+00 -0.25278124911E+02  0.25278124911E+02  0.00000000000E+00 0. -1.
         25    2    1    2    0    0  0.48884628615E+02  0.60790922165E+02  0.56820374821E+03  0.58701691320E+03  0.12509242094E+03 0.  0.
          5    1    3    3  502    0 -0.40592478651E+02  0.69903406342E+01  0.20191692418E+03  0.20611775968E+03  0.41800000000E+01 0.  1.
         -5    1    3    3    0  502  0.89477107267E+02  0.53800581531E+02  0.36628682403E+03  0.38089915353E+03  0.41800000000E+01 0.  1.
        -11    1    1    2    0    0 -0.50605267867E+00 -0.34601888025E+02  0.12955793969E+03  0.13409998688E+03  0.00000000000E+00 0.  1.
         11    1    1    2    0    0 -0.48378575937E+02 -0.26189034140E+02  0.42028831780E+02  0.69229869418E+02  0.00000000000E+00 0. -1.
</event>
<event>
 7    1  0.2499014E-009  0.1317705E+03  0.7561462E-02  0.1224852E+00
         -1   -1    0    0    0  501 -0.00000000000E+00  0.00000000000E+00  0.22440821894E+03  0.22440821894E+03  0.00000000000E+00 0.  1.
          1   -1    0    0  501    0  0.00000000000E+00 -0.00000000000E+00 -0.13267353779E+03  0.13267353779E+03  0.00000000000E+00 0. -1.
         25    2    1    2    0    0  0.31869614715E+02 -0.85695138722E+02  0.14774685730E+03  0.21409557246E+03  0.12509376949E+03 0.  0.
          5    1    3    3  502    0 -0.47891286742E+02 -0.23571143428E+02  0.45799182861E+02  0.70457162156E+02  0.41800000000E+01 0.  1.
         -5    1    3    3    0  502  0.79760901457E+02 -0.62123995294E+02  0.10194767443E+03  0.14363841031E+03  0.41800000000E+01 0.  1.
        -11    1    1    2    0    0  0.11392853166E+02  0.53985802373E+02  0.11902560975E+02  0.56444086661E+02  0.00000000000E+00 0.  1.
         11    1    1    2    0    0 -0.43262467881E+02  0.31709336348E+02 -0.67914737121E+02  0.86542097600E+02  0.00000000000E+00 0. -1.
</event>
<event>
 7    1  0.2499014E-009  0.9087333E+02  0.7561462E-02  0.1300750E+00
          2   -1    0    0  501    0  0.00000000000E+00  0.00000000000E+00  0.25055003571E+03  0.25055003571E+03  0.00000000000E+00 0. -1.
         -2   -1    0    0    0  501 -0.00000000000E+00 -0.00000000000E+00 -0.61749501612E+02  0.61749501612E+02  0.00000000000E+00 0.  1.
         25    2    1    2    0    0 -0.10546654540E+02  0.14838742942E+02  0.35302868304E+02  0.13124411396E+03  0.12508918709E+03 0.  0.
          5    1    3    3  502    0 -0.62137807617E+02  0.30540711196E+02  0.33734497477E+02  0.77131905823E+02  0.41800000000E+01 0. -1.
         -5    1    3    3    0  502  0.51591153077E+02 -0.15701968254E+02  0.15683708270E+01  0.54112208142E+02  0.41800000000E+01 0. -1.
        -11    1    1    2    0    0 -0.22602440303E+02 -0.10287395865E+02  0.14420674388E+03  0.14632937436E+03  0.00000000000E+00 0. -1.
         11    1    1    2    0    0  0.33149094843E+02 -0.45513470766E+01  0.92909219213E+01  0.34726049002E+02  0.00000000000E+00 0.  1.
</event>
<event>
 7    1  0.2499014E-009  0.4805943E+03  0.7561462E-02  0.1018972E+00
          1   -1    0    0  501    0  0.00000000000E+00  0.00000000000E+00  0.99534291557E+03  0.99534291557E+03  0.00000000000E+00 0. -1.
         -1   -1    0    0    0  501 -0.00000000000E+00 -0.00000000000E+00 -0.27152740437E+03  0.27152740437E+03  0.00000000000E+00 0.  1.
         25    2    1    2    0    0  0.37324620878E+03 -0.28715127638E+03  0.13153485961E+03  0.50469508001E+03  0.12508843508E+03 0.  0.
          5    1    3    3  502    0  0.28700395233E+03 -0.15517361727E+03  0.11565700967E+03  0.34618511874E+03  0.41800000000E+01 0.  1.
         -5    1    3    3    0  502  0.86242256450E+02 -0.13197765911E+03  0.15877849936E+02  0.15850996126E+03  0.41800000000E+01 0.  1.
        -11    1    1    2    0    0 -0.80619339768E+02  0.25279494031E+02  0.76977022429E+02  0.11429782476E+03  0.00000000000E+00 0.  1.
         11    1    1    2    0    0 -0.29262686902E+03  0.26187178235E+03  0.51530362916E+03  0.64787741517E+03  0.00000000000E+00 0. -1.
</event>
<event>
 7    1  0.2499014E-009  0.2725584E+03  0.7561462E-02  0.1099824E+00
         -1   -1    0    0    0  501 -0.00000000000E+00  0.00000000000E+00  0.50196377306E+03  0.50196377306E+03  0.00000000000E+00 0.  1.
          1   -1    0    0  501    0  0.00000000000E+00 -0.00000000000E+00 -0.15644831587E+03  0.15644831587E+03  0.00000000000E+00 0. -1.
         25    2    1    2    0    0  0.13409806520E+03  0.21955481971E+03  0.17994029585E+03  0.33795293627E+03  0.12508823733E+03 0.  0.
          5    1    3    3  502    0  0.86742645909E+02  0.32371677312E+02  0.51668939493E+02  0.10611014947E+03  0.41800000000E+01 0. -1.
         -5    1    3    3    0  502  0.47355419286E+02  0.18718314239E+03  0.12827135636E+03  0.23184278680E+03  0.41800000000E+01 0.  1.
        -11    1    1    2    0    0 -0.10012026097E+03 -0.13413110724E+03  0.15463846809E+03  0.22787776636E+03  0.00000000000E+00 0.  1.
         11    1    1    2    0    0 -0.33977804224E+02 -0.85423712466E+02  0.10936693246E+02  0.92581386307E+02  0.00000000000E+00 0. -1.
</event>
<event>
 7    1  0.2499014E-009  0.1125295E+03  0.7561462E-02  0.1255956E+00
          1   -1    0    0  501    0  0.00000000000E+00  0.00000000000E+00  0.68676904739E+03  0.68676904739E+03  0.00000000000E+00 0. -1.
         -1   -1    0    0    0  501 -0.00000000000E+00 -0.00000000000E+00 -0.24874704735E+02  0.24874704735E+02  0.00000000000E+00 0.  1.
         25    2    1    2    0    0  0.65118307679E+02 -0.48168440336E+00  0.27733748950E+03  0.31113167370E+03  0.12508480837E+03 0.  0.
          5    1    3    3  502    0  0.68746637878E+02 -0.35772773122E+02  0.26016832007E+03  0.27149736405E+03  0.41800000000E+01 0.  1.
         -5    1    3    3    0  502 -0.36283301990E+01  0.35291088718E+02  0.17169169423E+02  0.39634309653E+02  0.41800000000E+01 0.  1.
        -11    1    1    2    0    0 -0.85337912335E+02 -0.14500976093E+02  0.28775837820E+03  0.30049579334E+03  0.00000000000E+00 0.  1.
         11    1    1    2    0    0  0.20219604656E+02  0.14982660496E+02  0.96798474961E+02  0.10001628509E+03  0.00000000000E+00 0. -1.
</event>
<event>
 7    1  0.2499014E-009  0.1462768E+03  0.7561462E-02  0.1205124E+00
         -1   -1    0    0    0  501 -0.00000000000E+00  0.00000000000E+00  0.17362894903E+03  0.17362894903E+03  0.00000000000E+00 0.  1.
          1   -1    0    0  501    0  0.00000000000E+00 -0.00000000000E+00 -0.17786546608E+03  0.17786546608E+03  0.00000000000E+00 0. -1.
         25    2    1    2    0    0  0.42832889777E+02 -0.11295120069E+03  0.62413012553E+02  0.18475675668E+03  0.12508814819E+03 0.  0.
          5    1    3    3  502    0  0.67939231802E+02 -0.13912613282E+02  0.39664187098E+02  0.80000126027E+02  0.41800000000E+01 0. -1.
         -5    1    3    3    0  502 -0.25106342025E+02 -0.99038587412E+02  0.22748825455E+02  0.10475663065E+03  0.41800000000E+01 0. -1.
        -11    1    1    2    0    0 -0.25873248427E+02  0.65030712668E+02  0.14028424623E+02  0.71380776626E+02  0.00000000000E+00 0.  1.
         11    1    1    2    0    0 -0.16959641349E+02  0.47920488026E+02 -0.80677954230E+02  0.95356881797E+02  0.00000000000E+00 0. -1.
</event>
<event>
 7    1  0.2499014E-009  0.1141773E+03  0.7561462E-02  0.1253024E+00
         -2   -1    0    0    0  501 -0.00000000000E+00  0.00000000000E+00  0.24477895917E+02  0.24477895917E+02  0.00000000000E+00 0.  1.
          2   -1    0    0  501    0  0.00000000000E+00 -0.00000000000E+00 -0.60517394289E+03  0.60517394289E+03  0.00000000000E+00 0. -1.
         25    2    1    2    0    0 -0.24306305131E+01 -0.52021121211E+02 -0.37371272381E+03  0.39751860735E+03  0.12509091989E+03 0.  0.
          5    1    3    3  502    0  0.23942822615E+02  0.34361739700E+02 -0.82865974992E+02  0.92942079390E+02  0.41800000000E+01 0. -1.
         -5    1    3    3    0  502 -0.26373453128E+02 -0.86382860911E+02 -0.29084674881E+03  0.30457652796E+03  0.41800000000E+01 0. -1.
        -11    1    1    2    0    0  0.18754200453E+02  0.69469499657E+02 -0.18898184749E+03  0.20221738327E+03  0.00000000000E+00 0. -1.
         11    1    1    2    0    0 -0.16323569940E+02 -0.17448378446E+02 -0.18001475679E+02  0.29915848185E+02  0.00000000000E+00 0.  1.
</event>
<event>
 7    1  0.2499014E-009  0.1612017E+03  0.7561462E-02  0.1187347E+00
          1   -1    0    0  501    0  0.00000000000E+00  0.00000000000E+00  0.37432985125E+03  0.37432985125E+03  0.00000000000E+00 0. -1.
         -1   -1    0    0    0  501 -0.00000000000E+00 -0.00000000000E+00 -0.10272670768E+03  0.10272670768E+03  0.00000000000E+00 0.  1.
         25    2    1    2    0    0 -0.10687581234E+03 -0.10696495710E+03  0.21507899079E+03  0.29115106394E+03  0.12508408551E+03 0.  0.
          5    1    3    3  502    0 -0.47906584398E+02 -0.61925563500E+01  0.24613203435E+01  0.48548110989E+02  0.41800000000E+01 0. -1.
         -5    1    3    3    0  502 -0.58969227938E+02 -0.10077240075E+03  0.21261767045E+03  0.24260295295E+03  0.41800000000E+01 0. -1.
        -11    1    1    2    0    0  0.89089946951E+02  0.61474502785E+02  0.77112108214E+02  0.13290000141E+03  0.00000000000E+00 0. -1.
         11    1    1    2    0    0  0.17785865385E+02  0.45490454312E+02 -0.20587955435E+02  0.53005493583E+02  0.00000000000E+00 0.  1.
</event>
<event>
 7    1  0.2499014E-009  0.1219120E+03  0.7561462E-02  0.1239976E+00
         -2   -1    0    0    0  501 -0.00000000000E+00  0.00000000000E+00  0.11978736961E+02  0.11978736961E+02  0.00000000000E+00 0.  1.
          2   -1    0    0  501    0  0.00000000000E+00 -0.00000000000E+00 -0.15937691883E+04  0.15937691883E+04  0.00000000000E+00 0. -1.
         25    2    1    2    0    0  0.68682098093E+02  0.84984839780E+01 -0.11806379255E+04  0.11892611491E+04  0.12508682861E+03 0.  0.
          5    1    3    3  502    0  0.10413230345E+03  0.17378391091E+02 -0.82944705764E+03  0.83614917265E+03  0.41800000000E+01 0. -1.
         -5    1    3    3    0  502 -0.35450205357E+02 -0.88799071127E+01 -0.35119086790E+03  0.35311197644E+03  0.41800000000E+01 0. -1.
        -11    1    1    2    0    0 -0.35486632403E+02 -0.41481552802E+02 -0.12504009432E+03  0.13643696526E+03  0.00000000000E+00 0.  1.
         11    1    1    2    0    0 -0.33195465690E+02  0.32983068824E+02 -0.27611243146E+03  0.28004981089E+03  0.00000000000E+00 0. -1.
</event>
<event>
 7    1  0.2499014E-009  0.1091537E+03  0.7561462E-02  0.1262145E+00
         -1   -1    0    0    0  501 -0.00000000000E+00  0.00000000000E+00  0.14554443403E+03  0.14554443403E+03  0.00000000000E+00 0.  1.
          1   -1    0    0  501    0  0.00000000000E+00 -0.00000000000E+00 -0.11895082366E+03  0.11895082366E+03  0.00000000000E+00 0. -1.
         25    2    1    2    0    0 -0.16192756690E+02  0.66197817283E+02  0.45315787419E+02  0.14948072310E+03  0.12508640857E+03 0.  0.
          5    1    3    3  502    0 -0.61452685924E+02  0.17958760872E+02  0.52380578660E+02  0.82826005095E+02  0.41800000000E+01 0.  1.
         -5    1    3    3    0  502  0.45259929234E+02  0.48239056411E+02 -0.70647912408E+01  0.66654718010E+02  0.41800000000E+01 0.  1.
        -11    1    1    2    0    0  0.21976192704E+02 -0.74543326148E+02 -0.42915261590E+02  0.88777137802E+02  0.00000000000E+00 0. -1.
         11    1    1    2    0    0 -0.57834360145E+01  0.83455088656E+01  0.24193084537E+02  0.26237396779E+02  0.00000000000E+00 0.  1.
</event>
<event>
 7    1  0.2499014E-009  0.7434525E+02  0.7561462E-02  0.1345911E+00
          1   -1    0    0  501    0  0.00000000000E+00  0.00000000000E+00  0.50752695366E+02  0.50752695366E+02  0.00000000000E+00 0. -1.
         -1   -1    0    0    0  501 -0.00000000000E+00 -0.00000000000E+00 -0.25018268506E+03  0.25018268506E+03  0.00000000000E+00 0.  1.
         25    2    1    2    0    0  0.12430486529E+02  0.20637767774E+02 -0.84938117126E+02  0.15310940744E+03  0.12509025723E+03 0.  0.
          5    1    3    3  502    0  0.32469659311E+02  0.14101494631E+02  0.23413596084E+02  0.42647389231E+02  0.41800000000E+01 0.  1.
         -5    1    3    3    0  502 -0.20039172782E+02  0.65362731422E+01 -0.10835171321E+03  0.11046201821E+03  0.41800000000E+01 0.  1.
        -11    1    1    2    0    0  0.36480456216E+02  0.41624486002E+01 -0.31638503166E+02  0.48467974444E+02  0.00000000000E+00 0.  1.
         11    1    1    2    0    0 -0.48910942745E+02 -0.24800216374E+02 -0.82853369402E+02  0.99357998538E+02  0.00000000000E+00 0. -1.
</event>
<event>
 7    1  0.2499014E-009  0.1057144E+03  0.7561462E-02  0.1268718E+00
          2   -1    0    0  501    0  0.00000000000E+00  0.00000000000E+00  0.39058392486E+03  0.39058392486E+03  0.00000000000E+00 0. -1.
         -2   -1    0    0    0  501 -0.00000000000E+00 -0.00000000000E+00 -0.42241462347E+02  0.42241462347E+02  0.00000000000E+00 0.  1.
         25    2    1    2    0    0 -0.48793684955E+02  0.26674983225E+02  0.25681320896E+03  0.29101974429E+03  0.12508832420E+03 0.  0.
          5    1    3    3  502    0  0.28779655389E+02 -0.15369193084E+02  0.14415492111E+03  0.14786004985E+03  0.41800000000E+01 0.  1.
         -5    1    3    3    0  502 -0.77573340344E+02  0.42044176309E+02  0.11265828785E+03  0.14315969445E+03  0.41800000000E+01 0.  1.
        -11    1    1    2    0    0  0.98394797230E+01 -0.45772840956E+02  0.77440388550E+01  0.47454593752E+02  0.00000000000E+00 0.  1.
         11    1    1    2    0    0  0.38954205232E+02  0.19097857731E+02  0.83785214699E+02  0.94351049158E+02  0.00000000000E+00 0. -1.
</event>
<event>
 7    1  0.2499014E-009  0.1426344E+03  0.7561462E-02  0.1209828E+00
         -1   -1    0    0    0  501 -0.00000000000E+00  0.00000000000E+00  0.39526570409E+02  0.39526570409E+02  0.00000000000E+00 0.  1.
          1   -1    0    0  501    0  0.00000000000E+00 -0.00000000000E+00 -0.57064415062E+03  0.57064415062E+03  0.00000000000E+00 0. -1.
         25    2    1    2    0    0 -0.34620497849E+02  0.92811391953E+02 -0.34844149073E+03  0.38324143500E+03  0.12509992681E+03 0.  0.
          5    1    3    3  502    0 -0.10134410446E+02  0.12127754886E+03 -0.26831619827E+03  0.29465573945E+03  0.41800000000E+01 0.  1.
         -5    1    3    3    0  502 -0.24486087403E+02 -0.28466156904E+02 -0.80125292454E+02  0.88585695550E+02  0.41800000000E+01 0.  1.
        -11    1    1    2    0    0  0.62982286020E+01 -0.96896504555E+02 -0.99760529214E+02  0.13921481052E+03  0.00000000000E+00 0.  1.
         11    1    1    2    0    0  0.28322269247E+02  0.40851126020E+01 -0.82915560274E+02  0.87714475521E+02  0.00000000000E+00 0. -1.
</event>
<event>
 7    1  0.2499014E-009  0.1453744E+03  0.7561462E-02  0.1206275E+00
         -3   -1    0    0    0  501 -0.00000000000E+00  0.00000000000E+00  0.67119557224E+03  0.67119557224E+03  0.00000000000E+00 0.  1.
          3   -1    0    0  501    0  0.00000000000E+00 -0.00000000000E+00 -0.43280156543E+02  0.43280156543E+02  0.00000000000E+00 0. -1.
         25    2    1    2    0    0 -0.27150615464E+02  0.12674439684E+03  0.28256218252E+03  0.33509834090E+03  0.12509281767E+03 0.  0.
          5    1    3    3  502    0 -0.23359250790E+02  0.13434900934E+03  0.15221224234E+03  0.20440486791E+03  0.41800000000E+01 0.  1.
         -5    1    3    3    0  502 -0.37913646738E+01 -0.76046124968E+01  0.13034994018E+03  0.13069347299E+03  0.41800000000E+01 0.  1.
        -11    1    1    2    0    0 -0.11891814413E+02 -0.91448757602E+02  0.14195071646E+03  0.16927579986E+03  0.00000000000E+00 0. -1.
         11    1    1    2    0    0  0.39042429877E+02 -0.35295639238E+02  0.20340251672E+03  0.21010158802E+03  0.00000000000E+00 0.  1.
</event>
<event>
 7    1  0.2499014E-009  0.1079528E+03  0.7561462E-02  0.1264409E+00
         -1   -1    0    0    0  501 -0.00000000000E+00  0.00000000000E+00  0.31490984306E+03  0.31490984306E+03  0.00000000000E+00 0.  1.
          1   -1    0    0  501    0  0.00000000000E+00 -0.00000000000E+00 -0.56479162867E+02  0.56479162867E+02  0.00000000000E+00 0. -1.
         25    2    1    2    0    0  0.37945348583E+02  0.66816091851E+02  0.17077813593E+03  0.22520784087E+03  0.12509660375E+03 0.  0.
          5    1    3    3  502    0 -0.96993421228E+00 -0.18419405454E+02  0.11402271485E+03  0.11558056572E+03  0.41800000000E+01 0. -1.
         -5    1    3    3    0  502  0.38915282795E+02  0.85235497305E+02  0.56755421078E+02  0.10962727515E+03  0.41800000000E+01 0. -1.
        -11    1    1    2    0    0 -0.56851653532E+02 -0.36786259813E+02  0.87567749767E+02  0.11069530351E+03  0.00000000000E+00 0.  1.
         11    1    1    2    0    0  0.18906304949E+02 -0.30029832038E+02  0.84794492268E-01  0.35485861539E+02  0.00000000000E+00 0. -1.
</event>
<event>
 7    1  0.2499014E-009  0.2079622E+03  0.7561462E-02  0.1143190E+00
          1   -1    0    0  501    0  0.00000000000E+00  0.00000000000E+00  0.24234778699E+03  0.24234778699E+03  0.00000000000E+00 0. -1.
         -1   -1    0    0    0  501 -0.00000000000E+00 -0.00000000000E+00 -0.28646263913E+03  0.28646263913E+03  0.00000000000E+00 0.  1.
         25    2    1    2    0    0  0.18260412266E+03 -0.58012545899E+02 -0.16683199746E+03  0.28317840020E+03  0.12508944747E+03 0.  0.
          5    1    3    3  502    0  0.85534019160E+02  0.32103890575E+02 -0.40258352068E+02  0.99924649286E+02  0.41800000000E+01 0. -1.
         -5    1    3    3    0  502  0.97070103499E+02 -0.90116436474E+02 -0.12657364539E+03  0.18325375091E+03  0.41800000000E+01 0. -1.
        -11    1    1    2    0    0 -0.11808810346E+03  0.31650161399E+02  0.12638670394E+03  0.17584121197E+03  0.00000000000E+00 0. -1.
         11    1    1    2    0    0 -0.64516019202E+02  0.26362384500E+02 -0.36695586233E+01  0.69790813942E+02  0.00000000000E+00 0.  1.
</event>
<event>
 7    1  0.2499014E-009  0.1108100E+03  0.7561462E-02  0.1259077E+00
         -1   -1    0    0    0  501 -0.00000000000E+00  0.00000000000E+00  0.20569076860E+02  0.20569076860E+02  0.00000000000E+00 0.  1.
          1   -1    0    0  501    0  0.00000000000E+00 -0.00000000000E+00 -0.64574053508E+03  0.64574053508E+03  0.00000000000E+00 0. -1.
         25    2    1    2    0    0  0.45250210473E+02  0.12623552780E+02 -0.29279102877E+03  0.32183838930E+03  0.12508567730E+03 0.  0.
          5    1    3    3  502    0  0.86743606906E+02  0.22541168171E+02 -0.17867901447E+03  0.19994054170E+03  0.41800000000E+01 0. -1.
         -5    1    3    3    0  502 -0.41493396433E+02 -0.99176153908E+01 -0.11411201430E+03  0.12189784760E+03  0.41800000000E+01 0. -1.
        -11    1    1    2    0    0 -0.16031174878E+02  0.31943305992E+02 -0.10451306844E+03  0.11045521645E+03  0.00000000000E+00 0.  1.
         11    1    1    2    0    0 -0.29219035594E+02 -0.44566858772E+02 -0.22786736101E+03  0.23401600619E+03  0.00000000000E+00 0. -1.
</event>
<event>
 7    1  0.2499014E-009  0.1037986E+03  0.7561462E-02  0.1272505E+00
          1   -1    0    0  501    0  0.00000000000E+00  0.00000000000E+00  0.23656733533E+03  0.23656733533E+03  0.00000000000E+00 0. -1.
         -1   -1    0    0    0  501 -0.00000000000E+00 -0.00000000000E+00 -0.66628148122E+02  0.66628148122E+02  0.00000000000E+00 0.  1.
         25    2    1    2    0    0  0.20844873720E+02  0.34858734577E+02  0.37947075059E+02  0.13687913062E+03  0.12508507407E+03 0.  0.
          5    1    3    3  502    0  0.72695558769E+01 -0.34577169675E+02  0.53565038255E+02  0.64304842964E+02  0.41800000000E+01 0. -1.
         -5    1    3    3    0  502  0.13575317843E+02  0.69435904251E+02 -0.15617963196E+02  0.72574287652E+02  0.41800000000E+01 0. -1.
        -11    1    1    2    0    0  0.30992073198E+02 -0.38209868405E+02  0.61720363011E+02  0.78929752659E+02  0.00000000000E+00 0. -1.
         11    1    1    2    0    0 -0.51836946918E+02  0.33511338278E+01  0.70271749140E+02  0.87386600179E+02  0.00000000000E+00 0.  1.
</event>
<event>
 7    1  0.2499014E-009  0.1019730E+03  0.7561462E-02  0.1276201E+00
          1   -1    0    0  501    0  0.00000000000E+00  0.00000000000E+00  0.18442514592E+03  0.18442514592E+03  0.00000000000E+00 0.  1.
         -1   -1    0    0    0  501 -0.00000000000E+00 -0.00000000000E+00 -0.86093984966E+02  0.86093984966E+02  0.00000000000E+00 0. -1.
         25    2    1    2    0    0  0.39092866906E+02  0.37503411681E+02  0.19169714265E+02  0.13765670693E+03  0.12508850022E+03 0.  0.
          5    1    3    3  502    0 -0.56205011018E+00 -0.44200254974E+02 -0.14829310156E+01  0.44425779953E+02  0.41800000000E+01 0.  1.
         -5    1    3    3    0  502  0.39654917016E+02  0.81703666655E+02  0.20652645281E+02  0.93230926980E+02  0.41800000000E+01 0.  1.
        -11    1    1    2    0    0 -0.35196079119E+02 -0.45982089668E+01  0.90998715135E+02  0.97676372103E+02  0.00000000000E+00 0.  1.
         11    1    1    2    0    0 -0.38967877872E+01 -0.32905202714E+02 -0.11837268444E+02  0.35186051852E+02  0.00000000000E+00 0. -1.
</event>
<event>
 7    1  0.2578985E-009  0.2006941E+03  0.7561462E-02  0.1149155E+00
          1   -1    0    0  501    0  0.00000000000E+00  0.00000000000E+00  0.69131304044E+03  0.69131304044E+03  0.00000000000E+00 0. -1.
         -1   -1    0    0    0  501 -0.00000000000E+00 -0.00000000000E+00 -0.64786051241E+02  0.64786051241E+02  0.00000000000E+00 0.  1.
         25    2    1    2    0    0  0.65745101628E+02  0.16912491643E+03  0.31991129504E+03  0.38847944662E+03  0.12508951997E+03 0.  0.
          5    1    3    3  502    0 -0.36524361365E+02  0.34471623672E+02  0.88531282734E+02  0.10187041884E+03  0.41800000000E+01 0. -1.
         -5    1    3    3    0  502  0.10226946299E+03  0.13465329276E+03  0.23138001231E+03  0.28660902778E+03  0.41800000000E+01 0. -1.
        -11    1    1    2    0    0 -0.24269457610E+02 -0.47330143972E+02  0.17767646078E+03  0.18546717719E+03  0.00000000000E+00 0. -1.
         11    1    1    2    0    0 -0.41475644018E+02 -0.12179477246E+03  0.12893923338E+03  0.18215246787E+03  0.00000000000E+00 0.  1.
</event>
<event>
 7    1  0.2499014E-009  0.1232795E+03  0.7561462E-02  0.1237783E+00
         -2   -1    0    0    0  501 -0.00000000000E+00  0.00000000000E+00  0.33230792808E+03  0.33230792808E+03  0.00000000000E+00 0.  1.
          2   -1    0    0  501    0  0.00000000000E+00 -0.00000000000E+00 -0.57666865065E+02  0.57666865065E+02  0.00000000000E+00 0. -1.
         25    2    1    2    0    0 -0.35186098829E+02  0.51471488772E+02  0.68777655251E+02  0.15577116935E+03  0.12508763181E+03 0.  0.
          5    1    3    3  502    0 -0.53655717961E+02 -0.25154791248E+02  0.18642332477E+02  0.62263219904E+02  0.41800000000E+01 0.  1.
         -5    1    3    3    0  502  0.18469619133E+02  0.76626280020E+02  0.50135322774E+02  0.93507949450E+02  0.41800000000E+01 0.  1.
        -11    1    1    2    0    0  0.64921845062E+02 -0.29851606411E+02  0.16139267335E+03  0.17650370926E+03  0.00000000000E+00 0. -1.
         11    1    1    2    0    0 -0.29735746233E+02 -0.21619882362E+02  0.44470734410E+02  0.57699914526E+02  0.00000000000E+00 0.  1.
</event>
<event>
 7    1  0.2499014E-009  0.1053688E+03  0.7561462E-02  0.1269395E+00
          2   -1    0    0  501    0  0.00000000000E+00  0.00000000000E+00  0.34715720499E+02  0.34715720499E+02  0.00000000000E+00 0. -1.
         -2   -1    0    0    0  501 -0.00000000000E+00 -0.00000000000E+00 -0.34111590636E+03  0.34111590636E+03  0.00000000000E+00 0.  1.
         25    2    1    2    0    0 -0.10122051465E+02 -0.13761349017E+02 -0.18363997570E+03  0.22285071043E+03  0.12508784039E+03 0.  0.
          5    1    3    3  502    0  0.49495633033E+02 -0.37153098893E+02 -0.93089832681E+02  0.11186312974E+03  0.41800000000E+01 0. -1.
         -5    1    3    3    0  502 -0.59617684498E+02  0.23391749876E+02 -0.90550143018E+02  0.11098758069E+03  0.41800000000E+01 0. -1.
        -11    1    1    2    0    0  0.88686152082E+00  0.48538694294E+02 -0.97807378967E+02  0.10919283286E+03  0.00000000000E+00 0.  1.
         11    1    1    2    0    0  0.92351899447E+01 -0.34777345278E+02 -0.24952831191E+02  0.43788083565E+02  0.00000000000E+00 0. -1.
</event>
<event>
 7    1  0.3669196E-009  0.1312081E+03  0.7561462E-02  0.1225674E+00
         -3   -1    0    0    0  501 -0.00000000000E+00  0.00000000000E+00  0.63742876104E+03  0.63742876104E+03  0.00000000000E+00 0.  1.
          3   -1    0    0  501    0  0.00000000000E+00 -0.00000000000E+00 -0.38017153506E+02  0.38017153506E+02  0.00000000000E+00 0. -1.
         25    2    1    2    0    0 -0.87461460265E+02 -0.55046599560E+02  0.41039646586E+03  0.44130795240E+03  0.12509122474E+03 0.  0.
          5    1    3    3  502    0 -0.93482823856E+02 -0.86005694001E+02  0.28712697739E+03  0.31399903074E+03  0.41800000000E+01 0. -1.
         -5    1    3    3    0  502  0.60213635908E+01  0.30959094441E+02  0.12326948846E+03  0.12730892166E+03  0.41800000000E+01 0. -1.
        -11    1    1    2    0    0  0.39391038793E+02  0.28209855103E+02  0.16859489019E+03  0.17541860466E+03  0.00000000000E+00 0.  1.
         11    1    1    2    0    0  0.48070421472E+02  0.26836744457E+02  0.20420251491E+02  0.58719357494E+02  0.00000000000E+00 0. -1.
</event>
<event>
 7    1  0.2499014E-009  0.8901573E+02  0.7561462E-02  0.1305253E+00
          3   -1    0    0  501    0  0.00000000000E+00  0.00000000000E+00  0.23342822894E+02  0.23342822894E+02  0.00000000000E+00 0. -1.
         -3   -1    0    0    0  501 -0.00000000000E+00 -0.00000000000E+00 -0.62458804698E+03  0.62458804698E+03  0.00000000000E+00 0.  1.
         25    2    1    2    0    0 -0.52413649950E+02  0.10445168627E+02 -0.33604872476E+03  0.36253613292E+03  0.12508960792E+03 0.  0.
          5    1    3    3  502    0  0.16057402853E+02 -0.20721984789E+02 -0.23496828059E+03  0.23646311789E+03  0.41800000000E+01 0. -1.
         -5    1    3    3    0  502 -0.68471052803E+02  0.31167153416E+02 -0.10108044417E+03  0.12607301502E+03  0.41800000000E+01 0. -1.
        -11    1    1    2    0    0  0.20220794220E+02  0.22379540177E+02 -0.20624970758E+02  0.36539208478E+02  0.00000000000E+00 0. -1.
         11    1    1    2    0    0  0.32192855730E+02 -0.32824708804E+02 -0.24457152857E+03  0.24885552848E+03  0.00000000000E+00 0.  1.
</event>
<event>
 7    1  0.2499014E-009  0.1181510E+03  0.7561462E-02  0.1246179E+00
          3   -1    0    0  501    0  0.00000000000E+00  0.00000000000E+00  0.35832232717E+03  0.35832232717E+03  0.00000000000E+00 0. -1.
         -3   -1    0    0    0  501 -0.00000000000E+00 -0.00000000000E+00 -0.66950964246E+02  0.66950964246E+02  0.00000000000E+00 0.  1.
         25    2    1    2    0    0 -0.99771911025E+02 -0.62878519063E+01  0.10107636087E+03  0.18935951505E+03  0.12508646570E+03 0.  0.
          5    1    3    3  502    0 -0.81308908875E+02 -0.29960618918E+02  0.31083852846E+01  0.86809629693E+02  0.41800000000E+01 0. -1.
         -5    1    3    3    0  502 -0.18463002150E+02  0.23672767011E+02  0.97967975586E+02  0.10254988536E+03  0.41800000000E+01 0. -1.
        -11    1    1    2    0    0  0.68306471343E+02  0.34901833819E+02  0.17437614261E+03  0.19050184026E+03  0.00000000000E+00 0. -1.
         11    1    1    2    0    0  0.31465439682E+02 -0.28613981912E+02  0.15918859450E+02  0.45411936112E+02  0.00000000000E+00 0.  1.
</event>
<event>
 7    1  0.2499014E-009  0.1074810E+03  0.7561462E-02  0.1265307E+00
          1   -1    0    0  501    0  0.00000000000E+00  0.00000000000E+00  0.74598330521E+02  0.74598330521E+02  0.00000000000E+00 0. -1.
         -1   -1    0    0    0  501 -0.00000000000E+00 -0.00000000000E+00 -0.27481733024E+03  0.27481733024E+03  0.00000000000E+00 0.  1.
         25    2    1    2    0    0  0.76472608197E+02  0.20991184844E+01 -0.43471109168E+02  0.15293709164E+03  0.12509016973E+03 0.  0.
          5    1    3    3  502    0  0.34281186011E+02  0.47991401519E+02 -0.64038394960E+02  0.87159410067E+02  0.41800000000E+01 0.  1.
         -5    1    3    3    0  502  0.42191422186E+02 -0.45892283035E+02  0.20567285792E+02  0.65777681572E+02  0.41800000000E+01 0.  1.
        -11    1    1    2    0    0 -0.33456378978E+02  0.25658250147E+02 -0.13396554533E+03  0.14044373404E+03  0.00000000000E+00 0.  1.
         11    1    1    2    0    0 -0.43016229219E+02 -0.27757368632E+02 -0.22782345228E+02  0.56034835091E+02  0.00000000000E+00 0. -1.
</event>
<event>
 7    1  0.2499014E-009  0.1107530E+03  0.7561462E-02  0.1259182E+00
          4   -1    0    0  501    0  0.00000000000E+00  0.00000000000E+00  0.21262273127E+02  0.21262273127E+02  0.00000000000E+00 0. -1.
         -4   -1    0    0    0  501 -0.00000000000E+00 -0.00000000000E+00 -0.92014375327E+03  0.92014375327E+03  0.00000000000E+00 0.  1.
         25    2    1    2    0    0 -0.18237458715E+02 -0.77371240067E+02 -0.63661989925E+03  0.65364364050E+03  0.12508476711E+03 0.  0.
          5    1    3    3  502    0 -0.42728409676E+02 -0.36274835426E+02 -0.56266162308E+03  0.56546189541E+03  0.41800000000E+01 0. -1.
         -5    1    3    3    0  502  0.24490950961E+02 -0.41096404641E+02 -0.73958276171E+02  0.88181745093E+02  0.41800000000E+01 0. -1.
        -11    1    1    2    0    0  0.48145060292E+02  0.19130387398E+02 -0.96245368357E+02  0.10930274234E+03  0.00000000000E+00 0.  1.
         11    1    1    2    0    0 -0.29907601577E+02  0.58240852669E+02 -0.16601621253E+03  0.17845964355E+03  0.00000000000E+00 0. -1.
</event>
<event>
 7    1  0.2499014E-009  0.1245548E+03  0.7561462E-02  0.1235767E+00
          2   -1    0    0  501    0  0.00000000000E+00  0.00000000000E+00  0.45216877893E+03  0.45216877893E+03  0.00000000000E+00 0. -1.
         -2   -1    0    0    0  501 -0.00000000000E+00 -0.00000000000E+00 -0.44633238894E+02  0.44633238894E+02  0.00000000000E+00 0.  1.
         25    2    1    2    0    0  0.58971210155E+02  0.55908921921E+02  0.28161994728E+03  0.31868693267E+03  0.12509258640E+03 0.  0.
          5    1    3    3  502    0 -0.24088163415E+02 -0.22509823304E+02  0.84842966990E+02  0.91119334992E+02  0.41800000000E+01 0. -1.
         -5    1    3    3    0  502  0.83059373570E+02  0.78418745225E+02  0.19677698029E+03  0.22756759767E+03  0.41800000000E+01 0. -1.
        -11    1    1    2    0    0 -0.37348210044E+02  0.43020965254E+01  0.81383259787E+00  0.37603977868E+02  0.00000000000E+00 0.  1.
         11    1    1    2    0    0 -0.21623000111E+02 -0.60211018446E+02  0.12510176016E+03  0.14051110729E+03  0.00000000000E+00 0. -1.
</event>
<event>
 7    1  0.2499014E-009  0.1503002E+03  0.7561462E-02  0.1200105E+00
          1   -1    0    0  501    0  0.00000000000E+00  0.00000000000E+00  0.58195314720E+03  0.58195314720E+03  0.00000000000E+00 0. -1.
         -1   -1    0    0    0  501 -0.00000000000E+00 -0.00000000000E+00 -0.47324288978E+02  0.47324288978E+02  0.00000000000E+00 0.  1.
         25    2    1    2    0    0 -0.11651777668E+03  0.43050450295E+02  0.31558128739E+03  0.36148115215E+03  0.12508933150E+03 0.  0.
          5    1    3    3  502    0 -0.64035101599E+02 -0.37239155619E+02  0.92235083226E+02  0.11837242891E+03  0.41800000000E+01 0.  1.
         -5    1    3    3    0  502 -0.52482675077E+02  0.80289605914E+02  0.22334620417E+03  0.24310872324E+03  0.41800000000E+01 0.  1.
        -11    1    1    2    0    0  0.31945808194E+02 -0.31803945744E+02  0.16481407066E+02  0.47996483256E+02  0.00000000000E+00 0.  1.
         11    1    1    2    0    0  0.84571968481E+02 -0.11246504551E+02  0.20256616376E+03  0.21979980077E+03  0.00000000000E+00 0. -1.
</event>
<event>
 7    1  0.2825728E-009  0.1228130E+03  0.7561462E-02  0.1238527E+00
         -1   -1    0    0    0  501 -0.00000000000E+00  0.00000000000E+00  0.13699724079E+03  0.13699724079E+03  0.00000000000E+00 0.  1.
          1   -1    0    0  501    0  0.00000000000E+00 -0.00000000000E+00 -0.15243715300E+03  0.15243715300E+03  0.00000000000E+00 0. -1.
         25    2    1    2    0    0  0.20428441466E+02  0.79851156429E+02  0.38431303244E+02  0.15465526636E+03  0.12509099864E+03 0.  0.
          5    1    3    3  502    0 -0.24428022111E+02  0.73782488660E+02 -0.20251878596E+02  0.80425088646E+02  0.41800000000E+01 0. -1.
         -5    1    3    3    0  502  0.44856463577E+02  0.60686677691E+01  0.58683181840E+02  0.74230177718E+02  0.41800000000E+01 0. -1.
        -11    1    1    2    0    0 -0.55518624293E+02 -0.35986371691E+02 -0.38469670349E+02  0.76532686662E+02  0.00000000000E+00 0.  1.
         11    1    1    2    0    0  0.35090182827E+02 -0.43864784737E+02 -0.15401545104E+02  0.58246440771E+02  0.00000000000E+00 0. -1.
</event>
<event>
 7    1  0.2499014E-009  0.1293828E+03  0.7561462E-02  0.1228374E+00
         -2   -1    0    0    0  501 -0.00000000000E+00  0.00000000000E+00  0.99799543521E+02  0.99799543521E+02  0.00000000000E+00 0.  1.
          2   -1    0    0  501    0  0.00000000000E+00 -0.00000000000E+00 -0.20260489141E+03  0.20260489141E+03  0.00000000000E+00 0. -1.
         25    2    1    2    0    0 -0.47172445487E+02 -0.74269856496E+02 -0.25754472898E+02  0.15509402974E+03  0.12509841722E+03 0.  0.
          5    1    3    3  502    0  0.27840508280E+02 -0.64507601021E+00 -0.40026538316E+02  0.48939822169E+02  0.41800000000E+01 0.  1.
         -5    1    3    3    0  502 -0.75012953767E+02 -0.73624780486E+02  0.14272065418E+02  0.10615420757E+03  0.41800000000E+01 0.  1.
        -11    1    1    2    0    0  0.73811381316E+02  0.48285604315E+02 -0.57304495003E+02  0.10518281582E+03  0.00000000000E+00 0.  1.
         11    1    1    2    0    0 -0.26638935829E+02  0.25984252180E+02 -0.19746379988E+02  0.42127589369E+02  0.00000000000E+00 0. -1.
</event>
<event>
 7    1  0.2499014E-009  0.9247287E+02  0.7561462E-02  0.1296971E+00
          2   -1    0    0  501    0  0.00000000000E+00  0.00000000000E+00  0.13752085819E+04  0.13752085819E+04  0.00000000000E+00 0. -1.
         -2   -1    0    0    0  501 -0.00000000000E+00 -0.00000000000E+00 -0.10826810813E+02  0.10826810813E+02  0.00000000000E+00 0.  1.
         25    2    1    2    0    0  0.65815408684E+01  0.56764592215E+02  0.77634315083E+03  0.78842833363E+03  0.12508002970E+03 0.  0.
          5    1    3    3  502    0 -0.19979341506E+02  0.44707750005E+02  0.99813081773E+02  0.11125682312E+03  0.41800000000E+01 0. -1.
         -5    1    3    3    0  502  0.26560882375E+02  0.12056842210E+02  0.67653006905E+03  0.67717151051E+03  0.41800000000E+01 0. -1.
        -11    1    1    2    0    0  0.26842591259E+02 -0.66338313725E+02  0.37910348881E+03  0.38579884889E+03  0.00000000000E+00 0.  1.
         11    1    1    2    0    0 -0.33424132127E+02  0.95737215098E+01  0.20893513145E+03  0.21180821020E+03  0.00000000000E+00 0. -1.
</event>
<event>
 7    1  0.2499014E-009  0.1094251E+03  0.7561462E-02  0.1261638E+00
         -2   -1    0    0    0  501 -0.00000000000E+00  0.00000000000E+00  0.32311898550E+03  0.32311898550E+03  0.00000000000E+00 0.  1.
          2   -1    0    0  501    0  0.00000000000E+00 -0.00000000000E+00 -0.44457182408E+02  0.44457182408E+02  0.00000000000E+00 0. -1.
         25    2    1    2    0    0 -0.12296100950E+02  0.27550760563E+02  0.86389106472E+02  0.15497551843E+03  0.12507635704E+03 0.  0.
          5    1    3    3  502    0  0.55002891954E+02 -0.83066825095E+00  0.42725451693E+02  0.69777824238E+02  0.41800000000E+01 0. -1.
         -5    1    3    3    0  502 -0.67298992903E+02  0.28381428814E+02  0.43663654779E+02  0.85197694194E+02  0.41800000000E+01 0. -1.
        -11    1    1    2    0    0  0.29500515036E+02 -0.52498488319E+02  0.12116576006E+03  0.13530525886E+03  0.00000000000E+00 0.  1.
         11    1    1    2    0    0 -0.17204414086E+02  0.24947727755E+02  0.71106936559E+02  0.77295390619E+02  0.00000000000E+00 0. -1.
</event>
<event>
 7    1  0.2499014E-009  0.9011846E+02  0.7561462E-02  0.1302565E+00
         -3   -1    0    0    0  501 -0.00000000000E+00  0.00000000000E+00  0.12520191534E+03  0.12520191534E+03  0.00000000000E+00 0.  1.
          3   -1    0    0  501    0  0.00000000000E+00 -0.00000000000E+00 -0.10738812892E+03  0.10738812892E+03  0.00000000000E+00 0. -1.
         25    2    1    2    0    0  0.16713122468E+01  0.17439195318E+02  0.45293674298E+02  0.13418354528E+03  0.12508712194E+03 0.  0.
          5    1    3    3  502    0 -0.47668935345E+02 -0.29241510156E+02  0.32884897042E+02  0.65009862072E+02  0.41800000000E+01 0.  1.
         -5    1    3    3    0  502  0.49340247591E+02  0.46680705474E+02  0.12408777255E+02  0.69173683211E+02  0.41800000000E+01 0.  1.
        -11    1    1    2    0    0 -0.18817161862E+02  0.11799775388E+02  0.26555748477E+02  0.34619763964E+02  0.00000000000E+00 0.  1.
         11    1    1    2    0    0  0.17145849615E+02 -0.29238970706E+02 -0.54035636354E+02  0.63786735009E+02  0.00000000000E+00 0. -1.
</event>
<event>
 7    1  0.2499014E-009  0.2037988E+03  0.7561462E-02  0.1146573E+00
          1   -1    0    0  501    0  0.00000000000E+00  0.00000000000E+00  0.36630159900E+03  0.36630159900E+03  0.00000000000E+00 0. -1.
         -1   -1    0    0    0  501 -0.00000000000E+00 -0.00000000000E+00 -0.13853787470E+03  0.13853787470E+03  0.00000000000E+00 0.  1.
         25    2    1    2    0    0  0.99619378341E+02 -0.15278475174E+03  0.34349353958E+02  0.22382869525E+03  0.12510877585E+03 0.  0.
          5    1    3    3  502    0  0.12183495625E+03 -0.12535851079E+03  0.66529534359E+00  0.17486116724E+03  0.41800000000E+01 0. -1.
         -5    1    3    3    0  502 -0.22215577910E+02 -0.27426240952E+02  0.33684058614E+02  0.48967528009E+02  0.41800000000E+01 0. -1.
        -11    1    1    2    0    0 -0.10974487417E+03  0.11878798915E+03  0.18261242872E+03  0.24392995490E+03  0.00000000000E+00 0. -1.
         11    1    1    2    0    0  0.10125495833E+02  0.33996762585E+02  0.10801941626E+02  0.37080823548E+02  0.00000000000E+00 0.  1.
</event>
<event>
 7    1  0.2499014E-009  0.8292675E+02  0.7561462E-02  0.1320945E+00
          1   -1    0    0  501    0  0.00000000000E+00  0.00000000000E+00  0.40321888242E+03  0.40321888242E+03  0.00000000000E+00 0. -1.
         -1   -1    0    0    0  501 -0.00000000000E+00 -0.00000000000E+00 -0.41346490650E+02  0.41346490650E+02  0.00000000000E+00 0.  1.
         25    2    1    2    0    0  0.74245709304E+01  0.47976741746E+02  0.11289921539E+03  0.17536192545E+03  0.12509468439E+03 0.  0.
          5    1    3    3  502    0  0.29580415940E+02  0.49477648983E+02  0.13306522949E+03  0.14507538198E+03  0.41800000000E+01 0. -1.
         -5    1    3    3    0  502 -0.22155845009E+02 -0.15009072362E+01 -0.20166014108E+02  0.30286543474E+02  0.41800000000E+01 0. -1.
        -11    1    1    2    0    0 -0.25644941609E+02  0.77818865084E+01  0.21704039378E+02  0.34486027795E+02  0.00000000000E+00 0.  1.
         11    1    1    2    0    0  0.18220370679E+02 -0.55758628255E+02  0.22726913701E+03  0.23471741982E+03  0.00000000000E+00 0. -1.
</event>
<event>
 7    1  0.2499014E-009  0.1307888E+03  0.7561462E-02  0.1226290E+00
          2   -1    0    0  501    0  0.00000000000E+00  0.00000000000E+00  0.17247067523E+03  0.17247067523E+03  0.00000000000E+00 0. -1.
         -2   -1    0    0    0  501 -0.00000000000E+00 -0.00000000000E+00 -0.11190668476E+03  0.11190668476E+03  0.00000000000E+00 0.  1.
         25    2    1    2    0    0 -0.40814585994E+02  0.66935283987E+02  0.10348067605E+02  0.14799108203E+03  0.12509242657E+03 0.  0.
          5    1    3    3  502    0 -0.79031263597E+02  0.19736271888E+02 -0.13379457907E+02  0.82655570578E+02  0.41800000000E+01 0.  1.
         -5    1    3    3    0  502  0.38216677603E+02  0.47199012099E+02  0.23727525512E+02  0.65335511455E+02  0.41800000000E+01 0.  1.
        -11    1    1    2    0    0 -0.66680487018E+01 -0.71155727810E+02  0.65960584118E+01  0.71771223065E+02  0.00000000000E+00 0. -1.
         11    1    1    2    0    0  0.47482634696E+02  0.42204438230E+01  0.43619864449E+02  0.64615054888E+02  0.00000000000E+00 0.  1.
</event>
<event>
 7    1  0.2499014E-009  0.9326472E+02  0.7561462E-02  0.1295133E+00
          4   -1    0    0  501    0  0.00000000000E+00  0.00000000000E+00  0.92764589805E+02  0.92764589805E+02  0.00000000000E+00 0. -1.
         -4   -1    0    0    0  501 -0.00000000000E+00 -0.00000000000E+00 -0.14612455436E+03  0.14612455436E+03  0.00000000000E+00 0.  1.
         25    2    1    2    0    0 -0.34603724813E+02  0.25117300095E+02 -0.33958130122E+02  0.13648492573E+03  0.12508670519E+03 0.  0.
          5    1    3    3  502    0 -0.77492408041E+01 -0.32655246489E+02  0.30656718128E+02  0.45647810711E+02  0.41800000000E+01 0. -1.
         -5    1    3    3    0  502 -0.26854484009E+02  0.57772546583E+02 -0.64614848250E+02  0.90837115016E+02  0.41800000000E+01 0. -1.
        -11    1    1    2    0    0 -0.25224699991E+02 -0.10147438664E+02 -0.29266699326E+02  0.39947411562E+02  0.00000000000E+00 0.  1.
         11    1    1    2    0    0  0.59828424804E+02 -0.14969861430E+02  0.98648648930E+01  0.62456806876E+02  0.00000000000E+00 0. -1.
</event>
<event>
 7    1  0.2499014E-009  0.3705745E+03  0.7561462E-02  0.1054474E+00
         -1   -1    0    0    0  501 -0.00000000000E+00  0.00000000000E+00  0.91431013187E+02  0.91431013187E+02  0.00000000000E+00 0.  1.
          1   -1    0    0  501    0  0.00000000000E+00 -0.00000000000E+00 -0.23312498209E+04  0.23312498209E+04  0.00000000000E+00 0. -1.
         25    2    1    2    0    0 -0.35859844847E+03  0.40700930791E+02 -0.43259200197E+03  0.57709068532E+03  0.12509358855E+03 0.  0.
          5    1    3    3  502    0 -0.17774484796E+03 -0.38887944874E+02 -0.23930910189E+03  0.30065232725E+03  0.41800000000E+01 0. -1.
         -5    1    3    3    0  502 -0.18085360051E+03  0.79588875665E+02 -0.19328290008E+03  0.27643835807E+03  0.41800000000E+01 0. -1.
        -11    1    1    2    0    0  0.37964897046E+02 -0.10910579753E+02 -0.87898976780E+02  0.96367028995E+02  0.00000000000E+00 0.  1.
         11    1    1    2    0    0  0.32063355143E+03 -0.29790351037E+02 -0.17193278290E+04  0.17492231198E+04  0.00000000000E+00 0. -1.
</event>
<event>
 7    1  0.2499014E-009  0.5245764E+02  0.7561462E-02  0.1432519E+00
         -1   -1    0    0    0  501 -0.00000000000E+00  0.00000000000E+00  0.66002039708E+02  0.66002039708E+02  0.00000000000E+00 0.  1.
          1   -1    0    0  501    0  0.00000000000E+00 -0.00000000000E+00 -0.22547273909E+03  0.22547273909E+03  0.00000000000E+00 0. -1.
         25    2    1    2    0    0 -0.12363796187E+02 -0.19217804722E+02 -0.15071743689E+03  0.19719641694E+03  0.12509393909E+03 0.  0.
          5    1    3    3  502    0 -0.41017445866E+01 -0.10514351190E+02  0.21431220726E+02  0.24579371664E+02  0.41800000000E+01 0. -1.
         -5    1    3    3    0  502 -0.82620516005E+01 -0.87034535323E+01 -0.17214865762E+03  0.17261704528E+03  0.41800000000E+01 0. -1.
        -11    1    1    2    0    0 -0.21175930296E+02 -0.19612153923E+02  0.20325810640E+02  0.35301489821E+02  0.00000000000E+00 0.  1.
         11    1    1    2    0    0  0.33539726483E+02  0.38829958646E+02 -0.29079073125E+02  0.58976872033E+02  0.00000000000E+00 0. -1.
</event>
<event>
 7    1  0.2499014E-009  0.1047041E+03  0.7561462E-02  0.1270704E+00
          1   -1    0    0  501    0  0.00000000000E+00  0.00000000000E+00  0.69677167594E+02  0.69677167594E+02  0.00000000000E+00 0. -1.
         -1   -1    0    0    0  501 -0.00000000000E+00 -0.00000000000E+00 -0.23101015725E+03  0.23101015725E+03  0.00000000000E+00 0.  1.
         25    2    1    2    0    0 -0.24066977756E+02  0.17210175597E+01 -0.13901524814E+03  0.18856159738E+03  0.12509218789E+03 0.  0.
          5    1    3    3  502    0 -0.72993114312E+02 -0.49099846930E+00 -0.56042926224E+02  0.92122298040E+02  0.41800000000E+01 0. -1.
         -5    1    3    3    0  502  0.48926136556E+02  0.22120160290E+01 -0.82972321919E+02  0.96439299343E+02  0.41800000000E+01 0. -1.
        -11    1    1    2    0    0  0.20431725363E+02 -0.41995226349E+02  0.22433778968E+02  0.51810509322E+02  0.00000000000E+00 0. -1.
         11    1    1    2    0    0  0.36352523929E+01  0.40274208789E+02 -0.44751520479E+02  0.60315218135E+02  0.00000000000E+00 0.  1.
</event>
<event>
 7    1  0.2499014E-009  0.9244199E+02  0.7561462E-02  0.1297044E+00
         -1   -1    0    0    0  501 -0.00000000000E+00  0.00000000000E+00  0.42728350858E+02  0.42728350858E+02  0.00000000000E+00 0.  1.
          1   -1    0    0  501    0  0.00000000000E+00 -0.00000000000E+00 -0.57238469761E+03  0.57238469761E+03  0.00000000000E+00 0. -1.
         25    2    1    2    0    0 -0.44743345280E+02  0.56009387298E+02 -0.45019326784E+03  0.47271618596E+03  0.12509034992E+03 0.  0.
          5    1    3    3  502    0  0.23939044911E+02  0.31968689317E+02 -0.32789633039E+03  0.33034610767E+03  0.41800000000E+01 0. -1.
         -5    1    3    3    0  502 -0.68682390191E+02  0.24040697981E+02 -0.12229693745E+03  0.14237007829E+03  0.41800000000E+01 0. -1.
        -11    1    1    2    0    0  0.12238994022E+02 -0.12125556016E+02 -0.85715186260E+02  0.87429487239E+02  0.00000000000E+00 0. -1.
         11    1    1    2    0    0  0.32504351258E+02 -0.43883831282E+02  0.62521073438E+01  0.54967375278E+02  0.00000000000E+00 0.  1.
</event>
<event>
 7    1  0.2499014E-009  0.1582173E+03  0.7561462E-02  0.1190724E+00
          1   -1    0    0  501    0  0.00000000000E+00  0.00000000000E+00  0.13999350140E+04  0.13999350140E+04  0.00000000000E+00 0. -1.
         -1   -1    0    0    0  501 -0.00000000000E+00 -0.00000000000E+00 -0.20631960852E+02  0.20631960852E+02  0.00000000000E+00 0.  1.
         25    2    1    2    0    0 -0.96250626263E+02 -0.85234255551E+02  0.64291746394E+03  0.66747349765E+03  0.12509573635E+03 0.  0.
          5    1    3    3  502    0 -0.98722497738E+02 -0.29509661415E+02  0.24757568244E+03  0.26819422554E+03  0.41800000000E+01 0. -1.
         -5    1    3    3    0  502  0.24718714755E+01 -0.55724594136E+02  0.39534178150E+03  0.39927927211E+03  0.41800000000E+01 0. -1.
        -11    1    1    2    0    0  0.88986907757E+02  0.19317176567E+02  0.45152031211E+03  0.46061091532E+03  0.00000000000E+00 0.  1.
         11    1    1    2    0    0  0.72637185059E+01  0.65917078984E+02  0.28486527710E+03  0.29248256188E+03  0.00000000000E+00 0. -1.
</event>
<event>
 7    1  0.2499014E-009  0.1154291E+03  0.7561462E-02  0.1250834E+00
         -2   -1    0    0    0  501 -0.00000000000E+00  0.00000000000E+00  0.57243821176E+02  0.57243821176E+02  0.00000000000E+00 0. -1.
          2   -1    0    0  501    0  0.00000000000E+00 -0.00000000000E+00 -0.31592166399E+03  0.31592166399E+03  0.00000000000E+00 0.  1.
         25    2    1    2    0    0  0.12999964740E+02  0.59069446680E+02 -0.75526360053E+02  0.15814826188E+03  0.12509373708E+03 0.  0.
          5    1    3    3  502    0  0.75767648615E+01  0.91659607831E+02 -0.83068734523E+02  0.12400313758E+03  0.41800000000E+01 0.  1.
         -5    1    3    3    0  502  0.54231998789E+01 -0.32590161151E+02  0.75423744699E+01  0.34145124300E+02  0.41800000000E+01 0.  1.
        -11    1    1    2    0    0 -0.20601314220E+02  0.18415637711E+02 -0.19594383303E+02  0.33874617590E+02  0.00000000000E+00 0.  1.
         11    1    1    2    0    0  0.76013494792E+01 -0.77485084390E+02 -0.16355709946E+03  0.18114260570E+03  0.00000000000E+00 0. -1.
</event>
<event>
 7    1  0.2499014E-009  0.1063591E+03  0.7561462E-02  0.1267465E+00
          2   -1    0    0  501    0  0.00000000000E+00  0.00000000000E+00  0.32820538831E+03  0.32820538831E+03  0.00000000000E+00 0. -1.
         -2   -1    0    0    0  501 -0.00000000000E+00 -0.00000000000E+00 -0.46831838296E+02  0.46831838296E+02  0.00000000000E+00 0.  1.
         25    2    1    2    0    0 -0.62649067795E+02  0.25081654943E+02  0.93830491388E+02  0.17030778957E+03  0.12508631806E+03 0.  0.
          5    1    3    3  502    0 -0.39360345446E+02  0.75304078580E+02  0.68789307751E+02  0.10940467223E+03  0.41800000000E+01 0. -1.
         -5    1    3    3    0  502 -0.23288722349E+02 -0.50222423637E+02  0.25041183637E+02  0.60903117347E+02  0.41800000000E+01 0. -1.
        -11    1    1    2    0    0  0.12938734529E+02 -0.17621117104E+02  0.19381644814E+02  0.29215796667E+02  0.00000000000E+00 0.  1.
         11    1    1    2    0    0  0.49710333266E+02 -0.74605378389E+01  0.16816141381E+03  0.17551364036E+03  0.00000000000E+00 0. -1.
</event>
<event>
 7    1  0.2499014E-009  0.8962186E+02  0.7561462E-02  0.1303770E+00
         -2   -1    0    0    0  501 -0.00000000000E+00  0.00000000000E+00  0.34409015410E+03  0.34409015410E+03  0.00000000000E+00 0.  1.
          2   -1    0    0  501    0  0.00000000000E+00 -0.00000000000E+00 -0.42428335072E+02  0.42428335072E+02  0.00000000000E+00 0. -1.
         25    2    1    2    0    0  0.50450739379E+02 -0.74426142246E+01  0.19293584649E+03  0.23553404001E+03  0.12510544965E+03 0.  0.
          5    1    3    3  502    0  0.11177340174E+02  0.22212404726E+02  0.18353391784E+03  0.18525791550E+03  0.41800000000E+01 0.  1.
         -5    1    3    3    0  502  0.39273399205E+02 -0.29655018951E+02  0.94019286544E+01  0.50276124517E+02  0.41800000000E+01 0.  1.
        -11    1    1    2    0    0  0.36307140225E+01 -0.35436478369E+02  0.40505039958E+02  0.53940563081E+02  0.00000000000E+00 0.  1.
         11    1    1    2    0    0 -0.54081453402E+02  0.42879092593E+02  0.68220932581E+02  0.97043886082E+02  0.00000000000E+00 0. -1.
</event>
<event>
 7    1  0.2544796E-009  0.1013254E+03  0.7561462E-02  0.1277533E+00
          2   -1    0    0  501    0  0.00000000000E+00  0.00000000000E+00  0.59730053316E+03  0.59730053316E+03  0.00000000000E+00 0.  1.
         -2   -1    0    0    0  501 -0.00000000000E+00 -0.00000000000E+00 -0.26569920697E+02  0.26569920697E+02  0.00000000000E+00 0. -1.
         25    2    1    2    0    0  0.21744630397E+02 -0.56177508853E+02  0.26170616613E+03  0.29625634840E+03  0.12509582378E+03 0.  0.
          5    1    3    3  502    0  0.26487202027E+02  0.11758886389E+02  0.20628880434E+03  0.20835639293E+03  0.41800000000E+01 0. -1.
         -5    1    3    3    0  502 -0.47425716300E+01 -0.67936395242E+02  0.55417361789E+02  0.87899955471E+02  0.41800000000E+01 0. -1.
        -11    1    1    2    0    0  0.33438199914E+02  0.25084417684E+02  0.16617437196E+03  0.17135128572E+03  0.00000000000E+00 0.  1.
         11    1    1    2    0    0 -0.55182830311E+02  0.31093091170E+02  0.14285007437E+03  0.15626281972E+03  0.00000000000E+00 0. -1.
</event>
<event>
 7    1  0.2499014E-009  0.8859607E+02  0.7561462E-02  0.1306288E+00
         -1   -1    0    0    0  501 -0.00000000000E+00  0.00000000000E+00  0.68396233224E+02  0.68396233224E+02  0.00000000000E+00 0.  1.
          1   -1    0    0  501    0  0.00000000000E+00 -0.00000000000E+00 -0.17764754676E+03  0.17764754676E+03  0.00000000000E+00 0. -1.
         25    2    1    2    0    0  0.10529187465E+02 -0.18458702154E+02 -0.61806022474E+02  0.14113817940E+03  0.12509362013E+03 0.  0.
          5    1    3    3  502    0  0.16978215025E+02 -0.69004090758E+02 -0.17070415577E+02  0.73203113422E+02  0.41800000000E+01 0.  1.
         -5    1    3    3    0  502 -0.64490275608E+01  0.50545388604E+02 -0.44735606897E+02  0.67935065982E+02  0.41800000000E+01 0.  1.
        -11    1    1    2    0    0 -0.29319724865E+02  0.11639402591E+01 -0.66735062889E+02  0.72901094929E+02  0.00000000000E+00 0. -1.
         11    1    1    2    0    0  0.18790537400E+02  0.17294761895E+02  0.19289771827E+02  0.32004505651E+02  0.00000000000E+00 0.  1.
</event>
<event>
 7    1  0.2499014E-009  0.1233455E+03  0.7561462E-02  0.1237678E+00
         -3   -1    0    0    0  501 -0.00000000000E+00  0.00000000000E+00  0.24008215750E+03  0.24008215750E+03  0.00000000000E+00 0.  1.
          3   -1    0    0  501    0  0.00000000000E+00 -0.00000000000E+00 -0.90593483575E+02  0.90593483575E+02  0.00000000000E+00 0. -1.
         25    2    1    2    0    0  0.66819975636E+02 -0.45898087931E+02  0.14831335820E+03  0.21027598005E+03  0.12509033515E+03 0.  0.
          5    1    3    3  502    0 -0.32417537395E+02  0.16262183192E+01  0.62964055277E+02  0.70961158205E+02  0.41800000000E+01 0.  1.
         -5    1    3    3    0  502  0.99237513030E+02 -0.47524306251E+02  0.85349302919E+02  0.13931482184E+03  0.41800000000E+01 0.  1.
        -11    1    1    2    0    0 -0.58158528923E+02  0.10394358382E+01 -0.29647278672E+02  0.65287487668E+02  0.00000000000E+00 0. -1.
         11    1    1    2    0    0 -0.86614467126E+01  0.44858652093E+02  0.30822594406E+02  0.55112173362E+02  0.00000000000E+00 0.  1.
</event>
<event>
 7    1  0.2499014E-009  0.2275690E+03  0.7561462E-02  0.1128363E+00
         -2   -1    0    0    0  501 -0.00000000000E+00  0.00000000000E+00  0.65317942898E+02  0.65317942898E+02  0.00000000000E+00 0.  1.
          2   -1    0    0  501    0  0.00000000000E+00 -0.00000000000E+00 -0.93287683856E+03  0.93287683856E+03  0.00000000000E+00 0. -1.
         25    2    1    2    0    0  0.20534104158E+03 -0.66622707558E+02 -0.54697439053E+03  0.60119244549E+03  0.12509134301E+03 0.  0.
          5    1    3    3  502    0  0.38070994095E+02 -0.56860570329E+02 -0.25972095119E+03  0.26861677151E+03  0.41800000000E+01 0. -1.
         -5    1    3    3    0  502  0.16727004749E+03 -0.97621372287E+01 -0.28725343934E+03  0.33257567398E+03  0.41800000000E+01 0. -1.
        -11    1    1    2    0    0 -0.11467393166E+03  0.17953873671E+02 -0.23895335996E+03  0.26565232997E+03  0.00000000000E+00 0. -1.
         11    1    1    2    0    0 -0.90667109925E+02  0.48668833887E+02 -0.81631145168E+02  0.13135000600E+03  0.00000000000E+00 0.  1.
</event>
<event>
 7    1  0.2499014E-009  0.1867885E+03  0.7561462E-02  0.1161390E+00
          4   -1    0    0  501    0  0.00000000000E+00  0.00000000000E+00  0.76896273600E+03  0.76896273600E+03  0.00000000000E+00 0. -1.
         -4   -1    0    0    0  501 -0.00000000000E+00 -0.00000000000E+00 -0.47658860540E+02  0.47658860540E+02  0.00000000000E+00 0.  1.
         25    2    1    2    0    0  0.15428179036E+03 -0.17057296580E+02  0.43617404489E+03  0.47957195667E+03  0.12509053514E+03 0.  0.
          5    1    3    3  502    0  0.19837186392E+02 -0.51584586922E+02  0.17785502056E+03  0.18629107415E+03  0.41800000000E+01 0.  1.
         -5    1    3    3    0  502  0.13444460397E+03  0.34527290341E+02  0.25831902433E+03  0.29328088251E+03  0.41800000000E+01 0.  1.
        -11    1    1    2    0    0 -0.34904348374E+02 -0.34653842798E+02  0.89188464062E+02  0.10185177700E+03  0.00000000000E+00 0.  1.
         11    1    1    2    0    0 -0.11937744199E+03  0.51711139378E+02  0.19594136651E+03  0.23519786288E+03  0.00000000000E+00 0. -1.
</event>
<event>
 7    1  0.2499014E-009  0.8197022E+02  0.7561462E-02  0.1323551E+00
          1   -1    0    0  501    0  0.00000000000E+00  0.00000000000E+00  0.54243992919E+02  0.54243992919E+02  0.00000000000E+00 0. -1.
         -1   -1    0    0    0  501 -0.00000000000E+00 -0.00000000000E+00 -0.34943459802E+03  0.34943459802E+03  0.00000000000E+00 0.  1.
         25    2    1    2    0    0 -0.27153232799E+02 -0.20535927519E+02 -0.50575244166E+02  0.13916203634E+03  0.12509674123E+03 0.  0.
          5    1    3    3  502    0 -0.94456825558E+01  0.31043902076E+02 -0.73040560093E+02  0.80033371751E+02  0.41800000000E+01 0. -1.
         -5    1    3    3    0  502 -0.17707550243E+02 -0.51579829595E+02  0.22465315927E+02  0.59128664591E+02  0.41800000000E+01 0. -1.
        -11    1    1    2    0    0  0.49356234375E+02  0.22491947185E+02 -0.23329571169E+03  0.23951787961E+03  0.00000000000E+00 0.  1.
         11    1    1    2    0    0 -0.22203001576E+02 -0.19560196663E+01 -0.11319649241E+02  0.24998674983E+02  0.00000000000E+00 0. -1.
</event>
<event>
 7    1  0.2499014E-009  0.1163343E+03  0.7561462E-02  0.1249270E+00
         -2   -1    0    0    0  501 -0.00000000000E+00  0.00000000000E+00  0.87126714498E+02  0.87126714498E+02  0.00000000000E+00 0.  1.
          2   -1    0    0  501    0  0.00000000000E+00 -0.00000000000E+00 -0.17567378236E+03  0.17567378236E+03  0.00000000000E+00 0. -1.
         25    2    1    2    0    0 -0.37639634610E+02  0.29825125714E+02 -0.76351724641E+02  0.15421453134E+03  0.12508499352E+03 0.  0.
          5    1    3    3  502    0 -0.20348015048E+02  0.79002085175E+02 -0.45980073589E+02  0.93739056671E+02  0.41800000000E+01 0. -1.
         -5    1    3    3    0  502 -0.17291619561E+02 -0.49176959461E+02 -0.30371651052E+02  0.60475474669E+02  0.41800000000E+01 0. -1.
        -11    1    1    2    0    0  0.65243843891E+02 -0.13535552995E+02  0.12909819459E+02  0.67872187227E+02  0.00000000000E+00 0.  1.
         11    1    1    2    0    0 -0.27604209281E+02 -0.16289572719E+02 -0.25105162675E+02  0.40713778286E+02  0.00000000000E+00 0. -1.
</event>
<event>
 7    1  0.2499014E-009  0.1309126E+03  0.7561462E-02  0.1226108E+00
          2   -1    0    0  501    0  0.00000000000E+00  0.00000000000E+00  0.18683186794E+03  0.18683186794E+03  0.00000000000E+00 0. -1.
         -2   -1    0    0    0  501 -0.00000000000E+00 -0.00000000000E+00 -0.97731046935E+02  0.97731046935E+02  0.00000000000E+00 0.  1.
         25    2    1    2    0    0  0.62749165907E+02 -0.47070235390E+02  0.68455293759E+02  0.16274690845E+03  0.12508942435E+03 0.  0.
          5    1    3    3  502    0 -0.17521955393E+01  0.36709173915E+02  0.50253238653E+00  0.36991331113E+02  0.41800000000E+01 0. -1.
         -5    1    3    3    0  502  0.64501361447E+02 -0.83779409305E+02  0.67952761373E+02  0.12575557733E+03  0.41800000000E+01 0. -1.
        -11    1    1    2    0    0 -0.44930557690E+02  0.74093867255E+02  0.78428738344E+01  0.87006705771E+02  0.00000000000E+00 0.  1.
         11    1    1    2    0    0 -0.17818608217E+02 -0.27023631864E+02  0.12802653409E+02  0.34809300657E+02  0.00000000000E+00 0. -1.
</event>
<event>
 7    1  0.2499014E-009  0.1827537E+03  0.7561462E-02  0.1165164E+00
         -4   -1    0    0    0  501 -0.00000000000E+00  0.00000000000E+00  0.39581306793E+03  0.39581306793E+03  0.00000000000E+00 0.  1.
          4   -1    0    0  501    0  0.00000000000E+00 -0.00000000000E+00 -0.98338673268E+02  0.98338673268E+02  0.00000000000E+00 0. -1.
         25    2    1    2    0    0 -0.45613095071E+02  0.13954751390E+03  0.23724819423E+03  0.30576291339E+03  0.12510072127E+03 0.  0.
          5    1    3    3  502    0 -0.29453679961E+02 -0.13948204917E+02  0.74519303094E+02  0.81441209576E+02  0.41800000000E+01 0.  1.
         -5    1    3    3    0  502 -0.16159415110E+02  0.15349571881E+03  0.16272889114E+03  0.22432170382E+03  0.41800000000E+01 0.  1.
        -11    1    1    2    0    0  0.58466814653E+02 -0.26016283844E+02  0.26447924569E+02  0.69243831167E+02  0.00000000000E+00 0.  1.
         11    1    1    2    0    0 -0.12853719582E+02 -0.11353123005E+03  0.33778275860E+02  0.11914499664E+03  0.00000000000E+00 0. -1.
</event>
<event>
 7    1  0.2499014E-009  0.1028080E+03  0.7561462E-02  0.1274499E+00
         -2   -1    0    0    0  501 -0.00000000000E+00  0.00000000000E+00  0.13913853874E+02  0.13913853874E+02  0.00000000000E+00 0. -1.
          2   -1    0    0  501    0  0.00000000000E+00 -0.00000000000E+00 -0.10085718826E+04  0.10085718826E+04  0.00000000000E+00 0.  1.
         25    2    1    2    0    0  0.16532724230E+02  0.26329026041E+02 -0.72708530181E+03  0.73842127461E+03  0.12508554714E+03 0.  0.
          5    1    3    3  502    0  0.66411279102E+02 -0.44396165702E+01 -0.46997652360E+03  0.47468470938E+03  0.41800000000E+01 0. -1.
         -5    1    3    3    0  502 -0.49878554873E+02  0.30768642611E+02 -0.25710877821E+03  0.26373656522E+03  0.41800000000E+01 0. -1.
        -11    1    1    2    0    0 -0.44844007354E+02 -0.26044606906E+02 -0.23611103224E+03  0.24173896270E+03  0.00000000000E+00 0.  1.
         11    1    1    2    0    0  0.28311283124E+02 -0.28441913503E+00 -0.31461694638E+02  0.42325499121E+02  0.00000000000E+00 0. -1.
</event>
<event>
 7    1  0.2499014E-009  0.1282976E+03  0.7561462E-02  0.1230004E+00
          2   -1    0    0  501    0  0.00000000000E+00  0.00000000000E+00  0.27415323671E+03  0.27415323671E+03  0.00000000000E+00 0.  1.
         -2   -1    0    0    0  501 -0.00000000000E+00 -0.00000000000E+00 -0.10755612324E+03  0.10755612324E+03  0.00000000000E+00 0. -1.
         25    2    1    2    0    0  0.23019379364E+02  0.71549497863E+02  0.21044950428E+03  0.25609808018E+03  0.12509200755E+03 0.  0.
          5    1    3    3  502    0  0.34638814944E+02 -0.24152190270E+02  0.10452763244E+03  0.11281256198E+03  0.41800000000E+01 0. -1.
         -5    1    3    3    0  502 -0.11619435580E+02  0.95701688133E+02  0.10592187183E+03  0.14328551821E+03  0.41800000000E+01 0. -1.
        -11    1    1    2    0    0  0.31687767100E+02 -0.59380055543E+01 -0.10528966159E+02  0.33915094311E+02  0.00000000000E+00 0.  1.
         11    1    1    2    0    0 -0.54707146464E+02 -0.65611492308E+02 -0.33323424643E+02  0.91696185456E+02  0.00000000000E+00 0. -1.
</event>
<event>
 7    1  0.2499014E-009  0.1647267E+03  0.7561462E-02  0.1183461E+00
         -1   -1    0    0    0  501 -0.00000000000E+00  0.00000000000E+00  0.19951317316E+03  0.19951317316E+03  0.00000000000E+00 0. -1.
          1   -1    0    0  501    0  0.00000000000E+00 -0.00000000000E+00 -0.16200296580E+03  0.16200296580E+03  0.00000000000E+00 0.  1.
         25    2    1    2    0    0 -0.90158051051E+02  0.10373323352E+03  0.57662888955E+02  0.19457838341E+03  0.12508669242E+03 0.  0.
          5    1    3    3  502    0 -0.98819877372E+02  0.19375295263E+02  0.27460015398E+02  0.10446193123E+03  0.41800000000E+01 0. -1.
         -5    1    3    3    0  502  0.86618263210E+01  0.84357938255E+02  0.30202873557E+02  0.90116452177E+02  0.41800000000E+01 0. -1.
        -11    1    1    2    0    0  0.64374454071E+02 -0.42011593500E+02  0.30841065578E+02  0.82826418801E+02  0.00000000000E+00 0. -1.
         11    1    1    2    0    0  0.25783596980E+02 -0.61721640018E+02 -0.50993747175E+02  0.84111336755E+02  0.00000000000E+00 0.  1.
</event>
<event>
 7    1  0.2499014E-009  0.7570704E+02  0.7561462E-02  0.1341695E+00
          2   -1    0    0  501    0  0.00000000000E+00  0.00000000000E+00  0.39877200622E+03  0.39877200622E+03  0.00000000000E+00 0. -1.
         -2   -1    0    0    0  501 -0.00000000000E+00 -0.00000000000E+00 -0.30697821765E+02  0.30697821765E+02  0.00000000000E+00 0.  1.
         25    2    1    2    0    0 -0.15210807081E+02  0.11793954824E+02  0.18090783317E+03  0.22078424214E+03  0.12509025322E+03 0.  0.
          5    1    3    3  502    0  0.33508196822E+02 -0.25470860499E+01  0.16344688691E+03  0.16691807614E+03  0.41800000000E+01 0.  1.
         -5    1    3    3    0  502 -0.48719003903E+02  0.14341040874E+02  0.17460946259E+02  0.53866165994E+02  0.41800000000E+01 0.  1.
        -11    1    1    2    0    0  0.20235464009E+02  0.23460577475E+02  0.16235241910E+03  0.16528212452E+03  0.00000000000E+00 0. -1.
         11    1    1    2    0    0 -0.50246569279E+01 -0.35254532299E+02  0.24813932186E+02  0.43403461329E+02  0.00000000000E+00 0.  1.
</event>
<event>
 7    1  0.2499014E-009  0.1127106E+03  0.7561462E-02  0.1255631E+00
         -2   -1    0    0    0  501 -0.00000000000E+00  0.00000000000E+00  0.47412375229E+03  0.47412375229E+03  0.00000000000E+00 0. -1.
          2   -1    0    0  501    0  0.00000000000E+00 -0.00000000000E+00 -0.28265311080E+02  0.28265311080E+02  0.00000000000E+00 0.  1.
         25    2    1    2    0    0  0.22677670826E+02  0.26842741209E+02  0.22032280774E+03  0.25578134603E+03  0.12508856005E+03 0.  0.
          5    1    3    3  502    0  0.69421011819E+02 -0.91201217731E+01  0.13231759536E+03  0.14975938016E+03  0.41800000000E+01 0.  1.
         -5    1    3    3    0  502 -0.46743340994E+02  0.35962862982E+02  0.88005212376E+02  0.10602196587E+03  0.41800000000E+01 0.  1.
        -11    1    1    2    0    0 -0.29746338250E+02  0.28003768398E+02  0.12946404296E+03  0.13575711438E+03  0.00000000000E+00 0.  1.
         11    1    1    2    0    0  0.70686674247E+01 -0.54846509607E+02  0.96071590512E+02  0.11085060297E+03  0.00000000000E+00 0. -1.
</event>
<event>
 7    1  0.2499014E-009  0.1324019E+03  0.7561462E-02  0.1223935E+00
          2   -1    0    0  501    0  0.00000000000E+00  0.00000000000E+00  0.66436613204E+03  0.66436613204E+03  0.00000000000E+00 0. -1.
         -2   -1    0    0    0  501 -0.00000000000E+00 -0.00000000000E+00 -0.32593735637E+02  0.32593735637E+02  0.00000000000E+00 0.  1.
         25    2    1    2    0    0  0.44349950432E+02 -0.81394624813E+02  0.26150263508E+03  0.30434127623E+03  0.12509189107E+03 0.  0.
          5    1    3    3  502    0 -0.23009126877E+02  0.57497064207E+01  0.13246793429E+03  0.13463916614E+03  0.41800000000E+01 0.  1.
         -5    1    3    3    0  502  0.67359077309E+02 -0.87144331233E+02  0.12903470080E+03  0.16970211010E+03  0.41800000000E+01 0.  1.
        -11    1    1    2    0    0  0.13603515237E+02  0.70161059869E+02  0.19615621168E+03  0.20876994355E+03  0.00000000000E+00 0.  1.
         11    1    1    2    0    0 -0.57953465668E+02  0.11233564943E+02  0.17411354964E+03  0.18384864790E+03  0.00000000000E+00 0. -1.
</event>
<event>
 7    1  0.2499014E-009  0.9069023E+02  0.7561462E-02  0.1301189E+00
         -1   -1    0    0    0  501 -0.00000000000E+00  0.00000000000E+00  0.98898316893E+02  0.98898316893E+02  0.00000000000E+00 0.  1.
          1   -1    0    0  501    0  0.00000000000E+00 -0.00000000000E+00 -0.13546047145E+03  0.13546047145E+03  0.00000000000E+00 0. -1.
         25    2    1    2    0    0  0.34078383455E+02 -0.25456155317E+02 -0.21151152545E+02  0.13380507539E+03  0.12508826837E+03 0.  0.
          5    1    3    3  502    0  0.57352403805E+02 -0.23649600128E+02 -0.61211058278E+02  0.87251749919E+02  0.41800000000E+01 0. -1.
         -5    1    3    3    0  502 -0.23274020350E+02 -0.18065551894E+01  0.40059905733E+02  0.46553325469E+02  0.41800000000E+01 0. -1.
        -11    1    1    2    0    0 -0.61312563986E+01 -0.31474980654E+02 -0.18567784346E+02  0.37054410368E+02  0.00000000000E+00 0.  1.
         11    1    1    2    0    0 -0.27947127057E+02  0.56931135971E+02  0.31567823380E+01  0.63499302582E+02  0.00000000000E+00 0. -1.
</event>
<event>
 7    1  0.2499014E-009  0.2019717E+03  0.7561462E-02  0.1148086E+00
          2   -1    0    0  501    0  0.00000000000E+00  0.00000000000E+00  0.81993317849E+03  0.81993317849E+03  0.00000000000E+00 0. -1.
         -2   -1    0    0    0  501 -0.00000000000E+00 -0.00000000000E+00 -0.66779373513E+02  0.66779373513E+02  0.00000000000E+00 0.  1.
         25    2    1    2    0    0 -0.11256632456E+03  0.13884739470E+03  0.21954768544E+03  0.30951312904E+03  0.12508962559E+03 0.  0.
          5    1    3    3  502    0  0.14980380696E+01  0.68567012705E+02  0.13373911281E+03  0.15035724806E+03  0.41800000000E+01 0.  1.
         -5    1    3    3    0  502 -0.11406436263E+03  0.70280381997E+02  0.85808572623E+02  0.15915588098E+03  0.41800000000E+01 0.  1.
        -11    1    1    2    0    0  0.69301888039E+02 -0.14179560970E+03  0.29383337589E+03  0.33353680367E+03  0.00000000000E+00 0.  1.
         11    1    1    2    0    0  0.43264436520E+02  0.29482150010E+01  0.23977274365E+03  0.24366261929E+03  0.00000000000E+00 0. -1.
</event>
<event>
 7    1  0.2499014E-009  0.2399133E+03  0.7561462E-02  0.1119851E+00
          2   -1    0    0  501    0  0.00000000000E+00  0.00000000000E+00  0.17875538109E+04  0.17875538109E+04  0.00000000000E+00 0. -1.
         -2   -1    0    0    0  501 -0.00000000000E+00 -0.00000000000E+00 -0.46523152181E+02  0.46523152181E+02  0.00000000000E+00 0.  1.
         25    2    1    2    0    0 -0.10771984216E+03 -0.18992190218E+03  0.13789943095E+04  0.14017659981E+04  0.12509482240E+03 0.  0.
          5    1    3    3  502    0 -0.99544779641E+02 -0.20565431173E+03  0.13301261639E+04  0.13496132570E+04  0.41800000000E+01 0.  1.
         -5    1    3    3    0  502 -0.81750625176E+01  0.15732409554E+02  0.48868145554E+02  0.52152741131E+02  0.41800000000E+01 0.  1.
        -11    1    1    2    0    0  0.35071326162E+02  0.63139642529E+01  0.32971067858E+02  0.48548484827E+02  0.00000000000E+00 0.  1.
         11    1    1    2    0    0  0.72648515997E+02  0.18360793793E+03  0.32906528139E+03  0.38376248014E+03  0.00000000000E+00 0. -1.
</event>
<event>
 7    1  0.2499014E-009  0.1227245E+03  0.7561462E-02  0.1238669E+00
         -3   -1    0    0    0  501 -0.00000000000E+00  0.00000000000E+00  0.15253415710E+03  0.15253415710E+03  0.00000000000E+00 0.  1.
          3   -1    0    0  501    0  0.00000000000E+00 -0.00000000000E+00 -0.16949926513E+03  0.16949926513E+03  0.00000000000E+00 0. -1.
         25    2    1    2    0    0 -0.69483999919E+02  0.61895624004E+02 -0.80670282626E+02  0.17554111727E+03  0.12509154583E+03 0.  0.
          5    1    3    3  502    0  0.18054569936E+02 -0.20800343022E+02 -0.39237462086E+02  0.48121435934E+02  0.41800000000E+01 0.  1.
         -5    1    3    3    0  502 -0.87538569855E+02  0.82695967026E+02 -0.41432820540E+02  0.12741968134E+03  0.41800000000E+01 0.  1.
        -11    1    1    2    0    0  0.53594711185E+02 -0.29899019960E+02 -0.12226353579E+02  0.62576578553E+02  0.00000000000E+00 0. -1.
         11    1    1    2    0    0  0.15889288734E+02 -0.31996604045E+02  0.75931528178E+02  0.83915726406E+02  0.00000000000E+00 0.  1.
</event>
<event>
 7    1  0.2499014E-009  0.1830305E+03  0.7561462E-02  0.1164902E+00
         -2   -1    0    0    0  501 -0.00000000000E+00  0.00000000000E+00  0.23319399503E+03  0.23319399503E+03  0.00000000000E+00 0.  1.
          2   -1    0    0  501    0  0.00000000000E+00 -0.00000000000E+00 -0.17497993530E+03  0.17497993530E+03  0.00000000000E+00 0. -1.
         25    2    1    2    0    0 -0.38104791838E+02 -0.15668918796E+03  0.83829094567E+02  0.22062855411E+03  0.12508463139E+03 0.  0.
          5    1    3    3  502    0  0.28221339913E+02 -0.82843800221E+00 -0.55286006777E+01  0.29071776029E+02  0.41800000000E+01 0.  1.
         -5    1    3    3    0  502 -0.66326131751E+02 -0.15586074995E+03  0.89357695245E+02  0.19155677808E+03  0.41800000000E+01 0.  1.
        -11    1    1    2    0    0 -0.19242450743E+01  0.91927716978E+02  0.26013584144E+02  0.95556864891E+02  0.00000000000E+00 0.  1.
         11    1    1    2    0    0  0.40029036912E+02  0.64761470978E+02 -0.51628618975E+02  0.91988511329E+02  0.00000000000E+00 0. -1.
</event>
<event>
 7    1  0.2499014E-009  0.2952337E+03  0.7561462E-02  0.1087648E+00
          2   -1    0    0  501    0  0.00000000000E+00  0.00000000000E+00  0.17433054817E+04  0.17433054817E+04  0.00000000000E+00 0. -1.
         -2   -1    0    0    0  501 -0.00000000000E+00 -0.00000000000E+00 -0.56167190022E+02  0.56167190022E+02  0.00000000000E+00 0.  1.
         25    2    1    2    0    0 -0.21241488356E+03  0.19738114052E+03  0.73184212026E+03  0.79706941446E+03  0.12508942842E+03 0.  0.
          5    1    3    3  502    0 -0.11810850581E+03  0.83251416062E+02  0.21242330415E+03  0.25694658971E+03  0.41800000000E+01 0. -1.
         -5    1    3    3    0  502 -0.94306377754E+02  0.11412972446E+03  0.51941881611E+03  0.54012282475E+03  0.41800000000E+01 0. -1.
        -11    1    1    2    0    0  0.28508880309E+02 -0.68449311138E+00  0.46458946204E+02  0.54512920209E+02  0.00000000000E+00 0.  1.
         11    1    1    2    0    0  0.18390600325E+03 -0.19669664741E+03  0.90883722526E+03  0.94789033709E+03  0.00000000000E+00 0. -1.
</event>
<event>
 7    1  0.2499014E-009  0.5019342E+03  0.7561462E-02  0.1013275E+00
          1   -1    0    0  501    0  0.00000000000E+00  0.00000000000E+00  0.12001822001E+04  0.12001822001E+04  0.00000000000E+00 0. -1.
         -1   -1    0    0    0  501 -0.00000000000E+00 -0.00000000000E+00 -0.22702071976E+03  0.22702071976E+03  0.00000000000E+00 0.  1.
         25    2    1    2    0    0 -0.49394263766E+03  0.13188907139E+02  0.31496359919E+03  0.59916883537E+03  0.12509175788E+03 0.  0.
          5    1    3    3  502    0 -0.32993967566E+03  0.66840232574E+02  0.21981531188E+03  0.40207468212E+03  0.41800000000E+01 0.  1.
         -5    1    3    3    0  502 -0.16400296200E+03 -0.53651325435E+02  0.95148287314E+02  0.19709415325E+03  0.41800000000E+01 0.  1.
        -11    1    1    2    0    0  0.39150771635E+03 -0.19244646799E+02  0.45622975551E+03  0.60149334012E+03  0.00000000000E+00 0.  1.
         11    1    1    2    0    0  0.10243492131E+03  0.60557396604E+01  0.20196812561E+03  0.22654074435E+03  0.00000000000E+00 0. -1.
</event>
<event>
 7    1  0.2499014E-009  0.1238366E+03  0.7561462E-02  0.1236899E+00
          1   -1    0    0  501    0  0.00000000000E+00  0.00000000000E+00  0.25523650408E+03  0.25523650408E+03  0.00000000000E+00 0. -1.
         -1   -1    0    0    0  501 -0.00000000000E+00 -0.00000000000E+00 -0.75608968637E+02  0.75608968637E+02  0.00000000000E+00 0.  1.
         25    2    1    2    0    0  0.50714377321E+02  0.62914396343E+02  0.13471848477E+03  0.20081521374E+03  0.12509000997E+03 0.  0.
          5    1    3    3  502    0  0.34101725298E+02  0.88858544829E+02  0.13993936085E+03  0.16929047750E+03  0.41800000000E+01 0. -1.
         -5    1    3    3    0  502  0.16612652023E+02 -0.25944148486E+02 -0.52208760773E+01  0.31524736239E+02  0.41800000000E+01 0. -1.
        -11    1    1    2    0    0 -0.74681269459E+02 -0.29732804028E+02  0.36319049685E+02  0.88206604137E+02  0.00000000000E+00 0. -1.
         11    1    1    2    0    0  0.23966892138E+02 -0.33181592315E+02  0.85900009882E+01  0.41823654842E+02  0.00000000000E+00 0.  1.
</event>
<event>
 7    1  0.3340028E-009  0.6749431E+02  0.7561462E-02  0.1368827E+00
          1   -1    0    0  501    0  0.00000000000E+00  0.00000000000E+00  0.32768809150E+03  0.32768809150E+03  0.00000000000E+00 0. -1.
         -1   -1    0    0    0  501 -0.00000000000E+00 -0.00000000000E+00 -0.46169086056E+02  0.46169086056E+02  0.00000000000E+00 0.  1.
         25    2    1    2    0    0  0.10696264133E+02 -0.26404577913E+02  0.23512240814E+03  0.26784493848E+03  0.12508697958E+03 0.  0.
          5    1    3    3  502    0 -0.68076042875E+00  0.25816704349E+02  0.20437740268E+03  0.20604504553E+03  0.41800000000E+01 0.  1.
         -5    1    3    3    0  502  0.11377024562E+02 -0.52221282262E+02  0.30745005453E+02  0.61799892955E+02  0.41800000000E+01 0.  1.
        -11    1    1    2    0    0 -0.20509753624E+02 -0.59919944734E+01 -0.21396169402E+02  0.30238221783E+02  0.00000000000E+00 0.  1.
         11    1    1    2    0    0  0.98134894913E+01  0.32396572386E+02  0.67792766708E+02  0.75774017290E+02  0.00000000000E+00 0. -1.
</event>
<event>
 7    1  0.2499014E-009  0.5670854E+02  0.7561462E-02  0.1412188E+00
          2   -1    0    0  501    0  0.00000000000E+00  0.00000000000E+00  0.13609737699E+04  0.13609737699E+04  0.00000000000E+00 0. -1.
         -2   -1    0    0    0  501 -0.00000000000E+00 -0.00000000000E+00 -0.60879969281E+02  0.60879969281E+02  0.00000000000E+00 0.  1.
         25    2    1    2    0    0 -0.25309860125E+02 -0.16984560632E+01  0.13194616882E+04  0.13256202989E+04  0.12508619569E+03 0.  0.
          5    1    3    3  502    0 -0.21869817624E+01  0.31909941996E+02  0.11752184655E+04  0.11756610656E+04  0.41800000000E+01 0. -1.
         -5    1    3    3    0  502 -0.23122878362E+02 -0.33608398059E+02  0.14424322274E+03  0.14995923323E+03  0.41800000000E+01 0. -1.
        -11    1    1    2    0    0  0.44089829862E+01 -0.13570063560E+02 -0.52377259210E+02  0.54285937758E+02  0.00000000000E+00 0.  1.
         11    1    1    2    0    0  0.20900877138E+02  0.15268519623E+02  0.33009371675E+02  0.41947502608E+02  0.00000000000E+00 0. -1.
</event>
<event>
 7    1  0.2499014E-009  0.1125160E+03  0.7561462E-02  0.1255980E+00
          2   -1    0    0  501    0  0.00000000000E+00  0.00000000000E+00  0.11546736602E+04  0.11546736602E+04  0.00000000000E+00 0. -1.
         -2   -1    0    0    0  501 -0.00000000000E+00 -0.00000000000E+00 -0.12898835568E+02  0.12898835568E+02  0.00000000000E+00 0.  1.
         25    2    1    2    0    0  0.22814241967E+02 -0.37092270086E+02  0.75226785201E+03  0.76383957630E+03  0.12509057124E+03 0.  0.
          5    1    3    3  502    0 -0.32401329904E+02  0.20836816540E+02  0.11069455084E+03  0.11728075327E+03  0.41800000000E+01 0.  1.
         -5    1    3    3    0  502  0.55215571871E+02 -0.57929086625E+02  0.64157330118E+03  0.64655882303E+03  0.41800000000E+01 0.  1.
        -11    1    1    2    0    0  0.28190569844E+02 -0.16089071264E+02  0.11185513102E+03  0.11646946715E+03  0.00000000000E+00 0.  1.
         11    1    1    2    0    0 -0.51004811811E+02  0.53181341350E+02  0.27765184161E+03  0.28726345233E+03  0.00000000000E+00 0. -1.
</event>
<event>
 7    1  0.2499014E-009  0.8050896E+02  0.7561462E-02  0.1327613E+00
         -1   -1    0    0    0  501 -0.00000000000E+00  0.00000000000E+00  0.13579436242E+03  0.13579436242E+03  0.00000000000E+00 0.  1.
          1   -1    0    0  501    0  0.00000000000E+00 -0.00000000000E+00 -0.12213163410E+03  0.12213163410E+03  0.00000000000E+00 0. -1.
         25    2    1    2    0    0  0.65089342175E+02 -0.78796491322E+00  0.30812565343E+02  0.14433040638E+03  0.12507841009E+03 0.  0.
          5    1    3    3  502    0  0.16911516439E+02 -0.21009122386E+02 -0.44721175214E+02  0.52391206554E+02  0.41800000000E+01 0.  1.
         -5    1    3    3    0  502  0.48177825736E+02  0.20221157473E+02  0.75533740557E+02  0.91939199827E+02  0.41800000000E+01 0.  1.
        -11    1    1    2    0    0 -0.41966271556E+02  0.24166771579E+02  0.29362719069E+02  0.56633647843E+02  0.00000000000E+00 0.  1.
         11    1    1    2    0    0 -0.23123070619E+02 -0.23378806666E+02 -0.46512556092E+02  0.56961942297E+02  0.00000000000E+00 0. -1.
</event>
<event>
 7    1  0.2499014E-009  0.8238926E+02  0.7561462E-02  0.1322405E+00
         -2   -1    0    0    0  501 -0.00000000000E+00  0.00000000000E+00  0.50556384188E+02  0.50556384188E+02  0.00000000000E+00 0.  1.
          2   -1    0    0  501    0  0.00000000000E+00 -0.00000000000E+00 -0.33892035402E+03  0.33892035402E+03  0.00000000000E+00 0. -1.
         25    2    1    2    0    0  0.26917655106E+02  0.87080570219E+01 -0.25857496702E+03  0.28863137350E+03  0.12508663313E+03 0.  0.
          5    1    3    3  502    0 -0.19831320700E+02 -0.23273541253E+02 -0.82510412527E+01  0.31945126152E+02  0.41800000000E+01 0. -1.
         -5    1    3    3    0  502  0.46748975805E+02  0.31981598275E+02 -0.25032392577E+03  0.25668624735E+03  0.41800000000E+01 0. -1.
        -11    1    1    2    0    0 -0.45607320973E+01 -0.39115097646E+02  0.15120260106E+02  0.42183093850E+02  0.00000000000E+00 0.  1.
         11    1    1    2    0    0 -0.22356923009E+02  0.30407040624E+02 -0.44909262912E+02  0.58662270850E+02  0.00000000000E+00 0. -1.
</event>
<event>
 7    1  0.2499014E-009  0.1634892E+03  0.7561462E-02  0.1184813E+00
          1   -1    0    0  501    0  0.00000000000E+00  0.00000000000E+00  0.16460677848E+03  0.16460677848E+03  0.00000000000E+00 0. -1.
         -1   -1    0    0    0  501 -0.00000000000E+00 -0.00000000000E+00 -0.20788636527E+03  0.20788636527E+03  0.00000000000E+00 0.  1.
         25    2    1    2    0    0  0.97007141353E+02 -0.11336570449E+03 -0.32978035495E+02  0.19747477480E+03  0.12508623996E+03 0.  0.
          5    1    3    3  502    0  0.74267125944E+02 -0.65041231399E+02 -0.79267139086E+02  0.12667564690E+03  0.41800000000E+01 0.  1.
         -5    1    3    3    0  502  0.22740015409E+02 -0.48324473088E+02  0.46289103591E+02  0.70799127899E+02  0.41800000000E+01 0.  1.
        -11    1    1    2    0    0 -0.11482231406E+03  0.95213203861E+02 -0.11060914352E+02  0.14957293145E+03  0.00000000000E+00 0.  1.
         11    1    1    2    0    0  0.17815172711E+02  0.18152500626E+02  0.75936306114E+00  0.25445437507E+02  0.00000000000E+00 0. -1.
</event>
<event>
 7    1  0.2499014E-009  0.8117243E+02  0.7561462E-02  0.1325757E+00
         -2   -1    0    0    0  501 -0.00000000000E+00  0.00000000000E+00  0.16963009812E+03  0.16963009812E+03  0.00000000000E+00 0. -1.
          2   -1    0    0  501    0  0.00000000000E+00 -0.00000000000E+00 -0.12169797331E+03  0.12169797331E+03  0.00000000000E+00 0.  1.
         25    2    1    2    0    0  0.93181495485E+01 -0.28175090791E+02  0.11780866832E+03  0.17437376451E+03  0.12508662505E+03 0.  0.
          5    1    3    3  502    0  0.14065609311E+02 -0.57251137773E+02  0.68533353034E+01  0.59497686899E+02  0.41800000000E+01 0.  1.
         -5    1    3    3    0  502 -0.47474597627E+01  0.29076046982E+02  0.11095533302E+03  0.11487607761E+03  0.41800000000E+01 0.  1.
        -11    1    1    2    0    0 -0.80898608930E+01  0.50492210032E+02 -0.77919239626E+02  0.93200413235E+02  0.00000000000E+00 0.  1.
         11    1    1    2    0    0 -0.12282886555E+01 -0.22317119241E+02  0.80426961097E+01  0.23753893680E+02  0.00000000000E+00 0. -1.
</event>
<event>
 7    1  0.2499014E-009  0.2312957E+03  0.7561462E-02  0.1125731E+00
          2   -1    0    0  501    0  0.00000000000E+00  0.00000000000E+00  0.12404378410E+04  0.12404378410E+04  0.00000000000E+00 0. -1.
         -2   -1    0    0    0  501 -0.00000000000E+00 -0.00000000000E+00 -0.47388316088E+02  0.47388316088E+02  0.00000000000E+00 0.  1.
         25    2    1    2    0    0 -0.12055090376E+03  0.18082531073E+03  0.62484624784E+03  0.67328337196E+03  0.12508937649E+03 0.  0.
          5    1    3    3  502    0 -0.74754392112E+02  0.30916858076E+02  0.32463717922E+03  0.33459055843E+03  0.41800000000E+01 0.  1.
         -5    1    3    3    0  502 -0.45796511651E+02  0.14990845265E+03  0.30020906862E+03  0.33869281353E+03  0.41800000000E+01 0.  1.
        -11    1    1    2    0    0  0.59931553443E+02 -0.41656891964E+02  0.27312395414E+03  0.28270794483E+03  0.00000000000E+00 0.  1.
         11    1    1    2    0    0  0.60619350320E+02 -0.13916841876E+03  0.29507932288E+03  0.33183484025E+03  0.00000000000E+00 0. -1.
</event>
<event>
 7    1  0.2499014E-009  0.1253655E+03  0.7561462E-02  0.1234499E+00
          4   -1    0    0  501    0  0.00000000000E+00  0.00000000000E+00  0.60360208873E+03  0.60360208873E+03  0.00000000000E+00 0. -1.
         -4   -1    0    0    0  501 -0.00000000000E+00 -0.00000000000E+00 -0.28436386951E+02  0.28436386951E+02  0.00000000000E+00 0.  1.
         25    2    1    2    0    0 -0.46091941109E+02 -0.46715817594E+02  0.24897129827E+03  0.28625391876E+03  0.12509102284E+03 0.  0.
          5    1    3    3  502    0 -0.62094528398E+02 -0.78796026794E+02  0.21205183573E+03  0.23462309719E+03  0.41800000000E+01 0.  1.
         -5    1    3    3    0  502  0.16002587289E+02  0.32080209200E+02  0.36919462533E+02  0.51630821570E+02  0.41800000000E+01 0.  1.
        -11    1    1    2    0    0  0.75128505139E+02  0.31743022439E+02  0.21760972501E+03  0.23239170419E+03  0.00000000000E+00 0.  1.
         11    1    1    2    0    0 -0.29036564030E+02  0.14972795155E+02  0.10858467850E+03  0.11339285273E+03  0.00000000000E+00 0. -1.
</event>
<event>
 7    1  0.2499014E-009  0.1330353E+03  0.7561462E-02  0.1223020E+00
         -1   -1    0    0    0  501 -0.00000000000E+00  0.00000000000E+00  0.83654150821E+02  0.83654150821E+02  0.00000000000E+00 0.  1.
          1   -1    0    0  501    0  0.00000000000E+00 -0.00000000000E+00 -0.32484542669E+03  0.32484542669E+03  0.00000000000E+00 0. -1.
         25    2    1    2    0    0 -0.11800207554E+03  0.11275190852E+02 -0.16907794882E+03  0.24142720794E+03  0.12509246259E+03 0.  0.
          5    1    3    3  502    0 -0.33655595133E+02  0.28148250633E+02 -0.14565857360E+03  0.15218053608E+03  0.41800000000E+01 0. -1.
         -5    1    3    3    0  502 -0.84346480404E+02 -0.16873059781E+02 -0.23419375219E+02  0.89246671863E+02  0.41800000000E+01 0. -1.
        -11    1    1    2    0    0  0.94320149012E+02  0.20229094707E+02 -0.14916725362E+02  0.97611554018E+02  0.00000000000E+00 0.  1.
         11    1    1    2    0    0  0.23681926525E+02 -0.31504285559E+02 -0.57196601686E+02  0.69460815551E+02  0.00000000000E+00 0. -1.
</event>
<event>
 7    1  0.2499014E-009  0.1152483E+03  0.7561462E-02  0.1251148E+00
          1   -1    0    0  501    0  0.00000000000E+00  0.00000000000E+00  0.48858438420E+03  0.48858438420E+03  0.00000000000E+00 0. -1.
         -1   -1    0    0    0  501 -0.00000000000E+00 -0.00000000000E+00 -0.34860746886E+02  0.34860746886E+02  0.00000000000E+00 0.  1.
         25    2    1    2    0    0  0.45081266672E+02  0.53062942938E+02  0.21177132666E+03  0.25562061462E+03  0.12508719880E+03 0.  0.
          5    1    3    3  502    0  0.67692954821E+02  0.81836489750E+02  0.15986785945E+03  0.19197591535E+03  0.41800000000E+01 0. -1.
         -5    1    3    3    0  502 -0.22611688149E+02 -0.28773546812E+02  0.51903467208E+02  0.63644699271E+02  0.41800000000E+01 0. -1.
        -11    1    1    2    0    0 -0.55586329432E+02 -0.53097085300E+02  0.24508879643E+03  0.25686116605E+03  0.00000000000E+00 0. -1.
         11    1    1    2    0    0  0.10505062761E+02  0.34142361792E-01 -0.31364857811E+01  0.10963350417E+02  0.00000000000E+00 0.  1.
</event>
<event>
 7    1  0.2499014E-009  0.9627474E+02  0.7561462E-02  0.1288331E+00
          2   -1    0    0  501    0  0.00000000000E+00  0.00000000000E+00  0.51143915810E+03  0.51143915810E+03  0.00000000000E+00 0.  1.
         -2   -1    0    0    0  501 -0.00000000000E+00 -0.00000000000E+00 -0.33015768849E+02  0.33015768849E+02  0.00000000000E+00 0. -1.
         25    2    1    2    0    0  0.41341564094E+01  0.12454333364E+02  0.41200471806E+03  0.43077489651E+03  0.12508765765E+03 0.  0.
          5    1    3    3  502    0  0.16279504452E+02 -0.46585216122E+02  0.86190036574E+02  0.99405228389E+02  0.41800000000E+01 0. -1.
         -5    1    3    3    0  502 -0.12145348042E+02  0.59039549486E+02  0.32581468148E+03  0.33136966812E+03  0.41800000000E+01 0. -1.
        -11    1    1    2    0    0  0.26666425859E+02  0.23300738537E+02  0.54519618242E+02  0.65010856460E+02  0.00000000000E+00 0.  1.
         11    1    1    2    0    0 -0.30800582269E+02 -0.35755071901E+02  0.11899052958E+02  0.48669173982E+02  0.00000000000E+00 0. -1.
</event>
<event>
 7    1  0.2499014E-009  0.1058061E+03  0.7561462E-02  0.1268539E+00
         -3   -1    0    0    0  501 -0.00000000000E+00  0.00000000000E+00  0.18245680931E+03  0.18245680931E+03  0.00000000000E+00 0.  1.
          3   -1    0    0  501    0  0.00000000000E+00 -0.00000000000E+00 -0.90543142137E+02  0.90543142137E+02  0.00000000000E+00 0. -1.
         25    2    1    2    0    0 -0.31147403351E+02  0.71519536021E+02  0.66138180858E+02  0.16157608737E+03  0.12508944110E+03 0.  0.
          5    1    3    3  502    0 -0.47653287184E+02  0.25375628724E+02  0.91435231379E+02  0.10626679750E+03  0.41800000000E+01 0.  1.
         -5    1    3    3    0  502  0.16505883834E+02  0.46143907297E+02 -0.25297050520E+02  0.55309289878E+02  0.41800000000E+01 0.  1.
        -11    1    1    2    0    0  0.12060600516E+02  0.15244461799E+02  0.25951858107E+01  0.19610881922E+02  0.00000000000E+00 0. -1.
         11    1    1    2    0    0  0.19086802834E+02 -0.86763997820E+02  0.23180300503E+02  0.91812982152E+02  0.00000000000E+00 0.  1.
</event>
<event>
 7    1  0.2499014E-009  0.6182808E+02  0.7561462E-02  0.1390316E+00
          2   -1    0    0  501    0  0.00000000000E+00  0.00000000000E+00  0.12443055151E+03  0.12443055151E+03  0.00000000000E+00 0. -1.
         -2   -1    0    0    0  501 -0.00000000000E+00 -0.00000000000E+00 -0.14452127064E+03  0.14452127064E+03  0.00000000000E+00 0.  1.
         25    2    1    2    0    0  0.22056430078E+02  0.21429355850E+02 -0.81323613944E+02  0.15233768109E+03  0.12509010951E+03 0.  0.
          5    1    3    3  502    0  0.11806645034E+02  0.25768982976E+02 -0.11401051727E+03  0.11755555197E+03  0.41800000000E+01 0. -1.
         -5    1    3    3    0  502  0.10249785044E+02 -0.43396271261E+01  0.32686903329E+02  0.34782129123E+02  0.41800000000E+01 0. -1.
        -11    1    1    2    0    0 -0.68239138223E+01 -0.50146164993E+02  0.39647994468E+01  0.50763405106E+02  0.00000000000E+00 0.  1.
         11    1    1    2    0    0 -0.15232516256E+02  0.28716809142E+02  0.57268095365E+02  0.65850735953E+02  0.00000000000E+00 0. -1.
</event>
<event>
 7    1  0.2499014E-009  0.1211817E+03  0.7561462E-02  0.1241160E+00
          2   -1    0    0  501    0  0.00000000000E+00  0.00000000000E+00  0.15942347505E+03  0.15942347505E+03  0.00000000000E+00 0.  1.
         -2   -1    0    0    0  501 -0.00000000000E+00 -0.00000000000E+00 -0.12827400197E+03  0.12827400197E+03  0.00000000000E+00 0. -1.
         25    2    1    2    0    0  0.24758036699E+02 -0.54948850539E+02  0.87982891178E+02  0.16438183371E+03  0.12509221221E+03 0.  0.
          5    1    3    3  502    0  0.64973134111E+02 -0.65652393793E+02  0.78973765344E+02  0.12159799743E+03  0.41800000000E+01 0.  1.
         -5    1    3    3    0  502 -0.40215097412E+02  0.10703543254E+02  0.90091258343E+01  0.42783836274E+02  0.41800000000E+01 0.  1.
        -11    1    1    2    0    0  0.84125818403E+01  0.70810860048E+02 -0.28074941886E+02  0.76636491281E+02  0.00000000000E+00 0.  1.
         11    1    1    2    0    0 -0.33170618539E+02 -0.15862009509E+02 -0.28758476221E+02  0.46679152033E+02  0.00000000000E+00 0. -1.
</event>
<event>
 7    1  0.2499014E-009  0.9836443E+02  0.7561462E-02  0.1283773E+00
         -1   -1    0    0    0  501 -0.00000000000E+00  0.00000000000E+00  0.30034785102E+02  0.30034785102E+02  0.00000000000E+00 0.  1.
          1   -1    0    0  501    0  0.00000000000E+00 -0.00000000000E+00 -0.58862622765E+03  0.58862622765E+03  0.00000000000E+00 0. -1.
         25    2    1    2    0    0  0.38530511264E+02 -0.46772944619E+02 -0.41562227848E+03  0.43824976075E+03  0.12509462732E+03 0.  0.
          5    1    3    3  502    0 -0.12850163632E+02 -0.40131089875E+02 -0.37472441084E+02  0.56544560488E+02  0.41800000000E+01 0. -1.
         -5    1    3    3    0  502  0.51380674896E+02 -0.66418547447E+01 -0.37814983739E+03  0.38170520026E+03  0.41800000000E+01 0. -1.
        -11    1    1    2    0    0  0.26018638856E+02  0.18569910528E+02 -0.79142261175E+02  0.85354019523E+02  0.00000000000E+00 0. -1.
         11    1    1    2    0    0 -0.64549150120E+02  0.28203034092E+02 -0.63826902895E+02  0.95057232478E+02  0.00000000000E+00 0.  1.
</event>
<event>
 7    1  0.2499014E-009  0.1327453E+03  0.7561462E-02  0.1223438E+00
         -1   -1    0    0    0  501 -0.00000000000E+00  0.00000000000E+00  0.17485877164E+02  0.17485877164E+02  0.00000000000E+00 0.  1.
          1   -1    0    0  501    0  0.00000000000E+00 -0.00000000000E+00 -0.10738773389E+04  0.10738773389E+04  0.00000000000E+00 0. -1.
         25    2    1    2    0    0  0.40514573328E+02 -0.69949151981E+02 -0.56838162819E+03  0.58757011957E+03  0.12508659256E+03 0.  0.
          5    1    3    3  502    0  0.82199940804E+02 -0.29096816996E+02 -0.39664872041E+03  0.40614176691E+03  0.41800000000E+01 0. -1.
         -5    1    3    3    0  502 -0.41685367476E+02 -0.40852334985E+02 -0.17173290777E+03  0.18142835266E+03  0.41800000000E+01 0. -1.
        -11    1    1    2    0    0  0.24668656454E+02  0.42098106797E+02 -0.27509919109E+03  0.27939283839E+03  0.00000000000E+00 0.  1.
         11    1    1    2    0    0 -0.65183229782E+02  0.27851045184E+02 -0.21291064245E+03  0.22440025809E+03  0.00000000000E+00 0. -1.
</event>
<event>
 7    1  0.3018480E-009  0.8563925E+02  0.7561462E-02  0.1313769E+00
          2   -1    0    0  501    0  0.00000000000E+00  0.00000000000E+00  0.29074616135E+03  0.29074616135E+03  0.00000000000E+00 0. -1.
         -2   -1    0    0    0  501 -0.00000000000E+00 -0.00000000000E+00 -0.43664434230E+02  0.43664434230E+02  0.00000000000E+00 0.  1.
         25    2    1    2    0    0  0.22430613929E+02 -0.35861680880E+01  0.11067881769E+03  0.16856239329E+03  0.12508991448E+03 0.  0.
          5    1    3    3  502    0 -0.13262866160E+02  0.35689603747E+02 -0.74237828428E+01  0.39015847884E+02  0.41800000000E+01 0.  1.
         -5    1    3    3    0  502  0.35693480089E+02 -0.39275771835E+02  0.11810260054E+03  0.12954654541E+03  0.41800000000E+01 0.  1.
        -11    1    1    2    0    0 -0.31563088998E+02  0.34938348700E+02  0.33226383488E+02  0.57627331681E+02  0.00000000000E+00 0.  1.
         11    1    1    2    0    0  0.91324750691E+01 -0.31352180612E+02  0.10317652594E+03  0.10822087060E+03  0.00000000000E+00 0. -1.
</event>
<event>
 7    1  0.2499014E-009  0.1040265E+03  0.7561462E-02  0.1272050E+00
         -1   -1    0    0    0  501 -0.00000000000E+00  0.00000000000E+00  0.36668324384E+02  0.36668324384E+02  0.00000000000E+00 0.  1.
          1   -1    0    0  501    0  0.00000000000E+00 -0.00000000000E+00 -0.33984691249E+03  0.33984691249E+03  0.00000000000E+00 0. -1.
         25    2    1    2    0    0 -0.49540282945E+02 -0.42169566837E+02 -0.21060406201E+03  0.25344191420E+03  0.12508485496E+03 0.  0.
          5    1    3    3  502    0 -0.35252665514E+02 -0.81433830198E+02 -0.18232630967E+03  0.20281660367E+03  0.41800000000E+01 0. -1.
         -5    1    3    3    0  502 -0.14287617431E+02  0.39264263361E+02 -0.28277752332E+02  0.50625310528E+02  0.41800000000E+01 0. -1.
        -11    1    1    2    0    0  0.30685610677E+02 -0.37825364839E+00 -0.19246660656E+02  0.36224076591E+02  0.00000000000E+00 0.  1.
         11    1    1    2    0    0  0.18854672267E+02  0.42547820485E+02 -0.73327865444E+02  0.86849246081E+02  0.00000000000E+00 0. -1.
</event>
<event>
 7    1  0.2499014E-009  0.1124211E+03  0.7561462E-02  0.1256151E+00
         -2   -1    0    0    0  501 -0.00000000000E+00  0.00000000000E+00  0.66968752259E+02  0.66968752259E+02  0.00000000000E+00 0. -1.
          2   -1    0    0  501    0  0.00000000000E+00 -0.00000000000E+00 -0.47604191471E+03  0.47604191471E+03  0.00000000000E+00 0.  1.
         25    2    1    2    0    0  0.38925570774E+02  0.38376446065E+02 -0.18094672055E+02  0.13770433036E+03  0.12508842381E+03 0.  0.
          5    1    3    3  502    0  0.57941470654E+02  0.74988877618E+02 -0.92830607508E+01  0.95311035063E+02  0.41800000000E+01 0.  1.
         -5    1    3    3    0  502 -0.19015899879E+02 -0.36612431553E+02 -0.88116113041E+01  0.42393295298E+02  0.41800000000E+01 0.  1.
        -11    1    1    2    0    0  0.25980437347E+01  0.18173977383E+02 -0.17733687652E+02  0.25525026208E+02  0.00000000000E+00 0. -1.
         11    1    1    2    0    0 -0.41523614509E+02 -0.56550423448E+02 -0.37324480274E+03  0.37978131040E+03  0.00000000000E+00 0.  1.
</event>
<event>
 7    1  0.2499014E-009  0.1254095E+03  0.7561462E-02  0.1234431E+00
          2   -1    0    0  501    0  0.00000000000E+00  0.00000000000E+00  0.11815813712E+04  0.11815813712E+04  0.00000000000E+00 0. -1.
         -2   -1    0    0    0  501 -0.00000000000E+00 -0.00000000000E+00 -0.21376768388E+02  0.21376768388E+02  0.00000000000E+00 0.  1.
         25    2    1    2    0    0  0.59325250107E+02  0.92622258658E+02  0.46998210716E+03  0.49862683913E+03  0.12508867076E+03 0.  0.
          5    1    3    3  502    0  0.42524734153E+02  0.70856881621E+02  0.46247712289E+03  0.46982082999E+03  0.41800000000E+01 0.  1.
         -5    1    3    3    0  502  0.16800515955E+02  0.21765377037E+02  0.75049842629E+01  0.28806009142E+02  0.41800000000E+01 0.  1.
        -11    1    1    2    0    0 -0.77079070943E+02 -0.44571132085E+02  0.44107560483E+03  0.44997273047E+03  0.00000000000E+00 0. -1.
         11    1    1    2    0    0  0.17753820836E+02 -0.48051126573E+02  0.24914689086E+03  0.25435857003E+03  0.00000000000E+00 0.  1.
</event>
<event>
 7    1  0.2499014E-009  0.1167724E+03  0.7561462E-02  0.1248519E+00
         -3   -1    0    0    0  501 -0.00000000000E+00  0.00000000000E+00  0.32989210052E+03  0.32989210052E+03  0.00000000000E+00 0.  1.
          3   -1    0    0  501    0  0.00000000000E+00 -0.00000000000E+00 -0.48975084654E+02  0.48975084654E+02  0.00000000000E+00 0. -1.
         25    2    1    2    0    0  0.54380682552E+02  0.24197539902E+02  0.20266620763E+03  0.24548751040E+03  0.12509095281E+03 0.  0.
          5    1    3    3  502    0 -0.32493499823E+02  0.26750942402E+02  0.29122158065E+02  0.51351854305E+02  0.41800000000E+01 0. -1.
         -5    1    3    3    0  502  0.86874182375E+02 -0.25534024999E+01  0.17354404957E+03  0.19413565609E+03  0.41800000000E+01 0. -1.
        -11    1    1    2    0    0 -0.68860721854E+02  0.76186303051E+01  0.34549749174E+02  0.77417877199E+02  0.00000000000E+00 0. -1.
         11    1    1    2    0    0  0.14480039301E+02 -0.31816170207E+02  0.43701059060E+02  0.55961797575E+02  0.00000000000E+00 0.  1.
</event>
<event>
 7    1  0.2499014E-009  0.1335054E+03  0.7561462E-02  0.1222345E+00
         -1   -1    0    0    0  501 -0.00000000000E+00  0.00000000000E+00  0.30202176371E+03  0.30202176371E+03  0.00000000000E+00 0.  1.
          1   -1    0    0  501    0  0.00000000000E+00 -0.00000000000E+00 -0.11591963604E+03  0.11591963604E+03  0.00000000000E+00 0. -1.
         25    2    1    2    0    0  0.49362521411E+02  0.90261518888E+02  0.22467602567E+03  0.27696731532E+03  0.12509107455E+03 0.  0.
          5    1    3    3  502    0 -0.41916860209E+02  0.37651844001E+02  0.80692850092E+02  0.98506309354E+02  0.41800000000E+01 0.  1.
         -5    1    3    3    0  502  0.91279381620E+02  0.52609674887E+02  0.14398317557E+03  0.17846100596E+03  0.41800000000E+01 0.  1.
        -11    1    1    2    0    0 -0.41798842561E+02 -0.55391713402E+02  0.20150716905E+02  0.72259508335E+02  0.00000000000E+00 0.  1.
         11    1    1    2    0    0 -0.75636788496E+01 -0.34869805486E+02 -0.58724614899E+02  0.68714576092E+02  0.00000000000E+00 0. -1.
</event>
<event>
 7    1  0.2499014E-009  0.1043778E+03  0.7561462E-02  0.1271350E+00
          1   -1    0    0  501    0  0.00000000000E+00  0.00000000000E+00  0.21636052447E+02  0.21636052447E+02  0.00000000000E+00 0. -1.
         -1   -1    0    0    0  501 -0.00000000000E+00 -0.00000000000E+00 -0.66511049781E+03  0.66511049781E+03  0.00000000000E+00 0.  1.
         25    2    1    2    0    0 -0.27457777476E+02  0.22969508082E+02 -0.39079176289E+03  0.41188231478E+03  0.12508921394E+03 0.  0.
          5    1    3    3  502    0  0.27773439104E+02 -0.22865498086E+02 -0.40683190626E+02  0.54468241406E+02  0.41800000000E+01 0. -1.
         -5    1    3    3    0  502 -0.55231216580E+02  0.45835006169E+02 -0.35010857226E+03  0.35741407338E+03  0.41800000000E+01 0. -1.
        -11    1    1    2    0    0  0.35742425452E+02  0.30224779680E+02 -0.16897980510E+03  0.17534318583E+03  0.00000000000E+00 0.  1.
         11    1    1    2    0    0 -0.82846479755E+01 -0.53194287762E+02 -0.83702877374E+02  0.99521049649E+02  0.00000000000E+00 0. -1.
</event>
<event>
 7    1  0.2499014E-009  0.1109575E+03  0.7561462E-02  0.1258807E+00
          2   -1    0    0  501    0  0.00000000000E+00  0.00000000000E+00  0.65283133211E+03  0.65283133211E+03  0.00000000000E+00 0. -1.
         -2   -1    0    0    0  501 -0.00000000000E+00 -0.00000000000E+00 -0.27925176142E+02  0.27925176142E+02  0.00000000000E+00 0.  1.
         25    2    1    2    0    0  0.73509289030E+02 -0.28148103801E+02  0.30748689719E+03  0.34115888615E+03  0.12508102309E+03 0.  0.
          5    1    3    3  502    0 -0.22354772307E+02  0.11804230523E+02  0.15190664783E+03  0.15405251623E+03  0.41800000000E+01 0.  1.
         -5    1    3    3    0  502  0.95864061337E+02 -0.39952334324E+02  0.15558024936E+03  0.18710636992E+03  0.41800000000E+01 0.  1.
        -11    1    1    2    0    0 -0.32687676436E+02 -0.12261510300E+02  0.28625422519E+02  0.45146911744E+02  0.00000000000E+00 0.  1.
         11    1    1    2    0    0 -0.40821612594E+02  0.40409614100E+02  0.28879383626E+03  0.29445071035E+03  0.00000000000E+00 0. -1.
</event>
<event>
 7    1  0.2499014E-009  0.1645041E+03  0.7561462E-02  0.1183704E+00
         -2   -1    0    0    0  501 -0.00000000000E+00  0.00000000000E+00  0.18334233052E+02  0.18334233052E+02  0.00000000000E+00 0.  1.
          2   -1    0    0  501    0  0.00000000000E+00 -0.00000000000E+00 -0.15178620038E+04  0.15178620038E+04  0.00000000000E+00 0. -1.
         25    2    1    2    0    0 -0.25239300086E+02 -0.12243317154E+03 -0.80962695650E+03  0.82871577935E+03  0.12508849063E+03 0.  0.
          5    1    3    3  502    0  0.41480438032E+02 -0.92409556128E+02 -0.53241235026E+03  0.54197835373E+03  0.41800000000E+01 0.  1.
         -5    1    3    3    0  502 -0.66719738118E+02 -0.30023615409E+02 -0.27721460624E+03  0.28673742562E+03  0.41800000000E+01 0.  1.
        -11    1    1    2    0    0 -0.29625255727E+02  0.78996355354E+02 -0.31489491117E+03  0.32600135739E+03  0.00000000000E+00 0.  1.
         11    1    1    2    0    0  0.54864555812E+02  0.43436816182E+02 -0.37500590306E+03  0.38147910011E+03  0.00000000000E+00 0. -1.
</event>
<event>
 7    1  0.2499014E-009  0.1000560E+03  0.7561462E-02  0.1280178E+00
         -1   -1    0    0    0  501 -0.00000000000E+00  0.00000000000E+00  0.12627313144E+03  0.12627313144E+03  0.00000000000E+00 0.  1.
          1   -1    0    0  501    0  0.00000000000E+00 -0.00000000000E+00 -0.13101054350E+03  0.13101054350E+03  0.00000000000E+00 0. -1.
         25    2    1    2    0    0 -0.31704022616E+02 -0.21583935984E+01  0.58478595450E+02  0.14169973512E+03  0.12509702273E+03 0.  0.
          5    1    3    3  502    0  0.35338818344E+02 -0.11927150777E+02  0.63363702404E+02  0.73644553023E+02  0.41800000000E+01 0.  1.
         -5    1    3    3    0  502 -0.67042840960E+02  0.97687571782E+01 -0.48851069537E+01  0.68055182100E+02  0.41800000000E+01 0.  1.
        -11    1    1    2    0    0 -0.20594992337E+02  0.29272721572E+02 -0.35743630749E+02  0.50583130357E+02  0.00000000000E+00 0.  1.
         11    1    1    2    0    0  0.52299014952E+02 -0.27114327973E+02 -0.27472376758E+02  0.65000809465E+02  0.00000000000E+00 0. -1.
</event>
<event>
 7    1  0.2499014E-009  0.1308508E+03  0.7561462E-02  0.1226199E+00
         -3   -1    0    0    0  501 -0.00000000000E+00  0.00000000000E+00  0.23921262939E+03  0.23921262939E+03  0.00000000000E+00 0.  1.
          3   -1    0    0  501    0  0.00000000000E+00 -0.00000000000E+00 -0.91131475012E+02  0.91131475012E+02  0.00000000000E+00 0. -1.
         25    2    1    2    0    0  0.32604949424E+02  0.93823536873E+02  0.90130833807E+02  0.18340333599E+03  0.12508907886E+03 0.  0.
          5    1    3    3  502    0  0.52749083757E+02 -0.99554122261E+01  0.33280190778E+02  0.63297863850E+02  0.41800000000E+01 0. -1.
         -5    1    3    3    0  502 -0.20144134333E+02  0.10377894910E+03  0.56850643028E+02  0.12010547214E+03  0.41800000000E+01 0. -1.
        -11    1    1    2    0    0  0.33077002232E+01 -0.16166081839E+02  0.59113680434E+02  0.61373530917E+02  0.00000000000E+00 0.  1.
         11    1    1    2    0    0 -0.35912649647E+02 -0.77657455033E+02 -0.11633598636E+01  0.85567237498E+02  0.00000000000E+00 0. -1.
</event>
<event>
 7    1  0.2828292E-009  0.1353179E+03  0.7561462E-02  0.1219772E+00
          2   -1    0    0  501    0  0.00000000000E+00  0.00000000000E+00  0.10204790830E+04  0.10204790830E+04  0.00000000000E+00 0. -1.
         -2   -1    0    0    0  501 -0.00000000000E+00 -0.00000000000E+00 -0.20794219839E+02  0.20794219839E+02  0.00000000000E+00 0.  1.
         25    2    1    2    0    0 -0.49630303594E+02 -0.83070157487E+02  0.54229844637E+03  0.56488900508E+03  0.12509262579E+03 0.  0.
          5    1    3    3  502    0  0.88542040555E+01  0.23660354104E+02  0.19882491365E+03  0.20046702465E+03  0.41800000000E+01 0.  1.
         -5    1    3    3    0  502 -0.58484507650E+02 -0.10673051159E+03  0.34347353272E+03  0.36442198043E+03  0.41800000000E+01 0.  1.
        -11    1    1    2    0    0 -0.95417949231E+01  0.58351233084E+02  0.31095708165E+03  0.31652838559E+03  0.00000000000E+00 0. -1.
         11    1    1    2    0    0  0.59172098518E+02  0.24718924404E+02  0.14642933514E+03  0.15985591217E+03  0.00000000000E+00 0.  1.
</event>
<event>
 7    1  0.2499014E-009  0.1207140E+03  0.7561462E-02  0.1241924E+00
          1   -1    0    0  501    0  0.00000000000E+00  0.00000000000E+00  0.39889205922E+03  0.39889205922E+03  0.00000000000E+00 0. -1.
         -1   -1    0    0    0  501 -0.00000000000E+00 -0.00000000000E+00 -0.54580406427E+02  0.54580406427E+02  0.00000000000E+00 0.  1.
         25    2    1    2    0    0 -0.55802893480E+02  0.78724186239E+02  0.14789185195E+03  0.21640606909E+03  0.12509247159E+03 0.  0.
          5    1    3    3  502    0 -0.64683032942E+02  0.52462840602E+02  0.16406442239E+03  0.18404035288E+03  0.41800000000E+01 0.  1.
         -5    1    3    3    0  502  0.88801394621E+01  0.26261345637E+02 -0.16172570437E+02  0.32365716214E+02  0.41800000000E+01 0.  1.
        -11    1    1    2    0    0  0.39323397021E+02 -0.97434595442E+02  0.13719345300E+03  0.17280588384E+03  0.00000000000E+00 0.  1.
         11    1    1    2    0    0  0.16479496459E+02  0.18710409202E+02  0.59226347844E+02  0.64260512720E+02  0.00000000000E+00 0. -1.
</event>
<event>
 7    1  0.2499014E-009  0.1075713E+03  0.7561462E-02  0.1265135E+00
         -2   -1    0    0    0  501 -0.00000000000E+00  0.00000000000E+00  0.17971837878E+03  0.17971837878E+03  0.00000000000E+00 0.  1.
          2   -1    0    0  501    0  0.00000000000E+00 -0.00000000000E+00 -0.12710154964E+03  0.12710154964E+03  0.00000000000E+00 0. -1.
         25    2    1    2    0    0 -0.51488307881E+02 -0.92393366439E+02  0.40012750123E+02  0.16862904152E+03  0.12508858245E+03 0.  0.
          5    1    3    3  502    0 -0.15435882262E+02 -0.34351847837E+02  0.80588563364E+02  0.89052259129E+02  0.41800000000E+01 0.  1.
         -5    1    3    3    0  502 -0.36052425619E+02 -0.58041518602E+02 -0.40575813241E+02  0.79576782386E+02  0.41800000000E+01 0.  1.
        -11    1    1    2    0    0  0.47794283655E+02  0.62524397040E+02  0.47645946287E+02  0.91998532450E+02  0.00000000000E+00 0.  1.
         11    1    1    2    0    0  0.36940242258E+01  0.29868969399E+02 -0.35041867277E+02  0.46192354456E+02  0.00000000000E+00 0. -1.
</event>
<event>
 7    1  0.2499014E-009  0.1032383E+03  0.7561462E-02  0.1273630E+00
         -4   -1    0    0    0  501 -0.00000000000E+00  0.00000000000E+00  0.89454258327E+03  0.89454258327E+03  0.00000000000E+00 0.  1.
          4   -1    0    0  501    0  0.00000000000E+00 -0.00000000000E+00 -0.16847689520E+02  0.16847689520E+02  0.00000000000E+00 0. -1.
         25    2    1    2    0    0 -0.13707046811E+01 -0.30755676283E+02  0.66971055164E+03  0.68198754021E+03  0.12508793536E+03 0.  0.
          5    1    3    3  502    0 -0.42647463748E+02  0.17656241319E+02  0.47156504696E+03  0.47383711857E+03  0.41800000000E+01 0.  1.
         -5    1    3    3    0  502  0.41276759067E+02 -0.48411917602E+02  0.19814550468E+03  0.20815042164E+03  0.41800000000E+01 0.  1.
        -11    1    1    2    0    0  0.98483892194E+01  0.62625231128E+02  0.14662126965E+03  0.15973949749E+03  0.00000000000E+00 0.  1.
         11    1    1    2    0    0 -0.84776845383E+01 -0.31869554845E+02  0.61363072462E+02  0.69663235089E+02  0.00000000000E+00 0. -1.
</event>
<event>
 7    1  0.2499014E-009  0.1083069E+03  0.7561462E-02  0.1263738E+00
         -2   -1    0    0    0  501 -0.00000000000E+00  0.00000000000E+00  0.12042389869E+03  0.12042389869E+03  0.00000000000E+00 0.  1.
          2   -1    0    0  501    0  0.00000000000E+00 -0.00000000000E+00 -0.24441619624E+03  0.24441619624E+03  0.00000000000E+00 0. -1.
         25    2    1    2    0    0 -0.32903005655E+02  0.47909504476E+02  0.60770083971E+02  0.15073170962E+03  0.12509642992E+03 0.  0.
          5    1    3    3  502    0 -0.13589022318E+02  0.75260798898E+02  0.80928343904E+02  0.11142584362E+03  0.41800000000E+01 0.  1.
         -5    1    3    3    0  502 -0.19313983337E+02 -0.27351294422E+02 -0.20158259932E+02  0.39305866005E+02  0.41800000000E+01 0.  1.
        -11    1    1    2    0    0 -0.17186682808E+02  0.17077372087E+02 -0.60816689560E+02  0.65465169612E+02  0.00000000000E+00 0. -1.
         11    1    1    2    0    0  0.50089688463E+02 -0.64986876563E+02 -0.12394569197E+03  0.14864321570E+03  0.00000000000E+00 0.  1.
</event>
<event>
 7    1  0.2499014E-009  0.1038428E+03  0.7561462E-02  0.1272416E+00
         -1   -1    0    0    0  501 -0.00000000000E+00  0.00000000000E+00  0.13727298473E+02  0.13727298473E+02  0.00000000000E+00 0.  1.
          1   -1    0    0  501    0  0.00000000000E+00 -0.00000000000E+00 -0.98038808630E+03  0.98038808630E+03  0.00000000000E+00 0. -1.
         25    2    1    2    0    0 -0.79070274264E+01 -0.41494700140E+02 -0.50865593368E+03  0.52551215572E+03  0.12509130950E+03 0.  0.
          5    1    3    3  502    0 -0.52404365603E+02 -0.36165585443E+02 -0.43145890906E+03  0.43615184250E+03  0.41800000000E+01 0.  1.
         -5    1    3    3    0  502  0.44497338177E+02 -0.53291146967E+01 -0.77197024619E+02  0.89360313217E+02  0.41800000000E+01 0.  1.
        -11    1    1    2    0    0 -0.40915034014E+02  0.18857905313E+02 -0.19283229260E+03  0.19802513394E+03  0.00000000000E+00 0.  1.
         11    1    1    2    0    0  0.48822061441E+02  0.22636794827E+02 -0.26517256154E+03  0.27057809512E+03  0.00000000000E+00 0. -1.
</event>
<event>
 7    1  0.2499014E-009  0.5812761E+02  0.7561462E-02  0.1405862E+00
          1   -1    0    0  501    0  0.00000000000E+00  0.00000000000E+00  0.48014632034E+03  0.48014632034E+03  0.00000000000E+00 0. -1.
         -1   -1    0    0    0  501 -0.00000000000E+00 -0.00000000000E+00 -0.33386711212E+02  0.33386711212E+02  0.00000000000E+00 0.  1.
         25    2    1    2    0    0  0.10344408740E+02 -0.41271564113E+02  0.35592890971E+03  0.37966176947E+03  0.12508925469E+03 0.  0.
          5    1    3    3  502    0 -0.42890218743E+01 -0.19152131769E+02 -0.25060935299E+01  0.20222580565E+02  0.41800000000E+01 0.  1.
         -5    1    3    3    0  502  0.14633430614E+02 -0.22119432344E+02  0.35843500324E+03  0.35943918891E+03  0.41800000000E+01 0.  1.
        -11    1    1    2    0    0  0.20093801448E+02  0.31514650861E+02  0.94571597931E+02  0.10168933676E+03  0.00000000000E+00 0. -1.
         11    1    1    2    0    0 -0.30438210189E+02  0.97569132518E+01 -0.37408985064E+01  0.32181925320E+02  0.00000000000E+00 0.  1.
</event>
<event>
 7    1  0.2499014E-009  0.1188846E+03  0.7561462E-02  0.1244949E+00
         -1   -1    0    0    0  501 -0.00000000000E+00  0.00000000000E+00  0.86379479399E+02  0.86379479399E+02  0.00000000000E+00 0.  1.
          1   -1    0    0  501    0  0.00000000000E+00 -0.00000000000E+00 -0.21241675324E+03  0.21241675324E+03  0.00000000000E+00 0. -1.
         25    2    1    2    0    0  0.46399897165E+01 -0.80319212381E+02 -0.70144447182E+02  0.16443918777E+03  0.12508915869E+03 0.  0.
          5    1    3    3  502    0 -0.21312878445E+02  0.24469559990E+02 -0.41166441543E+02  0.52584659959E+02  0.41800000000E+01 0.  1.
         -5    1    3    3    0  502  0.25952868162E+02 -0.10478877237E+03 -0.28978005640E+02  0.11185452781E+03  0.41800000000E+01 0.  1.
        -11    1    1    2    0    0  0.21266157824E+02  0.61280912684E+02  0.54556857910E+01  0.65095040022E+02  0.00000000000E+00 0.  1.
         11    1    1    2    0    0 -0.25906147540E+02  0.19038299697E+02 -0.61348512450E+02  0.69262004848E+02  0.00000000000E+00 0. -1.
</event>
<event>
 7    1  0.2499014E-009  0.1529479E+03  0.7561462E-02  0.1196897E+00
          1   -1    0    0  501    0  0.00000000000E+00  0.00000000000E+00  0.52582397090E+03  0.52582397090E+03  0.00000000000E+00 0. -1.
         -1   -1    0    0    0  501 -0.00000000000E+00 -0.00000000000E+00 -0.55289869541E+02  0.55289869541E+02  0.00000000000E+00 0.  1.
         25    2    1    2    0    0 -0.12621796301E+03 -0.36729424702E+02  0.30924463649E+03  0.35855044453E+03  0.12508457637E+03 0.  0.
          5    1    3    3  502    0 -0.42093606505E+02  0.37846697244E+02  0.48825494122E+02  0.74870858664E+02  0.41800000000E+01 0. -1.
         -5    1    3    3    0  502 -0.84124356508E+02 -0.74576121945E+02  0.26041914237E+03  0.28367958586E+03  0.41800000000E+01 0. -1.
        -11    1    1    2    0    0  0.40851752923E+02 -0.58029300625E+01  0.10257849587E+03  0.11056621333E+03  0.00000000000E+00 0. -1.
         11    1    1    2    0    0  0.85366210090E+02  0.42532354764E+02  0.58710968994E+02  0.11199718259E+03  0.00000000000E+00 0.  1.
</event>
<event>
 7    1  0.2499014E-009  0.1196573E+03  0.7561462E-02  0.1243663E+00
         -2   -1    0    0    0  501 -0.00000000000E+00  0.00000000000E+00  0.78862457347E+02  0.78862457347E+02  0.00000000000E+00 0.  1.
          2   -1    0    0  501    0  0.00000000000E+00 -0.00000000000E+00 -0.25202697309E+03  0.25202697309E+03  0.00000000000E+00 0. -1.
         25    2    1    2    0    0 -0.85884851143E+02 -0.91078833079E+01 -0.12546825334E+03  0.19710835478E+03  0.12510099813E+03 0.  0.
          5    1    3    3  502    0 -0.59045568285E+02 -0.63361313239E+02 -0.49356570364E+02  0.99772634462E+02  0.41800000000E+01 0.  1.
         -5    1    3    3    0  502 -0.26839282857E+02  0.54253429931E+02 -0.76111682980E+02  0.97335720317E+02  0.41800000000E+01 0.  1.
        -11    1    1    2    0    0  0.39385174097E+02  0.20001965756E+02  0.21955244399E+02  0.49328524500E+02  0.00000000000E+00 0.  1.
         11    1    1    2    0    0  0.46499677046E+02 -0.10894082448E+02 -0.69651506798E+02  0.84452551157E+02  0.00000000000E+00 0. -1.
</event>
<event>
 7    1  0.2499014E-009  0.1123208E+03  0.7561462E-02  0.1256331E+00
          2   -1    0    0  501    0  0.00000000000E+00  0.00000000000E+00  0.13406688228E+03  0.13406688228E+03  0.00000000000E+00 0. -1.
         -2   -1    0    0    0  501 -0.00000000000E+00 -0.00000000000E+00 -0.10553025153E+03  0.10553025153E+03  0.00000000000E+00 0.  1.
         25    2    1    2    0    0 -0.38766627116E+02  0.85789403785E+01 -0.73979752162E+01  0.13145678473E+03  0.12509878743E+03 0.  0.
          5    1    3    3  502    0 -0.81234760863E+02  0.25129233756E+02 -0.93335512716E+01  0.85645503916E+02  0.41800000000E+01 0. -1.
         -5    1    3    3    0  502  0.42468133747E+02 -0.16550293378E+02  0.19355760554E+01  0.45811280811E+02  0.41800000000E+01 0. -1.
        -11    1    1    2    0    0  0.51773123693E+02  0.25170122832E+02  0.59114279971E+00  0.57570312402E+02  0.00000000000E+00 0.  1.
         11    1    1    2    0    0 -0.13006496577E+02 -0.33749063211E+02  0.35343463169E+02  0.50570036678E+02  0.00000000000E+00 0. -1.
</event>
<event>
 7    1  0.2499014E-009  0.1320351E+03  0.7561462E-02  0.1224467E+00
          2   -1    0    0  501    0  0.00000000000E+00  0.00000000000E+00  0.48307720815E+03  0.48307720815E+03  0.00000000000E+00 0.  1.
         -2   -1    0    0    0  501 -0.00000000000E+00 -0.00000000000E+00 -0.51500223204E+02  0.51500223204E+02  0.00000000000E+00 0. -1.
         25    2    1    2    0    0 -0.85703288788E+02  0.58811046792E+02  0.15169998640E+03  0.22240406942E+03  0.12508753449E+03 0.  0.
          5    1    3    3  502    0 -0.58622295976E+02 -0.21684345351E+02  0.20224544892E+02  0.65827722388E+02  0.41800000000E+01 0. -1.
         -5    1    3    3    0  502 -0.27080992813E+02  0.80495392142E+02  0.13147544151E+03  0.15657634703E+03  0.41800000000E+01 0. -1.
        -11    1    1    2    0    0  0.92730312072E+02 -0.50780913091E+02  0.28211132817E+03  0.30127132853E+03  0.00000000000E+00 0.  1.
         11    1    1    2    0    0 -0.70270232834E+01 -0.80301337002E+01 -0.22343296322E+01  0.10902033405E+02  0.00000000000E+00 0. -1.
</event>
<event>
 7    1  0.2499014E-009  0.8473828E+02  0.7561462E-02  0.1316118E+00
          3   -1    0    0  501    0  0.00000000000E+00  0.00000000000E+00  0.21261845393E+03  0.21261845393E+03  0.00000000000E+00 0. -1.
         -3   -1    0    0    0  501 -0.00000000000E+00 -0.00000000000E+00 -0.62965936314E+02  0.62965936314E+02  0.00000000000E+00 0.  1.
         25    2    1    2    0    0  0.38626748906E+02 -0.58496289448E+01  0.80475951091E+02  0.15379527970E+03  0.12510142071E+03 0.  0.
          5    1    3    3  502    0 -0.93837841840E+01 -0.21353572089E+02 -0.26436946068E+02  0.35502323360E+02  0.41800000000E+01 0. -1.
         -5    1    3    3    0  502  0.48010533090E+02  0.15503943144E+02  0.10691289716E+03  0.11829295634E+03  0.41800000000E+01 0. -1.
        -11    1    1    2    0    0 -0.37340730580E+02 -0.36835281749E+02  0.18732428495E+02  0.55696247801E+02  0.00000000000E+00 0. -1.
         11    1    1    2    0    0 -0.12860183257E+01  0.42684910693E+02  0.50444138027E+02  0.66092862741E+02  0.00000000000E+00 0.  1.
</event>
<event>
 7    1  0.2499014E-009  0.1528752E+03  0.7561462E-02  0.1196984E+00
          1   -1    0    0  501    0  0.00000000000E+00  0.00000000000E+00  0.82272319139E+03  0.82272319139E+03  0.00000000000E+00 0. -1.
         -1   -1    0    0    0  501 -0.00000000000E+00 -0.00000000000E+00 -0.41242752013E+02  0.41242752013E+02  0.00000000000E+00 0.  1.
         25    2    1    2    0    0 -0.88845596752E+02  0.97911253435E+02  0.25867151491E+03  0.31628473929E+03  0.12507969489E+03 0.  0.
          5    1    3    3  502    0 -0.94785883194E+02  0.96562143280E+02  0.27041678211E+03  0.30240919235E+03  0.41800000000E+01 0.  1.
         -5    1    3    3    0  502  0.59402864426E+01  0.13491101555E+01 -0.11745267207E+02  0.13875546944E+02  0.41800000000E+01 0.  1.
        -11    1    1    2    0    0  0.10778572845E+02 -0.82767510735E+02  0.25469608206E+03  0.26802375395E+03  0.00000000000E+00 0.  1.
         11    1    1    2    0    0  0.78067023907E+02 -0.15143742700E+02  0.26811284241E+03  0.27965745016E+03  0.00000000000E+00 0. -1.
</event>
<event>
 7    1  0.3546769E-009  0.9351210E+02  0.7561462E-02  0.1294563E+00
          2   -1    0    0  501    0  0.00000000000E+00  0.00000000000E+00  0.35908276078E+03  0.35908276078E+03  0.00000000000E+00 0. -1.
         -2   -1    0    0    0  501 -0.00000000000E+00 -0.00000000000E+00 -0.42687358085E+02  0.42687358085E+02  0.00000000000E+00 0.  1.
         25    2    1    2    0    0  0.23566841443E+02  0.36110868984E+02  0.11108403433E+03  0.17276823728E+03  0.12509920167E+03 0.  0.
          5    1    3    3  502    0  0.46307013046E+02 -0.46166188705E+01 -0.55791216731E+01  0.47055835193E+02  0.41800000000E+01 0.  1.
         -5    1    3    3    0  502 -0.22740171604E+02  0.40727487855E+02  0.11666315600E+03  0.12571240209E+03  0.41800000000E+01 0.  1.
        -11    1    1    2    0    0  0.30198498265E+02 -0.23443004657E+02  0.13064909210E+03  0.13612754693E+03  0.00000000000E+00 0. -1.
         11    1    1    2    0    0 -0.53765339707E+02 -0.12667864328E+02  0.74662276261E+02  0.92874334651E+02  0.00000000000E+00 0.  1.
</event>
<event>
 7    1  0.2499014E-009  0.1144174E+03  0.7561462E-02  0.1252602E+00
         -2   -1    0    0    0  501 -0.00000000000E+00  0.00000000000E+00  0.19597779481E+02  0.19597779481E+02  0.00000000000E+00 0.  1.
          2   -1    0    0  501    0  0.00000000000E+00 -0.00000000000E+00 -0.82927350995E+03  0.82927350995E+03  0.00000000000E+00 0. -1.
         25    2    1    2    0    0 -0.48819544106E+01 -0.64464418643E+02 -0.40488668279E+03  0.42867327257E+03  0.12509218186E+03 0.  0.
          5    1    3    3  502    0 -0.57731714405E+02 -0.60597207049E+02 -0.19668124873E+03  0.21378951881E+03  0.41800000000E+01 0.  1.
         -5    1    3    3    0  502  0.52849759994E+02 -0.38672115940E+01 -0.20820543406E+03  0.21488375376E+03  0.41800000000E+01 0.  1.
        -11    1    1    2    0    0  0.21539719334E+02 -0.35713134557E+01 -0.21790702939E+02  0.30847180153E+02  0.00000000000E+00 0.  1.
         11    1    1    2    0    0 -0.16657764923E+02  0.68035732098E+02 -0.38299834474E+03  0.38935083671E+03  0.00000000000E+00 0. -1.
</event>
<event>
 7    1  0.2499014E-009  0.5883520E+02  0.7561462E-02  0.1402786E+00
         -1   -1    0    0    0  501 -0.00000000000E+00  0.00000000000E+00  0.36040760013E+02  0.36040760013E+02  0.00000000000E+00 0.  1.
          1   -1    0    0  501    0  0.00000000000E+00 -0.00000000000E+00 -0.34300088520E+03  0.34300088520E+03  0.00000000000E+00 0. -1.
         25    2    1    2    0    0 -0.88559266692E+01  0.22473406770E+02 -0.17314298228E+03  0.21496118300E+03  0.12508531663E+03 0.  0.
          5    1    3    3  502    0  0.33617322417E+01 -0.54162306068E-01 -0.18593695612E+03  0.18601432264E+03  0.41800000000E+01 0. -1.
         -5    1    3    3    0  502 -0.12217658911E+02  0.22527569076E+02  0.12793973843E+02  0.28946860355E+02  0.41800000000E+01 0. -1.
        -11    1    1    2    0    0 -0.93575135232E+01 -0.51351986630E+02 -0.44965412352E+02  0.68894687009E+02  0.00000000000E+00 0.  1.
         11    1    1    2    0    0  0.18213440192E+02  0.28878579860E+02 -0.88851730562E+02  0.95185775209E+02  0.00000000000E+00 0. -1.
</event>
<event>
 7    1  0.2499014E-009  0.1523244E+03  0.7561462E-02  0.1197646E+00
          2   -1    0    0  501    0  0.00000000000E+00  0.00000000000E+00  0.49383976022E+03  0.49383976022E+03  0.00000000000E+00 0. -1.
         -2   -1    0    0    0  501 -0.00000000000E+00 -0.00000000000E+00 -0.79661258207E+02  0.79661258207E+02  0.00000000000E+00 0.  1.
         25    2    1    2    0    0  0.34047178545E+02 -0.11284867479E+03  0.38632531065E+03  0.42283318131E+03  0.12508644930E+03 0.  0.
          5    1    3    3  502    0  0.58701587780E+02 -0.20308483811E+02  0.77135805668E+02  0.99124748871E+02  0.41800000000E+01 0.  1.
         -5    1    3    3    0  502 -0.24654409235E+02 -0.92540190980E+02  0.30918950498E+03  0.32370843244E+03  0.41800000000E+01 0.  1.
        -11    1    1    2    0    0 -0.52480360317E+02  0.27561979311E+02  0.21954421371E+02  0.63212716603E+02  0.00000000000E+00 0.  1.
         11    1    1    2    0    0  0.18433181772E+02  0.85286695480E+02  0.58987699883E+01  0.87455120510E+02  0.00000000000E+00 0. -1.
</event>
<event>
 7    1  0.2499014E-009  0.1246496E+03  0.7561462E-02  0.1235618E+00
          1   -1    0    0  501    0  0.00000000000E+00  0.00000000000E+00  0.85841157306E+03  0.85841157306E+03  0.00000000000E+00 0. -1.
         -1   -1    0    0    0  501 -0.00000000000E+00 -0.00000000000E+00 -0.23253553687E+02  0.23253553687E+02  0.00000000000E+00 0.  1.
         25    2    1    2    0    0  0.96358461584E+02  0.47390096285E+01  0.42706772577E+03  0.45534961535E+03  0.12509603701E+03 0.  0.
          5    1    3    3  502    0  0.48704047990E+02 -0.55927978259E+02  0.27399171422E+03  0.28388193832E+03  0.41800000000E+01 0.  1.
         -5    1    3    3    0  502  0.47654413594E+02  0.60666987888E+02  0.15307601155E+03  0.17146767703E+03  0.41800000000E+01 0.  1.
        -11    1    1    2    0    0 -0.71676215327E+02  0.34395322156E+01  0.38471819085E+03  0.39135328873E+03  0.00000000000E+00 0.  1.
         11    1    1    2    0    0 -0.24682246256E+02 -0.81785418441E+01  0.23372102750E+02  0.34962222668E+02  0.00000000000E+00 0. -1.
</event>
<event>
 7    1  0.2499014E-009  0.1631342E+03  0.7561462E-02  0.1185203E+00
          1   -1    0    0  501    0  0.00000000000E+00  0.00000000000E+00  0.14085918477E+03  0.14085918477E+03  0.00000000000E+00 0. -1.
         -1   -1    0    0    0  501 -0.00000000000E+00 -0.00000000000E+00 -0.29899066690E+03  0.29899066690E+03  0.00000000000E+00 0.  1.
         25    2    1    2    0    0 -0.54245845678E+02 -0.14707542564E+03 -0.16679861322E+03  0.26085197643E+03  0.12509270015E+03 0.  0.
          5    1    3    3  502    0  0.40982224849E+01 -0.79620847114E+02 -0.10059643518E+02  0.80467033935E+02  0.41800000000E+01 0.  1.
         -5    1    3    3    0  502 -0.58344068162E+02 -0.67454578531E+02 -0.15673896970E+03  0.18038494249E+03  0.41800000000E+01 0.  1.
        -11    1    1    2    0    0  0.43585915869E+02  0.12899586672E+03 -0.25857791270E+02  0.13859397917E+03  0.00000000000E+00 0.  1.
         11    1    1    2    0    0  0.10659929808E+02  0.18079558924E+02  0.34524922356E+02  0.40403896075E+02  0.00000000000E+00 0. -1.
</event>
<event>
 7    1  0.2499014E-009  0.1107793E+03  0.7561462E-02  0.1259134E+00
         -2   -1    0    0    0  501 -0.00000000000E+00  0.00000000000E+00  0.10107217162E+02  0.10107217162E+02  0.00000000000E+00 0.  1.
          2   -1    0    0  501    0  0.00000000000E+00 -0.00000000000E+00 -0.16718652417E+04  0.16718652417E+04  0.00000000000E+00 0. -1.
         25    2    1    2    0    0  0.41034144475E+02 -0.37499866740E+02 -0.12905592559E+04  0.12977984421E+04  0.12509021665E+03 0.  0.
          5    1    3    3  502    0  0.75404219700E+02 -0.44235327593E+02 -0.60118166557E+03  0.60751907622E+03  0.41800000000E+01 0. -1.
         -5    1    3    3    0  502 -0.34370075225E+02  0.67354608525E+01 -0.68937759030E+03  0.69027936585E+03  0.41800000000E+01 0. -1.
        -11    1    1    2    0    0 -0.30387967133E+02  0.63649125005E+02 -0.27669730869E+03  0.28554516332E+03  0.00000000000E+00 0.  1.
         11    1    1    2    0    0 -0.10646177342E+02 -0.26149258264E+02 -0.94501460016E+02  0.98628853512E+02  0.00000000000E+00 0. -1.
</event>
<event>
 7    1  0.2499014E-009  0.1058135E+03  0.7561462E-02  0.1268525E+00
         -1   -1    0    0    0  501 -0.00000000000E+00  0.00000000000E+00  0.11360392787E+03  0.11360392787E+03  0.00000000000E+00 0.  1.
          1   -1    0    0  501    0  0.00000000000E+00 -0.00000000000E+00 -0.11481178404E+03  0.11481178404E+03  0.00000000000E+00 0. -1.
         25    2    1    2    0    0 -0.20115004866E+02 -0.66066157297E+00 -0.28786276172E+02  0.12992037559E+03  0.12508239046E+03 0.  0.
          5    1    3    3  502    0 -0.67282416945E+02  0.21718784723E+02 -0.14456636644E+01  0.70839195246E+02  0.41800000000E+01 0. -1.
         -5    1    3    3    0  502  0.47167412079E+02 -0.22379446296E+02 -0.27340612508E+02  0.59081180345E+02  0.41800000000E+01 0. -1.
        -11    1    1    2    0    0  0.53848343052E+02 -0.55298058059E+01  0.33546185766E+02  0.63683352464E+02  0.00000000000E+00 0. -1.
         11    1    1    2    0    0 -0.33733338186E+02  0.61904673789E+01 -0.59677657730E+01  0.34811983854E+02  0.00000000000E+00 0.  1.
</event>
<event>
 7    1  0.2499014E-009  0.9372908E+02  0.7561462E-02  0.1294064E+00
         -2   -1    0    0    0  501 -0.00000000000E+00  0.00000000000E+00  0.51455389287E+02  0.51455389287E+02  0.00000000000E+00 0.  1.
          2   -1    0    0  501    0  0.00000000000E+00 -0.00000000000E+00 -0.39383266295E+03  0.39383266295E+03  0.00000000000E+00 0. -1.
         25    2    1    2    0    0  0.41329175348E+02  0.53901348740E+02 -0.27617699366E+03  0.31070040821E+03  0.12509019030E+03 0.  0.
          5    1    3    3  502    0 -0.27420369544E+02 -0.43671172149E+01 -0.10257475620E+02  0.29893754946E+02  0.41800000000E+01 0. -1.
         -5    1    3    3    0  502  0.68749544892E+02  0.58268465955E+02 -0.26591951804E+03  0.28080665327E+03  0.41800000000E+01 0. -1.
        -11    1    1    2    0    0 -0.19454124356E+02 -0.15129497203E+02 -0.83322884103E+02  0.86891125297E+02  0.00000000000E+00 0. -1.
         11    1    1    2    0    0 -0.21875050993E+02 -0.38771851537E+02  0.17122604095E+02  0.47696518726E+02  0.00000000000E+00 0.  1.
</event>
<event>
 7    1  0.2499014E-009  0.8542073E+02  0.7561462E-02  0.1314336E+00
          1   -1    0    0  501    0  0.00000000000E+00  0.00000000000E+00  0.29039009046E+03  0.29039009046E+03  0.00000000000E+00 0. -1.
         -1   -1    0    0    0  501 -0.00000000000E+00 -0.00000000000E+00 -0.74548348627E+02  0.74548348627E+02  0.00000000000E+00 0.  1.
         25    2    1    2    0    0 -0.84196901540E+01 -0.34598489027E+02  0.23383603648E+03  0.26757139620E+03  0.12508882237E+03 0.  0.
          5    1    3    3  502    0  0.17296523967E+02  0.12770477561E+02 -0.51890304534E+01  0.22508959894E+02  0.41800000000E+01 0. -1.
         -5    1    3    3    0  502 -0.25716214121E+02 -0.47368966587E+02  0.23902506694E+03  0.24506243631E+03  0.41800000000E+01 0. -1.
        -11    1    1    2    0    0  0.32916350889E+02 -0.17520446074E+02 -0.13290422438E+02  0.39586456207E+02  0.00000000000E+00 0.  1.
         11    1    1    2    0    0 -0.24496660735E+02  0.52118935101E+02 -0.47038722117E+01  0.57780586679E+02  0.00000000000E+00 0. -1.
</event>
<event>
 7    1  0.2499014E-009  0.2372959E+03  0.7561462E-02  0.1121607E+00
         -2   -1    0    0    0  501 -0.00000000000E+00  0.00000000000E+00  0.71973549602E+02  0.71973549602E+02  0.00000000000E+00 0.  1.
          2   -1    0    0  501    0  0.00000000000E+00 -0.00000000000E+00 -0.11395082162E+04  0.11395082162E+04  0.00000000000E+00 0. -1.
         25    2    1    2    0    0 -0.19234821681E+03 -0.12649535133E+03 -0.82927870414E+03  0.86968416208E+03  0.12509381364E+03 0.  0.
          5    1    3    3  502    0 -0.98472283328E+02 -0.10499781463E+03 -0.31376339768E+03  0.34523365100E+03  0.41800000000E+01 0. -1.
         -5    1    3    3    0  502 -0.93875933483E+02 -0.21497536698E+02 -0.51551530646E+03  0.52445051108E+03  0.41800000000E+01 0. -1.
        -11    1    1    2    0    0  0.88518738158E+02  0.33016947213E+02 -0.48614302337E+02  0.10624987624E+03  0.00000000000E+00 0.  1.
         11    1    1    2    0    0  0.10382947865E+03  0.93478404119E+02 -0.18964166015E+03  0.23554772752E+03  0.00000000000E+00 0. -1.
</event>
<event>
 7    1  0.2499014E-009  0.4412008E+02  0.7561462E-02  0.1479911E+00
          1   -1    0    0  501    0  0.00000000000E+00  0.00000000000E+00  0.25367690523E+03  0.25367690523E+03  0.00000000000E+00 0. -1.
         -1   -1    0    0    0  501 -0.00000000000E+00 -0.00000000000E+00 -0.61167064162E+02  0.61167064162E+02  0.00000000000E+00 0.  1.
         25    2    1    2    0    0 -0.46123124626E+00 -0.64904001617E+01  0.18556658601E+03  0.22388314033E+03  0.12508542942E+03 0.  0.
          5    1    3    3  502    0  0.20556852447E+01  0.53096224228E+01 -0.18300641569E+02  0.19616416949E+02  0.41800000000E+01 0.  1.
         -5    1    3    3    0  502 -0.25169164909E+01 -0.11800022584E+02  0.20386722758E+03  0.20426672338E+03  0.41800000000E+01 0.  1.
        -11    1    1    2    0    0  0.22054135577E+02  0.29513510799E+02 -0.26186744133E+02  0.45201524134E+02  0.00000000000E+00 0.  1.
         11    1    1    2    0    0 -0.21592904331E+02 -0.23023110638E+02  0.33129999196E+02  0.45759304929E+02  0.00000000000E+00 0. -1.
</event>
<event>
 7    1  0.2499014E-009  0.1006343E+03  0.7561462E-02  0.1278968E+00
         -1   -1    0    0    0  501 -0.00000000000E+00  0.00000000000E+00  0.38361835615E+03  0.38361835615E+03  0.00000000000E+00 0.  1.
          1   -1    0    0  501    0  0.00000000000E+00 -0.00000000000E+00 -0.38374854672E+02  0.38374854672E+02  0.00000000000E+00 0. -1.
         25    2    1    2    0    0  0.32625519205E+02  0.11793417556E+02  0.11633961980E+03  0.17431720845E+03  0.12509225725E+03 0.  0.
          5    1    3    3  502    0  0.51231210505E+02 -0.35703110102E+02  0.10446275407E+03  0.12177556565E+03  0.41800000000E+01 0.  1.
         -5    1    3    3    0  502 -0.18605691300E+02  0.47496527658E+02  0.11876865723E+02  0.52541642796E+02  0.41800000000E+01 0.  1.
        -11    1    1    2    0    0 -0.35904912536E+02  0.29260466842E+02  0.16714851582E+03  0.17344729460E+03  0.00000000000E+00 0.  1.
         11    1    1    2    0    0  0.32793933303E+01 -0.41053884398E+02  0.61755365856E+02  0.74228707768E+02  0.00000000000E+00 0. -1.
</event>
<event>
 7    1  0.2499014E-009  0.1926443E+03  0.7561462E-02  0.1156098E+00
         -2   -1    0    0    0  501 -0.00000000000E+00  0.00000000000E+00  0.54954354278E+02  0.54954354278E+02  0.00000000000E+00 0.  1.
          2   -1    0    0  501    0  0.00000000000E+00 -0.00000000000E+00 -0.75195966614E+03  0.75195966614E+03  0.00000000000E+00 0. -1.
         25    2    1    2    0    0  0.17039448210E+03 -0.12732365192E+02 -0.32995742542E+03  0.39206498521E+03  0.12508659955E+03 0.  0.
          5    1    3    3  502    0  0.69663766720E+02 -0.53070131776E+02 -0.76622448198E+02  0.11643861579E+03  0.41800000000E+01 0.  1.
         -5    1    3    3    0  502  0.10073071538E+03  0.40337766584E+02 -0.25333497723E+03  0.27562636942E+03  0.41800000000E+01 0.  1.
        -11    1    1    2    0    0 -0.54326822356E+02  0.42760486269E+02 -0.94428914005E+02  0.11703282708E+03  0.00000000000E+00 0. -1.
         11    1    1    2    0    0 -0.11606765974E+03 -0.30028121077E+02 -0.27261897243E+03  0.29781620813E+03  0.00000000000E+00 0.  1.
</event>
<event>
 7    1  0.2499014E-009  0.1511530E+03  0.7561462E-02  0.1199063E+00
          2   -1    0    0  501    0  0.00000000000E+00  0.00000000000E+00  0.19770692229E+03  0.19770692229E+03  0.00000000000E+00 0. -1.
         -2   -1    0    0    0  501 -0.00000000000E+00 -0.00000000000E+00 -0.14041650080E+03  0.14041650080E+03  0.00000000000E+00 0.  1.
         25    2    1    2    0    0 -0.11129181915E+03  0.18600365968E+02 -0.25827624210E+02  0.17043097440E+03  0.12509119968E+03 0.  0.
          5    1    3    3  502    0 -0.11913817145E+02  0.57183910118E+02  0.65814996450E+01  0.58929849423E+02  0.41800000000E+01 0.  1.
         -5    1    3    3    0  502 -0.99378002009E+02 -0.38583544150E+02 -0.32409123855E+02  0.11150112498E+03  0.41800000000E+01 0.  1.
        -11    1    1    2    0    0  0.51656550117E+02 -0.48048190461E+02  0.14291153542E+02  0.71981003370E+02  0.00000000000E+00 0.  1.
         11    1    1    2    0    0  0.59635269037E+02  0.29447824493E+02  0.68826892157E+02  0.95711445316E+02  0.00000000000E+00 0. -1.
</event>
<event>
 7    1  0.2499014E-009  0.1066127E+03  0.7561462E-02  0.1266974E+00
          1   -1    0    0  501    0  0.00000000000E+00  0.00000000000E+00  0.34958162408E+02  0.34958162408E+02  0.00000000000E+00 0. -1.
         -1   -1    0    0    0  501 -0.00000000000E+00 -0.00000000000E+00 -0.36027570125E+03  0.36027570125E+03  0.00000000000E+00 0.  1.
         25    2    1    2    0    0  0.13649328797E+02  0.24714977644E+02 -0.20001865917E+03  0.23759519451E+03  0.12508748196E+03 0.  0.
          5    1    3    3  502    0 -0.59718120098E+01  0.71143096784E+02 -0.15139417840E+03  0.16743557690E+03  0.41800000000E+01 0.  1.
         -5    1    3    3    0  502  0.19621140807E+02 -0.46428119139E+02 -0.48624480774E+02  0.70159617615E+02  0.41800000000E+01 0.  1.
        -11    1    1    2    0    0 -0.16927650807E+02  0.31000457145E+02 -0.26468157761E+02  0.44137705880E+02  0.00000000000E+00 0. -1.
         11    1    1    2    0    0  0.32783220103E+01 -0.55715434790E+02 -0.98830721911E+02  0.11350096327E+03  0.00000000000E+00 0.  1.
</event>
<event>
 7    1  0.2499014E-009  0.1430501E+03  0.7561462E-02  0.1209283E+00
         -2   -1    0    0    0  501 -0.00000000000E+00  0.00000000000E+00  0.75721631141E+02  0.75721631141E+02  0.00000000000E+00 0.  1.
          2   -1    0    0  501    0  0.00000000000E+00 -0.00000000000E+00 -0.30811658647E+03  0.30811658647E+03  0.00000000000E+00 0. -1.
         25    2    1    2    0    0 -0.10247923754E+03  0.26915462934E+02 -0.13161950652E+03  0.21023396975E+03  0.12509273067E+03 0.  0.
          5    1    3    3  502    0 -0.12306686951E+03 -0.32461512351E+01 -0.11926331043E+03  0.17145612116E+03  0.41800000000E+01 0. -1.
         -5    1    3    3    0  502  0.20587631968E+02  0.30161614169E+02 -0.12356196091E+02  0.38777848589E+02  0.41800000000E+01 0. -1.
        -11    1    1    2    0    0  0.24126655195E+02 -0.40012295402E+02 -0.78069897527E+02  0.90983450001E+02  0.00000000000E+00 0. -1.
         11    1    1    2    0    0  0.78352582345E+02  0.13096832468E+02 -0.22705551287E+02  0.82620797867E+02  0.00000000000E+00 0.  1.
</event>
<event>
 7    1  0.2499014E-009  0.1270613E+03  0.7561462E-02  0.1231882E+00
          1   -1    0    0  501    0  0.00000000000E+00  0.00000000000E+00  0.45422512397E+03  0.45422512397E+03  0.00000000000E+00 0. -1.
         -1   -1    0    0    0  501 -0.00000000000E+00 -0.00000000000E+00 -0.62724756237E+02  0.62724756237E+02  0.00000000000E+00 0.  1.
         25    2    1    2    0    0  0.11448359736E+03  0.37896423116E+02  0.27735653283E+03  0.32728581723E+03  0.12508687744E+03 0.  0.
          5    1    3    3  502    0  0.64749499992E+02 -0.21092575350E+00  0.28922882196E+02  0.71039057942E+02  0.41800000000E+01 0. -1.
         -5    1    3    3    0  502  0.49734097364E+02  0.38107348869E+02  0.24843365064E+03  0.25624675929E+03  0.41800000000E+01 0. -1.
        -11    1    1    2    0    0 -0.31943719962E+02  0.66819356315E+01 -0.99357519828E+01  0.34114053940E+02  0.00000000000E+00 0.  1.
         11    1    1    2    0    0 -0.82539877394E+02 -0.44578358747E+02  0.12407958688E+03  0.15555000903E+03  0.00000000000E+00 0. -1.
</event>
<event>
 7    1  0.2499014E-009  0.1611255E+03  0.7561462E-02  0.1187432E+00
          2   -1    0    0  501    0  0.00000000000E+00  0.00000000000E+00  0.29726862281E+03  0.29726862281E+03  0.00000000000E+00 0. -1.
         -2   -1    0    0    0  501 -0.00000000000E+00 -0.00000000000E+00 -0.89099645455E+02  0.89099645455E+02  0.00000000000E+00 0.  1.
         25    2    1    2    0    0 -0.11976888431E+03 -0.53530511072E+01  0.13479193758E+03  0.21952271577E+03  0.12509242783E+03 0.  0.
          5    1    3    3  502    0 -0.22921431264E+01 -0.47981884735E+02  0.38380231678E+02  0.61628157254E+02  0.41800000000E+01 0.  1.
         -5    1    3    3    0  502 -0.11747674118E+03  0.42628833628E+02  0.96411705901E+02  0.15789455852E+03  0.41800000000E+01 0.  1.
        -11    1    1    2    0    0  0.40844610620E+02 -0.40660487461E+02  0.37139285263E+02  0.68562992693E+02  0.00000000000E+00 0.  1.
         11    1    1    2    0    0  0.78924273686E+02  0.46013538568E+02  0.36237754511E+02  0.98282559798E+02  0.00000000000E+00 0. -1.
</event>
<event>
 7    1  0.2499014E-009  0.1991744E+03  0.7561462E-02  0.1150437E+00
          4   -1    0    0  501    0  0.00000000000E+00  0.00000000000E+00  0.26527876848E+03  0.26527876848E+03  0.00000000000E+00 0.  1.
         -4   -1    0    0    0  501 -0.00000000000E+00 -0.00000000000E+00 -0.19341596582E+03  0.19341596582E+03  0.00000000000E+00 0. -1.
         25    2    1    2    0    0 -0.46052785836E+02  0.19113272173E+03  0.67995155621E+02  0.24274177667E+03  0.12509057739E+03 0.  0.
          5    1    3    3  502    0 -0.10325637297E+02  0.34502059968E+02  0.73482632017E+02  0.81940103342E+02  0.41800000000E+01 0. -1.
         -5    1    3    3    0  502 -0.35727148539E+02  0.15663066177E+03 -0.54874763954E+01  0.16080167333E+03  0.41800000000E+01 0. -1.
        -11    1    1    2    0    0 -0.48549753426E+01 -0.67596642293E+02  0.38473523914E+02  0.77930025518E+02  0.00000000000E+00 0.  1.
         11    1    1    2    0    0  0.50907761179E+02 -0.12353607944E+03 -0.34605876879E+02  0.13802293210E+03  0.00000000000E+00 0. -1.
</event>
<event>
 7    1  0.2499014E-009  0.2295028E+03  0.7561462E-02  0.1126990E+00
         -2   -1    0    0    0  501 -0.00000000000E+00  0.00000000000E+00  0.16203089969E+03  0.16203089969E+03  0.00000000000E+00 0.  1.
          2   -1    0    0  501    0  0.00000000000E+00 -0.00000000000E+00 -0.36629009665E+03  0.36629009665E+03  0.00000000000E+00 0. -1.
         25    2    1    2    0    0 -0.20844319017E+03 -0.47918010441E+02 -0.16971569086E+03  0.30032547929E+03  0.12508908240E+03 0.  0.
          5    1    3    3  502    0 -0.21063922366E+03 -0.25586220333E+02 -0.11577404870E+03  0.24175326258E+03  0.41800000000E+01 0.  1.
         -5    1    3    3    0  502  0.21960334869E+01 -0.22331790108E+02 -0.53941642153E+02  0.58572216713E+02  0.41800000000E+01 0.  1.
        -11    1    1    2    0    0  0.10725061259E+03 -0.93850245764E+01 -0.29346755854E+02  0.11158855078E+03  0.00000000000E+00 0.  1.
         11    1    1    2    0    0  0.10119257758E+03  0.57303035017E+02 -0.51967502494E+01  0.11640696626E+03  0.00000000000E+00 0. -1.
</event>
<event>
 7    1  0.2499014E-009  0.9074985E+02  0.7561462E-02  0.1301046E+00
         -1   -1    0    0    0  501 -0.00000000000E+00  0.00000000000E+00  0.23049580394E+02  0.23049580394E+02  0.00000000000E+00 0.  1.
          1   -1    0    0  501    0  0.00000000000E+00 -0.00000000000E+00 -0.81994697108E+03  0.81994697108E+03  0.00000000000E+00 0. -1.
         25    2    1    2    0    0  0.37795665307E+02 -0.36364861428E+02 -0.22875306273E+03  0.26594794777E+03  0.12509768882E+03 0.  0.
          5    1    3    3  502    0  0.39635943212E+02  0.39131768606E+01 -0.22109763057E+03  0.22469525049E+03  0.41800000000E+01 0.  1.
         -5    1    3    3    0  502 -0.18402779049E+01 -0.40278038289E+02 -0.76554321614E+01  0.41252697278E+02  0.41800000000E+01 0.  1.
        -11    1    1    2    0    0 -0.34481714270E+02  0.64205538835E+02 -0.41938273308E+03  0.42566796526E+03  0.00000000000E+00 0. -1.
         11    1    1    2    0    0 -0.33139510365E+01 -0.27840677407E+02 -0.14876159487E+03  0.15138063845E+03  0.00000000000E+00 0.  1.
</event>
<event>
 7    1  0.2499014E-009  0.1403665E+03  0.7561462E-02  0.1212837E+00
         -3   -1    0    0    0  501 -0.00000000000E+00  0.00000000000E+00  0.25605759540E+03  0.25605759540E+03  0.00000000000E+00 0.  1.
          3   -1    0    0  501    0  0.00000000000E+00 -0.00000000000E+00 -0.16060165093E+03  0.16060165093E+03  0.00000000000E+00 0. -1.
         25    2    1    2    0    0 -0.16036811532E+02  0.12045016946E+03  0.17389967716E+03  0.24628406336E+03  0.12509724017E+03 0.  0.
          5    1    3    3  502    0 -0.18426582190E+02  0.13486835656E+03  0.95276689563E+02  0.16620509170E+03  0.41800000000E+01 0.  1.
         -5    1    3    3    0  502  0.23897706579E+01 -0.14418187097E+02  0.78622987599E+02  0.80078971659E+02  0.41800000000E+01 0.  1.
        -11    1    1    2    0    0 -0.10235438186E+02 -0.82835068211E+02 -0.47934857149E+01  0.83602573080E+02  0.00000000000E+00 0.  1.
         11    1    1    2    0    0  0.26272249718E+02 -0.37615101253E+02 -0.73650246981E+02  0.86772609894E+02  0.00000000000E+00 0. -1.
</event>
<event>
 7    1  0.2499014E-009  0.8260780E+02  0.7561462E-02  0.1321810E+00
         -1   -1    0    0    0  501 -0.00000000000E+00  0.00000000000E+00  0.78187735796E+02  0.78187735796E+02  0.00000000000E+00 0.  1.
          1   -1    0    0  501    0  0.00000000000E+00 -0.00000000000E+00 -0.15756104826E+03  0.15756104826E+03  0.00000000000E+00 0. -1.
         25    2    1    2    0    0  0.27723180102E+01  0.16315613493E+02 -0.26273458008E+02  0.12889090461E+03  0.12509470694E+03 0.  0.
          5    1    3    3  502    0  0.12025398675E+02  0.52259252434E+02  0.29819534651E+02  0.61500542478E+02  0.41800000000E+01 0.  1.
         -5    1    3    3    0  502 -0.92530806645E+01 -0.35943638942E+02 -0.56092992660E+02  0.67390362127E+02  0.41800000000E+01 0.  1.
        -11    1    1    2    0    0  0.87965702786E+01  0.27441601451E+02  0.88410653537E+01  0.30142753283E+02  0.00000000000E+00 0.  1.
         11    1    1    2    0    0 -0.11568888289E+02 -0.43757214944E+02 -0.61940919807E+02  0.76715126165E+02  0.00000000000E+00 0. -1.
</event>
<event>
 7    1  0.2499014E-009  0.1455976E+03  0.7561462E-02  0.1205989E+00
          1   -1    0    0  501    0  0.00000000000E+00  0.00000000000E+00  0.40658787920E+02  0.40658787920E+02  0.00000000000E+00 0. -1.
         -1   -1    0    0    0  501 -0.00000000000E+00 -0.00000000000E+00 -0.66982798085E+03  0.66982798085E+03  0.00000000000E+00 0.  1.
         25    2    1    2    0    0  0.20754431039E+02  0.11820413137E+03 -0.37422186253E+03  0.41242229748E+03  0.12508871246E+03 0.  0.
          5    1    3    3  502    0 -0.49746613704E+02  0.30392139258E+02 -0.98098627958E+02  0.11418940805E+03  0.41800000000E+01 0.  1.
         -5    1    3    3    0  502  0.70501044743E+02  0.87811992111E+02 -0.27612323457E+03  0.29823288943E+03  0.41800000000E+01 0.  1.
        -11    1    1    2    0    0 -0.11748262306E+02 -0.76342799650E+02 -0.24093061774E+03  0.25300950039E+03  0.00000000000E+00 0.  1.
         11    1    1    2    0    0 -0.90061687328E+01 -0.41861331719E+02 -0.14016712663E+02  0.45054970896E+02  0.00000000000E+00 0. -1.
</event>
<event>
 7    1  0.2499014E-009  0.1421744E+03  0.7561462E-02  0.1210433E+00
          1   -1    0    0  501    0  0.00000000000E+00  0.00000000000E+00  0.80839442396E+03  0.80839442396E+03  0.00000000000E+00 0. -1.
         -1   -1    0    0    0  501 -0.00000000000E+00 -0.00000000000E+00 -0.30918256102E+02  0.30918256102E+02  0.00000000000E+00 0.  1.
         25    2    1    2    0    0 -0.58665397667E+02  0.95583196529E+02  0.35220599877E+03  0.39022278527E+03  0.12508789003E+03 0.  0.
          5    1    3    3  502    0 -0.37919386918E+02  0.11001879097E+03  0.16899004294E+03  0.20522456306E+03  0.41800000000E+01 0.  1.
         -5    1    3    3    0  502 -0.20746010749E+02 -0.14435594444E+02  0.18321595583E+03  0.18499822220E+03  0.41800000000E+01 0.  1.
        -11    1    1    2    0    0  0.23023473664E+02 -0.10328627722E+03  0.28047931110E+03  0.29977788337E+03  0.00000000000E+00 0.  1.
         11    1    1    2    0    0  0.35641924003E+02  0.77030806937E+01  0.14479085799E+03  0.14931201143E+03  0.00000000000E+00 0. -1.
</event>
<event>
 7    1  0.2499014E-009  0.1835070E+03  0.7561462E-02  0.1164451E+00
         -3   -1    0    0    0  501 -0.00000000000E+00  0.00000000000E+00  0.21867287378E+03  0.21867287378E+03  0.00000000000E+00 0.  1.
          3   -1    0    0  501    0  0.00000000000E+00 -0.00000000000E+00 -0.19054995681E+03  0.19054995681E+03  0.00000000000E+00 0. -1.
         25    2    1    2    0    0 -0.16788512679E+03 -0.26411063454E+02  0.47646428377E+02  0.21633553737E+03  0.12509165647E+03 0.  0.
          5    1    3    3  502    0 -0.46064992043E+02 -0.26461688189E+02 -0.39638598094E+02  0.66414571387E+02  0.41800000000E+01 0. -1.
         -5    1    3    3    0  502 -0.12182013475E+03  0.50624734872E-01  0.87285026471E+02  0.14992096598E+03  0.41800000000E+01 0. -1.
        -11    1    1    2    0    0  0.74134604359E+02  0.56677847474E+02 -0.11970676378E+02  0.94083022117E+02  0.00000000000E+00 0.  1.
         11    1    1    2    0    0  0.93750522436E+02 -0.30266784021E+02 -0.75528350265E+01  0.98804271106E+02  0.00000000000E+00 0. -1.
</event>
<event>
 7    1  0.2499014E-009  0.8928429E+02  0.7561462E-02  0.1304594E+00
         -1   -1    0    0    0  501 -0.00000000000E+00  0.00000000000E+00  0.40205137070E+02  0.40205137070E+02  0.00000000000E+00 0.  1.
          1   -1    0    0  501    0  0.00000000000E+00 -0.00000000000E+00 -0.39069620853E+03  0.39069620853E+03  0.00000000000E+00 0. -1.
         25    2    1    2    0    0  0.46718260395E+02 -0.29009454079E+02 -0.25582206855E+03  0.29002897245E+03  0.12509088624E+03 0.  0.
          5    1    3    3  502    0  0.93867111174E+01  0.15150104872E+02  0.79521395213E+01  0.19958580766E+02  0.41800000000E+01 0. -1.
         -5    1    3    3    0  502  0.37331549278E+02 -0.44159558951E+02 -0.26377420808E+03  0.27007039168E+03  0.41800000000E+01 0. -1.
        -11    1    1    2    0    0  0.23287181039E+02 -0.59535591299E+01 -0.11390051397E+02  0.26598325847E+02  0.00000000000E+00 0. -1.
         11    1    1    2    0    0 -0.70005441434E+02  0.34963013209E+02 -0.83278951513E+02  0.11427404731E+03  0.00000000000E+00 0.  1.
</event>
<event>
 7    1  0.2499014E-009  0.1430340E+03  0.7561462E-02  0.1209304E+00
          1   -1    0    0  501    0  0.00000000000E+00  0.00000000000E+00  0.39179348957E+03  0.39179348957E+03  0.00000000000E+00 0. -1.
         -1   -1    0    0    0  501 -0.00000000000E+00 -0.00000000000E+00 -0.52865902355E+02  0.52865902355E+02  0.00000000000E+00 0.  1.
         25    2    1    2    0    0  0.87412879541E+02  0.31694911419E+02  0.16612528938E+03  0.22778499531E+03  0.12507123330E+03 0.  0.
          5    1    3    3  502    0  0.64411514620E+02 -0.42855785024E+02  0.89013622450E+02  0.11800999495E+03  0.41800000000E+01 0.  1.
         -5    1    3    3    0  502  0.23001364921E+02  0.74550696443E+02  0.77111666933E+02  0.10977500037E+03  0.41800000000E+01 0.  1.
        -11    1    1    2    0    0 -0.95001959033E+02  0.28953708864E+01  0.13469294888E+03  0.16485128410E+03  0.00000000000E+00 0. -1.
         11    1    1    2    0    0  0.75890794914E+01 -0.34590282305E+02  0.38109348953E+02  0.52023112509E+02  0.00000000000E+00 0.  1.
</event>
<event>
 7    1  0.2499014E-009  0.1008511E+03  0.7561462E-02  0.1278516E+00
         -1   -1    0    0    0  501 -0.00000000000E+00  0.00000000000E+00  0.85682640237E+02  0.85682640237E+02  0.00000000000E+00 0.  1.
          1   -1    0    0  501    0  0.00000000000E+00 -0.00000000000E+00 -0.13855344221E+03  0.13855344221E+03  0.00000000000E+00 0. -1.
         25    2    1    2    0    0  0.24840385966E+02  0.10447412979E+02 -0.22347142544E+02  0.12989349875E+03  0.12508690189E+03 0.  0.
          5    1    3    3  502    0 -0.32539884070E+02 -0.28648767768E+02 -0.38893680819E+02  0.58393379398E+02  0.41800000000E+01 0.  1.
         -5    1    3    3    0  502  0.57380270036E+02  0.39096180748E+02  0.16546538275E+02  0.71500119352E+02  0.41800000000E+01 0.  1.
        -11    1    1    2    0    0 -0.13316534875E+02 -0.47736208373E+02 -0.11275100097E+02  0.50825225756E+02  0.00000000000E+00 0. -1.
         11    1    1    2    0    0 -0.11523851091E+02  0.37288795394E+02 -0.19248559334E+02  0.43517357943E+02  0.00000000000E+00 0.  1.
</event>
<event>
 7    1  0.2499014E-009  0.9487926E+02  0.7561462E-02  0.1291448E+00
          3   -1    0    0  501    0  0.00000000000E+00  0.00000000000E+00  0.18673155093E+03  0.18673155093E+03  0.00000000000E+00 0.  1.
         -3   -1    0    0    0  501 -0.00000000000E+00 -0.00000000000E+00 -0.66234071038E+02  0.66234071038E+02  0.00000000000E+00 0. -1.
         25    2    1    2    0    0  0.17372488919E+02 -0.10422459818E+02  0.79435640292E+02  0.14956002357E+03  0.12509096155E+03 0.  0.
          5    1    3    3  502    0 -0.40298369455E+02 -0.12609660961E+02  0.81256190129E+02  0.91667894950E+02  0.41800000000E+01 0.  1.
         -5    1    3    3    0  502  0.57670858374E+02  0.21872011436E+01 -0.18205498371E+01  0.57892128620E+02  0.41800000000E+01 0.  1.
        -11    1    1    2    0    0 -0.45602470471E+02  0.30464716046E+02  0.77978384248E+01  0.55393957441E+02  0.00000000000E+00 0.  1.
         11    1    1    2    0    0  0.28229981552E+02 -0.20042256229E+02  0.33264001171E+02  0.48011640953E+02  0.00000000000E+00 0. -1.
</event>
<event>
 7    1  0.2499014E-009  0.1260007E+03  0.7561462E-02  0.1233514E+00
         -1   -1    0    0    0  501 -0.00000000000E+00  0.00000000000E+00  0.10516334116E+04  0.10516334116E+04  0.00000000000E+00 0.  1.
          1   -1    0    0  501    0  0.00000000000E+00 -0.00000000000E+00 -0.20741767070E+02  0.20741767070E+02  0.00000000000E+00 0. -1.
         25    2    1    2    0    0  0.51189009301E+02 -0.73630048792E+02  0.40474084416E+03  0.43301728572E+03  0.12508844888E+03 0.  0.
          5    1    3    3  502    0  0.50129565968E+02 -0.94084569737E+02  0.19534310321E+03  0.22257870522E+03  0.41800000000E+01 0.  1.
         -5    1    3    3    0  502  0.10594433330E+01  0.20454520945E+02  0.20939774095E+03  0.21043858049E+03  0.41800000000E+01 0.  1.
        -11    1    1    2    0    0 -0.27744970025E+02 -0.15819770761E+02  0.95193859800E+02  0.10040876183E+03  0.00000000000E+00 0. -1.
         11    1    1    2    0    0 -0.23444039276E+02  0.89449819554E+02  0.53095694062E+03  0.53894913117E+03  0.00000000000E+00 0.  1.
</event>
<event>
 7    1  0.2499014E-009  0.1548166E+03  0.7561462E-02  0.1194676E+00
          1   -1    0    0  501    0  0.00000000000E+00  0.00000000000E+00  0.71562131362E+02  0.71562131362E+02  0.00000000000E+00 0. -1.
         -1   -1    0    0    0  501 -0.00000000000E+00 -0.00000000000E+00 -0.50091307014E+03  0.50091307014E+03  0.00000000000E+00 0.  1.
         25    2    1    2    0    0 -0.75118468292E+02 -0.12325106877E+03 -0.14086446082E+03  0.23733066792E+03  0.12509771932E+03 0.  0.
          5    1    3    3  502    0 -0.34456306314E+02 -0.59182596597E+02 -0.14583761899E+03  0.16117040763E+03  0.41800000000E+01 0. -1.
         -5    1    3    3    0  502 -0.40662161978E+02 -0.64068472177E+02  0.49731581699E+01  0.76160260281E+02  0.41800000000E+01 0. -1.
        -11    1    1    2    0    0 -0.36054519049E+01  0.69748909341E+02 -0.16545319030E+03  0.17959027763E+03  0.00000000000E+00 0.  1.
         11    1    1    2    0    0  0.78723920197E+02  0.53502159433E+02 -0.12303328766E+03  0.15555425596E+03  0.00000000000E+00 0. -1.
</event>
<event>
 7    1  0.2499014E-009  0.1319158E+03  0.7561462E-02  0.1224640E+00
          2   -1    0    0  501    0  0.00000000000E+00  0.00000000000E+00  0.11632559351E+03  0.11632559351E+03  0.00000000000E+00 0. -1.
         -2   -1    0    0    0  501 -0.00000000000E+00 -0.00000000000E+00 -0.24221122485E+03  0.24221122485E+03  0.00000000000E+00 0.  1.
         25    2    1    2    0    0  0.35371642647E+02 -0.10335177311E+03  0.53009700744E+01  0.16615816265E+03  0.12509073756E+03 0.  0.
          5    1    3    3  502    0  0.12801772371E+02  0.74848354898E+01 -0.41050608811E+02  0.43846699099E+02  0.41800000000E+01 0.  1.
         -5    1    3    3    0  502  0.22569870276E+02 -0.11083660860E+03  0.46351578885E+02  0.12231146355E+03  0.41800000000E+01 0.  1.
        -11    1    1    2    0    0 -0.57125223784E+02  0.44252827206E+02 -0.96266180849E+02  0.12036935442E+03  0.00000000000E+00 0.  1.
         11    1    1    2    0    0  0.21753581137E+02  0.59098945907E+02 -0.34920420570E+02  0.72009301291E+02  0.00000000000E+00 0. -1.
</event>
<event>
 7    1  0.2499014E-009  0.1332125E+03  0.7561462E-02  0.1222765E+00
         -1   -1    0    0    0  501 -0.00000000000E+00  0.00000000000E+00  0.91699545890E+02  0.91699545890E+02  0.00000000000E+00 0.  1.
          1   -1    0    0  501    0  0.00000000000E+00 -0.00000000000E+00 -0.24913601089E+03  0.24913601089E+03  0.00000000000E+00 0. -1.
         25    2    1    2    0    0 -0.80605985071E+02 -0.18553081324E+02 -0.12218141518E+02  0.15045882609E+03  0.12508810380E+03 0.  0.
          5    1    3    3  502    0 -0.69203100265E+02 -0.67371622336E+02  0.62393034218E+01  0.96873143284E+02  0.41800000000E+01 0. -1.
         -5    1    3    3    0  502 -0.11402884806E+02  0.48818541012E+02 -0.18457444940E+02  0.53585682809E+02  0.41800000000E+01 0. -1.
        -11    1    1    2    0    0  0.97926084412E+02  0.24828220802E+02 -0.10280142623E+03  0.14413220248E+03  0.00000000000E+00 0.  1.
         11    1    1    2    0    0 -0.17320099341E+02 -0.62751394785E+01 -0.42416897253E+02  0.46244528208E+02  0.00000000000E+00 0. -1.
</event>
<event>
 7    1  0.2499014E-009  0.9484266E+02  0.7561462E-02  0.1291531E+00
         -1   -1    0    0    0  501 -0.00000000000E+00  0.00000000000E+00  0.18877193980E+02  0.18877193980E+02  0.00000000000E+00 0.  1.
          1   -1    0    0  501    0  0.00000000000E+00 -0.00000000000E+00 -0.64480850059E+03  0.64480850059E+03  0.00000000000E+00 0. -1.
         25    2    1    2    0    0  0.82254116787E+01 -0.23581974835E+02 -0.38554691549E+03  0.40610021815E+03  0.12508875330E+03 0.  0.
          5    1    3    3  502    0  0.44151296125E+02  0.22960021947E+02 -0.75646993518E+02  0.90644578358E+02  0.41800000000E+01 0.  1.
         -5    1    3    3    0  502 -0.35925884447E+02 -0.46541996782E+02 -0.30989992198E+03  0.31545563979E+03  0.41800000000E+01 0.  1.
        -11    1    1    2    0    0 -0.32678381660E+02 -0.14335025115E+02 -0.47022536719E+02  0.59029556431E+02  0.00000000000E+00 0.  1.
         11    1    1    2    0    0  0.24452969981E+02  0.37916999950E+02 -0.19336185440E+03  0.19855591999E+03  0.00000000000E+00 0. -1.
</event>
<event>
 7    1  0.2499014E-009  0.1025810E+03  0.7561462E-02  0.1274960E+00
          4   -1    0    0  501    0  0.00000000000E+00  0.00000000000E+00  0.15855188261E+03  0.15855188261E+03  0.00000000000E+00 0. -1.
         -4   -1    0    0    0  501 -0.00000000000E+00 -0.00000000000E+00 -0.13945400085E+03  0.13945400085E+03  0.00000000000E+00 0.  1.
         25    2    1    2    0    0 -0.63760260646E+02  0.60754044319E+02 -0.39457498099E+02  0.15799132462E+03  0.12509172538E+03 0.  0.
          5    1    3    3  502    0 -0.57947718939E+01  0.45512854344E+02 -0.75120761109E+02  0.88122644317E+02  0.41800000000E+01 0.  1.
         -5    1    3    3    0  502 -0.57965488752E+02  0.15241189975E+02  0.35663263010E+02  0.69868680299E+02  0.41800000000E+01 0.  1.
        -11    1    1    2    0    0 -0.54717765041E+01 -0.15150630093E+02 -0.20085306885E+02  0.25746873266E+02  0.00000000000E+00 0.  1.
         11    1    1    2    0    0  0.69232037150E+02 -0.45603414226E+02  0.78640686743E+02  0.11426768558E+03  0.00000000000E+00 0. -1.
</event>
<event>
 7    1  0.2499014E-009  0.1450006E+03  0.7561462E-02  0.1206754E+00
         -1   -1    0    0    0  501 -0.00000000000E+00  0.00000000000E+00  0.10278013633E+03  0.10278013633E+03  0.00000000000E+00 0.  1.
          1   -1    0    0  501    0  0.00000000000E+00 -0.00000000000E+00 -0.26852955921E+03  0.26852955921E+03  0.00000000000E+00 0. -1.
         25    2    1    2    0    0  0.10542535787E+03  0.53452313081E+02 -0.13519926572E+03  0.21885898565E+03  0.12509499708E+03 0.  0.
          5    1    3    3  502    0  0.52384653477E+00  0.62784509380E+02 -0.29176326307E+02  0.69360647705E+02  0.41800000000E+01 0. -1.
         -5    1    3    3    0  502  0.10490151133E+03 -0.93321962987E+01 -0.10602293941E+03  0.14949833795E+03  0.41800000000E+01 0. -1.
        -11    1    1    2    0    0 -0.89269522515E+02 -0.32022476381E+02 -0.60298945004E+02  0.11238527222E+03  0.00000000000E+00 0. -1.
         11    1    1    2    0    0 -0.16155835354E+02 -0.21429836701E+02  0.29748787841E+02  0.40065437661E+02  0.00000000000E+00 0.  1.
</event>
<event>
 7    1  0.2499014E-009  0.1171657E+03  0.7561462E-02  0.1247847E+00
         -2   -1    0    0    0  501 -0.00000000000E+00  0.00000000000E+00  0.22147036363E+03  0.22147036363E+03  0.00000000000E+00 0.  1.
          2   -1    0    0  501    0  0.00000000000E+00 -0.00000000000E+00 -0.18174712880E+03  0.18174712880E+03  0.00000000000E+00 0. -1.
         25    2    1    2    0    0 -0.10022982524E+03  0.92310793883E+01 -0.11476915317E+03  0.19735741568E+03  0.12508701096E+03 0.  0.
          5    1    3    3  502    0 -0.31745409300E+02 -0.35233740482E+02  0.95544223320E+01  0.48558695061E+02  0.41800000000E+01 0. -1.
         -5    1    3    3    0  502 -0.68484415939E+02  0.44464819870E+02 -0.12432357550E+03  0.14879872062E+03  0.41800000000E+01 0. -1.
        -11    1    1    2    0    0  0.20217463287E+02  0.10169557381E+02  0.10994509240E+03  0.11225011832E+03  0.00000000000E+00 0.  1.
         11    1    1    2    0    0  0.80012361951E+02 -0.19400636769E+02  0.44547295595E+02  0.93609958428E+02  0.00000000000E+00 0. -1.
</event>
<event>
 7    1  0.2499014E-009  0.2879137E+03  0.7561462E-02  0.1091443E+00
          2   -1    0    0  501    0  0.00000000000E+00  0.00000000000E+00  0.36464113022E+03  0.36464113022E+03  0.00000000000E+00 0. -1.
         -2   -1    0    0    0  501 -0.00000000000E+00 -0.00000000000E+00 -0.25737838972E+03  0.25737838972E+03  0.00000000000E+00 0.  1.
         25    2    1    2    0    0  0.26655854747E+03 -0.87402106096E+02  0.12094292853E+03  0.33009968227E+03  0.12508405533E+03 0.  0.
          5    1    3    3  502    0  0.14174571279E+03 -0.12775750426E+02  0.11745630837E+03  0.18457660650E+03  0.41800000000E+01 0.  1.
         -5    1    3    3    0  502  0.12481283468E+03 -0.74626355670E+02  0.34866201595E+01  0.14552307577E+03  0.41800000000E+01 0.  1.
        -11    1    1    2    0    0 -0.13361440671E+03  0.96717869115E+01  0.16543323211E+02  0.13498160869E+03  0.00000000000E+00 0.  1.
         11    1    1    2    0    0 -0.13294414076E+03  0.77730319184E+02 -0.30223511233E+02  0.15693822897E+03  0.00000000000E+00 0. -1.
</event>
<event>
 7    1  0.2499014E-009  0.4948991E+02  0.7561462E-02  0.1448112E+00
         -1   -1    0    0    0  501 -0.00000000000E+00  0.00000000000E+00  0.25857157978E+03  0.25857157978E+03  0.00000000000E+00 0.  1.
          1   -1    0    0  501    0  0.00000000000E+00 -0.00000000000E+00 -0.49255366686E+02  0.49255366686E+02  0.00000000000E+00 0. -1.
         25    2    1    2    0    0  0.29967573693E+02  0.20232201045E+02  0.11095247665E+03  0.17107055780E+03  0.12508911318E+03 0.  0.
          5    1    3    3  502    0  0.11356730106E+02 -0.16263994736E+01  0.13366799761E+03  0.13422453755E+03  0.41800000000E+01 0. -1.
         -5    1    3    3    0  502  0.18610843587E+02  0.21858600518E+02 -0.22715520960E+02  0.36846020248E+02  0.41800000000E+01 0. -1.
        -11    1    1    2    0    0 -0.71421542629E+01 -0.31502732739E+02  0.10548719008E+03  0.11032216372E+03  0.00000000000E+00 0.  1.
         11    1    1    2    0    0 -0.22825419430E+02  0.11270531694E+02 -0.71234536390E+01  0.26434224947E+02  0.00000000000E+00 0. -1.
</event>
<event>
 7    1  0.2499014E-009  0.1315089E+03  0.7561462E-02  0.1225234E+00
          2   -1    0    0  501    0  0.00000000000E+00  0.00000000000E+00  0.25493163609E+03  0.25493163609E+03  0.00000000000E+00 0. -1.
         -2   -1    0    0    0  501 -0.00000000000E+00 -0.00000000000E+00 -0.93350012382E+02  0.93350012382E+02  0.00000000000E+00 0.  1.
         25    2    1    2    0    0  0.51055598874E+02 -0.86841784544E+02  0.13434784519E+03  0.20938899690E+03  0.12508492633E+03 0.  0.
          5    1    3    3  502    0  0.82412028588E+02 -0.24396748088E+02  0.49057478930E+02  0.99050756747E+02  0.41800000000E+01 0.  1.
         -5    1    3    3    0  502 -0.31356429715E+02 -0.62445036455E+02  0.85290366265E+02  0.11033824015E+03  0.41800000000E+01 0.  1.
        -11    1    1    2    0    0 -0.46948451247E+02  0.45352939174E+02 -0.26868430253E+02  0.70590075155E+02  0.00000000000E+00 0.  1.
         11    1    1    2    0    0 -0.41071476267E+01  0.41488845370E+02  0.54102208767E+02  0.68302576417E+02  0.00000000000E+00 0. -1.
</event>
<event>
 7    1  0.2499014E-009  0.8854929E+02  0.7561462E-02  0.1306403E+00
         -2   -1    0    0    0  501 -0.00000000000E+00  0.00000000000E+00  0.10909483457E+03  0.10909483457E+03  0.00000000000E+00 0.  1.
          2   -1    0    0  501    0  0.00000000000E+00 -0.00000000000E+00 -0.18397423543E+03  0.18397423543E+03  0.00000000000E+00 0. -1.
         25    2    1    2    0    0  0.29901984100E+02 -0.17485360160E+02 -0.12905513829E+03  0.18303815330E+03  0.12509144804E+03 0.  0.
          5    1    3    3  502    0 -0.14776980683E+02 -0.46027532254E+02 -0.58855064343E+01  0.48877443361E+02  0.41800000000E+01 0.  1.
         -5    1    3    3    0  502  0.44678964783E+02  0.28542172094E+02 -0.12316963185E+03  0.13416070994E+03  0.41800000000E+01 0.  1.
        -11    1    1    2    0    0  0.96490550578E+01  0.31877951776E+02 -0.86490048273E+01  0.34410948220E+02  0.00000000000E+00 0. -1.
         11    1    1    2    0    0 -0.39551039158E+02 -0.14392591616E+02  0.62824742252E+02  0.75619968467E+02  0.00000000000E+00 0.  1.
</event>
<event>
 7    1  0.2499014E-009  0.1469794E+03  0.7561462E-02  0.1204235E+00
          1   -1    0    0  501    0  0.00000000000E+00  0.00000000000E+00  0.40466959345E+03  0.40466959345E+03  0.00000000000E+00 0. -1.
         -1   -1    0    0    0  501 -0.00000000000E+00 -0.00000000000E+00 -0.73206226413E+02  0.73206226413E+02  0.00000000000E+00 0.  1.
         25    2    1    2    0    0  0.13184542654E+03 -0.12408158219E+02  0.19281300293E+03  0.26525581736E+03  0.12508643273E+03 0.  0.
          5    1    3    3  502    0  0.60400656392E+02 -0.18080634405E+02  0.40674319906E+01  0.63317967719E+02  0.41800000000E+01 0.  1.
         -5    1    3    3    0  502  0.71444770146E+02  0.56724761858E+01  0.18874557094E+03  0.20193784964E+03  0.41800000000E+01 0.  1.
        -11    1    1    2    0    0 -0.64116661727E+02 -0.38018272530E+02  0.82649843861E+02  0.11129839194E+03  0.00000000000E+00 0. -1.
         11    1    1    2    0    0 -0.67728764811E+02  0.50426430749E+02  0.56000520250E+02  0.10132161057E+03  0.00000000000E+00 0.  1.
</event>
<event>
 7    1  0.2499014E-009  0.1219427E+03  0.7561462E-02  0.1239926E+00
          1   -1    0    0  501    0  0.00000000000E+00  0.00000000000E+00  0.89900363149E+02  0.89900363149E+02  0.00000000000E+00 0. -1.
         -1   -1    0    0    0  501 -0.00000000000E+00 -0.00000000000E+00 -0.23429447656E+03  0.23429447656E+03  0.00000000000E+00 0.  1.
         25    2    1    2    0    0 -0.78137924925E+02 -0.17980591144E+02 -0.13734281365E+03  0.20233521897E+03  0.12509058879E+03 0.  0.
          5    1    3    3  502    0 -0.16217701969E+02 -0.65318445457E+02 -0.84356371507E+02  0.10799529151E+03  0.41800000000E+01 0.  1.
         -5    1    3    3    0  502 -0.61920222956E+02  0.47337854313E+02 -0.52986442144E+02  0.94339927459E+02  0.41800000000E+01 0.  1.
        -11    1    1    2    0    0  0.43517011660E+02 -0.19228046353E+02  0.32366179473E+02  0.57541442839E+02  0.00000000000E+00 0. -1.
         11    1    1    2    0    0  0.34620913265E+02  0.37208637497E+02 -0.39417479237E+02  0.64318177906E+02  0.00000000000E+00 0.  1.
</event>
<event>
 7    1  0.2499014E-009  0.7250033E+02  0.7561462E-02  0.1351791E+00
          2   -1    0    0  501    0  0.00000000000E+00  0.00000000000E+00  0.10113651021E+03  0.10113651021E+03  0.00000000000E+00 0. -1.
         -2   -1    0    0    0  501 -0.00000000000E+00 -0.00000000000E+00 -0.12417173583E+03  0.12417173583E+03  0.00000000000E+00 0.  1.
         25    2    1    2    0    0  0.11826620726E+02  0.24784597251E+02 -0.80149011586E+01  0.12832737958E+03  0.12509809147E+03 0.  0.
          5    1    3    3  502    0  0.32131602114E+02  0.14010162617E+02  0.52610093685E+02  0.63356285154E+02  0.41800000000E+01 0. -1.
         -5    1    3    3    0  502 -0.20304981388E+02  0.10774434635E+02 -0.60624994843E+02  0.64971094424E+02  0.41800000000E+01 0. -1.
        -11    1    1    2    0    0 -0.44243192324E+02  0.19951948738E+01 -0.28687963620E+02  0.52767794404E+02  0.00000000000E+00 0.  1.
         11    1    1    2    0    0  0.32416571598E+02 -0.26779792125E+02  0.13667639167E+02  0.44213072058E+02  0.00000000000E+00 0. -1.
</event>
<event>
 7    1  0.2499014E-009  0.2054233E+03  0.7561462E-02  0.1145242E+00
         -1   -1    0    0    0  501 -0.00000000000E+00  0.00000000000E+00  0.13948092391E+03  0.13948092391E+03  0.00000000000E+00 0.  1.
          1   -1    0    0  501    0  0.00000000000E+00 -0.00000000000E+00 -0.61918590399E+03  0.61918590399E+03  0.00000000000E+00 0. -1.
         25    2    1    2    0    0  0.18686820869E+03 -0.66010304732E+02 -0.24410123749E+01  0.23437177971E+03  0.12508830814E+03 0.  0.
          5    1    3    3  502    0  0.17125730275E+03 -0.52564923488E+02  0.43021775671E+02  0.18428369572E+03  0.41800000000E+01 0. -1.
         -5    1    3    3    0  502  0.15610905941E+02 -0.13445381244E+02 -0.45462788046E+02  0.50088083992E+02  0.41800000000E+01 0. -1.
        -11    1    1    2    0    0 -0.59035216620E+01  0.24187763302E+02 -0.24568764169E+02  0.34978902703E+02  0.00000000000E+00 0.  1.
         11    1    1    2    0    0 -0.18096468703E+03  0.41822541430E+02 -0.45269520354E+03  0.48931614548E+03  0.00000000000E+00 0. -1.
</event>
<event>
 7    1  0.2499014E-009  0.8872289E+02  0.7561462E-02  0.1305974E+00
          1   -1    0    0  501    0  0.00000000000E+00  0.00000000000E+00  0.43722694653E+03  0.43722694653E+03  0.00000000000E+00 0. -1.
         -1   -1    0    0    0  501 -0.00000000000E+00 -0.00000000000E+00 -0.34201946450E+02  0.34201946450E+02  0.00000000000E+00 0.  1.
         25    2    1    2    0    0  0.50918370922E+02  0.13480874624E+02  0.17997154439E+03  0.22541285112E+03  0.12508709839E+03 0.  0.
          5    1    3    3  502    0  0.74665256311E+01 -0.22962841409E+02 -0.10480549516E+02  0.26652493481E+02  0.41800000000E+01 0. -1.
         -5    1    3    3    0  502  0.43451845291E+02  0.36443716033E+02  0.19045209390E+03  0.19876035764E+03  0.41800000000E+01 0. -1.
        -11    1    1    2    0    0 -0.37325241313E+02 -0.46933515636E+02  0.89983608602E+02  0.10813407579E+03  0.00000000000E+00 0.  1.
         11    1    1    2    0    0 -0.13593129609E+02  0.33452641012E+02  0.13306984710E+03  0.13788196608E+03  0.00000000000E+00 0. -1.
</event>
<event>
 7    1  0.2499014E-009  0.1193284E+03  0.7561462E-02  0.1244209E+00
          1   -1    0    0  501    0  0.00000000000E+00  0.00000000000E+00  0.34183732636E+03  0.34183732636E+03  0.00000000000E+00 0. -1.
         -1   -1    0    0    0  501 -0.00000000000E+00 -0.00000000000E+00 -0.97147592007E+02  0.97147592007E+02  0.00000000000E+00 0.  1.
         25    2    1    2    0    0  0.91882214359E+02 -0.94985974877E+01  0.26535038407E+03  0.30755588403E+03  0.12508889163E+03 0.  0.
          5    1    3    3  502    0  0.77576619291E+00  0.36646296974E+02  0.14519017630E+03  0.14980391380E+03  0.41800000000E+01 0. -1.
         -5    1    3    3    0  502  0.91106448166E+02 -0.46144894462E+02  0.12016020776E+03  0.15775197023E+03  0.41800000000E+01 0. -1.
        -11    1    1    2    0    0 -0.50981247277E+02 -0.13353530089E+02 -0.52809868120E+02  0.74607549957E+02  0.00000000000E+00 0.  1.
         11    1    1    2    0    0 -0.40900967082E+02  0.22852127577E+02  0.32149218409E+02  0.56821484381E+02  0.00000000000E+00 0. -1.
</event>
<event>
 7    1  0.2499014E-009  0.6503337E+02  0.7561462E-02  0.1377846E+00
         -1   -1    0    0    0  501 -0.00000000000E+00  0.00000000000E+00  0.34180629899E+02  0.34180629899E+02  0.00000000000E+00 0.  1.
          1   -1    0    0  501    0  0.00000000000E+00 -0.00000000000E+00 -0.40861675180E+03  0.40861675180E+03  0.00000000000E+00 0. -1.
         25    2    1    2    0    0  0.23120725439E+02 -0.70863131865E+01 -0.13416421200E+03  0.18501892650E+03  0.12508870293E+03 0.  0.
          5    1    3    3  502    0 -0.44804884680E+01 -0.73604272023E+01  0.23251590950E+02  0.25146760173E+02  0.41800000000E+01 0.  1.
         -5    1    3    3    0  502  0.27601213907E+02  0.27411401584E+00 -0.15741580295E+03  0.15987216632E+03  0.41800000000E+01 0.  1.
        -11    1    1    2    0    0 -0.51527040757E+02 -0.18094550974E+02 -0.12476681802E+03  0.13619547563E+03  0.00000000000E+00 0. -1.
         11    1    1    2    0    0  0.28406315318E+02  0.25180864161E+02 -0.11550509189E+03  0.12158297957E+03  0.00000000000E+00 0.  1.
</event>
<event>
 7    1  0.2499014E-009  0.8074383E+02  0.7561462E-02  0.1326954E+00
         -3   -1    0    0    0  501 -0.00000000000E+00  0.00000000000E+00  0.20791809874E+02  0.20791809874E+02  0.00000000000E+00 0.  1.
          3   -1    0    0  501    0  0.00000000000E+00 -0.00000000000E+00 -0.65854088094E+03  0.65854088094E+03  0.00000000000E+00 0. -1.
         25    2    1    2    0    0 -0.33902128716E+02 -0.28020098163E+02 -0.31193069305E+03  0.33893727040E+03  0.12507292180E+03 0.  0.
          5    1    3    3  502    0  0.26330136312E+02 -0.10359974693E+02 -0.24656420255E+03  0.24821761326E+03  0.41800000000E+01 0.  1.
         -5    1    3    3    0  502 -0.60232265027E+02 -0.17660123470E+02 -0.65366490501E+02  0.90719657141E+02  0.41800000000E+01 0.  1.
        -11    1    1    2    0    0  0.48904922289E+02  0.23829609137E+02 -0.31862814881E+03  0.32323898111E+03  0.00000000000E+00 0. -1.
         11    1    1    2    0    0 -0.15002793573E+02  0.41904890258E+01 -0.71902291957E+01  0.17156439292E+02  0.00000000000E+00 0.  1.
</event>
<event>
 7    1  0.2499014E-009  0.4501578E+02  0.7561462E-02  0.1474243E+00
          2   -1    0    0  501    0  0.00000000000E+00  0.00000000000E+00  0.67844286531E+03  0.67844286531E+03  0.00000000000E+00 0. -1.
         -2   -1    0    0    0  501 -0.00000000000E+00 -0.00000000000E+00 -0.32824294787E+02  0.32824294787E+02  0.00000000000E+00 0.  1.
         25    2    1    2    0    0 -0.18654282832E+02  0.14564606937E+02  0.58604565723E+03  0.59971414720E+03  0.12508971162E+03 0.  0.
          5    1    3    3  502    0 -0.11768063802E+02  0.10265925585E+02  0.58966911468E+03  0.58989067950E+03  0.41800000000E+01 0. -1.
         -5    1    3    3    0  502 -0.68862190299E+01  0.42986813513E+01 -0.36234574469E+01  0.98234677053E+01  0.41800000000E+01 0. -1.
        -11    1    1    2    0    0  0.39701585121E+02 -0.17675612859E+02  0.74020596134E+02  0.85835259673E+02  0.00000000000E+00 0. -1.
         11    1    1    2    0    0 -0.21047302289E+02  0.31110059219E+01 -0.14447682839E+02  0.25717753225E+02  0.00000000000E+00 0.  1.
</event>
<event>
 7    1  0.2499014E-009  0.6818490E+02  0.7561462E-02  0.1366376E+00
          2   -1    0    0  501    0  0.00000000000E+00  0.00000000000E+00  0.64353751317E+02  0.64353751317E+02  0.00000000000E+00 0.  1.
         -2   -1    0    0    0  501 -0.00000000000E+00 -0.00000000000E+00 -0.25010294400E+03  0.25010294400E+03  0.00000000000E+00 0. -1.
         25    2    1    2    0    0 -0.35711869518E+02  0.40933541908E+01 -0.35344005597E+02  0.13486447377E+03  0.12508850619E+03 0.  0.
          5    1    3    3  502    0 -0.30607443699E+02  0.32231275830E+02  0.36345515159E+02  0.57568564543E+02  0.41800000000E+01 0.  1.
         -5    1    3    3    0  502 -0.51044258198E+01 -0.28137921639E+02 -0.71689520756E+02  0.77295909228E+02  0.41800000000E+01 0.  1.
        -11    1    1    2    0    0  0.13992884423E+01  0.20538260134E+02  0.27049314772E+01  0.20762822346E+02  0.00000000000E+00 0.  1.
         11    1    1    2    0    0  0.34312581076E+02 -0.24631614324E+02 -0.15311011856E+03  0.15882939920E+03  0.00000000000E+00 0. -1.
</event>
<event>
 7    1  0.2499014E-009  0.3073918E+03  0.7561462E-02  0.1081603E+00
         -1   -1    0    0    0  501 -0.00000000000E+00  0.00000000000E+00  0.52786806229E+03  0.52786806229E+03  0.00000000000E+00 0.  1.
          1   -1    0    0  501    0  0.00000000000E+00 -0.00000000000E+00 -0.19948713879E+03  0.19948713879E+03  0.00000000000E+00 0. -1.
         25    2    1    2    0    0 -0.14746309486E+02 -0.29927239806E+03  0.23033687001E+03  0.39810004849E+03  0.12508858076E+03 0.  0.
          5    1    3    3  502    0  0.57440972731E+01 -0.26429787235E+03  0.14039372475E+03  0.29935636010E+03  0.41800000000E+01 0.  1.
         -5    1    3    3    0  502 -0.20490406759E+02 -0.34974525715E+02  0.89943145263E+02  0.98743688396E+02  0.41800000000E+01 0.  1.
        -11    1    1    2    0    0  0.46577755265E+02  0.15242850005E+03  0.22138947672E+02  0.16091633826E+03  0.00000000000E+00 0. -1.
         11    1    1    2    0    0 -0.31831445779E+02  0.14684389801E+03  0.75905105808E+02  0.16833881433E+03  0.00000000000E+00 0.  1.
</event>
<event>
 7    1  0.2499014E-009  0.1103953E+03  0.7561462E-02  0.1259840E+00
          3   -1    0    0  501    0  0.00000000000E+00  0.00000000000E+00  0.42493594850E+03  0.42493594850E+03  0.00000000000E+00 0. -1.
         -3   -1    0    0    0  501 -0.00000000000E+00 -0.00000000000E+00 -0.49981461050E+02  0.49981461050E+02  0.00000000000E+00 0.  1.
         25    2    1    2    0    0  0.26215824293E+02  0.40196613608E+02  0.34346239450E+03  0.36866893617E+03  0.12508929159E+03 0.  0.
          5    1    3    3  502    0 -0.39603686230E+02  0.35571735047E+02  0.24013506825E+03  0.24600025143E+03  0.41800000000E+01 0. -1.
         -5    1    3    3    0  502  0.65819510523E+02  0.46248785608E+01  0.10332732625E+03  0.12266868475E+03  0.41800000000E+01 0. -1.
        -11    1    1    2    0    0 -0.81406782253E+01  0.28813428083E+02  0.12338772516E+02  0.32384094662E+02  0.00000000000E+00 0.  1.
         11    1    1    2    0    0 -0.18075146068E+02 -0.69010041691E+02  0.19153320430E+02  0.73864378716E+02  0.00000000000E+00 0. -1.
</event>
<event>
 7    1  0.4099763E-009  0.7802479E+02  0.7561462E-02  0.1334752E+00
         -1   -1    0    0    0  501 -0.00000000000E+00  0.00000000000E+00  0.12975851023E+02  0.12975851023E+02  0.00000000000E+00 0.  1.
          1   -1    0    0  501    0  0.00000000000E+00 -0.00000000000E+00 -0.11629863963E+04  0.11629863963E+04  0.00000000000E+00 0. -1.
         25    2    1    2    0    0  0.38656825389E+02  0.76151994060E+01 -0.84460785344E+03  0.85472951215E+03  0.12509105258E+03 0.  0.
          5    1    3    3  502    0  0.40871366754E+02 -0.15567309750E+02 -0.81777807302E+03  0.81895742189E+03  0.41800000000E+01 0. -1.
         -5    1    3    3    0  502 -0.22145413644E+01  0.23182509156E+02 -0.26829780418E+02  0.35772090259E+02  0.41800000000E+01 0. -1.
        -11    1    1    2    0    0 -0.22716627279E+02 -0.43563385910E+02 -0.92591796828E+02  0.10481915181E+03  0.00000000000E+00 0.  1.
         11    1    1    2    0    0 -0.15940198110E+02  0.35948186504E+02 -0.21281089501E+03  0.21641358336E+03  0.00000000000E+00 0. -1.
</event>
<event>
 7    1  0.2499014E-009  0.1151446E+03  0.7561462E-02  0.1251329E+00
         -2   -1    0    0    0  501 -0.00000000000E+00  0.00000000000E+00  0.49289836680E+03  0.49289836680E+03  0.00000000000E+00 0.  1.
          2   -1    0    0  501    0  0.00000000000E+00 -0.00000000000E+00 -0.30739666942E+02  0.30739666942E+02  0.00000000000E+00 0. -1.
         25    2    1    2    0    0 -0.37251660731E+02  0.22891438952E+02  0.17484010099E+03  0.21938917657E+03  0.12510333998E+03 0.  0.
          5    1    3    3  502    0 -0.70945185787E+02  0.50785402294E+02  0.10167756784E+03  0.13404542765E+03  0.41800000000E+01 0. -1.
         -5    1    3    3    0  502  0.33693525056E+02 -0.27893963342E+02  0.73162533155E+02  0.85343748918E+02  0.41800000000E+01 0. -1.
        -11    1    1    2    0    0  0.65521208995E+02 -0.53716122158E+01  0.16872692695E+03  0.18108191219E+03  0.00000000000E+00 0.  1.
         11    1    1    2    0    0 -0.28269548264E+02 -0.17519826736E+02  0.11859167192E+03  0.12316694498E+03  0.00000000000E+00 0. -1.
</event>
<event>
 7    1  0.2499014E-009  0.1551533E+03  0.7561462E-02  0.1194280E+00
          1   -1    0    0  501    0  0.00000000000E+00  0.00000000000E+00  0.13850557775E+03  0.13850557775E+03  0.00000000000E+00 0. -1.
         -1   -1    0    0    0  501 -0.00000000000E+00 -0.00000000000E+00 -0.21286709177E+03  0.21286709177E+03  0.00000000000E+00 0.  1.
         25    2    1    2    0    0 -0.50085019460E+02  0.12234077706E+03 -0.39061824721E+02  0.18613744304E+03  0.12508215958E+03 0.  0.
          5    1    3    3  502    0 -0.51457601882E+02 -0.75538854850E+00 -0.35964855026E+02  0.62923752275E+02  0.41800000000E+01 0.  1.
         -5    1    3    3    0  502  0.13725824225E+01  0.12309616561E+03 -0.30969696953E+01  0.12321369077E+03  0.41800000000E+01 0.  1.
        -11    1    1    2    0    0  0.37663532976E+02 -0.52793221560E+02 -0.61990476046E+02  0.89713349505E+02  0.00000000000E+00 0.  1.
         11    1    1    2    0    0  0.12421486483E+02 -0.69547555504E+02  0.26690786747E+02  0.75521876964E+02  0.00000000000E+00 0. -1.
</event>
<event>
 7    1  0.2499014E-009  0.1011684E+03  0.7561462E-02  0.1277858E+00
         -2   -1    0    0    0  501 -0.00000000000E+00  0.00000000000E+00  0.54070534480E+02  0.54070534480E+02  0.00000000000E+00 0.  1.
          2   -1    0    0  501    0  0.00000000000E+00 -0.00000000000E+00 -0.28295035437E+03  0.28295035437E+03  0.00000000000E+00 0. -1.
         25    2    1    2    0    0 -0.14911128274E+02  0.53489403315E+02 -0.17180335503E+03  0.21964645535E+03  0.12507883329E+03 0.  0.
          5    1    3    3  502    0  0.44730029766E+02 -0.12206748000E+02 -0.44389485354E+02  0.64324793583E+02  0.41800000000E+01 0.  1.
         -5    1    3    3    0  502 -0.59641158040E+02  0.65696151314E+02 -0.12741386967E+03  0.15532166177E+03  0.41800000000E+01 0.  1.
        -11    1    1    2    0    0  0.25970780966E+02 -0.23627815456E+02 -0.73565556844E+02  0.81514699785E+02  0.00000000000E+00 0. -1.
         11    1    1    2    0    0 -0.11059652692E+02 -0.29861587859E+02  0.16489091985E+02  0.35859733708E+02  0.00000000000E+00 0.  1.
</event>
<event>
 7    1  0.2499014E-009  0.2934820E+03  0.7561462E-02  0.1088545E+00
          2   -1    0    0  501    0  0.00000000000E+00  0.00000000000E+00  0.11457424476E+04  0.11457424476E+04  0.00000000000E+00 0. -1.
         -2   -1    0    0    0  501 -0.00000000000E+00 -0.00000000000E+00 -0.14472550833E+03  0.14472550833E+03  0.00000000000E+00 0.  1.
         25    2    1    2    0    0 -0.18270611665E+03  0.22511152106E+03  0.92429260818E+03  0.97673994545E+03  0.12508946204E+03 0.  0.
          5    1    3    3  502    0 -0.41835482304E+02  0.20429355083E+02  0.31919156115E+03  0.32259617363E+03  0.41800000000E+01 0.  1.
         -5    1    3    3    0  502 -0.14087063434E+03  0.20468216598E+03  0.60510104703E+03  0.65414377182E+03  0.41800000000E+01 0.  1.
        -11    1    1    2    0    0  0.56570964891E+01 -0.19853311296E+02  0.33336400039E+02  0.39210614349E+02  0.00000000000E+00 0. -1.
         11    1    1    2    0    0  0.17704902016E+03 -0.20525820977E+03  0.43387931050E+02  0.27451739613E+03  0.00000000000E+00 0.  1.
</event>
<event>
 7    1  0.2499014E-009  0.1072093E+03  0.7561462E-02  0.1265827E+00
         -1   -1    0    0    0  501 -0.00000000000E+00  0.00000000000E+00  0.36569877190E+03  0.36569877190E+03  0.00000000000E+00 0.  1.
          1   -1    0    0  501    0  0.00000000000E+00 -0.00000000000E+00 -0.38623790245E+02  0.38623790245E+02  0.00000000000E+00 0. -1.
         25    2    1    2    0    0 -0.33329714081E+02 -0.26288721757E+02  0.20924189284E+03  0.24745015126E+03  0.12508973143E+03 0.  0.
          5    1    3    3  502    0 -0.58852600319E+02 -0.63205480349E+02  0.14804505109E+03  0.17144494995E+03  0.41800000000E+01 0.  1.
         -5    1    3    3    0  502  0.25522886238E+02  0.36916758592E+02  0.61196841751E+02  0.76005201316E+02  0.41800000000E+01 0.  1.
        -11    1    1    2    0    0 -0.17632385034E+02  0.26603953096E+02  0.96470383148E+02  0.10161302154E+03  0.00000000000E+00 0.  1.
         11    1    1    2    0    0  0.50962099115E+02 -0.31523133911E+00  0.21362705670E+02  0.55259389343E+02  0.00000000000E+00 0. -1.
</event>
<event>
 7    1  0.2499014E-009  0.9814902E+02  0.7561462E-02  0.1284237E+00
         -1   -1    0    0    0  501 -0.00000000000E+00  0.00000000000E+00  0.10073284443E+03  0.10073284443E+03  0.00000000000E+00 0.  1.
          1   -1    0    0  501    0  0.00000000000E+00 -0.00000000000E+00 -0.14394401625E+03  0.14394401625E+03  0.00000000000E+00 0. -1.
         25    2    1    2    0    0 -0.28161160682E+02  0.46123826926E+02 -0.55110891568E+02  0.14698593888E+03  0.12508875840E+03 0.  0.
          5    1    3    3  502    0  0.40673850171E+02 -0.11017182009E+02 -0.35608806930E+02  0.55328111464E+02  0.41800000000E+01 0.  1.
         -5    1    3    3    0  502 -0.68835010853E+02  0.57141008935E+02 -0.19502084639E+02  0.91657827416E+02  0.41800000000E+01 0.  1.
        -11    1    1    2    0    0  0.14050216656E+02 -0.48130849317E+02  0.41338350618E+02  0.64983432318E+02  0.00000000000E+00 0.  1.
         11    1    1    2    0    0  0.14110944026E+02  0.20070223909E+01 -0.29438630875E+02  0.32707489478E+02  0.00000000000E+00 0. -1.
</event>
<event>
 7    1  0.2499014E-009  0.7703599E+02  0.7561462E-02  0.1337680E+00
         -2   -1    0    0    0  501 -0.00000000000E+00  0.00000000000E+00  0.14056691103E+02  0.14056691103E+02  0.00000000000E+00 0.  1.
          2   -1    0    0  501    0  0.00000000000E+00 -0.00000000000E+00 -0.86190986880E+03  0.86190986880E+03  0.00000000000E+00 0. -1.
         25    2    1    2    0    0  0.18014048127E+02 -0.34029517900E+02 -0.59652658780E+03  0.61071520163E+03  0.12508626436E+03 0.  0.
          5    1    3    3  502    0 -0.29411981157E+02 -0.24268379461E+02 -0.55249735893E+02  0.67260869705E+02  0.41800000000E+01 0. -1.
         -5    1    3    3    0  502  0.47426029284E+02 -0.97611384383E+01 -0.54127685190E+03  0.54345433192E+03  0.41800000000E+01 0. -1.
        -11    1    1    2    0    0  0.19877586507E+02  0.10097336436E+02 -0.21077548012E+02  0.30681226812E+02  0.00000000000E+00 0.  1.
         11    1    1    2    0    0 -0.37891634634E+02  0.23932181464E+02 -0.23024904189E+03  0.23457013147E+03  0.00000000000E+00 0. -1.
</event>
<event>
 7    1  0.2499014E-009  0.1963530E+03  0.7561462E-02  0.1152853E+00
          1   -1    0    0  501    0  0.00000000000E+00  0.00000000000E+00  0.10818207431E+03  0.10818207431E+03  0.00000000000E+00 0. -1.
         -1   -1    0    0    0  501 -0.00000000000E+00 -0.00000000000E+00 -0.46515376460E+03  0.46515376460E+03  0.00000000000E+00 0.  1.
         25    2    1    2    0    0 -0.17503560902E+03  0.55140725394E+02 -0.10210049308E+03  0.24443847372E+03  0.12509073797E+03 0.  0.
          5    1    3    3  502    0 -0.17448098155E+03  0.27905267160E+02 -0.11809786614E+03  0.21257209423E+03  0.41800000000E+01 0.  1.
         -5    1    3    3    0  502 -0.55462746322E+00  0.27235458233E+02  0.15997373058E+02  0.31866379486E+02  0.41800000000E+01 0.  1.
        -11    1    1    2    0    0  0.66923202720E+02 -0.43138097467E+02 -0.18005850740E+03  0.19687731358E+03  0.00000000000E+00 0.  1.
         11    1    1    2    0    0  0.10811240630E+03 -0.12002627926E+02 -0.74812689811E+02  0.13202005162E+03  0.00000000000E+00 0. -1.
</event>
<event>
 7    1  0.2499014E-009  0.1437120E+03  0.7561462E-02  0.1208420E+00
         -1   -1    0    0    0  501 -0.00000000000E+00  0.00000000000E+00  0.10879954723E+04  0.10879954723E+04  0.00000000000E+00 0.  1.
          1   -1    0    0  501    0  0.00000000000E+00 -0.00000000000E+00 -0.19942944843E+02  0.19942944843E+02  0.00000000000E+00 0. -1.
         25    2    1    2    0    0  0.91284242806E+02  0.21327428887E+02  0.67500866207E+03  0.69286947172E+03  0.12507493256E+03 0.  0.
          5    1    3    3  502    0  0.12016459717E+03  0.29642632357E+02  0.49101188400E+03  0.50638755780E+03  0.41800000000E+01 0. -1.
         -5    1    3    3    0  502 -0.28880354361E+02 -0.83152034704E+01  0.18399677808E+03  0.18648191392E+03  0.41800000000E+01 0. -1.
        -11    1    1    2    0    0  0.19729855300E+02 -0.85288146866E+01  0.71410820140E+02  0.74575552986E+02  0.00000000000E+00 0.  1.
         11    1    1    2    0    0 -0.11101409811E+03 -0.12798614200E+02  0.32163304525E+03  0.34049339245E+03  0.00000000000E+00 0. -1.
</event>
<event>
 7    1  0.2499014E-009  0.1084120E+03  0.7561462E-02  0.1263539E+00
         -2   -1    0    0    0  501 -0.00000000000E+00  0.00000000000E+00  0.17688687576E+02  0.17688687576E+02  0.00000000000E+00 0.  1.
          2   -1    0    0  501    0  0.00000000000E+00 -0.00000000000E+00 -0.75999309526E+03  0.75999309526E+03  0.00000000000E+00 0. -1.
         25    2    1    2    0    0 -0.48063664826E+01  0.43146883298E+02 -0.45607248235E+03  0.47490390685E+03  0.12508739701E+03 0.  0.
          5    1    3    3  502    0  0.42322628538E+02  0.58199532377E+02 -0.35560777036E+03  0.36283983960E+03  0.41800000000E+01 0.  1.
         -5    1    3    3    0  502 -0.47128995020E+02 -0.15052649079E+02 -0.10046471198E+03  0.11206406726E+03  0.41800000000E+01 0.  1.
        -11    1    1    2    0    0  0.28392960736E+02  0.15165224673E+02 -0.13888276955E+03  0.14256425897E+03  0.00000000000E+00 0.  1.
         11    1    1    2    0    0 -0.23586594253E+02 -0.58312107971E+02 -0.14734915578E+03  0.16021361701E+03  0.00000000000E+00 0. -1.
</event>
<event>
 7    1  0.2499014E-009  0.7227740E+02  0.7561462E-02  0.1352516E+00
         -3   -1    0    0    0  501 -0.00000000000E+00  0.00000000000E+00  0.20582584666E+03  0.20582584666E+03  0.00000000000E+00 0.  1.
          3   -1    0    0  501    0  0.00000000000E+00 -0.00000000000E+00 -0.66784685596E+02  0.66784685596E+02  0.00000000000E+00 0. -1.
         25    2    1    2    0    0  0.44584023999E+02 -0.33709654651E+00  0.61018812391E+02  0.14614524713E+03  0.12508912408E+03 0.  0.
          5    1    3    3  502    0  0.13987405545E+02 -0.25485340538E+02  0.91433059754E+02  0.96034508966E+02  0.41800000000E+01 0.  1.
         -5    1    3    3    0  502  0.30596618453E+02  0.25148243992E+02 -0.30414247364E+02  0.50110738164E+02  0.41800000000E+01 0.  1.
        -11    1    1    2    0    0 -0.53372556153E+01 -0.27004763469E+02  0.73422155410E+02  0.78412731444E+02  0.00000000000E+00 0.  1.
         11    1    1    2    0    0 -0.39246768384E+02  0.27341860016E+02  0.46001932675E+01  0.48052553686E+02  0.00000000000E+00 0. -1.
</event>
<event>
 7    1  0.2499014E-009  0.1122107E+03  0.7561462E-02  0.1256530E+00
         -1   -1    0    0    0  501 -0.00000000000E+00  0.00000000000E+00  0.11706743810E+03  0.11706743810E+03  0.00000000000E+00 0.  1.
          1   -1    0    0  501    0  0.00000000000E+00 -0.00000000000E+00 -0.12436386251E+03  0.12436386251E+03  0.00000000000E+00 0. -1.
         25    2    1    2    0    0 -0.46949389754E+02  0.26262461381E+02  0.17255251306E+01  0.13617503533E+03  0.12508677282E+03 0.  0.
          5    1    3    3  502    0  0.26244532934E+02  0.37902522281E+02 -0.30304312967E+02  0.55328116619E+02  0.41800000000E+01 0.  1.
         -5    1    3    3    0  502 -0.73193922689E+02 -0.11640060900E+02  0.32029838098E+02  0.80846918710E+02  0.41800000000E+01 0.  1.
        -11    1    1    2    0    0  0.67671994592E+02  0.33512229307E+01  0.95070574044E+00  0.67761592282E+02  0.00000000000E+00 0.  1.
         11    1    1    2    0    0 -0.20722604838E+02 -0.29613684311E+02 -0.99726552900E+01  0.37494672999E+02  0.00000000000E+00 0. -1.
</event>
<event>
 7    1  0.2499014E-009  0.1101367E+03  0.7561462E-02  0.1260317E+00
         -1   -1    0    0    0  501 -0.00000000000E+00  0.00000000000E+00  0.31247970681E+03  0.31247970681E+03  0.00000000000E+00 0.  1.
          1   -1    0    0  501    0  0.00000000000E+00 -0.00000000000E+00 -0.71514153652E+02  0.71514153652E+02  0.00000000000E+00 0. -1.
         25    2    1    2    0    0 -0.11373476356E+02 -0.63586026372E+02  0.55145730623E+02  0.15119788424E+03  0.12508880796E+03 0.  0.
          5    1    3    3  502    0 -0.23121772046E+02  0.13727002925E+02 -0.26557885626E+02  0.38024211245E+02  0.41800000000E+01 0.  1.
         -5    1    3    3    0  502  0.11748295691E+02 -0.77313029297E+02  0.81703616249E+02  0.11317367299E+03  0.41800000000E+01 0.  1.
        -11    1    1    2    0    0  0.43391345355E+02  0.69747558005E+02  0.57172520292E+02  0.10008110599E+03  0.00000000000E+00 0. -1.
         11    1    1    2    0    0 -0.32017868999E+02 -0.61615316329E+01  0.12864730225E+03  0.13271487024E+03  0.00000000000E+00 0.  1.
</event>
<event>
 7    1  0.2499014E-009  0.1011408E+03  0.7561462E-02  0.1277915E+00
          3   -1    0    0  501    0  0.00000000000E+00  0.00000000000E+00  0.11723602572E+03  0.11723602572E+03  0.00000000000E+00 0. -1.
         -3   -1    0    0    0  501 -0.00000000000E+00 -0.00000000000E+00 -0.12096074797E+03  0.12096074797E+03  0.00000000000E+00 0.  1.
         25    2    1    2    0    0 -0.37020184723E+02  0.29139995746E+02  0.17056625087E+02  0.13475225301E+03  0.12509039852E+03 0.  0.
          5    1    3    3  502    0 -0.58673573250E+02  0.51857397039E+02 -0.24822359429E+02  0.82252050146E+02  0.41800000000E+01 0.  1.
         -5    1    3    3    0  502  0.21653388527E+02 -0.22717401293E+02  0.41878984516E+02  0.52500202860E+02  0.41800000000E+01 0.  1.
        -11    1    1    2    0    0  0.53573864377E+02 -0.44482069695E+02 -0.33784869258E+02  0.77396581704E+02  0.00000000000E+00 0.  1.
         11    1    1    2    0    0 -0.16553679654E+02  0.15342073949E+02  0.13003521915E+02  0.26047938984E+02  0.00000000000E+00 0. -1.
</event>
<event>
 7    1  0.2499014E-009  0.1181474E+03  0.7561462E-02  0.1246185E+00
         -1   -1    0    0    0  501 -0.00000000000E+00  0.00000000000E+00  0.15688499174E+02  0.15688499174E+02  0.00000000000E+00 0.  1.
          1   -1    0    0  501    0  0.00000000000E+00 -0.00000000000E+00 -0.14023925861E+04  0.14023925861E+04  0.00000000000E+00 0. -1.
         25    2    1    2    0    0 -0.57230385181E+02  0.59800376672E+01 -0.11061918470E+04  0.11147283877E+04  0.12509155958E+03 0.  0.
          5    1    3    3  502    0  0.26254418971E+02 -0.23747674028E+02 -0.13981672470E+03  0.14428941556E+03  0.41800000000E+01 0. -1.
         -5    1    3    3    0  502 -0.83484804152E+02  0.29727711695E+02 -0.96637512228E+03  0.97043897218E+03  0.41800000000E+01 0. -1.
        -11    1    1    2    0    0 -0.76098889494E+01  0.34607030815E+02 -0.12680372895E+03  0.13166146994E+03  0.00000000000E+00 0. -1.
         11    1    1    2    0    0  0.64840274130E+02 -0.40587068482E+02 -0.15370851098E+03  0.17169122757E+03  0.00000000000E+00 0.  1.
</event>
<event>
 7    1  0.2499014E-009  0.1510306E+03  0.7561462E-02  0.1199212E+00
         -2   -1    0    0    0  501 -0.00000000000E+00  0.00000000000E+00  0.32108869716E+03  0.32108869716E+03  0.00000000000E+00 0.  1.
          2   -1    0    0  501    0  0.00000000000E+00 -0.00000000000E+00 -0.11421097327E+03  0.11421097327E+03  0.00000000000E+00 0. -1.
         25    2    1    2    0    0 -0.93272886291E+02 -0.99108549064E+02  0.19128055300E+02  0.18583763330E+03  0.12508959844E+03 0.  0.
          5    1    3    3  502    0 -0.72742188814E+01 -0.38242502840E+02 -0.47157280465E+02  0.61291800305E+02  0.41800000000E+01 0. -1.
         -5    1    3    3    0  502 -0.85998667410E+02 -0.60866046224E+02  0.66285335765E+02  0.12454583300E+03  0.41800000000E+01 0. -1.
        -11    1    1    2    0    0  0.85362103051E+02  0.34006095990E+02  0.14332591963E+03  0.17025105708E+03  0.00000000000E+00 0.  1.
         11    1    1    2    0    0  0.79107832407E+01  0.65102453075E+02  0.44423748964E+02  0.79210980046E+02  0.00000000000E+00 0. -1.
</event>
<event>
 7    1  0.2499014E-009  0.1324436E+03  0.7561462E-02  0.1223874E+00
         -3   -1    0    0    0  501 -0.00000000000E+00  0.00000000000E+00  0.45106783680E+02  0.45106783680E+02  0.00000000000E+00 0.  1.
          3   -1    0    0  501    0  0.00000000000E+00 -0.00000000000E+00 -0.56470452942E+03  0.56470452942E+03  0.00000000000E+00 0. -1.
         25    2    1    2    0    0 -0.76121978146E+02  0.88051415631E+02 -0.24842360613E+03  0.30150853810E+03  0.12508198558E+03 0.  0.
          5    1    3    3  502    0  0.15716951860E+02  0.36287299822E+02 -0.15682671532E+03  0.16178962186E+03  0.41800000000E+01 0.  1.
         -5    1    3    3    0  502 -0.91838930006E+02  0.51764115809E+02 -0.91596890808E+02  0.13971891624E+03  0.41800000000E+01 0.  1.
        -11    1    1    2    0    0  0.55878802926E+02 -0.80537329135E+02 -0.26935082661E+03  0.28663316242E+03  0.00000000000E+00 0. -1.
         11    1    1    2    0    0  0.20243175220E+02 -0.75140864968E+01 -0.18233129948E+01  0.21669612575E+02  0.00000000000E+00 0.  1.
</event>
<event>
 7    1  0.2499014E-009  0.9467831E+02  0.7561462E-02  0.1291902E+00
          1   -1    0    0  501    0  0.00000000000E+00  0.00000000000E+00  0.52193856751E+03  0.52193856751E+03  0.00000000000E+00 0. -1.
         -1   -1    0    0    0  501 -0.00000000000E+00 -0.00000000000E+00 -0.42026917638E+02  0.42026917638E+02  0.00000000000E+00 0.  1.
         25    2    1    2    0    0  0.11623133926E+02 -0.71784739479E+02  0.39064533676E+03  0.41658061816E+03  0.12508991256E+03 0.  0.
          5    1    3    3  502    0  0.13617712940E+02 -0.66521532377E+02  0.39952011911E+03  0.40527071736E+03  0.41800000000E+01 0.  1.
         -5    1    3    3    0  502 -0.19945790132E+01 -0.52632071025E+01 -0.88747823439E+01  0.11309900800E+02  0.41800000000E+01 0.  1.
        -11    1    1    2    0    0 -0.50012957650E+02  0.34179652398E+02  0.30744056308E+02  0.67931889193E+02  0.00000000000E+00 0. -1.
         11    1    1    2    0    0  0.38389823724E+02  0.37605087081E+02  0.58522256798E+02  0.79452977796E+02  0.00000000000E+00 0.  1.
</event>
<event>
 7    1  0.2499014E-009  0.2896141E+03  0.7561462E-02  0.1090551E+00
          2   -1    0    0  501    0  0.00000000000E+00  0.00000000000E+00  0.21277483845E+03  0.21277483845E+03  0.00000000000E+00 0. -1.
         -2   -1    0    0    0  501 -0.00000000000E+00 -0.00000000000E+00 -0.44625743917E+03  0.44625743917E+03  0.00000000000E+00 0.  1.
         25    2    1    2    0    0 -0.24512779527E+03 -0.14917351078E+03 -0.14686768275E+03  0.34577160898E+03  0.12509003561E+03 0.  0.
          5    1    3    3  502    0 -0.23973361171E+03 -0.14368705774E+03 -0.98127272458E+02  0.29625092261E+03  0.41800000000E+01 0. -1.
         -5    1    3    3    0  502 -0.53941835571E+01 -0.54864530376E+01 -0.48740410293E+02  0.49520686371E+02  0.41800000000E+01 0. -1.
        -11    1    1    2    0    0  0.10985373145E+03  0.39303549236E+02 -0.74795061560E+02  0.13858900581E+03  0.00000000000E+00 0.  1.
         11    1    1    2    0    0  0.13527406381E+03  0.10986996154E+03 -0.11819856410E+02  0.17467166283E+03  0.00000000000E+00 0. -1.
</event>
<event>
 7    1  0.2499014E-009  0.9714268E+02  0.7561462E-02  0.1286422E+00
         -1   -1    0    0    0  501 -0.00000000000E+00  0.00000000000E+00  0.25573547316E+02  0.25573547316E+02  0.00000000000E+00 0. -1.
          1   -1    0    0  501    0  0.00000000000E+00 -0.00000000000E+00 -0.98438434814E+03  0.98438434814E+03  0.00000000000E+00 0.  1.
         25    2    1    2    0    0 -0.25950354361E+02 -0.40345769524E+02 -0.85566188791E+03  0.86608652963E+03  0.12508960143E+03 0.  0.
          5    1    3    3  502    0  0.34941001920E+02  0.79087753093E+01 -0.53132156986E+03  0.53254436936E+03  0.41800000000E+01 0. -1.
         -5    1    3    3    0  502 -0.60891356281E+02 -0.48254544833E+02 -0.32434031805E+03  0.33354216027E+03  0.41800000000E+01 0. -1.
        -11    1    1    2    0    0  0.28209884902E+02 -0.10064009443E+02 -0.10339803025E+01  0.29969167615E+02  0.00000000000E+00 0. -1.
         11    1    1    2    0    0 -0.22595305408E+01  0.50409778967E+02 -0.10211493261E+03  0.11390219820E+03  0.00000000000E+00 0.  1.
</event>
<event>
 7    1  0.2499014E-009  0.1069518E+03  0.7561462E-02  0.1266321E+00
         -1   -1    0    0    0  501 -0.00000000000E+00  0.00000000000E+00  0.21071352658E+02  0.21071352658E+02  0.00000000000E+00 0.  1.
          1   -1    0    0  501    0  0.00000000000E+00 -0.00000000000E+00 -0.71844090456E+03  0.71844090456E+03  0.00000000000E+00 0. -1.
         25    2    1    2    0    0  0.23044382628E+02 -0.49934065554E+02 -0.40952810955E+03  0.43172398583E+03  0.12509145837E+03 0.  0.
          5    1    3    3  502    0  0.30130011938E+02 -0.86101140689E+02 -0.21335973486E+03  0.23207988476E+03  0.41800000000E+01 0.  1.
         -5    1    3    3    0  502 -0.70856293104E+01  0.36167075136E+02 -0.19616837468E+03  0.19964410107E+03  0.41800000000E+01 0.  1.
        -11    1    1    2    0    0  0.22798704873E+02  0.10827855224E+02 -0.17255239257E+02  0.30573954184E+02  0.00000000000E+00 0.  1.
         11    1    1    2    0    0 -0.45843087500E+02  0.39106210330E+02 -0.27058620310E+03  0.27721431721E+03  0.00000000000E+00 0. -1.
</event>
<event>
 7    1  0.2499014E-009  0.1138070E+03  0.7561462E-02  0.1253678E+00
          2   -1    0    0  501    0  0.00000000000E+00  0.00000000000E+00  0.66760209559E+03  0.66760209559E+03  0.00000000000E+00 0. -1.
         -2   -1    0    0    0  501 -0.00000000000E+00 -0.00000000000E+00 -0.22850310205E+02  0.22850310205E+02  0.00000000000E+00 0.  1.
         25    2    1    2    0    0  0.44809276048E+02  0.35752153100E+02  0.33173084710E+03  0.35913713812E+03  0.12509213158E+03 0.  0.
          5    1    3    3  502    0  0.11256906494E+02 -0.37348811616E+02  0.20684138367E+03  0.21052905280E+03  0.41800000000E+01 0. -1.
         -5    1    3    3    0  502  0.33552369553E+02  0.73100964716E+02  0.12488946343E+03  0.14860808532E+03  0.41800000000E+01 0. -1.
        -11    1    1    2    0    0  0.10172973768E+02 -0.50014448171E+02  0.12909868535E+03  0.13882148602E+03  0.00000000000E+00 0.  1.
         11    1    1    2    0    0 -0.54982249816E+02  0.14262295070E+02  0.18392225293E+03  0.19249378166E+03  0.00000000000E+00 0. -1.
</event>
<event>
 7    1  0.2499014E-009  0.1910246E+03  0.7561462E-02  0.1157540E+00
          1   -1    0    0  501    0  0.00000000000E+00  0.00000000000E+00  0.15720079549E+03  0.15720079549E+03  0.00000000000E+00 0. -1.
         -1   -1    0    0    0  501 -0.00000000000E+00 -0.00000000000E+00 -0.53033373917E+03  0.53033373917E+03  0.00000000000E+00 0.  1.
         25    2    1    2    0    0  0.15308793790E+03 -0.48907322620E+02 -0.44377689728E+03  0.48827544801E+03  0.12508851119E+03 0.  0.
          5    1    3    3  502    0  0.77471921804E+02 -0.84764843490E+02 -0.20208779342E+03  0.23247349528E+03  0.41800000000E+01 0.  1.
         -5    1    3    3    0  502  0.75616016092E+02  0.35857520871E+02 -0.24168910387E+03  0.25580195273E+03  0.41800000000E+01 0.  1.
        -11    1    1    2    0    0 -0.11528416949E+03 -0.74055036340E+01  0.27095620939E+02  0.11865687461E+03  0.00000000000E+00 0.  1.
         11    1    1    2    0    0 -0.37803768408E+02  0.56312826254E+02  0.43548332672E+02  0.80602212035E+02  0.00000000000E+00 0. -1.
</event>
<event>
 7    1  0.2499014E-009  0.1068610E+03  0.7561462E-02  0.1266496E+00
         -2   -1    0    0    0  501 -0.00000000000E+00  0.00000000000E+00  0.19557091420E+03  0.19557091420E+03  0.00000000000E+00 0. -1.
          2   -1    0    0  501    0  0.00000000000E+00 -0.00000000000E+00 -0.78024508483E+02  0.78024508483E+02  0.00000000000E+00 0.  1.
         25    2    1    2    0    0 -0.11535868814E+02  0.37151331008E+02  0.11565802169E+03  0.17475522790E+03  0.12509721832E+03 0.  0.
          5    1    3    3  502    0 -0.57929853972E+02  0.35942754427E+02  0.10762683152E+03  0.12747061167E+03  0.41800000000E+01 0. -1.
         -5    1    3    3    0  502  0.46393985158E+02  0.12085765807E+01  0.80311901689E+01  0.47284616227E+02  0.41800000000E+01 0. -1.
        -11    1    1    2    0    0 -0.38866376129E+02 -0.53677405140E+01  0.68168603531E+00  0.39241209557E+02  0.00000000000E+00 0. -1.
         11    1    1    2    0    0  0.50402244944E+02 -0.31783590494E+02  0.12066979937E+01  0.59598985227E+02  0.00000000000E+00 0.  1.
</event>
<event>
 7    1  0.2499014E-009  0.1193295E+03  0.7561462E-02  0.1244207E+00
         -1   -1    0    0    0  501 -0.00000000000E+00  0.00000000000E+00  0.12209822952E+03  0.12209822952E+03  0.00000000000E+00 0.  1.
          1   -1    0    0  501    0  0.00000000000E+00 -0.00000000000E+00 -0.17461382654E+03  0.17461382654E+03  0.00000000000E+00 0. -1.
         25    2    1    2    0    0  0.56742892026E+02  0.78235215610E+02 -0.47523994169E+02  0.16506961298E+03  0.12509573274E+03 0.  0.
          5    1    3    3  502    0  0.59431853829E+02  0.46384134754E+02 -0.86283897376E+02  0.11465607944E+03  0.41800000000E+01 0.  1.
         -5    1    3    3    0  502 -0.26889618030E+01  0.31851080856E+02  0.38759903208E+02  0.50413533540E+02  0.41800000000E+01 0.  1.
        -11    1    1    2    0    0 -0.79971452124E+02 -0.69974290039E+02  0.10133772901E+01  0.10626787546E+03  0.00000000000E+00 0. -1.
         11    1    1    2    0    0  0.23228560097E+02 -0.82609255711E+01 -0.60049801340E+01  0.25374567620E+02  0.00000000000E+00 0.  1.
</event>
<event>
 7    1  0.2499014E-009  0.1191442E+03  0.7561462E-02  0.1244516E+00
         -1   -1    0    0    0  501 -0.00000000000E+00  0.00000000000E+00  0.19674657476E+02  0.19674657476E+02  0.00000000000E+00 0.  1.
          1   -1    0    0  501    0  0.00000000000E+00 -0.00000000000E+00 -0.11573380471E+04  0.11573380471E+04  0.00000000000E+00 0. -1.
         25    2    1    2    0    0  0.52843944765E+02 -0.87111434586E+02 -0.72800069207E+03  0.74566517910E+03  0.12510262635E+03 0.  0.
          5    1    3    3  502    0  0.31283511196E+01 -0.15832108927E+02 -0.49380165638E+01  0.17386738089E+02  0.41800000000E+01 0. -1.
         -5    1    3    3    0  502  0.49715593645E+02 -0.71279325659E+02 -0.72306267551E+03  0.72827844101E+03  0.41800000000E+01 0. -1.
        -11    1    1    2    0    0 -0.72701064059E+02  0.38860086704E+02 -0.26738367134E+03  0.27980274972E+03  0.00000000000E+00 0.  1.
         11    1    1    2    0    0  0.19857119294E+02  0.48251347882E+02 -0.14227902617E+03  0.15154477572E+03  0.00000000000E+00 0. -1.
</event>
<event>
 7    1  0.2499014E-009  0.1816121E+03  0.7561462E-02  0.1166252E+00
          1   -1    0    0  501    0  0.00000000000E+00  0.00000000000E+00  0.63176999752E+02  0.63176999752E+02  0.00000000000E+00 0. -1.
         -1   -1    0    0    0  501 -0.00000000000E+00 -0.00000000000E+00 -0.69836801901E+03  0.69836801901E+03  0.00000000000E+00 0.  1.
         25    2    1    2    0    0 -0.62886136023E+02 -0.14708552135E+03 -0.47692490794E+03  0.51835675495E+03  0.12509013106E+03 0.  0.
          5    1    3    3  502    0  0.25622470477E+02  0.51776203082E+01 -0.51699019359E+02  0.58082525325E+02  0.41800000000E+01 0.  1.
         -5    1    3    3    0  502 -0.88508606500E+02 -0.15226314165E+03 -0.42522588858E+03  0.46027422962E+03  0.41800000000E+01 0.  1.
        -11    1    1    2    0    0  0.21030274865E+02  0.33751755751E+02  0.50011919615E+01  0.40080735999E+02  0.00000000000E+00 0.  1.
         11    1    1    2    0    0  0.41855861158E+02  0.11333376560E+03 -0.16326730328E+03  0.20310752782E+03  0.00000000000E+00 0. -1.
</event>
<event>
 7    1  0.2499014E-009  0.2022638E+03  0.7561462E-02  0.1147843E+00
         -1   -1    0    0    0  501 -0.00000000000E+00  0.00000000000E+00  0.72849118456E+02  0.72849118456E+02  0.00000000000E+00 0.  1.
          1   -1    0    0  501    0  0.00000000000E+00 -0.00000000000E+00 -0.77086727651E+03  0.77086727651E+03  0.00000000000E+00 0. -1.
         25    2    1    2    0    0 -0.19149274090E+03  0.39595420443E+00 -0.51339226936E+03  0.56203859709E+03  0.12508451459E+03 0.  0.
          5    1    3    3  502    0 -0.22250676586E+02 -0.31411802828E+01 -0.23559792611E+03  0.23670406589E+03  0.41800000000E+01 0.  1.
         -5    1    3    3    0  502 -0.16924206431E+03  0.35371344872E+01 -0.27779434325E+03  0.32533453120E+03  0.41800000000E+01 0.  1.
        -11    1    1    2    0    0  0.33065661908E+01 -0.22607293418E+02 -0.25455954393E+02  0.34205682419E+02  0.00000000000E+00 0.  1.
         11    1    1    2    0    0  0.18818617471E+03  0.22211339214E+02 -0.15916993430E+03  0.24747211545E+03  0.00000000000E+00 0. -1.
</event>
<event>
 7    1  0.2642805E-009  0.1030136E+03  0.7561462E-02  0.1274083E+00
          1   -1    0    0  501    0  0.00000000000E+00  0.00000000000E+00  0.16583865380E+03  0.16583865380E+03  0.00000000000E+00 0. -1.
         -1   -1    0    0    0  501 -0.00000000000E+00 -0.00000000000E+00 -0.89511838994E+02  0.89511838994E+02  0.00000000000E+00 0.  1.
         25    2    1    2    0    0  0.39802132396E+01 -0.84249126315E+01  0.10072837992E+03  0.16087403350E+03  0.12508967537E+03 0.  0.
          5    1    3    3  502    0 -0.48869268620E+02 -0.33275782734E+02  0.78236594612E+02  0.98152535721E+02  0.41800000000E+01 0. -1.
         -5    1    3    3    0  502  0.52849481860E+02  0.24850870103E+02  0.22491785309E+02  0.62721497782E+02  0.41800000000E+01 0. -1.
        -11    1    1    2    0    0 -0.30102704573E+02 -0.29505570368E+02 -0.23822002749E+02  0.48417345242E+02  0.00000000000E+00 0.  1.
         11    1    1    2    0    0  0.26122491333E+02  0.37930483000E+02 -0.57956236965E+00  0.46059114045E+02  0.00000000000E+00 0. -1.
</event>
<event>
 7    1  0.2499014E-009  0.1074955E+03  0.7561462E-02  0.1265279E+00
         -1   -1    0    0    0  501 -0.00000000000E+00  0.00000000000E+00  0.79820436379E+02  0.79820436379E+02  0.00000000000E+00 0.  1.
          1   -1    0    0  501    0  0.00000000000E+00 -0.00000000000E+00 -0.20686755059E+03  0.20686755059E+03  0.00000000000E+00 0. -1.
         25    2    1    2    0    0  0.35161959017E+02  0.40875628174E+02 -0.11768928152E+03  0.18001464608E+03  0.12508927003E+03 0.  0.
          5    1    3    3  502    0  0.10479536594E+02 -0.38323932607E+02 -0.78695466444E+02  0.88255273703E+02  0.41800000000E+01 0. -1.
         -5    1    3    3    0  502  0.24682422423E+02  0.79199560780E+02 -0.38993815074E+02  0.91759372374E+02  0.41800000000E+01 0. -1.
        -11    1    1    2    0    0 -0.47534037665E+02  0.17780257268E+01  0.21897890740E+02  0.52365673213E+02  0.00000000000E+00 0.  1.
         11    1    1    2    0    0  0.12372078647E+02 -0.42653653900E+02 -0.31255723430E+02  0.54307667674E+02  0.00000000000E+00 0. -1.
</event>
<event>
 7    1  0.3405980E-009  0.1619798E+03  0.7561462E-02  0.1186480E+00
         -1   -1    0    0    0  501 -0.00000000000E+00  0.00000000000E+00  0.17219605046E+03  0.17219605046E+03  0.00000000000E+00 0.  1.
          1   -1    0    0  501    0  0.00000000000E+00 -0.00000000000E+00 -0.24100915168E+03  0.24100915168E+03  0.00000000000E+00 0. -1.
         25    2    1    2    0    0 -0.14137913892E+02 -0.14563303190E+03  0.55495656866E+02  0.20033972348E+03  0.12508947312E+03 0.  0.
          5    1    3    3  502    0 -0.43356820543E+02 -0.43521399190E+02 -0.25559726217E+02  0.66668568901E+02  0.41800000000E+01 0. -1.
         -5    1    3    3    0  502  0.29218906651E+02 -0.10211163271E+03  0.81055383083E+02  0.13367115458E+03  0.41800000000E+01 0. -1.
        -11    1    1    2    0    0  0.33204407042E+02  0.62185583675E+02 -0.11767748699E+02  0.71470688911E+02  0.00000000000E+00 0.  1.
         11    1    1    2    0    0 -0.19066493150E+02  0.83447448223E+02 -0.11254100939E+03  0.14139478976E+03  0.00000000000E+00 0. -1.
</event>
<event>
 7    1  0.2499014E-009  0.2796179E+03  0.7561462E-02  0.1095898E+00
          2   -1    0    0  501    0  0.00000000000E+00  0.00000000000E+00  0.61366016437E+03  0.61366016437E+03  0.00000000000E+00 0. -1.
         -2   -1    0    0    0  501 -0.00000000000E+00 -0.00000000000E+00 -0.16796783752E+03  0.16796783752E+03  0.00000000000E+00 0.  1.
         25    2    1    2    0    0  0.20694535517E+03 -0.16009545906E+03  0.46763414529E+02  0.29375348178E+03  0.12508938837E+03 0.  0.
          5    1    3    3  502    0  0.12341533423E+03 -0.18261595165E+02  0.11448449816E+02  0.12535298155E+03  0.41800000000E+01 0.  1.
         -5    1    3    3    0  502  0.83530020940E+02 -0.14183386390E+03  0.35314964713E+02  0.16840050023E+03  0.41800000000E+01 0.  1.
        -11    1    1    2    0    0 -0.16238554288E+03  0.87207376546E+02  0.20336822780E+03  0.27446826253E+03  0.00000000000E+00 0.  1.
         11    1    1    2    0    0 -0.44559812291E+02  0.72888082514E+02  0.19556068452E+03  0.21340625758E+03  0.00000000000E+00 0. -1.
</event>
<event>
 7    1  0.2499014E-009  0.1744967E+03  0.7561462E-02  0.1173238E+00
         -1   -1    0    0    0  501 -0.00000000000E+00  0.00000000000E+00  0.77489762563E+03  0.77489762563E+03  0.00000000000E+00 0. -1.
          1   -1    0    0  501    0  0.00000000000E+00 -0.00000000000E+00 -0.45206435933E+02  0.45206435933E+02  0.00000000000E+00 0.  1.
         25    2    1    2    0    0 -0.46869235349E+02  0.14422780864E+03  0.40035143866E+03  0.44601229577E+03  0.12508919833E+03 0.  0.
          5    1    3    3  502    0  0.24094388424E+02  0.90701106910E+02  0.28652095878E+03  0.30152771443E+03  0.41800000000E+01 0.  1.
         -5    1    3    3    0  502 -0.70963623773E+02  0.53526701731E+02  0.11383047987E+03  0.14448458134E+03  0.41800000000E+01 0.  1.
        -11    1    1    2    0    0 -0.17507683882E+02 -0.38302901396E+02  0.15200146476E+03  0.15772785594E+03  0.00000000000E+00 0.  1.
         11    1    1    2    0    0  0.64376919230E+02 -0.10592490725E+03  0.17733828628E+03  0.21636390985E+03  0.00000000000E+00 0. -1.
</event>
<event>
 7    1  0.2499014E-009  0.1114767E+03  0.7561462E-02  0.1257860E+00
         -2   -1    0    0    0  501 -0.00000000000E+00  0.00000000000E+00  0.59199880744E+03  0.59199880744E+03  0.00000000000E+00 0.  1.
          2   -1    0    0  501    0  0.00000000000E+00 -0.00000000000E+00 -0.34550435787E+02  0.34550435787E+02  0.00000000000E+00 0. -1.
         25    2    1    2    0    0 -0.55640193404E+02 -0.42940035306E+02  0.16805737750E+03  0.22097658598E+03  0.12509073374E+03 0.  0.
          5    1    3    3  502    0 -0.41158991891E+02  0.19784664118E+02  0.56236733490E+01  0.46201662845E+02  0.41800000000E+01 0.  1.
         -5    1    3    3    0  502 -0.14481201512E+02 -0.62724699424E+02  0.16243370415E+03  0.17477492314E+03  0.41800000000E+01 0.  1.
        -11    1    1    2    0    0  0.66483503860E+02 -0.18418891220E+01  0.25365568735E+03  0.26223015953E+03  0.00000000000E+00 0.  1.
         11    1    1    2    0    0 -0.10843310456E+02  0.44781924428E+02  0.13573530680E+03  0.14334249771E+03  0.00000000000E+00 0. -1.
</event>
<event>
 7    1  0.2499014E-009  0.6850083E+02  0.7561462E-02  0.1365267E+00
          2   -1    0    0  501    0  0.00000000000E+00  0.00000000000E+00  0.50216875760E+02  0.50216875760E+02  0.00000000000E+00 0. -1.
         -2   -1    0    0    0  501 -0.00000000000E+00 -0.00000000000E+00 -0.24962757289E+03  0.24962757289E+03  0.00000000000E+00 0.  1.
         25    2    1    2    0    0  0.10874549324E+00  0.23502299348E+02 -0.94041268354E+02  0.15824032535E+03  0.12507545927E+03 0.  0.
          5    1    3    3  502    0 -0.35765487578E+02  0.23362923268E+02  0.13338956512E+02  0.44948820298E+02  0.41800000000E+01 0.  1.
         -5    1    3    3    0  502  0.35874233071E+02  0.13937607951E+00 -0.10738022487E+03  0.11329150505E+03  0.41800000000E+01 0.  1.
        -11    1    1    2    0    0  0.74858718822E+01  0.16037139457E+02  0.93558764610E+01  0.20019004575E+02  0.00000000000E+00 0. -1.
         11    1    1    2    0    0 -0.75946173754E+01 -0.39539438805E+02 -0.11472530523E+03  0.12158511872E+03  0.00000000000E+00 0.  1.
</event>
<event>
 7    1  0.2499014E-009  0.1045999E+03  0.7561462E-02  0.1270910E+00
          2   -1    0    0  501    0  0.00000000000E+00  0.00000000000E+00  0.63338336313E+03  0.63338336313E+03  0.00000000000E+00 0. -1.
         -2   -1    0    0    0  501 -0.00000000000E+00 -0.00000000000E+00 -0.21664389110E+02  0.21664389110E+02  0.00000000000E+00 0.  1.
         25    2    1    2    0    0 -0.89635747180E+01  0.15457309340E+02  0.46491769846E+03  0.48178406520E+03  0.12509254598E+03 0.  0.
          5    1    3    3  502    0 -0.43735080351E+02 -0.37142858330E+02  0.29359338826E+03  0.29917703657E+03  0.41800000000E+01 0.  1.
         -5    1    3    3    0  502  0.34771505633E+02  0.52600167671E+02  0.17132431020E+03  0.18260702864E+03  0.41800000000E+01 0.  1.
        -11    1    1    2    0    0  0.18526118489E+02  0.33668101162E+02  0.40837358632E+02  0.56075377503E+02  0.00000000000E+00 0.  1.
         11    1    1    2    0    0 -0.95625437707E+01 -0.49125410502E+02  0.10596391693E+03  0.11718830954E+03  0.00000000000E+00 0. -1.
</event>
<event>
 7    1  0.2499014E-009  0.1435796E+03  0.7561462E-02  0.1208592E+00
         -1   -1    0    0    0  501 -0.00000000000E+00  0.00000000000E+00  0.41565876685E+03  0.41565876685E+03  0.00000000000E+00 0.  1.
          1   -1    0    0  501    0  0.00000000000E+00 -0.00000000000E+00 -0.10610581217E+03  0.10610581217E+03  0.00000000000E+00 0. -1.
         25    2    1    2    0    0  0.10161916298E+03  0.65517344157E+02 -0.41008206492E+01  0.17402497722E+03  0.12509556067E+03 0.  0.
          5    1    3    3  502    0  0.63971754832E+02  0.19978187293E+01  0.50880899583E+02  0.81870110775E+02  0.41800000000E+01 0.  1.
         -5    1    3    3    0  502  0.37647408145E+02  0.63519525428E+02 -0.54981720232E+02  0.92154866449E+02  0.41800000000E+01 0.  1.
        -11    1    1    2    0    0 -0.10763858327E+03 -0.28210153770E+02  0.21484401353E+03  0.24195005173E+03  0.00000000000E+00 0.  1.
         11    1    1    2    0    0  0.60194202935E+01 -0.37307190387E+02  0.98809761805E+02  0.10578955007E+03  0.00000000000E+00 0. -1.
</event>
<event>
 7    1  0.2499014E-009  0.1280986E+03  0.7561462E-02  0.1230305E+00
          2   -1    0    0  501    0  0.00000000000E+00  0.00000000000E+00  0.24522515050E+03  0.24522515050E+03  0.00000000000E+00 0. -1.
         -2   -1    0    0    0  501 -0.00000000000E+00 -0.00000000000E+00 -0.88035017864E+02  0.88035017864E+02  0.00000000000E+00 0.  1.
         25    2    1    2    0    0  0.93232859657E+02  0.30520508104E+02  0.72431469647E+02  0.17468912453E+03  0.12508439110E+03 0.  0.
          5    1    3    3  502    0  0.10964488185E+03 -0.13364324027E+02  0.61122907798E+02  0.12630949105E+03  0.41800000000E+01 0.  1.
         -5    1    3    3    0  502 -0.16412022194E+02  0.43884832131E+02  0.11308561850E+02  0.48379633471E+02  0.41800000000E+01 0.  1.
        -11    1    1    2    0    0 -0.74705786984E+02 -0.20085900832E+02  0.66776973708E+01  0.77646568909E+02  0.00000000000E+00 0.  1.
         11    1    1    2    0    0 -0.18527072673E+02 -0.10434607272E+02  0.78080965620E+02  0.80924474931E+02  0.00000000000E+00 0. -1.
</event>
<event>
 7    1  0.2499014E-009  0.1146601E+03  0.7561462E-02  0.1252176E+00
          1   -1    0    0  501    0  0.00000000000E+00  0.00000000000E+00  0.73354420615E+03  0.73354420615E+03  0.00000000000E+00 0. -1.
         -1   -1    0    0    0  501 -0.00000000000E+00 -0.00000000000E+00 -0.20430762067E+02  0.20430762067E+02  0.00000000000E+00 0.  1.
         25    2    1    2    0    0  0.29141286379E+02 -0.45344886238E+02  0.42584182442E+03  0.44709431370E+03  0.12508674046E+03 0.  0.
          5    1    3    3  502    0 -0.33869829309E+02 -0.47753019816E+02  0.30633477343E+03  0.31190700866E+03  0.41800000000E+01 0.  1.
         -5    1    3    3    0  502  0.63011115689E+02  0.24081335779E+01  0.11950705099E+03  0.13518730504E+03  0.41800000000E+01 0.  1.
        -11    1    1    2    0    0 -0.24881561606E-01  0.69560429206E+02  0.17139487988E+03  0.18497258926E+03  0.00000000000E+00 0.  1.
         11    1    1    2    0    0 -0.29116404818E+02 -0.24215542968E+02  0.11587673979E+03  0.12190806525E+03  0.00000000000E+00 0. -1.
</event>
<event>
 7    1  0.2499014E-009  0.1173566E+03  0.7561462E-02  0.1247523E+00
          1   -1    0    0  501    0  0.00000000000E+00  0.00000000000E+00  0.55818027517E+03  0.55818027517E+03  0.00000000000E+00 0. -1.
         -1   -1    0    0    0  501 -0.00000000000E+00 -0.00000000000E+00 -0.40286178473E+02  0.40286178473E+02  0.00000000000E+00 0.  1.
         25    2    1    2    0    0  0.56170531656E+02  0.78889802694E+02  0.34230127277E+03  0.37708568517E+03  0.12507886722E+03 0.  0.
          5    1    3    3  502    0  0.59019773891E+02  0.88053790470E+02  0.14582527226E+03  0.18033104601E+03  0.41800000000E+01 0.  1.
         -5    1    3    3    0  502 -0.28492422354E+01 -0.91639877760E+01  0.19647600051E+03  0.19675463916E+03  0.41800000000E+01 0.  1.
        -11    1    1    2    0    0  0.15189766645E+02 -0.22788235151E+02  0.45756578548E+01  0.27766334235E+02  0.00000000000E+00 0.  1.
         11    1    1    2    0    0 -0.71360298301E+02 -0.56101567543E+02  0.17101716607E+03  0.19361443423E+03  0.00000000000E+00 0. -1.
</event>
<event>
 7    1  0.2499014E-009  0.2052138E+03  0.7561462E-02  0.1145413E+00
         -2   -1    0    0    0  501 -0.00000000000E+00  0.00000000000E+00  0.51152740263E+02  0.51152740263E+02  0.00000000000E+00 0.  1.
          2   -1    0    0  501    0  0.00000000000E+00 -0.00000000000E+00 -0.10451980452E+04  0.10451980452E+04  0.00000000000E+00 0. -1.
         25    2    1    2    0    0 -0.18354069749E+03  0.13674614173E+02 -0.30567209742E+03  0.37810278855E+03  0.12510837245E+03 0.  0.
          5    1    3    3  502    0 -0.72641018509E+02  0.50924787801E+02 -0.20609684836E+03  0.22441799145E+03  0.41800000000E+01 0. -1.
         -5    1    3    3    0  502 -0.11089967898E+03 -0.37250173628E+02 -0.99575249065E+02  0.15368479710E+03  0.41800000000E+01 0. -1.
        -11    1    1    2    0    0  0.11777049803E+03 -0.51658557547E+02 -0.40963932049E+03  0.42935168530E+03  0.00000000000E+00 0.  1.
         11    1    1    2    0    0  0.65770199464E+02  0.37983943374E+02 -0.27873388700E+03  0.28889631159E+03  0.00000000000E+00 0. -1.
</event>
<event>
 7    1  0.2499014E-009  0.1205786E+03  0.7561462E-02  0.1242146E+00
         -2   -1    0    0    0  501 -0.00000000000E+00  0.00000000000E+00  0.23885287646E+02  0.23885287646E+02  0.00000000000E+00 0.  1.
          2   -1    0    0  501    0  0.00000000000E+00 -0.00000000000E+00 -0.78252283974E+03  0.78252283974E+03  0.00000000000E+00 0. -1.
         25    2    1    2    0    0  0.54352661304E+02 -0.47041574802E+02 -0.53666303944E+03  0.55571971326E+03  0.12510020084E+03 0.  0.
          5    1    3    3  502    0 -0.27805876046E+02  0.10876342030E+02 -0.25207525227E+03  0.25387175259E+03  0.41800000000E+01 0. -1.
         -5    1    3    3    0  502  0.82158537349E+02 -0.57917916831E+02 -0.28458778717E+03  0.30184796066E+03  0.41800000000E+01 0. -1.
        -11    1    1    2    0    0 -0.67538373767E+02  0.65956332364E+01 -0.17291109583E+03  0.18575031998E+03  0.00000000000E+00 0. -1.
         11    1    1    2    0    0  0.13185712463E+02  0.40445941565E+02 -0.49063416822E+02  0.64938094155E+02  0.00000000000E+00 0.  1.
</event>
<event>
 7    1  0.2499014E-009  0.1823672E+03  0.7561462E-02  0.1165532E+00
         -2   -1    0    0    0  501 -0.00000000000E+00  0.00000000000E+00  0.77900270665E+02  0.77900270665E+02  0.00000000000E+00 0.  1.
          2   -1    0    0  501    0  0.00000000000E+00 -0.00000000000E+00 -0.48653979535E+03  0.48653979535E+03  0.00000000000E+00 0. -1.
         25    2    1    2    0    0 -0.12797383017E+03 -0.95355799946E+02 -0.25122715338E+03  0.32285152214E+03  0.12509193801E+03 0.  0.
          5    1    3    3  502    0 -0.70158785324E+01  0.28101692033E+02 -0.27983552652E+02  0.40490483644E+02  0.41800000000E+01 0.  1.
         -5    1    3    3    0  502 -0.12095795164E+03 -0.12345749198E+03 -0.22324360073E+03  0.28236103849E+03  0.41800000000E+01 0.  1.
        -11    1    1    2    0    0  0.94085111501E+02  0.51819745129E+02 -0.15204313323E+03  0.18615694603E+03  0.00000000000E+00 0.  1.
         11    1    1    2    0    0  0.33888718674E+02  0.43536054817E+02 -0.53692380660E+01  0.55431597846E+02  0.00000000000E+00 0. -1.
</event>
<event>
 7    1  0.2499014E-009  0.9543267E+02  0.7561462E-02  0.1290205E+00
         -2   -1    0    0    0  501 -0.00000000000E+00  0.00000000000E+00  0.78288407742E+02  0.78288407742E+02  0.00000000000E+00 0.  1.
          2   -1    0    0  501    0  0.00000000000E+00 -0.00000000000E+00 -0.15788783720E+03  0.15788783720E+03  0.00000000000E+00 0. -1.
         25    2    1    2    0    0  0.19944107163E+02  0.10942025261E+02 -0.35807407983E+02  0.13209072634E+03  0.12509314206E+03 0.  0.
          5    1    3    3  502    0  0.92533214030E+01  0.55270743810E+02  0.20227831464E+02  0.59725343398E+02  0.41800000000E+01 0. -1.
         -5    1    3    3    0  502  0.10690785760E+02 -0.44328718549E+02 -0.56035239448E+02  0.72365382942E+02  0.41800000000E+01 0. -1.
        -11    1    1    2    0    0  0.21470734410E+01  0.36490827813E+02 -0.35780031504E+02  0.51150768257E+02  0.00000000000E+00 0.  1.
         11    1    1    2    0    0 -0.22091180604E+02 -0.47432853074E+02 -0.80119899754E+01  0.52934750350E+02  0.00000000000E+00 0. -1.
</event>
<event>
 7    1  0.2499014E-009  0.7620237E+02  0.7561462E-02  0.1340188E+00
         -1   -1    0    0    0  501 -0.00000000000E+00  0.00000000000E+00  0.91296311819E+02  0.91296311819E+02  0.00000000000E+00 0.  1.
          1   -1    0    0  501    0  0.00000000000E+00 -0.00000000000E+00 -0.14360443297E+03  0.14360443297E+03  0.00000000000E+00 0. -1.
         25    2    1    2    0    0  0.12780366377E+02 -0.33619452722E+02 -0.39311250189E+02  0.13596448901E+03  0.12508941807E+03 0.  0.
          5    1    3    3  502    0 -0.67423638425E+01 -0.39818617511E+02 -0.80284047746E+02  0.89966563195E+02  0.41800000000E+01 0.  1.
         -5    1    3    3    0  502  0.19522730219E+02  0.61991647895E+01  0.40972797557E+02  0.45997925811E+02  0.41800000000E+01 0.  1.
        -11    1    1    2    0    0  0.22848322813E+02  0.47461615931E+02  0.10991075499E+02  0.53809428382E+02  0.00000000000E+00 0.  1.
         11    1    1    2    0    0 -0.35628689190E+02 -0.13842163209E+02 -0.23987946455E+02  0.45126827396E+02  0.00000000000E+00 0. -1.
</event>
<event>
 7    1  0.2499014E-009  0.1018291E+03  0.7561462E-02  0.1276496E+00
         -3   -1    0    0    0  501 -0.00000000000E+00  0.00000000000E+00  0.78793055478E+02  0.78793055478E+02  0.00000000000E+00 0.  1.
          3   -1    0    0  501    0  0.00000000000E+00 -0.00000000000E+00 -0.23707938952E+03  0.23707938952E+03  0.00000000000E+00 0. -1.
         25    2    1    2    0    0  0.65971931583E+02  0.18980262499E+02 -0.34228891871E+02  0.14673549356E+03  0.12508853628E+03 0.  0.
          5    1    3    3  502    0 -0.40020279715E+01 -0.14470812033E+02 -0.62244737127E+02  0.64166193037E+02  0.41800000000E+01 0.  1.
         -5    1    3    3    0  502  0.69973959555E+02  0.33451074532E+02  0.28015845257E+02  0.82569300522E+02  0.41800000000E+01 0.  1.
        -11    1    1    2    0    0 -0.37444475540E+02  0.33775689351E+02 -0.33573009297E+02  0.60580796404E+02  0.00000000000E+00 0.  1.
         11    1    1    2    0    0 -0.28527456043E+02 -0.52755951850E+02 -0.90484432878E+02  0.10855615504E+03  0.00000000000E+00 0. -1.
</event>
<event>
 7    1  0.2499014E-009  0.1644502E+03  0.7561462E-02  0.1183762E+00
         -2   -1    0    0    0  501 -0.00000000000E+00  0.00000000000E+00  0.31990964955E+02  0.31990964955E+02  0.00000000000E+00 0.  1.
          2   -1    0    0  501    0  0.00000000000E+00 -0.00000000000E+00 -0.11614813926E+04  0.11614813926E+04  0.00000000000E+00 0. -1.
         25    2    1    2    0    0  0.10949493290E+03  0.70086586521E+02 -0.87465782031E+03  0.89307014589E+03  0.12508682143E+03 0.  0.
          5    1    3    3  502    0 -0.22358116726E+02  0.87233436809E+01 -0.27241598617E+03  0.27350306037E+03  0.41800000000E+01 0.  1.
         -5    1    3    3    0  502  0.13185304962E+03  0.61363242840E+02 -0.60224183414E+03  0.61956708552E+03  0.41800000000E+01 0.  1.
        -11    1    1    2    0    0 -0.47517686841E+02 -0.83092258092E+02 -0.15110639318E+03  0.17887256910E+03  0.00000000000E+00 0. -1.
         11    1    1    2    0    0 -0.61977246057E+02  0.13005671570E+02 -0.10372621420E+03  0.12152964261E+03  0.00000000000E+00 0.  1.
</event>
<event>
 7    1  0.2499014E-009  0.1114750E+03  0.7561462E-02  0.1257863E+00
          1   -1    0    0  501    0  0.00000000000E+00  0.00000000000E+00  0.14635309222E+03  0.14635309222E+03  0.00000000000E+00 0. -1.
         -1   -1    0    0    0  501 -0.00000000000E+00 -0.00000000000E+00 -0.10236131142E+03  0.10236131142E+03  0.00000000000E+00 0.  1.
         25    2    1    2    0    0  0.14329382146E+02 -0.52205855884E+02  0.33847013185E+02  0.14044657289E+03  0.12509531148E+03 0.  0.
          5    1    3    3  502    0  0.20956133614E+02  0.39061000418E+02  0.14476101071E+02  0.46818278395E+02  0.41800000000E+01 0. -1.
         -5    1    3    3    0  502 -0.66267514681E+01 -0.91266856302E+02  0.19370912114E+02  0.93628294497E+02  0.41800000000E+01 0. -1.
        -11    1    1    2    0    0  0.17432467636E+02  0.52229030182E+02 -0.25367457635E+02  0.60624008680E+02  0.00000000000E+00 0.  1.
         11    1    1    2    0    0 -0.31761849782E+02 -0.23174297474E-01  0.35512225257E+02  0.47643822068E+02  0.00000000000E+00 0. -1.
</event>
<event>
 7    1  0.2499014E-009  0.1296600E+03  0.7561462E-02  0.1227961E+00
          1   -1    0    0  501    0  0.00000000000E+00  0.00000000000E+00  0.10304584142E+04  0.10304584142E+04  0.00000000000E+00 0. -1.
         -1   -1    0    0    0  501 -0.00000000000E+00 -0.00000000000E+00 -0.16707174297E+02  0.16707174297E+02  0.00000000000E+00 0.  1.
         25    2    1    2    0    0 -0.61665275284E+02 -0.36309727461E+02  0.60388306719E+03  0.62084034321E+03  0.12508785085E+03 0.  0.
          5    1    3    3  502    0 -0.38641817420E+02  0.44673023574E+02  0.22172328951E+03  0.22949413631E+03  0.41800000000E+01 0. -1.
         -5    1    3    3    0  502 -0.23023457863E+02 -0.80982751035E+02  0.38215977768E+03  0.39134620690E+03  0.41800000000E+01 0. -1.
        -11    1    1    2    0    0 -0.22576720797E+02  0.19662915490E+02  0.13832555690E+03  0.14152843622E+03  0.00000000000E+00 0.  1.
         11    1    1    2    0    0  0.84241996080E+02  0.16646811971E+02  0.27154261578E+03  0.28479680904E+03  0.00000000000E+00 0. -1.
</event>
<event>
 7    1  0.2499014E-009  0.2065324E+03  0.7561462E-02  0.1144342E+00
          1   -1    0    0  501    0  0.00000000000E+00  0.00000000000E+00  0.15313736120E+04  0.15313736120E+04  0.00000000000E+00 0. -1.
         -1   -1    0    0    0  501 -0.00000000000E+00 -0.00000000000E+00 -0.34093347697E+02  0.34093347697E+02  0.00000000000E+00 0.  1.
         25    2    1    2    0    0 -0.21322635635E+02  0.19776437492E+03  0.67773624273E+03  0.71731280458E+03  0.12508334072E+03 0.  0.
          5    1    3    3  502    0 -0.10528864486E+02 -0.24218888377E+01  0.18465655233E+03  0.18501955911E+03  0.41800000000E+01 0. -1.
         -5    1    3    3    0  502 -0.10793771149E+02  0.20018626376E+03  0.49307969040E+03  0.53229324548E+03  0.41800000000E+01 0. -1.
        -11    1    1    2    0    0  0.27555714228E+02 -0.12881565889E+03  0.67688964147E+03  0.68958855710E+03  0.00000000000E+00 0.  1.
         11    1    1    2    0    0 -0.62330785926E+01 -0.68948716032E+02  0.14265438011E+03  0.15856559802E+03  0.00000000000E+00 0. -1.
</event>
<event>
 7    1  0.2499014E-009  0.9000926E+02  0.7561462E-02  0.1302829E+00
          2   -1    0    0  501    0  0.00000000000E+00  0.00000000000E+00  0.10533676932E+03  0.10533676932E+03  0.00000000000E+00 0. -1.
         -2   -1    0    0    0  501 -0.00000000000E+00 -0.00000000000E+00 -0.11534513886E+03  0.11534513886E+03  0.00000000000E+00 0.  1.
         25    2    1    2    0    0 -0.18238566829E+02 -0.10275542821E+01 -0.16064535443E+02  0.12743284059E+03  0.12508940152E+03 0.  0.
          5    1    3    3  502    0  0.49340940945E+02  0.15214324708E+02  0.10594150346E+02  0.52874498118E+02  0.41800000000E+01 0.  1.
         -5    1    3    3    0  502 -0.67579507774E+02 -0.16241878990E+02 -0.26658685789E+02  0.74558342471E+02  0.41800000000E+01 0.  1.
        -11    1    1    2    0    0 -0.41056712223E+01  0.25279485881E+02 -0.33232223660E+02  0.41955805701E+02  0.00000000000E+00 0.  1.
         11    1    1    2    0    0  0.22344238051E+02 -0.24251931599E+02  0.39288389560E+02  0.51293261883E+02  0.00000000000E+00 0. -1.
</event>
<event>
 7    1  0.2834769E-009  0.1520500E+03  0.7561462E-02  0.1197976E+00
          2   -1    0    0  501    0  0.00000000000E+00  0.00000000000E+00  0.61239215761E+03  0.61239215761E+03  0.00000000000E+00 0. -1.
         -2   -1    0    0    0  501 -0.00000000000E+00 -0.00000000000E+00 -0.41048969786E+02  0.41048969786E+02  0.00000000000E+00 0.  1.
         25    2    1    2    0    0 -0.10593455861E+03  0.10303855650E+02  0.39706426117E+03  0.42969076166E+03  0.12508326429E+03 0.  0.
          5    1    3    3  502    0 -0.12903119516E+03 -0.14160518938E+02  0.30115345766E+03  0.32796409420E+03  0.41800000000E+01 0.  1.
         -5    1    3    3    0  502  0.23096636541E+02  0.24464374588E+02  0.95910803505E+02  0.10172666746E+03  0.41800000000E+01 0.  1.
        -11    1    1    2    0    0  0.95148530829E+02  0.29077058525E+02  0.12312646128E+03  0.15829985382E+03  0.00000000000E+00 0. -1.
         11    1    1    2    0    0  0.10786027786E+02 -0.39380914174E+02  0.51152465371E+02  0.65450511916E+02  0.00000000000E+00 0.  1.
</event>
<event>
 7    1  0.2499014E-009  0.1006573E+03  0.7561462E-02  0.1278920E+00
         -2   -1    0    0    0  501 -0.00000000000E+00  0.00000000000E+00  0.38212725873E+02  0.38212725873E+02  0.00000000000E+00 0.  1.
          2   -1    0    0  501    0  0.00000000000E+00 -0.00000000000E+00 -0.40999066528E+03  0.40999066528E+03  0.00000000000E+00 0. -1.
         25    2    1    2    0    0  0.79834763244E+01  0.45746720808E+02 -0.12653288594E+03  0.18388852981E+03  0.12509165365E+03 0.  0.
          5    1    3    3  502    0  0.16418098577E+01 -0.28629567029E+02 -0.10070195993E+03  0.10478885810E+03  0.41800000000E+01 0. -1.
         -5    1    3    3    0  502  0.63416664667E+01  0.74376287837E+02 -0.25830926008E+02  0.79099671708E+02  0.41800000000E+01 0. -1.
        -11    1    1    2    0    0 -0.29500495878E+02 -0.63278196311E+02 -0.19142777459E+03  0.20376212177E+03  0.00000000000E+00 0.  1.
         11    1    1    2    0    0  0.21517019554E+02  0.17531475503E+02 -0.53817278888E+02  0.60552739581E+02  0.00000000000E+00 0. -1.
</event>
<event>
 7    1  0.2499014E-009  0.1117896E+03  0.7561462E-02  0.1257291E+00
          1   -1    0    0  501    0  0.00000000000E+00  0.00000000000E+00  0.52624131830E+03  0.52624131830E+03  0.00000000000E+00 0. -1.
         -1   -1    0    0    0  501 -0.00000000000E+00 -0.00000000000E+00 -0.29741224761E+02  0.29741224761E+02  0.00000000000E+00 0.  1.
         25    2    1    2    0    0 -0.18231761404E+02 -0.61066405487E+02  0.25925463826E+03  0.29482519261E+03  0.12508966278E+03 0.  0.
          5    1    3    3  502    0 -0.46873707453E+02 -0.19031298286E+00  0.19875255462E+03  0.20424796458E+03  0.41800000000E+01 0. -1.
         -5    1    3    3    0  502  0.28641946049E+02 -0.60876092504E+02  0.60502083645E+02  0.90577228029E+02  0.41800000000E+01 0. -1.
        -11    1    1    2    0    0  0.54295068549E+02  0.34667887547E+02  0.13591012564E+03  0.15040405296E+03  0.00000000000E+00 0. -1.
         11    1    1    2    0    0 -0.36063307145E+02  0.26398517940E+02  0.10133532963E+03  0.11075329748E+03  0.00000000000E+00 0.  1.
</event>
<event>
 7    1  0.2499014E-009  0.1290583E+03  0.7561462E-02  0.1228860E+00
         -2   -1    0    0    0  501 -0.00000000000E+00  0.00000000000E+00  0.67899635477E+03  0.67899635477E+03  0.00000000000E+00 0. -1.
          2   -1    0    0  501    0  0.00000000000E+00 -0.00000000000E+00 -0.24700806594E+02  0.24700806594E+02  0.00000000000E+00 0.  1.
         25    2    1    2    0    0 -0.13401002826E+02 -0.76672489152E+02  0.38688942023E+03  0.41399142652E+03  0.12508884954E+03 0.  0.
          5    1    3    3  502    0  0.54693907746E+02 -0.49202912733E+02  0.18620678766E+03  0.20025681096E+03  0.41800000000E+01 0.  1.
         -5    1    3    3    0  502 -0.68094910572E+02 -0.27469576419E+02  0.20068263257E+03  0.21373461556E+03  0.41800000000E+01 0.  1.
        -11    1    1    2    0    0  0.43644444970E+02  0.65362665840E+02  0.20234693093E+03  0.21707463260E+03  0.00000000000E+00 0.  1.
         11    1    1    2    0    0 -0.30243442144E+02  0.11309823312E+02  0.65059197019E+02  0.72631102242E+02  0.00000000000E+00 0. -1.
</event>
<event>
 7    1  0.2499014E-009  0.1352402E+03  0.7561462E-02  0.1219881E+00
         -2   -1    0    0    0  501 -0.00000000000E+00  0.00000000000E+00  0.67105703413E+02  0.67105703413E+02  0.00000000000E+00 0.  1.
          2   -1    0    0  501    0  0.00000000000E+00 -0.00000000000E+00 -0.48257133887E+03  0.48257133887E+03  0.00000000000E+00 0. -1.
         25    2    1    2    0    0  0.44307775011E+02  0.10644883167E+03 -0.34981091238E+03  0.38898731496E+03  0.12509565975E+03 0.  0.
          5    1    3    3  502    0  0.55246533549E+02  0.87500046131E+02 -0.35170042363E+03  0.36663210160E+03  0.41800000000E+01 0.  1.
         -5    1    3    3    0  502 -0.10938758538E+02  0.18948785542E+02  0.18895112435E+01  0.22355213366E+02  0.41800000000E+01 0.  1.
        -11    1    1    2    0    0  0.21923477936E+00  0.15146222932E+02 -0.15922058120E+02  0.21976534480E+02  0.00000000000E+00 0.  1.
         11    1    1    2    0    0 -0.44527009791E+02 -0.12159505460E+03 -0.49732664959E+02  0.13871319284E+03  0.00000000000E+00 0. -1.
</event>
<event>
 7    1  0.2499014E-009  0.1951853E+03  0.7561462E-02  0.1153866E+00
         -2   -1    0    0    0  501 -0.00000000000E+00  0.00000000000E+00  0.69304682224E+03  0.69304682224E+03  0.00000000000E+00 0.  1.
          2   -1    0    0  501    0  0.00000000000E+00 -0.00000000000E+00 -0.60899839256E+02  0.60899839256E+02  0.00000000000E+00 0. -1.
         25    2    1    2    0    0 -0.12685662059E+03  0.11736799177E+03  0.36302968268E+03  0.42107716935E+03  0.12509030482E+03 0.  0.
          5    1    3    3  502    0 -0.46892120307E+02  0.12357636495E+03  0.20798117828E+03  0.24646223207E+03  0.41800000000E+01 0. -1.
         -5    1    3    3    0  502 -0.79964500280E+02 -0.62083731758E+01  0.15504850441E+03  0.17461493728E+03  0.41800000000E+01 0. -1.
        -11    1    1    2    0    0 -0.14747572846E+00 -0.14170433701E+02 -0.37804510747E+01  0.14666790742E+02  0.00000000000E+00 0. -1.
         11    1    1    2    0    0  0.12700409632E+03 -0.10319755807E+03  0.27289775138E+03  0.31820270140E+03  0.00000000000E+00 0.  1.
</event>
<event>
 7    1  0.2499014E-009  0.9766743E+02  0.7561462E-02  0.1285279E+00
          1   -1    0    0  501    0  0.00000000000E+00  0.00000000000E+00  0.33306951003E+03  0.33306951003E+03  0.00000000000E+00 0. -1.
         -1   -1    0    0    0  501 -0.00000000000E+00 -0.00000000000E+00 -0.37953306373E+02  0.37953306373E+02  0.00000000000E+00 0.  1.
         25    2    1    2    0    0 -0.10637835028E+02 -0.16654160225E+02  0.13048556006E+03  0.18183617136E+03  0.12508951692E+03 0.  0.
          5    1    3    3  502    0  0.45077300956E+02  0.77970024806E+01  0.10706887449E+03  0.11650739287E+03  0.41800000000E+01 0.  1.
         -5    1    3    3    0  502 -0.55715135985E+02 -0.24451162706E+02  0.23416685563E+02  0.65328778484E+02  0.41800000000E+01 0.  1.
        -11    1    1    2    0    0 -0.22854562123E+02  0.41043886459E+02  0.11687584378E+03  0.12596386182E+03  0.00000000000E+00 0. -1.
         11    1    1    2    0    0  0.33492397151E+02 -0.24389726234E+02  0.47754799821E+02  0.63222783225E+02  0.00000000000E+00 0.  1.
</event>
<event>
 7    1  0.2499014E-009  0.1928754E+03  0.7561462E-02  0.1155893E+00
         -2   -1    0    0    0  501 -0.00000000000E+00  0.00000000000E+00  0.77128743635E+02  0.77128743635E+02  0.00000000000E+00 0.  1.
          2   -1    0    0  501    0  0.00000000000E+00 -0.00000000000E+00 -0.54473397219E+03  0.54473397219E+03  0.00000000000E+00 0. -1.
         25    2    1    2    0    0 -0.10988340039E+03 -0.12626957568E+03 -0.30775352093E+03  0.37199265634E+03  0.12509172355E+03 0.  0.
          5    1    3    3  502    0  0.29845228374E+01  0.20050344638E+02 -0.55745666628E+02  0.59464068516E+02  0.41800000000E+01 0. -1.
         -5    1    3    3    0  502 -0.11286792323E+03 -0.14631992032E+03 -0.25200785430E+03  0.31252858782E+03  0.41800000000E+01 0. -1.
        -11    1    1    2    0    0  0.59614742931E+02  0.11372353049E+03 -0.14943565722E+03  0.19702277688E+03  0.00000000000E+00 0. -1.
         11    1    1    2    0    0  0.50268657460E+02  0.12546045188E+02 -0.10416050405E+02  0.52847282605E+02  0.00000000000E+00 0.  1.
</event>
<event>
 7    1  0.2499014E-009  0.1715561E+03  0.7561462E-02  0.1176235E+00
         -2   -1    0    0    0  501 -0.00000000000E+00  0.00000000000E+00  0.62224891975E+02  0.62224891975E+02  0.00000000000E+00 0.  1.
          2   -1    0    0  501    0  0.00000000000E+00 -0.00000000000E+00 -0.51670254214E+03  0.51670254214E+03  0.00000000000E+00 0. -1.
         25    2    1    2    0    0 -0.12778647405E+03 -0.38107118868E+02 -0.16717705823E+03  0.24774417795E+03  0.12508986150E+03 0.  0.
          5    1    3    3  502    0 -0.14018775279E+03 -0.62904895393E+02 -0.13091107988E+03  0.20190298445E+03  0.41800000000E+01 0. -1.
         -5    1    3    3    0  502  0.12401278742E+02  0.24797776525E+02 -0.36265978352E+02  0.45841193493E+02  0.41800000000E+01 0. -1.
        -11    1    1    2    0    0  0.81618013027E+02  0.68107830020E+02 -0.21914113353E+03  0.24356316011E+03  0.00000000000E+00 0.  1.
         11    1    1    2    0    0  0.46168461019E+02 -0.30000711153E+02 -0.68159458412E+02  0.87620096060E+02  0.00000000000E+00 0. -1.
</event>
<event>
 7    1  0.2499014E-009  0.1537143E+03  0.7561462E-02  0.1195982E+00
         -2   -1    0    0    0  501 -0.00000000000E+00  0.00000000000E+00  0.15073220774E+02  0.15073220774E+02  0.00000000000E+00 0.  1.
          2   -1    0    0  501    0  0.00000000000E+00 -0.00000000000E+00 -0.15958867123E+04  0.15958867123E+04  0.00000000000E+00 0. -1.
         25    2    1    2    0    0 -0.25117875851E+01  0.10851667709E+03 -0.94170343169E+03  0.95615675045E+03  0.12509276512E+03 0.  0.
          5    1    3    3  502    0 -0.58795625512E+02  0.86193779405E+02 -0.55873567616E+03  0.56840946632E+03  0.41800000000E+01 0. -1.
         -5    1    3    3    0  502  0.56283837927E+02  0.22322897687E+02 -0.38296775553E+03  0.38774728413E+03  0.41800000000E+01 0. -1.
        -11    1    1    2    0    0 -0.30166361280E+02 -0.10523333787E+03 -0.47718972749E+03  0.48958564192E+03  0.00000000000E+00 0.  1.
         11    1    1    2    0    0  0.32678148865E+02 -0.32833392210E+01 -0.16192033231E+03  0.16521754067E+03  0.00000000000E+00 0. -1.
</event>
<event>
 7    1  0.2499014E-009  0.9613707E+02  0.7561462E-02  0.1288635E+00
         -1   -1    0    0    0  501 -0.00000000000E+00  0.00000000000E+00  0.15145321896E+03  0.15145321896E+03  0.00000000000E+00 0.  1.
          1   -1    0    0  501    0  0.00000000000E+00 -0.00000000000E+00 -0.86825176086E+02  0.86825176086E+02  0.00000000000E+00 0. -1.
         25    2    1    2    0    0  0.34112076168E+01  0.31362431407E+02  0.55581700551E+02  0.14047360105E+03  0.12509304023E+03 0.  0.
          5    1    3    3  502    0  0.34779069577E+02 -0.25781031310E+02  0.61011724715E+02  0.74927619799E+02  0.41800000000E+01 0.  1.
         -5    1    3    3    0  502 -0.31367861960E+02  0.57143462717E+02 -0.54300241645E+01  0.65545981247E+02  0.41800000000E+01 0.  1.
        -11    1    1    2    0    0  0.21075723420E+02  0.18413566014E+02 -0.20746398708E+02  0.34837603109E+02  0.00000000000E+00 0. -1.
         11    1    1    2    0    0 -0.24486931037E+02 -0.49775997421E+02  0.29792741034E+02  0.62967190895E+02  0.00000000000E+00 0.  1.
</event>
<event>
 7    1  0.2499014E-009  0.1218991E+03  0.7561462E-02  0.1239997E+00
         -1   -1    0    0    0  501 -0.00000000000E+00  0.00000000000E+00  0.62685597905E+02  0.62685597905E+02  0.00000000000E+00 0.  1.
          1   -1    0    0  501    0  0.00000000000E+00 -0.00000000000E+00 -0.24604005631E+03  0.24604005631E+03  0.00000000000E+00 0. -1.
         25    2    1    2    0    0  0.25291058766E+02  0.54272232917E+02 -0.84885601219E+02  0.16259524548E+03  0.12508611289E+03 0.  0.
          5    1    3    3  502    0 -0.37274025465E+02 -0.17097114202E+02 -0.12235847765E+02  0.42998286698E+02  0.41800000000E+01 0.  1.
         -5    1    3    3    0  502  0.62565084231E+02  0.71369347119E+02 -0.72649753453E+02  0.11959695878E+03  0.41800000000E+01 0.  1.
        -11    1    1    2    0    0 -0.52230615220E+02 -0.63702125790E+01 -0.41914249437E+02  0.67271250029E+02  0.00000000000E+00 0. -1.
         11    1    1    2    0    0  0.26939556454E+02 -0.47902020338E+02 -0.56554607754E+02  0.78859158711E+02  0.00000000000E+00 0.  1.
</event>
<event>
 7    1  0.2499014E-009  0.9170498E+02  0.7561462E-02  0.1298775E+00
          1   -1    0    0  501    0  0.00000000000E+00  0.00000000000E+00  0.33092092049E+03  0.33092092049E+03  0.00000000000E+00 0.  1.
         -1   -1    0    0    0  501 -0.00000000000E+00 -0.00000000000E+00 -0.43699114100E+02  0.43699114100E+02  0.00000000000E+00 0. -1.
         25    2    1    2    0    0  0.42750473671E+02 -0.21829476246E+02  0.19647628776E+03  0.23781145663E+03  0.12508888128E+03 0.  0.
          5    1    3    3  502    0  0.55091744363E+02  0.34258857291E+01  0.19687213119E+02  0.58752836105E+02  0.41800000000E+01 0. -1.
         -5    1    3    3    0  502 -0.12341270692E+02 -0.25255361975E+02  0.17678907464E+03  0.17905862052E+03  0.41800000000E+01 0. -1.
        -11    1    1    2    0    0 -0.67897660386E+02  0.28471723698E+02  0.51979152871E+02  0.90125266543E+02  0.00000000000E+00 0. -1.
         11    1    1    2    0    0  0.25147186714E+02 -0.66422474519E+01  0.38766365752E+02  0.46683311413E+02  0.00000000000E+00 0.  1.
</event>
<event>
 7    1  0.2499014E-009  0.1436163E+03  0.7561462E-02  0.1208544E+00
         -2   -1    0    0    0  501 -0.00000000000E+00  0.00000000000E+00  0.60858002801E+03  0.60858002801E+03  0.00000000000E+00 0.  1.
          2   -1    0    0  501    0  0.00000000000E+00 -0.00000000000E+00 -0.47122353563E+02  0.47122353563E+02  0.00000000000E+00 0. -1.
         25    2    1    2    0    0 -0.87111623874E+02 -0.91824915462E+02  0.23157252809E+03  0.29205120917E+03  0.12509125828E+03 0.  0.
          5    1    3    3  502    0 -0.94163548439E+02 -0.92974416808E+02  0.11553274726E+03  0.17571654482E+03  0.41800000000E+01 0. -1.
         -5    1    3    3    0  502  0.70519245649E+01  0.11495013460E+01  0.11603978083E+03  0.11633466434E+03  0.41800000000E+01 0. -1.
        -11    1    1    2    0    0  0.98187253953E+02  0.65581763446E+02  0.21501665440E+03  0.24530362045E+03  0.00000000000E+00 0. -1.
         11    1    1    2    0    0 -0.11075630079E+02  0.26243152016E+02  0.11486849197E+03  0.11834755196E+03  0.00000000000E+00 0.  1.
</event>
<event>
 7    1  0.2499014E-009  0.2508420E+03  0.7561462E-02  0.1112774E+00
         -1   -1    0    0    0  501 -0.00000000000E+00  0.00000000000E+00  0.15873003961E+03  0.15873003961E+03  0.00000000000E+00 0.  1.
          1   -1    0    0  501    0  0.00000000000E+00 -0.00000000000E+00 -0.75126680187E+03  0.75126680187E+03  0.00000000000E+00 0. -1.
         25    2    1    2    0    0  0.18844745448E+03  0.12930192998E+03  0.81059044549E+01  0.26066408438E+03  0.12509447232E+03 0.  0.
          5    1    3    3  502    0  0.19382241996E+03  0.14383737247E+03 -0.25227762184E+01  0.24141283520E+03  0.41800000000E+01 0.  1.
         -5    1    3    3    0  502 -0.53749654843E+01 -0.14535442488E+02  0.10628680673E+02  0.19251249184E+02  0.41800000000E+01 0.  1.
        -11    1    1    2    0    0 -0.11594205439E+03 -0.27343139605E+02 -0.24731001796E+03  0.27450401134E+03  0.00000000000E+00 0.  1.
         11    1    1    2    0    0 -0.72505400092E+02 -0.10195879037E+03 -0.35333264875E+03  0.37482874576E+03  0.00000000000E+00 0. -1.
</event>
<event>
 7    1  0.2499014E-009  0.1248012E+03  0.7561462E-02  0.1235380E+00
         -1   -1    0    0    0  501 -0.00000000000E+00  0.00000000000E+00  0.80471743890E+02  0.80471743890E+02  0.00000000000E+00 0.  1.
          1   -1    0    0  501    0  0.00000000000E+00 -0.00000000000E+00 -0.35534129224E+03  0.35534129224E+03  0.00000000000E+00 0. -1.
         25    2    1    2    0    0 -0.79435609899E+02 -0.41288501198E+02 -0.26685915829E+03  0.30802052132E+03  0.12509226490E+03 0.  0.
          5    1    3    3  502    0 -0.10907647847E+03 -0.21911706289E+02 -0.23567849756E+03  0.26065231179E+03  0.41800000000E+01 0.  1.
         -5    1    3    3    0  502  0.29640868568E+02 -0.19376794910E+02 -0.31180660729E+02  0.47368209529E+02  0.41800000000E+01 0.  1.
        -11    1    1    2    0    0  0.86129169172E+02  0.33689715964E+02 -0.35062589291E+02  0.98907107488E+02  0.00000000000E+00 0. -1.
         11    1    1    2    0    0 -0.66935592725E+01  0.75987852343E+01  0.27052199235E+02  0.28885407323E+02  0.00000000000E+00 0.  1.
</event>
<event>
 7    1  0.2499014E-009  0.1590605E+03  0.7561462E-02  0.1189762E+00
         -2   -1    0    0    0  501 -0.00000000000E+00  0.00000000000E+00  0.46229564292E+02  0.46229564292E+02  0.00000000000E+00 0.  1.
          2   -1    0    0  501    0  0.00000000000E+00 -0.00000000000E+00 -0.87537042910E+03  0.87537042910E+03  0.00000000000E+00 0. -1.
         25    2    1    2    0    0  0.81812604566E+02 -0.13052996132E+03 -0.26804894437E+03  0.33351109465E+03  0.12509212848E+03 0.  0.
          5    1    3    3  502    0  0.44422061052E+02 -0.11497489415E+03 -0.26546809777E+03  0.29271714867E+03  0.41800000000E+01 0.  1.
         -5    1    3    3    0  502  0.37390543514E+02 -0.15555067173E+02 -0.25808465949E+01  0.40793945975E+02  0.41800000000E+01 0.  1.
        -11    1    1    2    0    0 -0.37855787217E+02  0.57550945679E+02 -0.11595853244E+03  0.13487606615E+03  0.00000000000E+00 0.  1.
         11    1    1    2    0    0 -0.43956817349E+02  0.72979015639E+02 -0.44513338800E+03  0.45321283260E+03  0.00000000000E+00 0. -1.
</event>
<event>
 7    1  0.2499014E-009  0.8141160E+02  0.7561462E-02  0.1325093E+00
         -2   -1    0    0    0  501 -0.00000000000E+00  0.00000000000E+00  0.51793332521E+02  0.51793332521E+02  0.00000000000E+00 0.  1.
          2   -1    0    0  501    0  0.00000000000E+00 -0.00000000000E+00 -0.23657923031E+03  0.23657923031E+03  0.00000000000E+00 0. -1.
         25    2    1    2    0    0 -0.20211948652E+02  0.21983793298E+02 -0.10313348519E+03  0.16485147548E+03  0.12509069975E+03 0.  0.
          5    1    3    3  502    0 -0.45471170487E+02 -0.12784877657E+02  0.57051421363E+01  0.47760878226E+02  0.41800000000E+01 0. -1.
         -5    1    3    3    0  502  0.25259221835E+02  0.34768670955E+02 -0.10883862732E+03  0.11709059725E+03  0.41800000000E+01 0. -1.
        -11    1    1    2    0    0 -0.11194801289E+02 -0.36097663790E+02 -0.33009708331E+01  0.37937597650E+02  0.00000000000E+00 0.  1.
         11    1    1    2    0    0  0.31406749940E+02  0.14113870492E+02 -0.78351441768E+02  0.85583489700E+02  0.00000000000E+00 0. -1.
</event>
<event>
 7    1  0.2499014E-009  0.1847374E+03  0.7561462E-02  0.1163295E+00
          2   -1    0    0  501    0  0.00000000000E+00  0.00000000000E+00  0.11003100225E+04  0.11003100225E+04  0.00000000000E+00 0. -1.
         -2   -1    0    0    0  501 -0.00000000000E+00 -0.00000000000E+00 -0.40822022738E+02  0.40822022738E+02  0.00000000000E+00 0.  1.
         25    2    1    2    0    0  0.13865978556E+03  0.77679409268E+02  0.79699800559E+03  0.82226291165E+03  0.12509935337E+03 0.  0.
          5    1    3    3  502    0  0.11091226104E+03 -0.20021515490E+01  0.34440402318E+03  0.36185237576E+03  0.41800000000E+01 0.  1.
         -5    1    3    3    0  502  0.27747524522E+02  0.79681560817E+02  0.45259398241E+03  0.46041053589E+03  0.41800000000E+01 0.  1.
        -11    1    1    2    0    0 -0.72371894701E+02 -0.66595693415E+00  0.15437127513E+03  0.17049523520E+03  0.00000000000E+00 0. -1.
         11    1    1    2    0    0 -0.66287890861E+02 -0.77013452334E+02  0.10811871907E+03  0.14837389840E+03  0.00000000000E+00 0.  1.
</event>
<event>
 7    1  0.2499014E-009  0.2818122E+03  0.7561462E-02  0.1094703E+00
          2   -1    0    0  501    0  0.00000000000E+00  0.00000000000E+00  0.34310418890E+03  0.34310418890E+03  0.00000000000E+00 0. -1.
         -2   -1    0    0    0  501 -0.00000000000E+00 -0.00000000000E+00 -0.25774192011E+03  0.25774192011E+03  0.00000000000E+00 0.  1.
         25    2    1    2    0    0 -0.25909962345E+03 -0.95267726555E+02  0.26724206749E+02  0.30425059728E+03  0.12508272513E+03 0.  0.
          5    1    3    3  502    0 -0.12967544463E+03 -0.47213263730E+02 -0.49282180212E+02  0.14659815449E+03  0.41800000000E+01 0.  1.
         -5    1    3    3    0  502 -0.12942417882E+03 -0.48054462826E+02  0.76006386961E+02  0.15765244280E+03  0.41800000000E+01 0.  1.
        -11    1    1    2    0    0  0.36347210419E+02  0.47173789134E+02  0.30712817808E+02  0.67005695760E+02  0.00000000000E+00 0. -1.
         11    1    1    2    0    0  0.22275241303E+03  0.48093937421E+02  0.27925244236E+02  0.22958981596E+03  0.00000000000E+00 0.  1.
</event>
<event>
 7    1  0.2499014E-009  0.2416577E+03  0.7561462E-02  0.1118693E+00
         -1   -1    0    0    0  501 -0.00000000000E+00  0.00000000000E+00  0.88311438199E+02  0.88311438199E+02  0.00000000000E+00 0.  1.
          1   -1    0    0  501    0  0.00000000000E+00 -0.00000000000E+00 -0.69968679579E+03  0.69968679579E+03  0.00000000000E+00 0. -1.
         25    2    1    2    0    0 -0.21488747786E+03  0.53823078720E+02 -0.26651951586E+03  0.36844821983E+03  0.12509151216E+03 0.  0.
          5    1    3    3  502    0 -0.84664430812E+02 -0.31589610943E+02 -0.55429080190E+02  0.10609347150E+03  0.41800000000E+01 0. -1.
         -5    1    3    3    0  502 -0.13022304705E+03  0.85412689662E+02 -0.21109043567E+03  0.26235474833E+03  0.41800000000E+01 0. -1.
        -11    1    1    2    0    0  0.95501788611E+00 -0.20532585924E+02 -0.17085631595E+02  0.26728597997E+02  0.00000000000E+00 0.  1.
         11    1    1    2    0    0  0.21393245998E+03 -0.33290492795E+02 -0.32777021013E+03  0.39282141616E+03  0.00000000000E+00 0. -1.
</event>
<event>
 7    1  0.2499014E-009  0.1119273E+03  0.7561462E-02  0.1257042E+00
         -2   -1    0    0    0  501 -0.00000000000E+00  0.00000000000E+00  0.26741118943E+02  0.26741118943E+02  0.00000000000E+00 0.  1.
          2   -1    0    0  501    0  0.00000000000E+00 -0.00000000000E+00 -0.58173097140E+03  0.58173097140E+03  0.00000000000E+00 0. -1.
         25    2    1    2    0    0  0.21083122757E+02 -0.16229443207E+02 -0.43516099279E+03  0.45356607788E+03  0.12509678040E+03 0.  0.
          5    1    3    3  502    0 -0.38938719235E+02 -0.46098253258E+02 -0.19253101681E+03  0.20180916145E+03  0.41800000000E+01 0.  1.
         -5    1    3    3    0  502  0.60021841992E+02  0.29868810051E+02 -0.24262997597E+03  0.25175691643E+03  0.41800000000E+01 0.  1.
        -11    1    1    2    0    0 -0.55901483305E+02 -0.37911909413E+01 -0.54152259949E+02  0.77921859719E+02  0.00000000000E+00 0.  1.
         11    1    1    2    0    0  0.34818360549E+02  0.20020634149E+02 -0.65676599717E+02  0.76984152742E+02  0.00000000000E+00 0. -1.
</event>
<event>
 7    1  0.2499014E-009  0.1147829E+03  0.7561462E-02  0.1251961E+00
         -1   -1    0    0    0  501 -0.00000000000E+00  0.00000000000E+00  0.41293035790E+03  0.41293035790E+03  0.00000000000E+00 0.  1.
          1   -1    0    0  501    0  0.00000000000E+00 -0.00000000000E+00 -0.49639648470E+02  0.49639648470E+02  0.00000000000E+00 0. -1.
         25    2    1    2    0    0  0.79901680480E+02 -0.80175609214E+01  0.28137882120E+03  0.31822979514E+03  0.12509037401E+03 0.  0.
          5    1    3    3  502    0  0.32145585471E+02 -0.46285116215E+02  0.23399151299E+03  0.24071799102E+03  0.41800000000E+01 0.  1.
         -5    1    3    3    0  502  0.47756095009E+02  0.38267555294E+02  0.47387308200E+02  0.77511804115E+02  0.41800000000E+01 0.  1.
        -11    1    1    2    0    0  0.98668707266E+01  0.18872495100E+02  0.38588391444E+02  0.44074824600E+02  0.00000000000E+00 0.  1.
         11    1    1    2    0    0 -0.89768551207E+02 -0.10854934179E+02  0.43323496787E+02  0.10026538663E+03  0.00000000000E+00 0. -1.
</event>
<event>
 7    1  0.2499014E-009  0.1156736E+03  0.7561462E-02  0.1250410E+00
          2   -1    0    0  501    0  0.00000000000E+00  0.00000000000E+00  0.73569822211E+02  0.73569822211E+02  0.00000000000E+00 0. -1.
         -2   -1    0    0    0  501 -0.00000000000E+00 -0.00000000000E+00 -0.19138894848E+03  0.19138894848E+03  0.00000000000E+00 0.  1.
         25    2    1    2    0    0 -0.11297770501E+02  0.43876934965E+02 -0.79115271729E+02  0.15478786473E+03  0.12508889561E+03 0.  0.
          5    1    3    3  502    0 -0.62161392293E+02 -0.44935332625E+01 -0.32378044850E+02  0.70356525790E+02  0.41800000000E+01 0.  1.
         -5    1    3    3    0  502  0.50863621792E+02  0.48370468228E+02 -0.46737226879E+02  0.84431338937E+02  0.41800000000E+01 0.  1.
        -11    1    1    2    0    0 -0.38082300656E+02 -0.12584984483E+02 -0.32036135984E+02  0.51331836773E+02  0.00000000000E+00 0.  1.
         11    1    1    2    0    0  0.49380071157E+02 -0.31291950482E+02 -0.66677185560E+01  0.58839069190E+02  0.00000000000E+00 0. -1.
</event>
<event>
 7    1  0.2499014E-009  0.1977082E+03  0.7561462E-02  0.1151687E+00
          2   -1    0    0  501    0  0.00000000000E+00  0.00000000000E+00  0.25707396079E+04  0.25707396079E+04  0.00000000000E+00 0. -1.
         -2   -1    0    0    0  501 -0.00000000000E+00 -0.00000000000E+00 -0.23612021911E+02  0.23612021911E+02  0.00000000000E+00 0.  1.
         25    2    1    2    0    0  0.14090725809E+03 -0.10910398482E+03  0.19991727320E+04  0.20109939964E+04  0.12508679564E+03 0.  0.
          5    1    3    3  502    0  0.12292909497E+03 -0.28514610815E+02  0.14686927936E+04  0.14741101179E+04  0.41800000000E+01 0.  1.
         -5    1    3    3    0  502  0.17978163120E+02 -0.80589374002E+02  0.53047993835E+03  0.53688387845E+03  0.41800000000E+01 0.  1.
        -11    1    1    2    0    0 -0.16173277091E+02 -0.55063243110E+01  0.11006481651E+02  0.20323315123E+02  0.00000000000E+00 0.  1.
         11    1    1    2    0    0 -0.12473398099E+03  0.11461030913E+03  0.53694837238E+03  0.56303431829E+03  0.00000000000E+00 0. -1.
</event>
<event>
 7    1  0.2499014E-009  0.1273722E+03  0.7561462E-02  0.1231408E+00
          1   -1    0    0  501    0  0.00000000000E+00  0.00000000000E+00  0.40078533272E+03  0.40078533272E+03  0.00000000000E+00 0. -1.
         -1   -1    0    0    0  501 -0.00000000000E+00 -0.00000000000E+00 -0.44379667196E+02  0.44379667196E+02  0.00000000000E+00 0.  1.
         25    2    1    2    0    0  0.46959478484E+01  0.64913534666E+02  0.13099867918E+03  0.19246614104E+03  0.12508694013E+03 0.  0.
          5    1    3    3  502    0 -0.50269409715E+02 -0.62308976665E+01  0.51971058018E+02  0.72693197139E+02  0.41800000000E+01 0. -1.
         -5    1    3    3    0  502  0.54965357564E+02  0.71144432332E+02  0.79027621165E+02  0.11977294390E+03  0.41800000000E+01 0. -1.
        -11    1    1    2    0    0  0.41616587282E+02 -0.50447246054E+02  0.12007313441E+03  0.13672754872E+03  0.00000000000E+00 0.  1.
         11    1    1    2    0    0 -0.46312535130E+02 -0.14466288612E+02  0.10533385193E+03  0.11597131015E+03  0.00000000000E+00 0. -1.
</event>
<event>
 7    1  0.2499014E-009  0.1712041E+03  0.7561462E-02  0.1176598E+00
          3   -1    0    0  501    0  0.00000000000E+00  0.00000000000E+00  0.73675232912E+02  0.73675232912E+02  0.00000000000E+00 0. -1.
         -3   -1    0    0    0  501 -0.00000000000E+00 -0.00000000000E+00 -0.58074804309E+03  0.58074804309E+03  0.00000000000E+00 0.  1.
         25    2    1    2    0    0 -0.16354915654E+03 -0.32288473764E+02 -0.33916524091E+03  0.39808499697E+03  0.12509089507E+03 0.  0.
          5    1    3    3  502    0 -0.11461479285E+03 -0.14708579145E+02 -0.32361487136E+03  0.34365236854E+03  0.41800000000E+01 0. -1.
         -5    1    3    3    0  502 -0.48934363688E+02 -0.17579894619E+02 -0.15550369553E+02  0.54432628428E+02  0.41800000000E+01 0. -1.
        -11    1    1    2    0    0  0.11690920530E+03 -0.16697442156E+01 -0.54286629013E+02  0.12890922550E+03  0.00000000000E+00 0. -1.
         11    1    1    2    0    0  0.46639951239E+02  0.33958217980E+02 -0.11362094026E+03  0.12742905353E+03  0.00000000000E+00 0.  1.
</event>
<event>
 7    1  0.2499014E-009  0.6327919E+02  0.7561462E-02  0.1384564E+00
          1   -1    0    0  501    0  0.00000000000E+00  0.00000000000E+00  0.35494413950E+02  0.35494413950E+02  0.00000000000E+00 0. -1.
         -1   -1    0    0    0  501 -0.00000000000E+00 -0.00000000000E+00 -0.37120795603E+03  0.37120795603E+03  0.00000000000E+00 0.  1.
         25    2    1    2    0    0 -0.21603983684E+02 -0.14245933755E+02 -0.23937442458E+03  0.27132569284E+03  0.12509131749E+03 0.  0.
          5    1    3    3  502    0 -0.82816807560E+01 -0.15831452200E+02  0.10443378405E+02  0.21112973912E+02  0.41800000000E+01 0.  1.
         -5    1    3    3    0  502 -0.13322302928E+02  0.15855184454E+01 -0.24981780298E+03  0.25021271892E+03  0.41800000000E+01 0.  1.
        -11    1    1    2    0    0  0.44528867466E+02 -0.23230771256E+02 -0.41793623713E+02  0.65339082899E+02  0.00000000000E+00 0.  1.
         11    1    1    2    0    0 -0.22924883782E+02  0.37476705011E+02 -0.54545493790E+02  0.70037594245E+02  0.00000000000E+00 0. -1.
</event>
<event>
 7    1  0.2499014E-009  0.7414962E+02  0.7561462E-02  0.1346525E+00
          2   -1    0    0  501    0  0.00000000000E+00  0.00000000000E+00  0.59827203610E+03  0.59827203610E+03  0.00000000000E+00 0. -1.
         -2   -1    0    0    0  501 -0.00000000000E+00 -0.00000000000E+00 -0.19818163856E+02  0.19818163856E+02  0.00000000000E+00 0.  1.
         25    2    1    2    0    0  0.66932818284E+01 -0.19386572564E+02  0.34593589915E+03  0.36842951179E+03  0.12509204458E+03 0.  0.
          5    1    3    3  502    0 -0.26707149392E+02 -0.50323166736E+01  0.32521716118E+03  0.32637749673E+03  0.41800000000E+01 0. -1.
         -5    1    3    3    0  502  0.33400431220E+02 -0.14354255891E+02  0.20718737965E+02  0.42052015062E+02  0.41800000000E+01 0. -1.
        -11    1    1    2    0    0 -0.71548860464E+01 -0.32015166449E+02  0.48166320738E+02  0.58276562446E+02  0.00000000000E+00 0.  1.
         11    1    1    2    0    0  0.46160421801E+00  0.51401739013E+02  0.18435165236E+03  0.19138412572E+03  0.00000000000E+00 0. -1.
</event>
<event>
 7    1  0.2499014E-009  0.1059739E+03  0.7561462E-02  0.1268213E+00
         -2   -1    0    0    0  501 -0.00000000000E+00  0.00000000000E+00  0.79289746957E+02  0.79289746957E+02  0.00000000000E+00 0. -1.
          2   -1    0    0  501    0  0.00000000000E+00 -0.00000000000E+00 -0.18713954052E+03  0.18713954052E+03  0.00000000000E+00 0.  1.
         25    2    1    2    0    0  0.55130138676E+02  0.10402112400E+02 -0.64534382242E+02  0.15152524394E+03  0.12509067481E+03 0.  0.
          5    1    3    3  502    0  0.60556693527E+02 -0.37943332739E+02 -0.72690400709E+02  0.10202047042E+03  0.41800000000E+01 0.  1.
         -5    1    3    3    0  502 -0.54265548502E+01  0.48345445139E+02  0.81560184670E+01  0.49504773512E+02  0.41800000000E+01 0.  1.
        -11    1    1    2    0    0  0.16859664237E+02 -0.98847378082E+01 -0.37981863175E+02  0.42715082230E+02  0.00000000000E+00 0.  1.
         11    1    1    2    0    0 -0.71989802913E+02 -0.51737459135E+00 -0.53335481518E+01  0.72188961316E+02  0.00000000000E+00 0. -1.
</event>
<event>
 7    1  0.2499014E-009  0.8707725E+02  0.7561462E-02  0.1310088E+00
         -2   -1    0    0    0  501 -0.00000000000E+00  0.00000000000E+00  0.61972942518E+03  0.61972942518E+03  0.00000000000E+00 0.  1.
          2   -1    0    0  501    0  0.00000000000E+00 -0.00000000000E+00 -0.22722447820E+02  0.22722447820E+02  0.00000000000E+00 0. -1.
         25    2    1    2    0    0  0.15766836041E+02  0.77857062387E+01  0.45217565469E+03  0.46948549536E+03  0.12507836470E+03 0.  0.
          5    1    3    3  502    0 -0.31099037893E+02 -0.39261584277E+02  0.11052899906E+03  0.12141974383E+03  0.41800000000E+01 0. -1.
         -5    1    3    3    0  502  0.46865873934E+02  0.47047290516E+02  0.34164665563E+03  0.34806575153E+03  0.41800000000E+01 0. -1.
        -11    1    1    2    0    0 -0.32931940892E+02 -0.17849588955E+02  0.14813377007E+03  0.15279638213E+03  0.00000000000E+00 0.  1.
         11    1    1    2    0    0  0.17165104850E+02  0.10063882716E+02 -0.33024474086E+01  0.20169995507E+02  0.00000000000E+00 0. -1.
</event>
<event>
 7    1  0.5875744E-009  0.9984715E+02  0.7561462E-02  0.1280618E+00
         -1   -1    0    0    0  501 -0.00000000000E+00  0.00000000000E+00  0.28537748463E+02  0.28537748463E+02  0.00000000000E+00 0.  1.
          1   -1    0    0  501    0  0.00000000000E+00 -0.00000000000E+00 -0.50407578745E+03  0.50407578745E+03  0.00000000000E+00 0. -1.
         25    2    1    2    0    0 -0.12745727246E+02  0.13294914445E+02 -0.37349655074E+03  0.39431544634E+03  0.12508313033E+03 0.  0.
          5    1    3    3  502    0 -0.64772198862E+02  0.22480976983E+02 -0.15596311142E+03  0.17041947247E+03  0.41800000000E+01 0.  1.
         -5    1    3    3    0  502  0.52026471615E+02 -0.91860625376E+01 -0.21753343932E+03  0.22389597387E+03  0.41800000000E+01 0.  1.
        -11    1    1    2    0    0  0.18303533163E+02 -0.43553508423E+02 -0.21164481729E+02  0.51767390402E+02  0.00000000000E+00 0. -1.
         11    1    1    2    0    0 -0.55578059166E+01  0.30258593978E+02 -0.80877006518E+02  0.86530699173E+02  0.00000000000E+00 0.  1.
</event>
<event>
 7    1  0.2499014E-009  0.3945489E+03  0.7561462E-02  0.1045684E+00
          2   -1    0    0  501    0  0.00000000000E+00  0.00000000000E+00  0.26379781112E+04  0.26379781112E+04  0.00000000000E+00 0. -1.
         -2   -1    0    0    0  501 -0.00000000000E+00 -0.00000000000E+00 -0.81170045929E+02  0.81170045929E+02  0.00000000000E+00 0.  1.
         25    2    1    2    0    0  0.19769831017E+03  0.34002550715E+03  0.65007623846E+03  0.77003256643E+03  0.12509624376E+03 0.  0.
          5    1    3    3  502    0  0.17974987919E+03  0.28946571024E+03  0.45988096271E+03  0.57237084896E+03  0.41800000000E+01 0. -1.
         -5    1    3    3    0  502  0.17948430984E+02  0.50559796904E+02  0.19019527575E+03  0.19766171748E+03  0.41800000000E+01 0. -1.
        -11    1    1    2    0    0 -0.16047357348E+03 -0.24959750612E+03  0.15963012538E+04  0.16236466290E+04  0.00000000000E+00 0.  1.
         11    1    1    2    0    0 -0.37224736696E+02 -0.90428001034E+02  0.31043057300E+03  0.32546896173E+03  0.00000000000E+00 0. -1.
</event>
<event>
 7    1  0.2499014E-009  0.9322778E+02  0.7561462E-02  0.1295218E+00
          3   -1    0    0  501    0  0.00000000000E+00  0.00000000000E+00  0.11999624695E+03  0.11999624695E+03  0.00000000000E+00 0. -1.
         -3   -1    0    0    0  501 -0.00000000000E+00 -0.00000000000E+00 -0.12175328540E+03  0.12175328540E+03  0.00000000000E+00 0.  1.
         25    2    1    2    0    0  0.33595191085E+02  0.34988315023E+02  0.25016023647E+02  0.13646824500E+03  0.12507982013E+03 0.  0.
          5    1    3    3  502    0  0.72392682597E+02  0.10107181757E+02  0.45130751481E+02  0.86006469210E+02  0.41800000000E+01 0.  1.
         -5    1    3    3    0  502 -0.38797491513E+02  0.24881133266E+02 -0.20114727835E+02  0.50461775793E+02  0.41800000000E+01 0.  1.
        -11    1    1    2    0    0 -0.13010864571E+02 -0.42960613999E+02 -0.54006379579E+02  0.70225251778E+02  0.00000000000E+00 0.  1.
         11    1    1    2    0    0 -0.20584326514E+02  0.79722989763E+01  0.27233317481E+02  0.35056035572E+02  0.00000000000E+00 0. -1.
</event>
<event>
 7    1  0.2499014E-009  0.9232576E+02  0.7561462E-02  0.1297315E+00
          1   -1    0    0  501    0  0.00000000000E+00  0.00000000000E+00  0.35299111974E+03  0.35299111974E+03  0.00000000000E+00 0. -1.
         -1   -1    0    0    0  501 -0.00000000000E+00 -0.00000000000E+00 -0.54082560528E+02  0.54082560528E+02  0.00000000000E+00 0.  1.
         25    2    1    2    0    0  0.42338715494E+02 -0.35799617804E+02  0.25930011127E+03  0.29318579956E+03  0.12508871208E+03 0.  0.
          5    1    3    3  502    0  0.70266249685E+02 -0.15499542539E+02  0.24534364850E+03  0.25571186895E+03  0.41800000000E+01 0. -1.
         -5    1    3    3    0  502 -0.27927534191E+02 -0.20300075265E+02  0.13956462771E+02  0.37473930602E+02  0.41800000000E+01 0. -1.
        -11    1    1    2    0    0 -0.41457450276E+01  0.39231461036E+02  0.58955469182E+02  0.70936888029E+02  0.00000000000E+00 0. -1.
         11    1    1    2    0    0 -0.38192970467E+02 -0.34318432323E+01 -0.19347021245E+02  0.42950992679E+02  0.00000000000E+00 0.  1.
</event>
<event>
 7    1  0.2499014E-009  0.8710986E+02  0.7561462E-02  0.1310005E+00
         -1   -1    0    0    0  501 -0.00000000000E+00  0.00000000000E+00  0.98266253973E+02  0.98266253973E+02  0.00000000000E+00 0.  1.
          1   -1    0    0  501    0  0.00000000000E+00 -0.00000000000E+00 -0.17775256490E+03  0.17775256490E+03  0.00000000000E+00 0. -1.
         25    2    1    2    0    0 -0.31045376999E+01  0.42465029003E+02 -0.10928655001E+03  0.17147285692E+03  0.12508586573E+03 0.  0.
          5    1    3    3  502    0 -0.26479461955E+02  0.74985971293E+02 -0.10380802514E+03  0.13083438493E+03  0.41800000000E+01 0.  1.
         -5    1    3    3    0  502  0.23374924255E+02 -0.32520942290E+02 -0.54785248691E+01  0.40638471995E+02  0.41800000000E+01 0.  1.
        -11    1    1    2    0    0  0.16222945915E+02 -0.94077132981E+01 -0.29759574331E+02  0.35175578289E+02  0.00000000000E+00 0. -1.
         11    1    1    2    0    0 -0.13118408215E+02 -0.33057315705E+02  0.59559813412E+02  0.69370383662E+02  0.00000000000E+00 0.  1.
</event>
<event>
 7    1  0.2499014E-009  0.1720045E+03  0.7561462E-02  0.1175773E+00
          2   -1    0    0  501    0  0.00000000000E+00  0.00000000000E+00  0.32844392619E+03  0.32844392619E+03  0.00000000000E+00 0. -1.
         -2   -1    0    0    0  501 -0.00000000000E+00 -0.00000000000E+00 -0.10407019862E+03  0.10407019862E+03  0.00000000000E+00 0.  1.
         25    2    1    2    0    0 -0.96432248016E+02 -0.11352024713E+03  0.10186666058E+03  0.21956943507E+03  0.12509154772E+03 0.  0.
          5    1    3    3  502    0 -0.48984664763E+02  0.19532776497E+02  0.33122072971E+02  0.62414508390E+02  0.41800000000E+01 0. -1.
         -5    1    3    3    0  502 -0.47447583252E+02 -0.13305302363E+03  0.68744587613E+02  0.15715492668E+03  0.41800000000E+01 0. -1.
        -11    1    1    2    0    0  0.52167901626E+02  0.49214451251E+02  0.50315778614E+01  0.71894846462E+02  0.00000000000E+00 0. -1.
         11    1    1    2    0    0  0.44264346390E+02  0.64305795880E+02  0.11747548913E+03  0.14104984328E+03  0.00000000000E+00 0.  1.
</event>
<event>
 7    1  0.2499014E-009  0.1071368E+03  0.7561462E-02  0.1265966E+00
         -2   -1    0    0    0  501 -0.00000000000E+00  0.00000000000E+00  0.42862856802E+02  0.42862856802E+02  0.00000000000E+00 0. -1.
          2   -1    0    0  501    0  0.00000000000E+00 -0.00000000000E+00 -0.30270501064E+03  0.30270501064E+03  0.00000000000E+00 0.  1.
         25    2    1    2    0    0  0.26669715018E+02  0.25309435395E+02 -0.14100311525E+03  0.19204400160E+03  0.12508868384E+03 0.  0.
          5    1    3    3  502    0  0.53778256880E+02 -0.27043218581E+02 -0.10961030369E+03  0.12512125183E+03  0.41800000000E+01 0. -1.
         -5    1    3    3    0  502 -0.27108541862E+02  0.52352653976E+02 -0.31392811560E+02  0.66922749778E+02  0.41800000000E+01 0. -1.
        -11    1    1    2    0    0 -0.13471827131E+02 -0.58017121371E+02 -0.90201936210E+02  0.10809193214E+03  0.00000000000E+00 0.  1.
         11    1    1    2    0    0 -0.13197887888E+02  0.32707685976E+02 -0.28637102385E+02  0.45431933698E+02  0.00000000000E+00 0. -1.
</event>
<event>
 7    1  0.2499014E-009  0.1146840E+03  0.7561462E-02  0.1252134E+00
         -1   -1    0    0    0  501 -0.00000000000E+00  0.00000000000E+00  0.35747219908E+03  0.35747219908E+03  0.00000000000E+00 0. -1.
          1   -1    0    0  501    0  0.00000000000E+00 -0.00000000000E+00 -0.47177826065E+02  0.47177826065E+02  0.00000000000E+00 0.  1.
         25    2    1    2    0    0 -0.66706120458E+02  0.86516073059E+00  0.21279060000E+03  0.25569150037E+03  0.12509136223E+03 0.  0.
          5    1    3    3  502    0 -0.56743392257E+01  0.55024009031E+02  0.11906175126E+03  0.13135072405E+03  0.41800000000E+01 0.  1.
         -5    1    3    3    0  502 -0.61031781232E+02 -0.54158848300E+02  0.93728848740E+02  0.12434077632E+03  0.41800000000E+01 0.  1.
        -11    1    1    2    0    0  0.40409181485E+02 -0.31921420377E+02  0.10004687438E+02  0.52459248926E+02  0.00000000000E+00 0. -1.
         11    1    1    2    0    0  0.26296938973E+02  0.31056259646E+02  0.87499085570E+02  0.96499275842E+02  0.00000000000E+00 0.  1.
</event>
<event>
 7    1  0.2499014E-009  0.6678372E+02  0.7561462E-02  0.1371385E+00
         -1   -1    0    0    0  501 -0.00000000000E+00  0.00000000000E+00  0.26044851609E+03  0.26044851609E+03  0.00000000000E+00 0.  1.
          1   -1    0    0  501    0  0.00000000000E+00 -0.00000000000E+00 -0.64603045072E+02  0.64603045072E+02  0.00000000000E+00 0. -1.
         25    2    1    2    0    0  0.48225115310E+02 -0.41075326309E+02  0.14507613858E+03  0.20176048419E+03  0.12508941929E+03 0.  0.
          5    1    3    3  502    0  0.50727285739E+02 -0.39155235807E+02  0.81478873380E+01  0.64732144083E+02  0.41800000000E+01 0.  1.
         -5    1    3    3    0  502 -0.25021704290E+01 -0.19200905015E+01  0.13692825124E+03  0.13702834010E+03  0.41800000000E+01 0.  1.
        -11    1    1    2    0    0 -0.40470812264E+02  0.29098690259E+02  0.77989648242E+02  0.92558120406E+02  0.00000000000E+00 0.  1.
         11    1    1    2    0    0 -0.77543030461E+01  0.11976636049E+02 -0.27220315804E+02  0.30732956566E+02  0.00000000000E+00 0. -1.
</event>
<event>
 7    1  0.2499014E-009  0.1562371E+03  0.7561462E-02  0.1193012E+00
          1   -1    0    0  501    0  0.00000000000E+00  0.00000000000E+00  0.48466112993E+02  0.48466112993E+02  0.00000000000E+00 0. -1.
         -1   -1    0    0    0  501 -0.00000000000E+00 -0.00000000000E+00 -0.70759623956E+03  0.70759623956E+03  0.00000000000E+00 0.  1.
         25    2    1    2    0    0  0.33604460792E+02 -0.12766680021E+03 -0.20271205028E+03  0.27233875680E+03  0.12509257158E+03 0.  0.
          5    1    3    3  502    0 -0.75501156599E+01 -0.10783584256E+03 -0.62776448975E+02  0.12507568961E+03  0.41800000000E+01 0. -1.
         -5    1    3    3    0  502  0.41154576451E+02 -0.19830957651E+02 -0.13993560130E+03  0.14726306718E+03  0.41800000000E+01 0. -1.
        -11    1    1    2    0    0 -0.62859487049E+02  0.10023711389E+03 -0.36993140217E+03  0.38839160190E+03  0.00000000000E+00 0.  1.
         11    1    1    2    0    0  0.29255026258E+02  0.27429686322E+02 -0.86486674116E+02  0.95331993856E+02  0.00000000000E+00 0. -1.
</event>
<event>
 7    1  0.2499014E-009  0.1530019E+03  0.7561462E-02  0.1196832E+00
          2   -1    0    0  501    0  0.00000000000E+00  0.00000000000E+00  0.52545549847E+03  0.52545549847E+03  0.00000000000E+00 0.  1.
         -2   -1    0    0    0  501 -0.00000000000E+00 -0.00000000000E+00 -0.70016692315E+02  0.70016692315E+02  0.00000000000E+00 0. -1.
         25    2    1    2    0    0  0.96079403312E+02  0.84307812649E+02  0.38013872003E+03  0.42011085741E+03  0.12509447246E+03 0.  0.
          5    1    3    3  502    0 -0.27356186472E+02  0.74873401090E+00  0.39215795384E+02  0.48002838963E+02  0.41800000000E+01 0. -1.
         -5    1    3    3    0  502  0.12343558978E+03  0.83559078638E+02  0.34092292464E+03  0.37210801845E+03  0.41800000000E+01 0. -1.
        -11    1    1    2    0    0 -0.59065394983E+02 -0.63571672997E+02  0.94928841048E+02  0.12861400917E+03  0.00000000000E+00 0.  1.
         11    1    1    2    0    0 -0.37014008329E+02 -0.20736139652E+02 -0.19628754920E+02  0.46747324201E+02  0.00000000000E+00 0. -1.
</event>
<event>
 7    1  0.2499014E-009  0.1371723E+03  0.7561462E-02  0.1217185E+00
         -4   -1    0    0    0  501 -0.00000000000E+00  0.00000000000E+00  0.15059849085E+03  0.15059849085E+03  0.00000000000E+00 0. -1.
          4   -1    0    0  501    0  0.00000000000E+00 -0.00000000000E+00 -0.17075243709E+03  0.17075243709E+03  0.00000000000E+00 0.  1.
         25    2    1    2    0    0 -0.97005783120E+02  0.21002887743E+02 -0.66319883845E+02  0.17290818677E+03  0.12509065035E+03 0.  0.
          5    1    3    3  502    0  0.19545665842E+01 -0.37844797457E+02  0.33459730747E+01  0.38271620829E+02  0.41800000000E+01 0. -1.
         -5    1    3    3    0  502 -0.98960349704E+02  0.58847685200E+02 -0.69665856920E+02  0.13463656594E+03  0.41800000000E+01 0. -1.
        -11    1    1    2    0    0  0.10555589911E+03 -0.28823876595E+02  0.64305816212E+02  0.12691769655E+03  0.00000000000E+00 0. -1.
         11    1    1    2    0    0 -0.85501159897E+01  0.78209888521E+01 -0.18139878610E+02  0.21525044623E+02  0.00000000000E+00 0.  1.
</event>
<event>
 7    1  0.2499014E-009  0.1253531E+03  0.7561462E-02  0.1234518E+00
          2   -1    0    0  501    0  0.00000000000E+00  0.00000000000E+00  0.60565141120E+03  0.60565141120E+03  0.00000000000E+00 0. -1.
         -2   -1    0    0    0  501 -0.00000000000E+00 -0.00000000000E+00 -0.30382094355E+02  0.30382094355E+02  0.00000000000E+00 0.  1.
         25    2    1    2    0    0  0.33288655888E+02  0.69859044548E+02  0.38499237381E+03  0.41213478325E+03  0.12509009136E+03 0.  0.
          5    1    3    3  502    0  0.18610267238E+02 -0.29993365217E+02  0.18153533608E+03  0.18498241714E+03  0.41800000000E+01 0.  1.
         -5    1    3    3    0  502  0.14678388650E+02  0.99852409765E+02  0.20345703773E+03  0.22715236611E+03  0.41800000000E+01 0.  1.
        -11    1    1    2    0    0 -0.21937536015E+02  0.16246889178E+02  0.73199932462E+02  0.78124560842E+02  0.00000000000E+00 0. -1.
         11    1    1    2    0    0 -0.11351119873E+02 -0.86105933726E+02  0.11707701057E+03  0.14577416146E+03  0.00000000000E+00 0.  1.
</event>
<event>
 7    1  0.2499014E-009  0.1598055E+03  0.7561462E-02  0.1188917E+00
         -1   -1    0    0    0  501 -0.00000000000E+00  0.00000000000E+00  0.51147450698E+03  0.51147450698E+03  0.00000000000E+00 0.  1.
          1   -1    0    0  501    0  0.00000000000E+00 -0.00000000000E+00 -0.93889050700E+02  0.93889050700E+02  0.00000000000E+00 0. -1.
         25    2    1    2    0    0  0.36031534333E+02 -0.12927407192E+03  0.40279052225E+03  0.44260362599E+03  0.12509079815E+03 0.  0.
          5    1    3    3  502    0 -0.20159350689E+02 -0.91657063935E+02  0.33022855653E+03  0.34333043666E+03  0.41800000000E+01 0. -1.
         -5    1    3    3    0  502  0.56190885022E+02 -0.37617007982E+02  0.72561965720E+02  0.99273189322E+02  0.41800000000E+01 0. -1.
        -11    1    1    2    0    0 -0.47764361509E+02  0.26783634231E+02 -0.12248285949E+02  0.56114327953E+02  0.00000000000E+00 0.  1.
         11    1    1    2    0    0  0.11732827176E+02  0.10249043769E+03  0.27043219974E+02  0.10664560374E+03  0.00000000000E+00 0. -1.
</event>
<event>
 7    1  0.3077096E-009  0.1660503E+03  0.7561462E-02  0.1182030E+00
         -2   -1    0    0    0  501 -0.00000000000E+00  0.00000000000E+00  0.22135952505E+03  0.22135952505E+03  0.00000000000E+00 0.  1.
          2   -1    0    0  501    0  0.00000000000E+00 -0.00000000000E+00 -0.13505021406E+03  0.13505021406E+03  0.00000000000E+00 0. -1.
         25    2    1    2    0    0 -0.29452439408E+02  0.13116056654E+03  0.50981868398E+02  0.19056929858E+03  0.12508783416E+03 0.  0.
          5    1    3    3  502    0 -0.42508658422E+02  0.15243882803E+03  0.44190626968E+02  0.16436199756E+03  0.41800000000E+01 0. -1.
         -5    1    3    3    0  502  0.13056219013E+02 -0.21278261484E+02  0.67912414296E+01  0.26207301022E+02  0.41800000000E+01 0. -1.
        -11    1    1    2    0    0 -0.18486877761E+02 -0.59137978936E+02  0.48027956531E+02  0.78394832805E+02  0.00000000000E+00 0.  1.
         11    1    1    2    0    0  0.47939317169E+02 -0.72022587605E+02 -0.12700513940E+02  0.87445607725E+02  0.00000000000E+00 0. -1.
</event>
<event>
 7    1  0.2499014E-009  0.1669243E+03  0.7561462E-02  0.1181094E+00
          3   -1    0    0  501    0  0.00000000000E+00  0.00000000000E+00  0.13029223338E+03  0.13029223338E+03  0.00000000000E+00 0. -1.
         -3   -1    0    0    0  501 -0.00000000000E+00 -0.00000000000E+00 -0.26270663455E+03  0.26270663455E+03  0.00000000000E+00 0.  1.
         25    2    1    2    0    0  0.12264285972E+03  0.85454340438E+02 -0.85702213349E+02  0.21292468026E+03  0.12509330417E+03 0.  0.
          5    1    3    3  502    0  0.12562838358E+03  0.92425289247E+02 -0.10750039262E+03  0.18946960619E+03  0.41800000000E+01 0. -1.
         -5    1    3    3    0  502 -0.29855238615E+01 -0.69709488091E+01  0.21798179274E+02  0.23455074071E+02  0.41800000000E+01 0. -1.
        -11    1    1    2    0    0 -0.36574711064E+01 -0.42516199651E+02 -0.30699908164E+02  0.52568894690E+02  0.00000000000E+00 0.  1.
         11    1    1    2    0    0 -0.11898538862E+03 -0.42938140787E+02 -0.16012279653E+02  0.12750529298E+03  0.00000000000E+00 0. -1.
</event>
<event>
 7    1  0.2499014E-009  0.1493395E+03  0.7561462E-02  0.1201287E+00
          1   -1    0    0  501    0  0.00000000000E+00  0.00000000000E+00  0.71647555652E+03  0.71647555652E+03  0.00000000000E+00 0. -1.
         -1   -1    0    0    0  501 -0.00000000000E+00 -0.00000000000E+00 -0.44707492514E+02  0.44707492514E+02  0.00000000000E+00 0.  1.
         25    2    1    2    0    0 -0.12556087719E+03 -0.63581439269E+02  0.32019579274E+03  0.37145889248E+03  0.12509288473E+03 0.  0.
          5    1    3    3  502    0 -0.50363125015E+02 -0.37434615458E+01  0.17126343002E+02  0.53490577583E+02  0.41800000000E+01 0.  1.
         -5    1    3    3    0  502 -0.75197752180E+02 -0.59837977724E+02  0.30306944974E+03  0.31796831489E+03  0.41800000000E+01 0.  1.
        -11    1    1    2    0    0  0.86679195665E+02  0.12436769873E+02  0.28081515477E+03  0.29415150408E+03  0.00000000000E+00 0. -1.
         11    1    1    2    0    0  0.38881681529E+02  0.51144669396E+02  0.70757116497E+02  0.95572652476E+02  0.00000000000E+00 0.  1.
</event>
<event>
 7    1  0.2499014E-009  0.2121574E+03  0.7561462E-02  0.1139869E+00
         -2   -1    0    0    0  501 -0.00000000000E+00  0.00000000000E+00  0.91207107897E+02  0.91207107897E+02  0.00000000000E+00 0.  1.
          2   -1    0    0  501    0  0.00000000000E+00 -0.00000000000E+00 -0.58258617385E+03  0.58258617385E+03  0.00000000000E+00 0. -1.
         25    2    1    2    0    0  0.15075033176E+03 -0.13784137765E+03 -0.25426220421E+03  0.34931852009E+03  0.12509297368E+03 0.  0.
          5    1    3    3  502    0  0.95781853626E+02 -0.76705144648E+02 -0.23443905245E+03  0.26464501584E+03  0.41800000000E+01 0. -1.
         -5    1    3    3    0  502  0.54968478139E+02 -0.61136233003E+02 -0.19823151766E+02  0.84673504242E+02  0.41800000000E+01 0. -1.
        -11    1    1    2    0    0 -0.14180264948E+03  0.14847772549E+03 -0.20827656250E+03  0.29245983118E+03  0.00000000000E+00 0.  1.
         11    1    1    2    0    0 -0.89476822878E+01 -0.10636347837E+02 -0.28840299237E+02  0.32014930482E+02  0.00000000000E+00 0. -1.
</event>
<event>
 7    1  0.2499014E-009  0.1372037E+03  0.7561462E-02  0.1217142E+00
          1   -1    0    0  501    0  0.00000000000E+00  0.00000000000E+00  0.33082285772E+03  0.33082285772E+03  0.00000000000E+00 0. -1.
         -1   -1    0    0    0  501 -0.00000000000E+00 -0.00000000000E+00 -0.64845740905E+02  0.64845740905E+02  0.00000000000E+00 0.  1.
         25    2    1    2    0    0 -0.87833978047E+02  0.27278019631E+02  0.19969766230E+03  0.25295313457E+03  0.12508890400E+03 0.  0.
          5    1    3    3  502    0  0.96488510390E+01 -0.34957499867E+02  0.71260880416E+02  0.80066925762E+02  0.41800000000E+01 0.  1.
         -5    1    3    3    0  502 -0.97482829086E+02  0.62235519498E+02  0.12843678189E+03  0.17288620881E+03  0.41800000000E+01 0.  1.
        -11    1    1    2    0    0  0.17073713705E+02  0.27716652019E+02  0.23623516240E+01  0.32639013527E+02  0.00000000000E+00 0.  1.
         11    1    1    2    0    0  0.70760264343E+02 -0.54994671650E+02  0.63917102890E+02  0.11007645053E+03  0.00000000000E+00 0. -1.
</event>
<event>
 7    1  0.2499014E-009  0.1533552E+03  0.7561462E-02  0.1196410E+00
          2   -1    0    0  501    0  0.00000000000E+00  0.00000000000E+00  0.81598883810E+02  0.81598883810E+02  0.00000000000E+00 0. -1.
         -2   -1    0    0    0  501 -0.00000000000E+00 -0.00000000000E+00 -0.55071296423E+03  0.55071296423E+03  0.00000000000E+00 0.  1.
         25    2    1    2    0    0 -0.10096914841E+03 -0.73668159896E+02 -0.44208322419E+03  0.47613734299E+03  0.12508967011E+03 0.  0.
          5    1    3    3  502    0  0.26276436381E+02 -0.25882160254E+02 -0.59757006918E+02  0.70347065355E+02  0.41800000000E+01 0. -1.
         -5    1    3    3    0  502 -0.12724558480E+03 -0.47785999642E+02 -0.38232621727E+03  0.40579027763E+03  0.41800000000E+01 0. -1.
        -11    1    1    2    0    0  0.22955644477E+02 -0.42483410973E+01 -0.38807352155E+02  0.45288194894E+02  0.00000000000E+00 0.  1.
         11    1    1    2    0    0  0.78013503938E+02  0.77916500994E+02  0.11776495922E+02  0.11088631016E+03  0.00000000000E+00 0. -1.
</event>
<event>
 7    1  0.2499014E-009  0.2001307E+03  0.7561462E-02  0.1149629E+00
          1   -1    0    0  501    0  0.00000000000E+00  0.00000000000E+00  0.49470134219E+03  0.49470134219E+03  0.00000000000E+00 0. -1.
         -1   -1    0    0    0  501 -0.00000000000E+00 -0.00000000000E+00 -0.10108951110E+03  0.10108951110E+03  0.00000000000E+00 0.  1.
         25    2    1    2    0    0  0.16380085602E+03 -0.10280478608E+03  0.23323025855E+03  0.32778312765E+03  0.12508349529E+03 0.  0.
          5    1    3    3  502    0  0.13387436684E+02  0.10719845956E+02  0.88209697296E+02  0.89958666371E+02  0.41800000000E+01 0. -1.
         -5    1    3    3    0  502  0.15041341933E+03 -0.11352463204E+03  0.14502056125E+03  0.23782446128E+03  0.41800000000E+01 0. -1.
        -11    1    1    2    0    0 -0.15237114687E+03  0.10028579279E+03  0.10307888482E+03  0.20952198722E+03  0.00000000000E+00 0.  1.
         11    1    1    2    0    0 -0.11429709144E+02  0.25189932945E+01  0.57302687717E+02  0.58485738415E+02  0.00000000000E+00 0. -1.
</event>
<event>
 7    1  0.2499014E-009  0.1060099E+03  0.7561462E-02  0.1268142E+00
         -3   -1    0    0    0  501 -0.00000000000E+00  0.00000000000E+00  0.25034026676E+03  0.25034026676E+03  0.00000000000E+00 0.  1.
          3   -1    0    0  501    0  0.00000000000E+00 -0.00000000000E+00 -0.90204594300E+02  0.90204594300E+02  0.00000000000E+00 0. -1.
         25    2    1    2    0    0 -0.56853596479E+02  0.45827394483E+02  0.59264776727E+00  0.14484607071E+03  0.12509017328E+03 0.  0.
          5    1    3    3  502    0 -0.83415714417E+02  0.25127545083E+02  0.37297503888E+02  0.94858584904E+02  0.41800000000E+01 0.  1.
         -5    1    3    3    0  502  0.26562117938E+02  0.20699849401E+02 -0.36704856121E+02  0.49987485808E+02  0.41800000000E+01 0.  1.
        -11    1    1    2    0    0 -0.10320320718E+02 -0.11427320107E+02 -0.37160575437E+01  0.15839878416E+02  0.00000000000E+00 0. -1.
         11    1    1    2    0    0  0.67173917197E+02 -0.34400074376E+02  0.16325908224E+03  0.17985891194E+03  0.00000000000E+00 0.  1.
</event>
<event>
 7    1  0.2499014E-009  0.6989848E+02  0.7561462E-02  0.1360439E+00
         -4   -1    0    0    0  501 -0.00000000000E+00  0.00000000000E+00  0.11686994667E+03  0.11686994667E+03  0.00000000000E+00 0.  1.
          4   -1    0    0  501    0  0.00000000000E+00 -0.00000000000E+00 -0.12377713518E+03  0.12377713518E+03  0.00000000000E+00 0. -1.
         25    2    1    2    0    0 -0.15929358335E+02 -0.16465211012E+02  0.42563461143E+02  0.13410296053E+03  0.12508840141E+03 0.  0.
          5    1    3    3  502    0  0.32358786211E+02 -0.21099343010E+02  0.68636617723E+02  0.78871610945E+02  0.41800000000E+01 0. -1.
         -5    1    3    3    0  502 -0.48288144547E+02  0.46341319985E+01 -0.26073156580E+02  0.55231349587E+02  0.41800000000E+01 0. -1.
        -11    1    1    2    0    0 -0.15971542421E+02  0.12134307328E+02  0.21017092668E+02  0.29052534586E+02  0.00000000000E+00 0.  1.
         11    1    1    2    0    0  0.31900900757E+02  0.43309036835E+01 -0.70487742321E+02  0.77491586726E+02  0.00000000000E+00 0. -1.
</event>
<event>
 7    1  0.2499014E-009  0.1368095E+03  0.7561462E-02  0.1217688E+00
         -1   -1    0    0    0  501 -0.00000000000E+00  0.00000000000E+00  0.78809318002E+02  0.78809318002E+02  0.00000000000E+00 0.  1.
          1   -1    0    0  501    0  0.00000000000E+00 -0.00000000000E+00 -0.29105930227E+03  0.29105930227E+03  0.00000000000E+00 0. -1.
         25    2    1    2    0    0 -0.55377447965E+02  0.87203615783E+02 -0.14730703108E+03  0.21912899456E+03  0.12508805898E+03 0.  0.
          5    1    3    3  502    0 -0.77375385961E+02  0.10000918689E+03 -0.87015070152E+02  0.15355091224E+03  0.41800000000E+01 0. -1.
         -5    1    3    3    0  502  0.21997937996E+02 -0.12805571109E+02 -0.60291960932E+02  0.65578082318E+02  0.41800000000E+01 0. -1.
        -11    1    1    2    0    0  0.12407015499E+01 -0.61266706738E+02 -0.66841452721E+02  0.90680364449E+02  0.00000000000E+00 0. -1.
         11    1    1    2    0    0  0.54136746415E+02 -0.25936909046E+02  0.18984995390E+01  0.60059261266E+02  0.00000000000E+00 0.  1.
</event>
<event>
 7    1  0.2499014E-009  0.6320795E+02  0.7561462E-02  0.1384842E+00
          1   -1    0    0  501    0  0.00000000000E+00  0.00000000000E+00  0.36284903405E+03  0.36284903405E+03  0.00000000000E+00 0. -1.
         -1   -1    0    0    0  501 -0.00000000000E+00 -0.00000000000E+00 -0.26118966901E+02  0.26118966901E+02  0.00000000000E+00 0.  1.
         25    2    1    2    0    0 -0.27930865345E+02 -0.13148595432E+02  0.32406354670E+03  0.34874062121E+03  0.12509923973E+03 0.  0.
          5    1    3    3  502    0 -0.15472546334E+02  0.38622020190E+02  0.34265807817E+02  0.54061799073E+02  0.41800000000E+01 0. -1.
         -5    1    3    3    0  502 -0.12458319011E+02 -0.51770615622E+02  0.28979773888E+03  0.29467882214E+03  0.41800000000E+01 0. -1.
        -11    1    1    2    0    0  0.13486441010E+02  0.39097074848E+01 -0.56516989525E+01  0.15136433027E+02  0.00000000000E+00 0.  1.
         11    1    1    2    0    0  0.14444424336E+02  0.92388879474E+01  0.18318219397E+02  0.25090946710E+02  0.00000000000E+00 0. -1.
</event>
<event>
 7    1  0.2499014E-009  0.2039014E+03  0.7561462E-02  0.1146489E+00
          1   -1    0    0  501    0  0.00000000000E+00  0.00000000000E+00  0.17767911408E+04  0.17767911408E+04  0.00000000000E+00 0. -1.
         -1   -1    0    0    0  501 -0.00000000000E+00 -0.00000000000E+00 -0.25467612529E+02  0.25467612529E+02  0.00000000000E+00 0.  1.
         25    2    1    2    0    0 -0.59014724341E+02  0.17018831397E+03  0.78415837331E+03  0.81424762072E+03  0.12509210013E+03 0.  0.
          5    1    3    3  502    0 -0.89710187938E+02  0.11430988948E+03  0.64416125748E+03  0.66036040666E+03  0.41800000000E+01 0. -1.
         -5    1    3    3    0  502  0.30695463597E+02  0.55878424490E+02  0.13999711583E+03  0.15388721406E+03  0.41800000000E+01 0. -1.
        -11    1    1    2    0    0  0.74989865541E+02 -0.91764241192E+02  0.66209229354E+03  0.67261457095E+03  0.00000000000E+00 0. -1.
         11    1    1    2    0    0 -0.15975141200E+02 -0.78424072778E+02  0.30507286143E+03  0.31539656166E+03  0.00000000000E+00 0.  1.
</event>
<event>
 7    1  0.2499014E-009  0.1021657E+03  0.7561462E-02  0.1275807E+00
         -1   -1    0    0    0  501 -0.00000000000E+00  0.00000000000E+00  0.26059999250E+03  0.26059999250E+03  0.00000000000E+00 0.  1.
          1   -1    0    0  501    0  0.00000000000E+00 -0.00000000000E+00 -0.55842732768E+02  0.55842732768E+02  0.00000000000E+00 0. -1.
         25    2    1    2    0    0 -0.35356672493E+02  0.29128287698E+02  0.14447003667E+03  0.19651371327E+03  0.12508995394E+03 0.  0.
          5    1    3    3  502    0  0.45480464521E+02  0.15294925002E+02  0.74047980274E+02  0.88334495904E+02  0.41800000000E+01 0. -1.
         -5    1    3    3    0  502 -0.80837137014E+02  0.13833362695E+02  0.70422056394E+02  0.10817921737E+03  0.41800000000E+01 0. -1.
        -11    1    1    2    0    0 -0.91168257198E+01 -0.28121802447E+02  0.68577569651E+02  0.74678211972E+02  0.00000000000E+00 0.  1.
         11    1    1    2    0    0  0.44473498213E+02 -0.10064852503E+01 -0.82903465901E+01  0.45250800020E+02  0.00000000000E+00 0. -1.
</event>
<event>
 7    1  0.2499014E-009  0.3287097E+03  0.7561462E-02  0.1071709E+00
         -2   -1    0    0    0  501 -0.00000000000E+00  0.00000000000E+00  0.37658509980E+03  0.37658509980E+03  0.00000000000E+00 0.  1.
          2   -1    0    0  501    0  0.00000000000E+00 -0.00000000000E+00 -0.45150536293E+03  0.45150536293E+03  0.00000000000E+00 0. -1.
         25    2    1    2    0    0 -0.29069909580E+03 -0.12339436954E+03 -0.27993268226E+03  0.44016339262E+03  0.12509744553E+03 0.  0.
          5    1    3    3  502    0 -0.27681720410E+02 -0.63130292549E+02 -0.69225664889E+02  0.97782291656E+02  0.41800000000E+01 0.  1.
         -5    1    3    3    0  502 -0.26301737539E+03 -0.60264076988E+02 -0.21070701737E+03  0.34238110097E+03  0.41800000000E+01 0.  1.
        -11    1    1    2    0    0  0.16024166631E+03  0.90184156303E+02  0.16612016646E+03  0.24780331591E+03  0.00000000000E+00 0.  1.
         11    1    1    2    0    0  0.13045742949E+03  0.33210213234E+02  0.38892252664E+02  0.14012375419E+03  0.00000000000E+00 0. -1.
</event>
<event>
 7    1  0.2499014E-009  0.4894306E+03  0.7561462E-02  0.1016575E+00
          2   -1    0    0  501    0  0.00000000000E+00  0.00000000000E+00  0.49468053319E+03  0.49468053319E+03  0.00000000000E+00 0. -1.
         -2   -1    0    0    0  501 -0.00000000000E+00 -0.00000000000E+00 -0.50525000174E+03  0.50525000174E+03  0.00000000000E+00 0.  1.
         25    2    1    2    0    0  0.30273206915E+03 -0.38180109382E+03  0.32396087439E+01  0.50306758616E+03  0.12509084798E+03 0.  0.
          5    1    3    3  502    0  0.21474475251E+03 -0.31254368424E+03 -0.43378627970E+02  0.38170412763E+03  0.41800000000E+01 0. -1.
         -5    1    3    3    0  502  0.87987316641E+02 -0.69257409583E+02  0.46618236714E+02  0.12136345853E+03  0.41800000000E+01 0. -1.
        -11    1    1    2    0    0 -0.91453317950E+02  0.10253586433E+03 -0.46759571396E+02  0.14513362930E+03  0.00000000000E+00 0. -1.
         11    1    1    2    0    0 -0.21127875120E+03  0.27926522949E+03  0.32950494103E+02  0.35172931947E+03  0.00000000000E+00 0.  1.
</event>
<event>
 7    1  0.2499014E-009  0.1659091E+03  0.7561462E-02  0.1182182E+00
          1   -1    0    0  501    0  0.00000000000E+00  0.00000000000E+00  0.36026882662E+03  0.36026882662E+03  0.00000000000E+00 0. -1.
         -1   -1    0    0    0  501 -0.00000000000E+00 -0.00000000000E+00 -0.95742880968E+02  0.95742880968E+02  0.00000000000E+00 0.  1.
         25    2    1    2    0    0  0.14189304497E+03 -0.15315556245E+02  0.19783716529E+03  0.27414505581E+03  0.12509102759E+03 0.  0.
          5    1    3    3  502    0  0.81794617538E+02 -0.69816881539E+02  0.99257116802E+02  0.14640424872E+03  0.41800000000E+01 0.  1.
         -5    1    3    3    0  502  0.60098427430E+02  0.54501325294E+02  0.98580048486E+02  0.12774080710E+03  0.41800000000E+01 0.  1.
        -11    1    1    2    0    0 -0.10439356984E+03  0.75682368872E+01 -0.34391890690E+00  0.10466811316E+03  0.00000000000E+00 0.  1.
         11    1    1    2    0    0 -0.37499475131E+02  0.77473193578E+01  0.67032699272E+02  0.77198538613E+02  0.00000000000E+00 0. -1.
</event>
<event>
 7    1  0.2499014E-009  0.8705296E+02  0.7561462E-02  0.1310149E+00
         -2   -1    0    0    0  501 -0.00000000000E+00  0.00000000000E+00  0.24606143392E+03  0.24606143392E+03  0.00000000000E+00 0.  1.
          2   -1    0    0  501    0  0.00000000000E+00 -0.00000000000E+00 -0.74701798258E+02  0.74701798258E+02  0.00000000000E+00 0. -1.
         25    2    1    2    0    0  0.12648775520E+02  0.27291987425E+01  0.18903402789E+03  0.22704399177E+03  0.12509064893E+03 0.  0.
          5    1    3    3  502    0 -0.32710747880E+02  0.20685688388E+02  0.83101415500E+01  0.39804793475E+02  0.41800000000E+01 0.  1.
         -5    1    3    3    0  502  0.45359523401E+02 -0.17956489645E+02  0.18072388634E+03  0.18723919829E+03  0.41800000000E+01 0.  1.
        -11    1    1    2    0    0  0.39869883732E+01  0.40084825986E+02  0.80423879198E+01  0.41077601610E+02  0.00000000000E+00 0.  1.
         11    1    1    2    0    0 -0.16635763893E+02 -0.42814024728E+02 -0.25716780152E+02  0.52641638796E+02  0.00000000000E+00 0. -1.
</event>
<event>
 7    1  0.2499014E-009  0.8848274E+02  0.7561462E-02  0.1306568E+00
         -2   -1    0    0    0  501 -0.00000000000E+00  0.00000000000E+00  0.70734347899E+02  0.70734347899E+02  0.00000000000E+00 0. -1.
          2   -1    0    0  501    0  0.00000000000E+00 -0.00000000000E+00 -0.30892270966E+03  0.30892270966E+03  0.00000000000E+00 0.  1.
         25    2    1    2    0    0  0.59880959744E+02 -0.48226949337E+02 -0.31902912646E+02  0.15025598011E+03  0.12508995060E+03 0.  0.
          5    1    3    3  502    0 -0.70702290215E+01 -0.23858686470E+02 -0.66365537477E+02  0.71000577625E+02  0.41800000000E+01 0. -1.
         -5    1    3    3    0  502  0.66951188765E+02 -0.24368262867E+02  0.34462624830E+02  0.79255402481E+02  0.41800000000E+01 0. -1.
        -11    1    1    2    0    0 -0.26029068530E+02  0.35883870781E+02 -0.17843839127E+03  0.18386251404E+03  0.00000000000E+00 0.  1.
         11    1    1    2    0    0 -0.33851891214E+02  0.12343078556E+02 -0.27847057848E+02  0.45538563414E+02  0.00000000000E+00 0. -1.
</event>
<event>
 7    1  0.2499014E-009  0.8629087E+02  0.7561462E-02  0.1312091E+00
          1   -1    0    0  501    0  0.00000000000E+00  0.00000000000E+00  0.19909927599E+03  0.19909927599E+03  0.00000000000E+00 0. -1.
         -1   -1    0    0    0  501 -0.00000000000E+00 -0.00000000000E+00 -0.69964209743E+02  0.69964209743E+02  0.00000000000E+00 0.  1.
         25    2    1    2    0    0 -0.46955320003E+02  0.23472221645E+01  0.66434452991E+02  0.14923370880E+03  0.12508737653E+03 0.  0.
          5    1    3    3  502    0  0.23367537737E+01 -0.38106408477E+02  0.75483708554E+02  0.84692511135E+02  0.41800000000E+01 0. -1.
         -5    1    3    3    0  502 -0.49292073776E+02  0.40453630642E+02 -0.90492555633E+01  0.64541197661E+02  0.41800000000E+01 0. -1.
        -11    1    1    2    0    0  0.31716749366E+02 -0.26757272399E+02  0.77171140912E+02  0.87620139273E+02  0.00000000000E+00 0. -1.
         11    1    1    2    0    0  0.15238570637E+02  0.24410050235E+02 -0.14470527658E+02  0.32209637660E+02  0.00000000000E+00 0.  1.
</event>
<event>
 7    1  0.2499014E-009  0.7824468E+02  0.7561462E-02  0.1334108E+00
          1   -1    0    0  501    0  0.00000000000E+00  0.00000000000E+00  0.32022862447E+02  0.32022862447E+02  0.00000000000E+00 0. -1.
         -1   -1    0    0    0  501 -0.00000000000E+00 -0.00000000000E+00 -0.43530105467E+03  0.43530105467E+03  0.00000000000E+00 0.  1.
         25    2    1    2    0    0 -0.27410992794E+02  0.14254265401E+02 -0.25689264525E+03  0.28739599828E+03  0.12509229406E+03 0.  0.
          5    1    3    3  502    0 -0.87388954721E+01  0.32246063898E+02 -0.48836421089E+01  0.34022041257E+02  0.41800000000E+01 0. -1.
         -5    1    3    3    0  502 -0.18672097322E+02 -0.17991798497E+02 -0.25200900314E+03  0.25337395702E+03  0.41800000000E+01 0. -1.
        -11    1    1    2    0    0 -0.28988929874E+02 -0.26005385161E+02 -0.27058939517E+02  0.47421770532E+02  0.00000000000E+00 0. -1.
         11    1    1    2    0    0  0.56399922668E+02  0.11751119760E+02 -0.11932660745E+03  0.13250614831E+03  0.00000000000E+00 0.  1.
</event>
<event>
 7    1  0.2499014E-009  0.1691066E+03  0.7561462E-02  0.1178783E+00
          2   -1    0    0  501    0  0.00000000000E+00  0.00000000000E+00  0.28180753120E+03  0.28180753120E+03  0.00000000000E+00 0. -1.
         -2   -1    0    0    0  501 -0.00000000000E+00 -0.00000000000E+00 -0.12665993304E+03  0.12665993304E+03  0.00000000000E+00 0.  1.
         25    2    1    2    0    0  0.78137501730E+02  0.12116819771E+03  0.21240648817E+02  0.19205606494E+03  0.12508863100E+03 0.  0.
          5    1    3    3  502    0  0.75096378527E+02  0.31704750969E+02 -0.32171220306E+02  0.87733215590E+02  0.41800000000E+01 0.  1.
         -5    1    3    3    0  502  0.30411232028E+01  0.89463446744E+02  0.53411869122E+02  0.10432284935E+03  0.41800000000E+01 0.  1.
        -11    1    1    2    0    0 -0.80008542616E+02 -0.47010490701E+02  0.53939883062E+02  0.10733528829E+03  0.00000000000E+00 0.  1.
         11    1    1    2    0    0  0.18710408869E+01 -0.74157707011E+02  0.79967066283E+02  0.10907611101E+03  0.00000000000E+00 0. -1.
</event>
<event>
 7    1  0.2499014E-009  0.1042604E+03  0.7561462E-02  0.1271584E+00
         -2   -1    0    0    0  501 -0.00000000000E+00  0.00000000000E+00  0.19124288851E+03  0.19124288851E+03  0.00000000000E+00 0. -1.
          2   -1    0    0  501    0  0.00000000000E+00 -0.00000000000E+00 -0.11969730048E+03  0.11969730048E+03  0.00000000000E+00 0.  1.
         25    2    1    2    0    0 -0.16596644989E+02  0.82732972525E+02  0.10311958797E+03  0.18275929452E+03  0.12508843648E+03 0.  0.
          5    1    3    3  502    0 -0.29489362187E+02  0.36778036493E+02  0.12231028275E+03  0.13114695618E+03  0.41800000000E+01 0. -1.
         -5    1    3    3    0  502  0.12892717198E+02  0.45954936032E+02 -0.19190694775E+02  0.51612338335E+02  0.41800000000E+01 0. -1.
        -11    1    1    2    0    0  0.46677508463E+02 -0.43142974438E+02 -0.43534259823E+02  0.77041143670E+02  0.00000000000E+00 0.  1.
         11    1    1    2    0    0 -0.30080863474E+02 -0.39589998087E+02  0.11960259876E+02  0.51139750802E+02  0.00000000000E+00 0. -1.
</event>
<event>
 7    1  0.2499014E-009  0.1102349E+03  0.7561462E-02  0.1260136E+00
          1   -1    0    0  501    0  0.00000000000E+00  0.00000000000E+00  0.39683398580E+03  0.39683398580E+03  0.00000000000E+00 0. -1.
         -1   -1    0    0    0  501 -0.00000000000E+00 -0.00000000000E+00 -0.35750369122E+02  0.35750369122E+02  0.00000000000E+00 0.  1.
         25    2    1    2    0    0  0.38026331645E+02 -0.22586118779E+02  0.23352055990E+03  0.26857538582E+03  0.12507898030E+03 0.  0.
          5    1    3    3  502    0  0.41564373906E+02 -0.66487022165E+02  0.19386397574E+03  0.20916222122E+03  0.41800000000E+01 0. -1.
         -5    1    3    3    0  502 -0.35380422611E+01  0.43900903385E+02  0.39656584159E+02  0.59413164604E+02  0.41800000000E+01 0. -1.
        -11    1    1    2    0    0 -0.61016690277E+02 -0.56702617754E+01  0.52985376277E+02  0.81010113320E+02  0.00000000000E+00 0. -1.
         11    1    1    2    0    0  0.22990358632E+02  0.28256380555E+02  0.74577680506E+02  0.82998855786E+02  0.00000000000E+00 0.  1.
</event>
<event>
 7    1  0.2499014E-009  0.1171545E+03  0.7561462E-02  0.1247866E+00
         -1   -1    0    0    0  501 -0.00000000000E+00  0.00000000000E+00  0.26996640838E+03  0.26996640838E+03  0.00000000000E+00 0.  1.
          1   -1    0    0  501    0  0.00000000000E+00 -0.00000000000E+00 -0.57579430301E+02  0.57579430301E+02  0.00000000000E+00 0. -1.
         25    2    1    2    0    0  0.56467782465E+02  0.10614693366E+02  0.96798552428E+02  0.16827752457E+03  0.12508430497E+03 0.  0.
          5    1    3    3  502    0  0.74099986409E+02  0.45503152951E+02  0.32524812197E+02  0.92933743725E+02  0.41800000000E+01 0. -1.
         -5    1    3    3    0  502 -0.17632203944E+02 -0.34888459585E+02  0.64273740231E+02  0.75343780841E+02  0.41800000000E+01 0. -1.
        -11    1    1    2    0    0  0.76295929739E+01  0.30730682187E+02  0.22108061037E+02  0.38618025318E+02  0.00000000000E+00 0. -1.
         11    1    1    2    0    0 -0.64097375439E+02 -0.41345375554E+02  0.93480364611E+02  0.12065028879E+03  0.00000000000E+00 0.  1.
</event>
<event>
 7    1  0.2499014E-009  0.1181455E+03  0.7561462E-02  0.1246188E+00
          2   -1    0    0  501    0  0.00000000000E+00  0.00000000000E+00  0.94739720361E+03  0.94739720361E+03  0.00000000000E+00 0. -1.
         -2   -1    0    0    0  501 -0.00000000000E+00 -0.00000000000E+00 -0.22819995799E+02  0.22819995799E+02  0.00000000000E+00 0.  1.
         25    2    1    2    0    0  0.53388914921E+02 -0.67431339331E+02  0.66481941894E+03  0.68193152335E+03  0.12509348897E+03 0.  0.
          5    1    3    3  502    0  0.81551959466E+02 -0.28586440220E+02  0.55915182721E+03  0.56580574841E+03  0.41800000000E+01 0.  1.
         -5    1    3    3    0  502 -0.28163044546E+02 -0.38844899111E+02  0.10566759172E+03  0.11612577494E+03  0.41800000000E+01 0.  1.
        -11    1    1    2    0    0 -0.95249557146E+01  0.55280776470E+02  0.22250924412E+03  0.22947124601E+03  0.00000000000E+00 0. -1.
         11    1    1    2    0    0 -0.43863959206E+02  0.12150562860E+02  0.37248544753E+02  0.58814430043E+02  0.00000000000E+00 0.  1.
</event>
<event>
 7    1  0.2499014E-009  0.1081046E+03  0.7561462E-02  0.1264121E+00
          2   -1    0    0  501    0  0.00000000000E+00  0.00000000000E+00  0.57302306856E+02  0.57302306856E+02  0.00000000000E+00 0. -1.
         -2   -1    0    0    0  501 -0.00000000000E+00 -0.00000000000E+00 -0.22143702756E+03  0.22143702756E+03  0.00000000000E+00 0.  1.
         25    2    1    2    0    0 -0.32559166049E+02 -0.13063501852E+02 -0.10946869842E+03  0.16988896621E+03  0.12509240797E+03 0.  0.
          5    1    3    3  502    0 -0.68257174079E+02 -0.38106192544E+02 -0.96382971624E+02  0.12417034003E+03  0.41800000000E+01 0.  1.
         -5    1    3    3    0  502  0.35698008030E+02  0.25042690693E+02 -0.13085726801E+02  0.45718626186E+02  0.41800000000E+01 0.  1.
        -11    1    1    2    0    0  0.52209303186E+02 -0.19791761026E+02 -0.31656934377E+02  0.64184785096E+02  0.00000000000E+00 0.  1.
         11    1    1    2    0    0 -0.19650137137E+02  0.32855262877E+02 -0.23009087904E+02  0.44665583109E+02  0.00000000000E+00 0. -1.
</event>
<event>
 7    1  0.2499014E-009  0.1295533E+03  0.7561462E-02  0.1228120E+00
         -2   -1    0    0    0  501 -0.00000000000E+00  0.00000000000E+00  0.69475384515E+02  0.69475384515E+02  0.00000000000E+00 0.  1.
          2   -1    0    0  501    0  0.00000000000E+00 -0.00000000000E+00 -0.29804370138E+03  0.29804370138E+03  0.00000000000E+00 0. -1.
         25    2    1    2    0    0 -0.61168653357E+02 -0.72111524402E+02 -0.14696411568E+03  0.21491252453E+03  0.12508903149E+03 0.  0.
          5    1    3    3  502    0 -0.74663755234E+01 -0.79063630263E+02 -0.13883194162E+03  0.15999557746E+03  0.41800000000E+01 0.  1.
         -5    1    3    3    0  502 -0.53702277834E+02  0.69521058608E+01 -0.81321740602E+01  0.54916947069E+02  0.41800000000E+01 0.  1.
        -11    1    1    2    0    0 -0.19030529556E+02  0.27324107464E+01 -0.72502359672E+00  0.19239355054E+02  0.00000000000E+00 0.  1.
         11    1    1    2    0    0  0.80199182913E+02  0.69379113655E+02 -0.80879177590E+02  0.13336720631E+03  0.00000000000E+00 0. -1.
</event>
<event>
 7    1  0.2499014E-009  0.8406994E+02  0.7561462E-02  0.1317883E+00
         -2   -1    0    0    0  501 -0.00000000000E+00  0.00000000000E+00  0.21323582172E+03  0.21323582172E+03  0.00000000000E+00 0.  1.
          2   -1    0    0  501    0  0.00000000000E+00 -0.00000000000E+00 -0.59523838571E+02  0.59523838571E+02  0.00000000000E+00 0. -1.
         25    2    1    2    0    0 -0.11034490733E+01  0.79355144384E+01  0.12822595810E+03  0.17932163260E+03  0.12510060592E+03 0.  0.
          5    1    3    3  502    0 -0.37815694533E+02 -0.35256656781E+02  0.17297699608E+02  0.54678527889E+02  0.41800000000E+01 0. -1.
         -5    1    3    3    0  502  0.36712245460E+02  0.43192171220E+02  0.11092825849E+03  0.12464310471E+03  0.41800000000E+01 0. -1.
        -11    1    1    2    0    0 -0.84887494806E+01  0.24329838926E+02 -0.22914650587E+02  0.34483055860E+02  0.00000000000E+00 0. -1.
         11    1    1    2    0    0  0.95921985540E+01 -0.32265353364E+02  0.48400675640E+02  0.58954971828E+02  0.00000000000E+00 0.  1.
</event>
<event>
 7    1  0.2499014E-009  0.9600360E+02  0.7561462E-02  0.1288932E+00
          2   -1    0    0  501    0  0.00000000000E+00  0.00000000000E+00  0.50553540904E+03  0.50553540904E+03  0.00000000000E+00 0. -1.
         -2   -1    0    0    0  501 -0.00000000000E+00 -0.00000000000E+00 -0.43669269383E+02  0.43669269383E+02  0.00000000000E+00 0.  1.
         25    2    1    2    0    0  0.27043527170E+02  0.84349087499E+02  0.15761774561E+03  0.21985958052E+03  0.12509500585E+03 0.  0.
          5    1    3    3  502    0 -0.14878343094E+02  0.31208998227E+02 -0.12280284440E+02  0.36927556777E+02  0.41800000000E+01 0. -1.
         -5    1    3    3    0  502  0.41921870263E+02  0.53140089272E+02  0.16989803005E+03  0.18293202374E+03  0.41800000000E+01 0. -1.
        -11    1    1    2    0    0 -0.76737793653E+01 -0.43333709841E+02  0.34797849501E+02  0.56103365570E+02  0.00000000000E+00 0.  1.
         11    1    1    2    0    0 -0.19369747804E+02 -0.41015377659E+02  0.26945054455E+03  0.27324173234E+03  0.00000000000E+00 0. -1.
</event>
<event>
 7    1  0.2499014E-009  0.1120293E+03  0.7561462E-02  0.1256857E+00
         -1   -1    0    0    0  501 -0.00000000000E+00  0.00000000000E+00  0.55359367072E+02  0.55359367072E+02  0.00000000000E+00 0.  1.
          1   -1    0    0  501    0  0.00000000000E+00 -0.00000000000E+00 -0.43528118308E+03  0.43528118308E+03  0.00000000000E+00 0. -1.
         25    2    1    2    0    0 -0.65997129680E+02 -0.36139437330E+02 -0.33324035452E+03  0.36380552885E+03  0.12507457329E+03 0.  0.
          5    1    3    3  502    0 -0.87332318999E+02 -0.44352490170E+02 -0.15064562760E+03  0.17973773906E+03  0.41800000000E+01 0.  1.
         -5    1    3    3    0  502  0.21335189319E+02  0.82130528394E+01 -0.18259472692E+03  0.18406778979E+03  0.41800000000E+01 0.  1.
        -11    1    1    2    0    0 -0.95955576645E+01 -0.10287773989E+02 -0.34541707731E+02  0.37296683412E+02  0.00000000000E+00 0. -1.
         11    1    1    2    0    0  0.75592687344E+02  0.46427211319E+02 -0.12139753756E+02  0.89538337890E+02  0.00000000000E+00 0.  1.
</event>
<event>
 7    1  0.2499014E-009  0.8623674E+02  0.7561462E-02  0.1312230E+00
          2   -1    0    0  501    0  0.00000000000E+00  0.00000000000E+00  0.49898576867E+02  0.49898576867E+02  0.00000000000E+00 0.  1.
         -2   -1    0    0    0  501 -0.00000000000E+00 -0.00000000000E+00 -0.35339758368E+03  0.35339758368E+03  0.00000000000E+00 0. -1.
         25    2    1    2    0    0  0.58110598426E+02  0.16647328946E+02 -0.95191414835E+02  0.16841310480E+03  0.12509034015E+03 0.  0.
          5    1    3    3  502    0  0.63787039245E+02  0.37252768144E+02 -0.33904579533E+01  0.74064314722E+02  0.41800000000E+01 0.  1.
         -5    1    3    3    0  502 -0.56764408194E+01 -0.20605439198E+02 -0.91800956881E+02  0.94348790078E+02  0.41800000000E+01 0.  1.
        -11    1    1    2    0    0 -0.27753638362E+02  0.16075678737E+02 -0.17815089265E+03  0.18101500612E+03  0.00000000000E+00 0.  1.
         11    1    1    2    0    0 -0.30356960064E+02 -0.32723007682E+02 -0.30156699328E+02  0.53868049626E+02  0.00000000000E+00 0. -1.
</event>
<event>
 7    1  0.2499014E-009  0.1452254E+03  0.7561462E-02  0.1206466E+00
         -1   -1    0    0    0  501 -0.00000000000E+00  0.00000000000E+00  0.28585656435E+03  0.28585656435E+03  0.00000000000E+00 0.  1.
          1   -1    0    0  501    0  0.00000000000E+00 -0.00000000000E+00 -0.83125266259E+02  0.83125266259E+02  0.00000000000E+00 0. -1.
         25    2    1    2    0    0 -0.95367745286E+02 -0.53063925760E+02  0.11763713225E+03  0.20346127694E+03  0.12508880554E+03 0.  0.
          5    1    3    3  502    0  0.23459373148E+02 -0.27136790679E+02  0.57047361081E+02  0.67517563664E+02  0.41800000000E+01 0.  1.
         -5    1    3    3    0  502 -0.11882711843E+03 -0.25927135081E+02  0.60589771173E+02  0.13594371328E+03  0.41800000000E+01 0.  1.
        -11    1    1    2    0    0  0.55176775367E+02 -0.11716341581E+02  0.66212642390E+02  0.86981970616E+02  0.00000000000E+00 0.  1.
         11    1    1    2    0    0  0.40190969919E+02  0.64780267341E+02  0.18881523443E+02  0.78538583049E+02  0.00000000000E+00 0. -1.
</event>
<event>
 7    1  0.2499014E-009  0.1288712E+03  0.7561462E-02  0.1229140E+00
          1   -1    0    0  501    0  0.00000000000E+00  0.00000000000E+00  0.17083244193E+03  0.17083244193E+03  0.00000000000E+00 0. -1.
         -1   -1    0    0    0  501 -0.00000000000E+00 -0.00000000000E+00 -0.13071002773E+03  0.13071002773E+03  0.00000000000E+00 0.  1.
         25    2    1    2    0    0 -0.66421420144E+02 -0.71519439487E+02  0.54691149294E+02  0.16783298535E+03  0.12509977570E+03 0.  0.
          5    1    3    3  502    0 -0.69654331870E+02 -0.10365735095E+03  0.34966411092E+02  0.12975628948E+03  0.41800000000E+01 0.  1.
         -5    1    3    3    0  502  0.32329117261E+01  0.32137911461E+02  0.19724738202E+02  0.38076695871E+02  0.41800000000E+01 0.  1.
        -11    1    1    2    0    0  0.65279293585E+02  0.60073961909E+02  0.25270098779E+02  0.92243400646E+02  0.00000000000E+00 0. -1.
         11    1    1    2    0    0  0.11421265592E+01  0.11445477578E+02 -0.39838833879E+02  0.41466083669E+02  0.00000000000E+00 0.  1.
</event>
<event>
 7    1  0.2499014E-009  0.1526042E+03  0.7561462E-02  0.1197309E+00
          1   -1    0    0  501    0  0.00000000000E+00  0.00000000000E+00  0.98273055317E+02  0.98273055317E+02  0.00000000000E+00 0. -1.
         -1   -1    0    0    0  501 -0.00000000000E+00 -0.00000000000E+00 -0.28833008986E+03  0.28833008986E+03  0.00000000000E+00 0.  1.
         25    2    1    2    0    0  0.78750824017E+02 -0.10100490327E+03 -0.89896155756E+02  0.20033077207E+03  0.12508963446E+03 0.  0.
          5    1    3    3  502    0  0.51372315045E+02  0.13802375515E+02 -0.25130864907E+01  0.53417303626E+02  0.41800000000E+01 0. -1.
         -5    1    3    3    0  502  0.27378508972E+02 -0.11480727879E+03 -0.87383069265E+02  0.14691346844E+03  0.41800000000E+01 0. -1.
        -11    1    1    2    0    0 -0.53734357579E+01  0.33872538808E+02 -0.76803289800E+02  0.84112829112E+02  0.00000000000E+00 0.  1.
         11    1    1    2    0    0 -0.73377388259E+02  0.67132364463E+02 -0.23357588987E+02  0.10215954400E+03  0.00000000000E+00 0. -1.
</event>
<event>
 7    1  0.2499014E-009  0.1532935E+03  0.7561462E-02  0.1196483E+00
         -3   -1    0    0    0  501 -0.00000000000E+00  0.00000000000E+00  0.16328057536E+03  0.16328057536E+03  0.00000000000E+00 0.  1.
          3   -1    0    0  501    0  0.00000000000E+00 -0.00000000000E+00 -0.23402007946E+03  0.23402007946E+03  0.00000000000E+00 0. -1.
         25    2    1    2    0    0 -0.13824971285E+03  0.43557326383E+02 -0.11103599470E+03  0.22132964047E+03  0.12509034274E+03 0.  0.
          5    1    3    3  502    0 -0.77688415136E+02  0.10904901445E+02 -0.12814360360E+03  0.15030855686E+03  0.41800000000E+01 0.  1.
         -5    1    3    3    0  502 -0.60561297715E+02  0.32652424938E+02  0.17107608899E+02  0.71021083613E+02  0.41800000000E+01 0.  1.
        -11    1    1    2    0    0  0.13744461623E+03 -0.54696185718E+02  0.54724346013E+02  0.15772586760E+03  0.00000000000E+00 0.  1.
         11    1    1    2    0    0  0.80509661754E+00  0.11138859335E+02 -0.14427855410E+02  0.18245146741E+02  0.00000000000E+00 0. -1.
</event>
<event>
 7    1  0.2499014E-009  0.7788299E+02  0.7561462E-02  0.1335169E+00
         -2   -1    0    0    0  501 -0.00000000000E+00  0.00000000000E+00  0.20254587454E+02  0.20254587454E+02  0.00000000000E+00 0.  1.
          2   -1    0    0  501    0  0.00000000000E+00 -0.00000000000E+00 -0.63195834248E+03  0.63195834248E+03  0.00000000000E+00 0. -1.
         25    2    1    2    0    0  0.23898829926E+02  0.42880159793E+01 -0.39286761554E+03  0.41301572892E+03  0.12508991904E+03 0.  0.
          5    1    3    3  502    0 -0.40319334606E+01  0.39391053195E+02 -0.37150443838E+02  0.54456766674E+02  0.41800000000E+01 0. -1.
         -5    1    3    3    0  502  0.27930763387E+02 -0.35103037216E+02 -0.35571717170E+03  0.35855896225E+03  0.41800000000E+01 0. -1.
        -11    1    1    2    0    0  0.23030660208E+02  0.35919533520E+01 -0.10623433969E+02  0.25615830804E+02  0.00000000000E+00 0.  1.
         11    1    1    2    0    0 -0.46929490134E+02 -0.78799693313E+01 -0.20821270552E+03  0.21358137021E+03  0.00000000000E+00 0. -1.
</event>
<event>
 7    1  0.2499014E-009  0.1008150E+03  0.7561462E-02  0.1278591E+00
          1   -1    0    0  501    0  0.00000000000E+00  0.00000000000E+00  0.47258066686E+03  0.47258066686E+03  0.00000000000E+00 0. -1.
         -1   -1    0    0    0  501 -0.00000000000E+00 -0.00000000000E+00 -0.27332099769E+02  0.27332099769E+02  0.00000000000E+00 0.  1.
         25    2    1    2    0    0 -0.14841595276E+02 -0.67686370417E+01  0.22025159814E+03  0.25381913262E+03  0.12508916101E+03 0.  0.
          5    1    3    3  502    0 -0.61502898185E+02  0.42415148861E+01  0.18243149047E+03  0.19261183257E+03  0.41800000000E+01 0. -1.
         -5    1    3    3    0  502  0.46661302909E+02 -0.11010151928E+02  0.37820107676E+02  0.61207300049E+02  0.41800000000E+01 0. -1.
        -11    1    1    2    0    0  0.52174978530E+02  0.13230506010E+02  0.17665318707E+03  0.18467166317E+03  0.00000000000E+00 0. -1.
         11    1    1    2    0    0 -0.37333383254E+02 -0.64618689686E+01  0.48343781875E+02  0.61421970839E+02  0.00000000000E+00 0.  1.
</event>
<event>
 7    1  0.2499014E-009  0.1178875E+03  0.7561462E-02  0.1246623E+00
         -1   -1    0    0    0  501 -0.00000000000E+00  0.00000000000E+00  0.42092042093E+03  0.42092042093E+03  0.00000000000E+00 0.  1.
          1   -1    0    0  501    0  0.00000000000E+00 -0.00000000000E+00 -0.44197145552E+02  0.44197145552E+02  0.00000000000E+00 0. -1.
         25    2    1    2    0    0  0.40395745114E+02  0.42348271054E+02  0.10700323558E+03  0.17470655614E+03  0.12508995184E+03 0.  0.
          5    1    3    3  502    0  0.13213973877E+02  0.83523640112E+02  0.46739871711E+02  0.96710369510E+02  0.41800000000E+01 0. -1.
         -5    1    3    3    0  502  0.27181771237E+02 -0.41175369058E+02  0.60263363866E+02  0.77996186632E+02  0.41800000000E+01 0. -1.
        -11    1    1    2    0    0 -0.59618465457E+02 -0.52968609891E+01  0.10892273925E+03  0.12428427610E+03  0.00000000000E+00 0.  1.
         11    1    1    2    0    0  0.19222720343E+02 -0.37051410065E+02  0.16079730055E+03  0.16612673424E+03  0.00000000000E+00 0. -1.
</event>
<event>
 7    1  0.2499014E-009  0.7442381E+02  0.7561462E-02  0.1345665E+00
         -1   -1    0    0    0  501 -0.00000000000E+00  0.00000000000E+00  0.30892978555E+03  0.30892978555E+03  0.00000000000E+00 0.  1.
          1   -1    0    0  501    0  0.00000000000E+00 -0.00000000000E+00 -0.40334019031E+02  0.40334019031E+02  0.00000000000E+00 0. -1.
         25    2    1    2    0    0  0.59037933116E+02 -0.32305622825E+02  0.16405943454E+03  0.21700661004E+03  0.12508892807E+03 0.  0.
          5    1    3    3  502    0  0.40403512321E+02 -0.24932426323E+02 -0.38853085150E+01  0.47818800827E+02  0.41800000000E+01 0. -1.
         -5    1    3    3    0  502  0.18634420795E+02 -0.73731965021E+01  0.16794474305E+03  0.16918780921E+03  0.41800000000E+01 0. -1.
        -11    1    1    2    0    0 -0.10593665210E+02 -0.11333839654E+02  0.15814607659E+02  0.22153633546E+02  0.00000000000E+00 0.  1.
         11    1    1    2    0    0 -0.48444267906E+02  0.43639462478E+02  0.88721724317E+02  0.11010356100E+03  0.00000000000E+00 0. -1.
</event>
<event>
 7    1  0.2499014E-009  0.1184939E+03  0.7561462E-02  0.1245602E+00
         -1   -1    0    0    0  501 -0.00000000000E+00  0.00000000000E+00  0.39394306904E+02  0.39394306904E+02  0.00000000000E+00 0.  1.
          1   -1    0    0  501    0  0.00000000000E+00 -0.00000000000E+00 -0.49643758288E+03  0.49643758288E+03  0.00000000000E+00 0. -1.
         25    2    1    2    0    0  0.38640751701E+02  0.37951452425E+02 -0.11462414497E+03  0.17809849774E+03  0.12508780858E+03 0.  0.
          5    1    3    3  502    0  0.72379881394E+02 -0.13752449290E+02 -0.70863129927E+02  0.10230851712E+03  0.41800000000E+01 0.  1.
         -5    1    3    3    0  502 -0.33739129693E+02  0.51703901715E+02 -0.43761015045E+02  0.75789980623E+02  0.41800000000E+01 0.  1.
        -11    1    1    2    0    0 -0.12077209130E+00 -0.57924537523E+02 -0.15813699358E+03  0.16841192170E+03  0.00000000000E+00 0.  1.
         11    1    1    2    0    0 -0.38519979610E+02  0.19973085098E+02 -0.18428213742E+03  0.18932147034E+03  0.00000000000E+00 0. -1.
</event>
<event>
 7    1  0.2738988E-009  0.9738363E+02  0.7561462E-02  0.1285896E+00
         -2   -1    0    0    0  501 -0.00000000000E+00  0.00000000000E+00  0.11266805362E+02  0.11266805362E+02  0.00000000000E+00 0. -1.
          2   -1    0    0  501    0  0.00000000000E+00 -0.00000000000E+00 -0.12430250044E+04  0.12430250044E+04  0.00000000000E+00 0.  1.
         25    2    1    2    0    0  0.23009429019E+02 -0.39126358005E+02 -0.77817273444E+03  0.78946633992E+03  0.12507594303E+03 0.  0.
          5    1    3    3  502    0  0.45559821642E+02 -0.51399076790E+02 -0.21608166166E+03  0.22677371838E+03  0.41800000000E+01 0. -1.
         -5    1    3    3    0  502 -0.22550392622E+02  0.12272718785E+02 -0.56209107278E+03  0.56269262154E+03  0.41800000000E+01 0. -1.
        -11    1    1    2    0    0  0.34476998001E+02  0.14247974257E+02 -0.13067164437E+03  0.13589240893E+03  0.00000000000E+00 0. -1.
         11    1    1    2    0    0 -0.57486427021E+02  0.24878383748E+02 -0.32291382026E+03  0.32893306095E+03  0.00000000000E+00 0.  1.
</event>
<event>
 7    1  0.2499014E-009  0.1003728E+03  0.7561462E-02  0.1279514E+00
         -2   -1    0    0    0  501 -0.00000000000E+00  0.00000000000E+00  0.17609476270E+03  0.17609476270E+03  0.00000000000E+00 0. -1.
          2   -1    0    0  501    0  0.00000000000E+00 -0.00000000000E+00 -0.11632078692E+03  0.11632078692E+03  0.00000000000E+00 0.  1.
         25    2    1    2    0    0  0.69720446248E+01  0.92785117010E+01 -0.58189997363E+02  0.13844947287E+03  0.12508988992E+03 0.  0.
          5    1    3    3  502    0 -0.29624183503E+02  0.42917229298E+02 -0.69803511565E+02  0.87232353205E+02  0.41800000000E+01 0.  1.
         -5    1    3    3    0  502  0.36596228128E+02 -0.33638717598E+02  0.11613514202E+02  0.51217119666E+02  0.41800000000E+01 0.  1.
        -11    1    1    2    0    0  0.45258848502E+02 -0.98246703771E+01  0.62352470406E+02  0.77670574103E+02  0.00000000000E+00 0.  1.
         11    1    1    2    0    0 -0.52230893126E+02  0.54615867617E+00  0.55611502745E+02  0.76295502644E+02  0.00000000000E+00 0. -1.
</event>
<event>
 7    1  0.2499014E-009  0.9975696E+02  0.7561462E-02  0.1280808E+00
          2   -1    0    0  501    0  0.00000000000E+00  0.00000000000E+00  0.35976678586E+02  0.35976678586E+02  0.00000000000E+00 0. -1.
         -2   -1    0    0    0  501 -0.00000000000E+00 -0.00000000000E+00 -0.50481694672E+03  0.50481694672E+03  0.00000000000E+00 0.  1.
         25    2    1    2    0    0 -0.32912513020E+02 -0.49041149382E+00 -0.11232662454E+03  0.17131169440E+03  0.12508777735E+03 0.  0.
          5    1    3    3  502    0  0.40696599275E+02  0.91908229884E+01 -0.79806136116E+02  0.90150852361E+02  0.41800000000E+01 0. -1.
         -5    1    3    3    0  502 -0.73609112295E+02 -0.96812344822E+01 -0.32520488420E+02  0.81160842042E+02  0.41800000000E+01 0. -1.
        -11    1    1    2    0    0 -0.19059697615E+02 -0.19751456833E+02 -0.42774888045E+02  0.50824041235E+02  0.00000000000E+00 0. -1.
         11    1    1    2    0    0  0.51972210635E+02  0.20241868327E+02 -0.31373875556E+03  0.31865788967E+03  0.00000000000E+00 0.  1.
</event>
<event>
 7    1  0.2499014E-009  0.1074062E+03  0.7561462E-02  0.1265450E+00
          2   -1    0    0  501    0  0.00000000000E+00  0.00000000000E+00  0.67498789935E+02  0.67498789935E+02  0.00000000000E+00 0. -1.
         -2   -1    0    0    0  501 -0.00000000000E+00 -0.00000000000E+00 -0.20806007538E+03  0.20806007538E+03  0.00000000000E+00 0.  1.
         25    2    1    2    0    0  0.11281892201E+02 -0.15998782437E+02 -0.48959370277E+02  0.13574555804E+03  0.12508634801E+03 0.  0.
          5    1    3    3  502    0  0.35603656440E+02 -0.54276293113E+02  0.48776144145E+01  0.65228826974E+02  0.41800000000E+01 0.  1.
         -5    1    3    3    0  502 -0.24321764239E+02  0.38277510676E+02 -0.53836984692E+02  0.70516731064E+02  0.41800000000E+01 0.  1.
        -11    1    1    2    0    0  0.44938343394E+02  0.16857519351E+02 -0.53601210744E+02  0.71949429872E+02  0.00000000000E+00 0.  1.
         11    1    1    2    0    0 -0.56220235595E+02 -0.85873691381E+00 -0.38000704419E+02  0.67863877400E+02  0.00000000000E+00 0. -1.
</event>
<event>
 7    1  0.2499014E-009  0.1047389E+03  0.7561462E-02  0.1270635E+00
          2   -1    0    0  501    0  0.00000000000E+00  0.00000000000E+00  0.94336733490E+03  0.94336733490E+03  0.00000000000E+00 0.  1.
         -2   -1    0    0    0  501 -0.00000000000E+00 -0.00000000000E+00 -0.13587570337E+02  0.13587570337E+02  0.00000000000E+00 0. -1.
         25    2    1    2    0    0  0.18742350150E+02  0.15448669956E+02  0.63282936703E+03  0.64552976508E+03  0.12508290345E+03 0.  0.
          5    1    3    3  502    0 -0.48940898589E+02  0.20062985711E+02  0.18099580943E+03  0.18861254036E+03  0.41800000000E+01 0. -1.
         -5    1    3    3    0  502  0.67683248739E+02 -0.46143157551E+01  0.45183355760E+03  0.45691722472E+03  0.41800000000E+01 0. -1.
        -11    1    1    2    0    0 -0.40765628425E+02  0.21006129669E+02  0.10136679946E+03  0.11125790748E+03  0.00000000000E+00 0.  1.
         11    1    1    2    0    0  0.22023278275E+02 -0.36454799625E+02  0.19558359808E+03  0.20016723268E+03  0.00000000000E+00 0. -1.
</event>
<event>
 7    1  0.2499014E-009  0.1242019E+03  0.7561462E-02  0.1236322E+00
         -1   -1    0    0    0  501 -0.00000000000E+00  0.00000000000E+00  0.30100573539E+03  0.30100573539E+03  0.00000000000E+00 0.  1.
          1   -1    0    0  501    0  0.00000000000E+00 -0.00000000000E+00 -0.99418498521E+02  0.99418498521E+02  0.00000000000E+00 0. -1.
         25    2    1    2    0    0  0.82915060576E+02  0.40761783227E+02  0.21756752786E+03  0.26742635179E+03  0.12507915179E+03 0.  0.
          5    1    3    3  502    0  0.83888727045E+02 -0.25894386339E+02  0.13701379339E+03  0.16278233856E+03  0.41800000000E+01 0.  1.
         -5    1    3    3    0  502 -0.97366646897E+00  0.66656169566E+02  0.80553734472E+02  0.10464401323E+03  0.41800000000E+01 0.  1.
        -11    1    1    2    0    0 -0.45732878951E+02 -0.31078587592E+02  0.37744320162E+02  0.66947804507E+02  0.00000000000E+00 0.  1.
         11    1    1    2    0    0 -0.37182181625E+02 -0.96831956356E+01 -0.53724611157E+02  0.66050077608E+02  0.00000000000E+00 0. -1.
</event>
<event>
 7    1  0.2499014E-009  0.1081734E+03  0.7561462E-02  0.1263990E+00
          2   -1    0    0  501    0  0.00000000000E+00  0.00000000000E+00  0.17551586068E+03  0.17551586068E+03  0.00000000000E+00 0. -1.
         -2   -1    0    0    0  501 -0.00000000000E+00 -0.00000000000E+00 -0.68076035211E+02  0.68076035211E+02  0.00000000000E+00 0.  1.
         25    2    1    2    0    0  0.23199289283E+02 -0.87335774416E+01  0.58487538280E+02  0.14029728757E+03  0.12509218348E+03 0.  0.
          5    1    3    3  502    0  0.64134642528E+02 -0.39599422177E+02  0.28081624912E+02  0.80544501157E+02  0.41800000000E+01 0.  1.
         -5    1    3    3    0  502 -0.40935353245E+02  0.30865844736E+02  0.30405913368E+02  0.59752786414E+02  0.41800000000E+01 0.  1.
        -11    1    1    2    0    0  0.19682061973E+02 -0.27129224018E+02  0.93809605959E+01  0.34804895935E+02  0.00000000000E+00 0.  1.
         11    1    1    2    0    0 -0.42881351256E+02  0.35862801460E+02  0.39571326593E+02  0.68489712384E+02  0.00000000000E+00 0. -1.
</event>
<event>
 7    1  0.2499014E-009  0.1220255E+03  0.7561462E-02  0.1239793E+00
          2   -1    0    0  501    0  0.00000000000E+00  0.00000000000E+00  0.90591725967E+03  0.90591725967E+03  0.00000000000E+00 0. -1.
         -2   -1    0    0    0  501 -0.00000000000E+00 -0.00000000000E+00 -0.28164155671E+02  0.28164155671E+02  0.00000000000E+00 0.  1.
         25    2    1    2    0    0  0.92385889297E+02 -0.64920083851E+02  0.55404220040E+03  0.57910200810E+03  0.12508639464E+03 0.  0.
          5    1    3    3  502    0  0.17439392855E+02 -0.29132972044E+02  0.41979043917E+03  0.42118208378E+03  0.41800000000E+01 0.  1.
         -5    1    3    3    0  502  0.74946496442E+02 -0.35787111808E+02  0.13425176124E+03  0.15791992432E+03  0.41800000000E+01 0.  1.
        -11    1    1    2    0    0 -0.71682924662E+02  0.15835371910E+02  0.94525082941E+02  0.11968371651E+03  0.00000000000E+00 0.  1.
         11    1    1    2    0    0 -0.20702964635E+02  0.49084711941E+02  0.22918582065E+03  0.23529569074E+03  0.00000000000E+00 0. -1.
</event>
<event>
 7    1  0.2761140E-009  0.1109212E+03  0.7561462E-02  0.1258873E+00
         -1   -1    0    0    0  501 -0.00000000000E+00  0.00000000000E+00  0.11694474643E+02  0.11694474643E+02  0.00000000000E+00 0.  1.
          1   -1    0    0  501    0  0.00000000000E+00 -0.00000000000E+00 -0.18240860549E+04  0.18240860549E+04  0.00000000000E+00 0. -1.
         25    2    1    2    0    0 -0.43055780068E+02 -0.46869428022E+02 -0.14501459087E+04  0.14569217274E+04  0.12508884704E+03 0.  0.
          5    1    3    3  502    0 -0.21319500440E+02  0.38417744052E+02 -0.74261264368E+03  0.74392301692E+03  0.41800000000E+01 0.  1.
         -5    1    3    3    0  502 -0.21736279629E+02 -0.85287172073E+02 -0.70753326505E+03  0.71299871047E+03  0.41800000000E+01 0.  1.
        -11    1    1    2    0    0 -0.20921928836E+01 -0.13806703968E+02 -0.69414866051E+01  0.15594440734E+02  0.00000000000E+00 0.  1.
         11    1    1    2    0    0  0.45147972952E+02  0.60676131990E+02 -0.35530418494E+03  0.36326436144E+03  0.00000000000E+00 0. -1.
</event>
<event>
 7    1  0.2499014E-009  0.1085245E+03  0.7561462E-02  0.1263327E+00
         -2   -1    0    0    0  501 -0.00000000000E+00  0.00000000000E+00  0.60279887627E+02  0.60279887627E+02  0.00000000000E+00 0.  1.
          2   -1    0    0  501    0  0.00000000000E+00 -0.00000000000E+00 -0.27355365888E+03  0.27355365888E+03  0.00000000000E+00 0. -1.
         25    2    1    2    0    0  0.29419494297E+02 -0.51296991217E+02 -0.16278292930E+03  0.21364315760E+03  0.12509288055E+03 0.  0.
          5    1    3    3  502    0  0.45518568570E+02  0.27580372267E+02 -0.39774980844E+02  0.66574308260E+02  0.41800000000E+01 0.  1.
         -5    1    3    3    0  502 -0.16099074273E+02 -0.78877363484E+02 -0.12300794845E+03  0.14706884934E+03  0.41800000000E+01 0.  1.
        -11    1    1    2    0    0 -0.10673117754E+02  0.61010730625E+02  0.36838988997E+01  0.62046722758E+02  0.00000000000E+00 0.  1.
         11    1    1    2    0    0 -0.18746376543E+02 -0.97137394079E+01 -0.54174740850E+02  0.58143666146E+02  0.00000000000E+00 0. -1.
</event>
<event>
 7    1  0.2499014E-009  0.1083303E+03  0.7561462E-02  0.1263694E+00
          2   -1    0    0  501    0  0.00000000000E+00  0.00000000000E+00  0.55805188866E+02  0.55805188866E+02  0.00000000000E+00 0. -1.
         -2   -1    0    0    0  501 -0.00000000000E+00 -0.00000000000E+00 -0.28913141026E+03  0.28913141026E+03  0.00000000000E+00 0.  1.
         25    2    1    2    0    0 -0.50323362500E+02  0.33216526618E+02 -0.16390488692E+03  0.21482150379E+03  0.12509071939E+03 0.  0.
          5    1    3    3  502    0 -0.52968164720E+02  0.75687137816E+02 -0.87738409455E+02  0.12747419424E+03  0.41800000000E+01 0. -1.
         -5    1    3    3    0  502  0.26448022204E+01 -0.42470611198E+02 -0.76166477469E+02  0.87347309543E+02  0.41800000000E+01 0. -1.
        -11    1    1    2    0    0  0.62149637855E+02 -0.30775991387E+02 -0.10709476621E+02  0.70174297438E+02  0.00000000000E+00 0. -1.
         11    1    1    2    0    0 -0.11826275355E+02 -0.24405352312E+01 -0.58711857852E+02  0.59940797904E+02  0.00000000000E+00 0.  1.
</event>
<event>
 7    1  0.2499014E-009  0.1065611E+03  0.7561462E-02  0.1267074E+00
         -1   -1    0    0    0  501 -0.00000000000E+00  0.00000000000E+00  0.12891905528E+03  0.12891905528E+03  0.00000000000E+00 0.  1.
          1   -1    0    0  501    0  0.00000000000E+00 -0.00000000000E+00 -0.10825969412E+03  0.10825969412E+03  0.00000000000E+00 0. -1.
         25    2    1    2    0    0 -0.11380640553E+02  0.15593970449E+02  0.50437867211E+02  0.13624710635E+03  0.12508638873E+03 0.  0.
          5    1    3    3  502    0 -0.64137546069E+02  0.29089874542E+02  0.18330108791E+02  0.72892461235E+02  0.41800000000E+01 0. -1.
         -5    1    3    3    0  502  0.52756905515E+02 -0.13495904093E+02  0.32107758419E+02  0.63354645114E+02  0.41800000000E+01 0. -1.
        -11    1    1    2    0    0  0.58742228958E+01  0.35794588274E+02  0.77106216753E+01  0.37083860788E+02  0.00000000000E+00 0.  1.
         11    1    1    2    0    0  0.55064176576E+01 -0.51388558723E+02 -0.37489127719E+02  0.63847782265E+02  0.00000000000E+00 0. -1.
</event>
<event>
 7    1  0.2499014E-009  0.1926953E+03  0.7561462E-02  0.1156053E+00
         -1   -1    0    0    0  501 -0.00000000000E+00  0.00000000000E+00  0.47290218916E+02  0.47290218916E+02  0.00000000000E+00 0.  1.
          1   -1    0    0  501    0  0.00000000000E+00 -0.00000000000E+00 -0.97740285821E+03  0.97740285821E+03  0.00000000000E+00 0. -1.
         25    2    1    2    0    0  0.26515871513E+02  0.18017130767E+03 -0.56310701247E+03  0.60489785513E+03  0.12508843312E+03 0.  0.
          5    1    3    3  502    0  0.25254995241E+02  0.11335667414E+03 -0.49845223779E+03  0.51181994501E+03  0.41800000000E+01 0.  1.
         -5    1    3    3    0  502  0.12608762726E+01  0.66814633533E+02 -0.64654774684E+02  0.93077910121E+02  0.41800000000E+01 0.  1.
        -11    1    1    2    0    0 -0.59106117414E+02 -0.12122013990E+03 -0.21920709419E+03  0.25737056082E+03  0.00000000000E+00 0.  1.
         11    1    1    2    0    0  0.32590245901E+02 -0.58951167771E+02 -0.14779853263E+03  0.16242466117E+03  0.00000000000E+00 0. -1.
</event>
<event>
 7    1  0.2499014E-009  0.9831438E+02  0.7561462E-02  0.1283881E+00
          1   -1    0    0  501    0  0.00000000000E+00  0.00000000000E+00  0.83672704931E+02  0.83672704931E+02  0.00000000000E+00 0. -1.
         -1   -1    0    0    0  501 -0.00000000000E+00 -0.00000000000E+00 -0.15916778833E+03  0.15916778833E+03  0.00000000000E+00 0.  1.
         25    2    1    2    0    0 -0.22114734713E+02 -0.29919107662E+02 -0.25774809479E+02  0.13301312877E+03  0.12507572557E+03 0.  0.
          5    1    3    3  502    0  0.52802155698E+01  0.37495057762E+02 -0.43679951276E+02  0.57958352086E+02  0.41800000000E+01 0.  1.
         -5    1    3    3    0  502 -0.27394950282E+02 -0.67414165424E+02  0.17905141796E+02  0.75054776687E+02  0.41800000000E+01 0.  1.
        -11    1    1    2    0    0 -0.13224413161E+02 -0.20306907323E+02 -0.41238684971E+02  0.47831838002E+02  0.00000000000E+00 0.  1.
         11    1    1    2    0    0  0.35339147874E+02  0.50226014985E+02 -0.84815889535E+01  0.61995526491E+02  0.00000000000E+00 0. -1.
</event>
<event>
 7    1  0.2499014E-009  0.1445040E+03  0.7561462E-02  0.1207394E+00
         -1   -1    0    0    0  501 -0.00000000000E+00  0.00000000000E+00  0.10581429110E+03  0.10581429110E+03  0.00000000000E+00 0.  1.
          1   -1    0    0  501    0  0.00000000000E+00 -0.00000000000E+00 -0.31492637075E+03  0.31492637075E+03  0.00000000000E+00 0. -1.
         25    2    1    2    0    0 -0.12421585566E+03 -0.72338001493E+02 -0.76279297220E+02  0.20525186931E+03  0.12508970148E+03 0.  0.
          5    1    3    3  502    0 -0.51146236502E+02 -0.40809764179E+02  0.30255136647E+02  0.72209556529E+02  0.41800000000E+01 0. -1.
         -5    1    3    3    0  502 -0.73069619157E+02 -0.31528237314E+02 -0.10653443387E+03  0.13304231279E+03  0.41800000000E+01 0. -1.
        -11    1    1    2    0    0  0.93711607687E+02  0.53853311939E+02 -0.38663052798E+02  0.11479057572E+03  0.00000000000E+00 0.  1.
         11    1    1    2    0    0  0.30504247972E+02  0.18484689553E+02 -0.94169729627E+02  0.10069821682E+03  0.00000000000E+00 0. -1.
</event>
<event>
 7    1  0.2499014E-009  0.1267476E+03  0.7561462E-02  0.1232363E+00
          2   -1    0    0  501    0  0.00000000000E+00  0.00000000000E+00  0.53247442522E+03  0.53247442522E+03  0.00000000000E+00 0. -1.
         -2   -1    0    0    0  501 -0.00000000000E+00 -0.00000000000E+00 -0.41711452008E+02  0.41711452008E+02  0.00000000000E+00 0.  1.
         25    2    1    2    0    0 -0.40762232680E+02  0.87867229016E+02  0.20739305304E+03  0.26084564112E+03  0.12508541280E+03 0.  0.
          5    1    3    3  502    0 -0.71675296917E+02  0.18554002670E+02  0.14358708513E+03  0.16160545355E+03  0.41800000000E+01 0.  1.
         -5    1    3    3    0  502  0.30913064237E+02  0.69313226346E+02  0.63805967918E+02  0.99240187570E+02  0.41800000000E+01 0.  1.
        -11    1    1    2    0    0 -0.65597377094E+01 -0.15883713976E+02  0.20399932103E-01  0.17184962748E+02  0.00000000000E+00 0.  1.
         11    1    1    2    0    0  0.47321970390E+02 -0.71983515040E+02  0.28334952024E+03  0.29615527336E+03  0.00000000000E+00 0. -1.
</event>
<event>
 7    1  0.2774290E-009  0.1037515E+03  0.7561462E-02  0.1272599E+00
          1   -1    0    0  501    0  0.00000000000E+00  0.00000000000E+00  0.10736046526E+03  0.10736046526E+03  0.00000000000E+00 0. -1.
         -1   -1    0    0    0  501 -0.00000000000E+00 -0.00000000000E+00 -0.13505945360E+03  0.13505945360E+03  0.00000000000E+00 0.  1.
         25    2    1    2    0    0 -0.28926844475E+02 -0.34630287522E+02  0.11588068757E+02  0.13349366295E+03  0.12510098147E+03 0.  0.
          5    1    3    3  502    0 -0.64271971182E+02 -0.26504711877E+02  0.45884036265E+02  0.83403856117E+02  0.41800000000E+01 0.  1.
         -5    1    3    3    0  502  0.35345126707E+02 -0.81255756451E+01 -0.34295967507E+02  0.50089806835E+02  0.41800000000E+01 0.  1.
        -11    1    1    2    0    0 -0.20587105267E+02  0.46130444551E+02 -0.23376739904E+02  0.55662543836E+02  0.00000000000E+00 0.  1.
         11    1    1    2    0    0  0.49513949742E+02 -0.11500157029E+02 -0.15910317189E+02  0.53263712073E+02  0.00000000000E+00 0. -1.
</event>
<event>
 7    1  0.2499014E-009  0.7919407E+02  0.7561462E-02  0.1331354E+00
          4   -1    0    0  501    0  0.00000000000E+00  0.00000000000E+00  0.24807872269E+03  0.24807872269E+03  0.00000000000E+00 0.  1.
         -4   -1    0    0    0  501 -0.00000000000E+00 -0.00000000000E+00 -0.58525777723E+02  0.58525777723E+02  0.00000000000E+00 0. -1.
         25    2    1    2    0    0 -0.41832171434E+02 -0.12932856482E+02  0.13442230130E+03  0.18876621690E+03  0.12508453226E+03 0.  0.
          5    1    3    3  502    0 -0.24004058213E+02 -0.44900961514E+02  0.14221305522E+03  0.15111027969E+03  0.41800000000E+01 0.  1.
         -5    1    3    3    0  502 -0.17828113222E+02  0.31968105032E+02 -0.77907539107E+01  0.37655937206E+02  0.41800000000E+01 0.  1.
        -11    1    1    2    0    0  0.28615118239E+01 -0.19531396006E+02  0.63440695518E+02  0.66440842316E+02  0.00000000000E+00 0.  1.
         11    1    1    2    0    0  0.38970659610E+02  0.32464252488E+02 -0.83100518529E+01  0.51397441199E+02  0.00000000000E+00 0. -1.
</event>
<event>
 7    1  0.2499014E-009  0.1374176E+03  0.7561462E-02  0.1216847E+00
          1   -1    0    0  501    0  0.00000000000E+00  0.00000000000E+00  0.21495731361E+03  0.21495731361E+03  0.00000000000E+00 0. -1.
         -1   -1    0    0    0  501 -0.00000000000E+00 -0.00000000000E+00 -0.12926742909E+03  0.12926742909E+03  0.00000000000E+00 0.  1.
         25    2    1    2    0    0 -0.10907017024E+03  0.54672300188E+02  0.90511964557E+01  0.17496960897E+03  0.12508827868E+03 0.  0.
          5    1    3    3  502    0 -0.88207956962E+02  0.31618335249E+02 -0.51331149898E+02  0.10692390820E+03  0.41800000000E+01 0. -1.
         -5    1    3    3    0  502 -0.20862213281E+02  0.23053964938E+02  0.60382346354E+02  0.68045700772E+02  0.41800000000E+01 0. -1.
        -11    1    1    2    0    0  0.76100180141E+02  0.10313395357E+02  0.28470955175E+02  0.81903594731E+02  0.00000000000E+00 0.  1.
         11    1    1    2    0    0  0.32969990101E+02 -0.64985695544E+02  0.48167732890E+02  0.87351538993E+02  0.00000000000E+00 0. -1.
</event>
<event>
 7    1  0.2499014E-009  0.1064924E+03  0.7561462E-02  0.1267207E+00
          2   -1    0    0  501    0  0.00000000000E+00  0.00000000000E+00  0.10614282061E+03  0.10614282061E+03  0.00000000000E+00 0.  1.
         -2   -1    0    0    0  501 -0.00000000000E+00 -0.00000000000E+00 -0.21586937485E+03  0.21586937485E+03  0.00000000000E+00 0. -1.
         25    2    1    2    0    0  0.41529129391E+01  0.22262850435E+02 -0.16862917615E+03  0.21117540284E+03  0.12508545287E+03 0.  0.
          5    1    3    3  502    0 -0.20049265308E+02  0.66617165737E+02 -0.62739951453E+02  0.93774163385E+02  0.41800000000E+01 0.  1.
         -5    1    3    3    0  502  0.24202178247E+02 -0.44354315302E+02 -0.10588922470E+03  0.11740123946E+03  0.41800000000E+01 0.  1.
        -11    1    1    2    0    0 -0.13694190949E+02 -0.55937816780E+02  0.45357386046E+02  0.73306634630E+02  0.00000000000E+00 0.  1.
         11    1    1    2    0    0  0.95412780100E+01  0.33674966345E+02  0.13545235864E+02  0.37530157993E+02  0.00000000000E+00 0. -1.
</event>
<event>
 7    1  0.2499014E-009  0.1026761E+03  0.7561462E-02  0.1274767E+00
          2   -1    0    0  501    0  0.00000000000E+00  0.00000000000E+00  0.42521110033E+03  0.42521110033E+03  0.00000000000E+00 0. -1.
         -2   -1    0    0    0  501 -0.00000000000E+00 -0.00000000000E+00 -0.56740032073E+02  0.56740032073E+02  0.00000000000E+00 0.  1.
         25    2    1    2    0    0  0.40736028772E+02 -0.36896102373E+02  0.34740970896E+03  0.37330938288E+03  0.12508254497E+03 0.  0.
          5    1    3    3  502    0  0.35879969841E+02  0.21373349664E+02  0.32754584919E+02  0.53240281224E+02  0.41800000000E+01 0. -1.
         -5    1    3    3    0  502  0.48560589314E+01 -0.58269452037E+02  0.31465512404E+03  0.32006910166E+03  0.41800000000E+01 0. -1.
        -11    1    1    2    0    0  0.18008079122E+02 -0.17199461316E+02 -0.33739143780E+01  0.25129577820E+02  0.00000000000E+00 0.  1.
         11    1    1    2    0    0 -0.58744107894E+02  0.54095563688E+02  0.24435273676E+02  0.83512171703E+02  0.00000000000E+00 0. -1.
</event>
<event>
 7    1  0.2499014E-009  0.1407619E+03  0.7561462E-02  0.1212307E+00
         -2   -1    0    0    0  501 -0.00000000000E+00  0.00000000000E+00  0.33545689980E+02  0.33545689980E+02  0.00000000000E+00 0.  1.
          2   -1    0    0  501    0  0.00000000000E+00 -0.00000000000E+00 -0.90012424643E+03  0.90012424643E+03  0.00000000000E+00 0. -1.
         25    2    1    2    0    0 -0.10718348111E+03 -0.57946052203E+02 -0.29671167915E+03  0.34428347344E+03  0.12508895215E+03 0.  0.
          5    1    3    3  502    0 -0.49022761525E+02 -0.56136136903E+02 -0.26998478125E+03  0.28011381887E+03  0.41800000000E+01 0.  1.
         -5    1    3    3    0  502 -0.58160719587E+02 -0.18099152994E+01 -0.26726897896E+02  0.64169654568E+02  0.41800000000E+01 0.  1.
        -11    1    1    2    0    0  0.97898144895E+02  0.85417273316E+01 -0.33061424259E+03  0.34490982196E+03  0.00000000000E+00 0.  1.
         11    1    1    2    0    0  0.92853362176E+01  0.49404324871E+02 -0.23925263471E+03  0.24447664101E+03  0.00000000000E+00 0. -1.
</event>
<event>
 7    1  0.2499014E-009  0.1175053E+03  0.7561462E-02  0.1247270E+00
         -3   -1    0    0    0  501 -0.00000000000E+00  0.00000000000E+00  0.14899490780E+03  0.14899490780E+03  0.00000000000E+00 0.  1.
          3   -1    0    0  501    0  0.00000000000E+00 -0.00000000000E+00 -0.97670396426E+02  0.97670396426E+02  0.00000000000E+00 0. -1.
         25    2    1    2    0    0  0.47825171718E+02 -0.21233047360E+02  0.40493712929E+02  0.14152583329E+03  0.12510687972E+03 0.  0.
          5    1    3    3  502    0  0.34279066400E+02 -0.70917019363E+02  0.42925570471E+02  0.89801754041E+02  0.41800000000E+01 0.  1.
         -5    1    3    3    0  502  0.13546105318E+02  0.49683972004E+02 -0.24318575419E+01  0.51724079252E+02  0.41800000000E+01 0.  1.
        -11    1    1    2    0    0 -0.65076740750E+02  0.42011231235E+02  0.10178926622E+02  0.78125132216E+02  0.00000000000E+00 0. -1.
         11    1    1    2    0    0  0.17251569032E+02 -0.20778183875E+02  0.65187181979E+00  0.27014338713E+02  0.00000000000E+00 0.  1.
</event>
<event>
 7    1  0.2499014E-009  0.2578096E+03  0.7561462E-02  0.1108466E+00
         -2   -1    0    0    0  501 -0.00000000000E+00  0.00000000000E+00  0.18583642542E+03  0.18583642542E+03  0.00000000000E+00 0.  1.
          2   -1    0    0  501    0  0.00000000000E+00 -0.00000000000E+00 -0.45601485728E+03  0.45601485728E+03  0.00000000000E+00 0. -1.
         25    2    1    2    0    0 -0.74514085202E+02 -0.23747023259E+03 -0.25201058969E+03  0.37563128962E+03  0.12508024691E+03 0.  0.
          5    1    3    3  502    0 -0.96300236381E+02 -0.20753950940E+03 -0.16846484364E+03  0.28415534384E+03  0.41800000000E+01 0. -1.
         -5    1    3    3    0  502  0.21786151179E+02 -0.29930723184E+02 -0.83545746048E+02  0.91475945779E+02  0.41800000000E+01 0. -1.
        -11    1    1    2    0    0  0.68937834480E+02  0.19772932960E+03 -0.49657797855E+02  0.21520968773E+03  0.00000000000E+00 0. -1.
         11    1    1    2    0    0  0.55762507214E+01  0.39740902988E+02  0.31489955684E+02  0.51010305345E+02  0.00000000000E+00 0.  1.
</event>
<event>
 7    1  0.2499014E-009  0.1866353E+03  0.7561462E-02  0.1161532E+00
         -2   -1    0    0    0  501 -0.00000000000E+00  0.00000000000E+00  0.78215471263E+02  0.78215471263E+02  0.00000000000E+00 0.  1.
          2   -1    0    0  501    0  0.00000000000E+00 -0.00000000000E+00 -0.52865262792E+03  0.52865262792E+03  0.00000000000E+00 0. -1.
         25    2    1    2    0    0 -0.11803046533E+03 -0.12318957205E+03 -0.27123872776E+03  0.34398318802E+03  0.12508846789E+03 0.  0.
          5    1    3    3  502    0  0.20438339278E+02 -0.75941966113E+01 -0.71276352960E+02  0.74653790432E+02  0.41800000000E+01 0.  1.
         -5    1    3    3    0  502 -0.13846880461E+03 -0.11559537544E+03 -0.19996237480E+03  0.26932939759E+03  0.41800000000E+01 0.  1.
        -11    1    1    2    0    0  0.39770526126E+02  0.43959628428E+02 -0.96899580738E+01  0.60066954038E+02  0.00000000000E+00 0.  1.
         11    1    1    2    0    0  0.78259939202E+02  0.79229943621E+02 -0.16950847083E+03  0.20281795713E+03  0.00000000000E+00 0. -1.
</event>
<event>
 7    1  0.2499014E-009  0.1014297E+03  0.7561462E-02  0.1277318E+00
          2   -1    0    0  501    0  0.00000000000E+00  0.00000000000E+00  0.11176212768E+04  0.11176212768E+04  0.00000000000E+00 0. -1.
         -2   -1    0    0    0  501 -0.00000000000E+00 -0.00000000000E+00 -0.15135788056E+02  0.15135788056E+02  0.00000000000E+00 0.  1.
         25    2    1    2    0    0  0.10824821515E+02  0.68567733523E+02  0.60087886643E+03  0.61767440243E+03  0.12509014531E+03 0.  0.
          5    1    3    3  502    0  0.38388938037E+02  0.70677455900E+02  0.57139039695E+03  0.57703853551E+03  0.41800000000E+01 0.  1.
         -5    1    3    3    0  502 -0.27564116522E+02 -0.21097223769E+01  0.29488469484E+02  0.40635866924E+02  0.41800000000E+01 0.  1.
        -11    1    1    2    0    0  0.39010296789E+01  0.11917826378E+02  0.83036228461E+01  0.15040038913E+02  0.00000000000E+00 0.  1.
         11    1    1    2    0    0 -0.14725851194E+02 -0.80485559901E+02  0.49330299948E+03  0.50004262352E+03  0.00000000000E+00 0. -1.
</event>
<event>
 7    1  0.2499014E-009  0.1060147E+03  0.7561462E-02  0.1268133E+00
          2   -1    0    0  501    0  0.00000000000E+00  0.00000000000E+00  0.20943055949E+03  0.20943055949E+03  0.00000000000E+00 0. -1.
         -2   -1    0    0    0  501 -0.00000000000E+00 -0.00000000000E+00 -0.99258172010E+02  0.99258172010E+02  0.00000000000E+00 0.  1.
         25    2    1    2    0    0  0.30715321031E+02  0.16269231411E+02 -0.34899271502E+02  0.13443475269E+03  0.12508646906E+03 0.  0.
          5    1    3    3  502    0 -0.13402880154E+02  0.62640652597E+02 -0.73051534741E+01  0.64609025851E+02  0.41800000000E+01 0.  1.
         -5    1    3    3    0  502  0.44118201185E+02 -0.46371421186E+02 -0.27594118028E+02  0.69825726837E+02  0.41800000000E+01 0.  1.
        -11    1    1    2    0    0 -0.34037309260E+02 -0.44075692908E+02  0.13216583387E+03  0.14341901118E+03  0.00000000000E+00 0. -1.
         11    1    1    2    0    0  0.33219882294E+01  0.27806461497E+02  0.12905825118E+02  0.30834967630E+02  0.00000000000E+00 0.  1.
</event>
<event>
 7    1  0.2699174E-009  0.1002845E+03  0.7561462E-02  0.1279699E+00
         -1   -1    0    0    0  501 -0.00000000000E+00  0.00000000000E+00  0.96464417348E+02  0.96464417348E+02  0.00000000000E+00 0.  1.
          1   -1    0    0  501    0  0.00000000000E+00 -0.00000000000E+00 -0.14634345319E+03  0.14634345319E+03  0.00000000000E+00 0. -1.
         25    2    1    2    0    0 -0.25489883845E+02  0.16264487219E+02 -0.69490277688E+02  0.14626223879E+03  0.12509786600E+03 0.  0.
          5    1    3    3  502    0 -0.68738200924E+02  0.39336202555E+02 -0.38931580036E+02  0.88348273451E+02  0.41800000000E+01 0. -1.
         -5    1    3    3    0  502  0.43248317079E+02 -0.23071715336E+02 -0.30558697651E+02  0.57913965335E+02  0.41800000000E+01 0. -1.
        -11    1    1    2    0    0 -0.95046790374E+01  0.19707555641E+02  0.37375350848E+02  0.43308700327E+02  0.00000000000E+00 0.  1.
         11    1    1    2    0    0  0.34994562882E+02 -0.35972042860E+02 -0.17764109000E+02  0.53236931424E+02  0.00000000000E+00 0. -1.
</event>
<event>
 7    1  0.2499014E-009  0.7548142E+02  0.7561462E-02  0.1342387E+00
          2   -1    0    0  501    0  0.00000000000E+00  0.00000000000E+00  0.25802356074E+03  0.25802356074E+03  0.00000000000E+00 0. -1.
         -2   -1    0    0    0  501 -0.00000000000E+00 -0.00000000000E+00 -0.61485304121E+02  0.61485304121E+02  0.00000000000E+00 0.  1.
         25    2    1    2    0    0 -0.36344143419E+02 -0.35665524073E+02  0.15724623321E+03  0.20728559776E+03  0.12509202537E+03 0.  0.
          5    1    3    3  502    0  0.13610168627E+02 -0.23411581861E+02 -0.12318135291E+02  0.30042431865E+02  0.41800000000E+01 0.  1.
         -5    1    3    3    0  502 -0.49954312046E+02 -0.12253942212E+02  0.16956436850E+03  0.17724316590E+03  0.41800000000E+01 0.  1.
        -11    1    1    2    0    0  0.29502403019E+02  0.48870317568E+02 -0.12415464488E+02  0.58419547085E+02  0.00000000000E+00 0.  1.
         11    1    1    2    0    0  0.68417403994E+01 -0.13204793495E+02  0.51707487893E+02  0.53803720012E+02  0.00000000000E+00 0. -1.
</event>
<event>
 7    1  0.2499014E-009  0.1099255E+03  0.7561462E-02  0.1260708E+00
          2   -1    0    0  501    0  0.00000000000E+00  0.00000000000E+00  0.24153363766E+03  0.24153363766E+03  0.00000000000E+00 0. -1.
         -2   -1    0    0    0  501 -0.00000000000E+00 -0.00000000000E+00 -0.54608766960E+02  0.54608766960E+02  0.00000000000E+00 0.  1.
         25    2    1    2    0    0  0.28076089209E+02  0.20075242079E+02  0.14053294551E+03  0.19127384399E+03  0.12507954465E+03 0.  0.
          5    1    3    3  502    0  0.91054899512E+01 -0.51779291912E+02  0.77463232943E+02  0.93712485167E+02  0.41800000000E+01 0. -1.
         -5    1    3    3    0  502  0.18970599258E+02  0.71854533991E+02  0.63069712570E+02  0.97561358821E+02  0.41800000000E+01 0. -1.
        -11    1    1    2    0    0 -0.53687035870E+02 -0.33978309040E+02  0.39859625119E+02  0.75004086691E+02  0.00000000000E+00 0. -1.
         11    1    1    2    0    0  0.25610946661E+02  0.13903066961E+02  0.65323000702E+01  0.29864473945E+02  0.00000000000E+00 0.  1.
</event>
<event>
 7    1  0.2499014E-009  0.1055283E+03  0.7561462E-02  0.1269082E+00
          2   -1    0    0  501    0  0.00000000000E+00  0.00000000000E+00  0.64344852817E+03  0.64344852817E+03  0.00000000000E+00 0. -1.
         -2   -1    0    0    0  501 -0.00000000000E+00 -0.00000000000E+00 -0.26493431735E+02  0.26493431735E+02  0.00000000000E+00 0.  1.
         25    2    1    2    0    0 -0.99194593139E+01  0.57794438904E+02  0.44810227074E+03  0.46891558318E+03  0.12509031244E+03 0.  0.
          5    1    3    3  502    0 -0.32650798732E+02 -0.89376474287E+01  0.32663100248E+03  0.32840712596E+03  0.41800000000E+01 0.  1.
         -5    1    3    3    0  502  0.22731339418E+02  0.66732086333E+02  0.12147126826E+03  0.14050845722E+03  0.41800000000E+01 0.  1.
        -11    1    1    2    0    0  0.11121041065E+02  0.22987020030E+02  0.62126072749E+02  0.67169409402E+02  0.00000000000E+00 0. -1.
         11    1    1    2    0    0 -0.12015817506E+01 -0.80781458934E+02  0.10672675294E+03  0.13385696732E+03  0.00000000000E+00 0.  1.
</event>
<event>
 7    1  0.2499014E-009  0.1080204E+03  0.7561462E-02  0.1264280E+00
         -2   -1    0    0    0  501 -0.00000000000E+00  0.00000000000E+00  0.12071543397E+03  0.12071543397E+03  0.00000000000E+00 0.  1.
          2   -1    0    0  501    0  0.00000000000E+00 -0.00000000000E+00 -0.34257049438E+03  0.34257049438E+03  0.00000000000E+00 0. -1.
         25    2    1    2    0    0  0.26749829637E+02  0.29841435263E+02 -0.30555503717E+03  0.33259499191E+03  0.12509789470E+03 0.  0.
          5    1    3    3  502    0 -0.48448958770E+02  0.18152914074E+02 -0.89143477981E+02  0.10315455376E+03  0.41800000000E+01 0. -1.
         -5    1    3    3    0  502  0.75198788407E+02  0.11688521188E+02 -0.21641155919E+03  0.22944043814E+03  0.41800000000E+01 0. -1.
        -11    1    1    2    0    0  0.41127441159E+01 -0.50571979266E+02  0.15565382098E+02  0.53072788422E+02  0.00000000000E+00 0. -1.
         11    1    1    2    0    0 -0.30862573753E+02  0.20730544003E+02  0.68134594659E+02  0.77618148023E+02  0.00000000000E+00 0.  1.
</event>
<event>
 7    1  0.2499014E-009  0.1318038E+03  0.7561462E-02  0.1224803E+00
          2   -1    0    0  501    0  0.00000000000E+00  0.00000000000E+00  0.48131711707E+02  0.48131711707E+02  0.00000000000E+00 0.  1.
         -2   -1    0    0    0  501 -0.00000000000E+00 -0.00000000000E+00 -0.62687501276E+03  0.62687501276E+03  0.00000000000E+00 0. -1.
         25    2    1    2    0    0  0.39491075485E+02 -0.67820214569E+02 -0.91560152403E+02  0.17375345000E+03  0.12509145987E+03 0.  0.
          5    1    3    3  502    0  0.74284148272E+02 -0.39674530185E+01 -0.52081167393E+02  0.90905422088E+02  0.41800000000E+01 0. -1.
         -5    1    3    3    0  502 -0.34793072786E+02 -0.63852761550E+02 -0.39478985010E+02  0.82848027912E+02  0.41800000000E+01 0. -1.
        -11    1    1    2    0    0  0.23050202514E+02  0.43365879715E+02 -0.16536523869E+03  0.17250383627E+03  0.00000000000E+00 0.  1.
         11    1    1    2    0    0 -0.62541278000E+02  0.24454334854E+02 -0.32181790996E+03  0.32874943820E+03  0.00000000000E+00 0. -1.
</event>
<event>
 7    1  0.2499014E-009  0.1537055E+03  0.7561462E-02  0.1195992E+00
         -1   -1    0    0    0  501 -0.00000000000E+00  0.00000000000E+00  0.88846976975E+02  0.88846976975E+02  0.00000000000E+00 0.  1.
          1   -1    0    0  501    0  0.00000000000E+00 -0.00000000000E+00 -0.45654849643E+03  0.45654849643E+03  0.00000000000E+00 0. -1.
         25    2    1    2    0    0  0.93721263786E+02  0.10532591124E+03 -0.64956092960E+02  0.19936147542E+03  0.12509388875E+03 0.  0.
          5    1    3    3  502    0  0.48845071789E+02  0.25812637330E+02  0.33720989910E+02  0.64859161608E+02  0.41800000000E+01 0. -1.
         -5    1    3    3    0  502  0.44876191997E+02  0.79513273913E+02 -0.98677082871E+02  0.13450231381E+03  0.41800000000E+01 0. -1.
        -11    1    1    2    0    0 -0.39937919485E+02 -0.98630735625E+02 -0.14962678822E+03  0.18360619591E+03  0.00000000000E+00 0.  1.
         11    1    1    2    0    0 -0.53783344301E+02 -0.66951756169E+01 -0.15311863827E+03  0.16242780208E+03  0.00000000000E+00 0. -1.
</event>
<event>
 7    1  0.2499014E-009  0.1183797E+03  0.7561462E-02  0.1245794E+00
          2   -1    0    0  501    0  0.00000000000E+00  0.00000000000E+00  0.40904901686E+03  0.40904901686E+03  0.00000000000E+00 0. -1.
         -2   -1    0    0    0  501 -0.00000000000E+00 -0.00000000000E+00 -0.49357462627E+02  0.49357462627E+02  0.00000000000E+00 0.  1.
         25    2    1    2    0    0  0.64746917177E+02 -0.64010408294E+02  0.20720863820E+03  0.25860291394E+03  0.12510216505E+03 0.  0.
          5    1    3    3  502    0 -0.74422060707E+01 -0.31663328840E+02 -0.39914903124E+01  0.33035696138E+02  0.41800000000E+01 0.  1.
         -5    1    3    3    0  502  0.72189123248E+02 -0.32347079454E+02  0.21120012851E+03  0.22556721780E+03  0.41800000000E+01 0.  1.
        -11    1    1    2    0    0 -0.13886511311E+02 -0.21301568558E+02  0.12963900292E+02  0.28542157070E+02  0.00000000000E+00 0.  1.
         11    1    1    2    0    0 -0.50860405866E+02  0.85311976852E+02  0.13951901574E+03  0.17126140847E+03  0.00000000000E+00 0. -1.
</event>
<event>
 7    1  0.2499014E-009  0.1088540E+03  0.7561462E-02  0.1262707E+00
          1   -1    0    0  501    0  0.00000000000E+00  0.00000000000E+00  0.10333511327E+04  0.10333511327E+04  0.00000000000E+00 0. -1.
         -1   -1    0    0    0  501 -0.00000000000E+00 -0.00000000000E+00 -0.16129033351E+02  0.16129033351E+02  0.00000000000E+00 0.  1.
         25    2    1    2    0    0  0.54809166116E+02  0.29718872026E+02  0.67582183593E+03  0.69012419946E+03  0.12509596601E+03 0.  0.
          5    1    3    3  502    0 -0.65650380897E+01 -0.23533594509E+02  0.28762938639E+02  0.37969841121E+02  0.41800000000E+01 0. -1.
         -5    1    3    3    0  502  0.61374204206E+02  0.53252466535E+02  0.64705889729E+03  0.65215435834E+03  0.41800000000E+01 0. -1.
        -11    1    1    2    0    0  0.25855863601E+02 -0.13900597710E+02  0.10729644997E+03  0.11123974324E+03  0.00000000000E+00 0.  1.
         11    1    1    2    0    0 -0.80665029717E+02 -0.15818274316E+02  0.23410381345E+03  0.24811622336E+03  0.00000000000E+00 0. -1.
</event>
<event>
 7    1  0.2499014E-009  0.1161240E+03  0.7561462E-02  0.1249632E+00
          4   -1    0    0  501    0  0.00000000000E+00  0.00000000000E+00  0.59161249075E+03  0.59161249075E+03  0.00000000000E+00 0. -1.
         -4   -1    0    0    0  501 -0.00000000000E+00 -0.00000000000E+00 -0.35718764473E+02  0.35718764473E+02  0.00000000000E+00 0.  1.
         25    2    1    2    0    0 -0.73800707072E+02 -0.10497686915E+02  0.17182203367E+03  0.22522921662E+03  0.12509453614E+03 0.  0.
          5    1    3    3  502    0 -0.96449792676E+02 -0.17919482174E+02  0.17515842071E+03  0.20080242801E+03  0.41800000000E+01 0.  1.
         -5    1    3    3    0  502  0.22649085604E+02  0.74217952599E+01 -0.33363870385E+01  0.24426788615E+02  0.41800000000E+01 0.  1.
        -11    1    1    2    0    0  0.83651281055E+02 -0.12745250871E+02  0.34756731296E+03  0.35771918495E+03  0.00000000000E+00 0. -1.
         11    1    1    2    0    0 -0.98505739824E+01  0.23242937786E+02  0.36504379643E+02  0.44382853647E+02  0.00000000000E+00 0.  1.
</event>
<event>
 7    1  0.2499014E-009  0.9106567E+02  0.7561462E-02  0.1300291E+00
         -2   -1    0    0    0  501 -0.00000000000E+00  0.00000000000E+00  0.45429471405E+03  0.45429471405E+03  0.00000000000E+00 0.  1.
          2   -1    0    0  501    0  0.00000000000E+00 -0.00000000000E+00 -0.36658897915E+02  0.36658897915E+02  0.00000000000E+00 0. -1.
         25    2    1    2    0    0 -0.16223917199E+02 -0.17371810973E+02  0.10255082878E+03  0.16349129970E+03  0.12509091609E+03 0.  0.
          5    1    3    3  502    0 -0.54568639346E+02 -0.32054658792E+02  0.10442444351E+03  0.12217681594E+03  0.41800000000E+01 0. -1.
         -5    1    3    3    0  502  0.38344722147E+02  0.14682847819E+02 -0.18736147254E+01  0.41314483765E+02  0.41800000000E+01 0. -1.
        -11    1    1    2    0    0 -0.25248403445E+02  0.24698564229E+02  0.66138549875E+02  0.74978721856E+02  0.00000000000E+00 0. -1.
         11    1    1    2    0    0  0.41472320644E+02 -0.73267532562E+01  0.24894643748E+03  0.25248359041E+03  0.00000000000E+00 0.  1.
</event>
<event>
 7    1  0.2499014E-009  0.1013307E+03  0.7561462E-02  0.1277522E+00
         -1   -1    0    0    0  501 -0.00000000000E+00  0.00000000000E+00  0.71154042453E+02  0.71154042453E+02  0.00000000000E+00 0.  1.
          1   -1    0    0  501    0  0.00000000000E+00 -0.00000000000E+00 -0.19930507706E+03  0.19930507706E+03  0.00000000000E+00 0. -1.
         25    2    1    2    0    0 -0.33101295091E+02 -0.27254508851E+02 -0.10059345884E+03  0.16614787042E+03  0.12509023500E+03 0.  0.
          5    1    3    3  502    0 -0.66733363081E+02  0.23765534093E+02 -0.52469660448E+02  0.88253498663E+02  0.41800000000E+01 0. -1.
         -5    1    3    3    0  502  0.33632067990E+02 -0.51020042943E+02 -0.48123798397E+02  0.77894371757E+02  0.41800000000E+01 0. -1.
        -11    1    1    2    0    0  0.43715739043E+02  0.36050756130E+02 -0.51573823636E+02  0.76619724237E+02  0.00000000000E+00 0. -1.
         11    1    1    2    0    0 -0.10614443953E+02 -0.87962472798E+01  0.24016247877E+02  0.27691524853E+02  0.00000000000E+00 0.  1.
</event>
<event>
 7    1  0.2499014E-009  0.2262745E+03  0.7561462E-02  0.1129290E+00
          1   -1    0    0  501    0  0.00000000000E+00  0.00000000000E+00  0.87730976762E+03  0.87730976762E+03  0.00000000000E+00 0. -1.
         -1   -1    0    0    0  501 -0.00000000000E+00 -0.00000000000E+00 -0.67397942558E+02  0.67397942558E+02  0.00000000000E+00 0.  1.
         25    2    1    2    0    0  0.18025249410E+03 -0.12251099741E+03  0.41323708101E+03  0.48364210952E+03  0.12507957015E+03 0.  0.
          5    1    3    3  502    0  0.14032465191E+02 -0.18865633802E+02  0.16827829630E+03  0.16996434810E+03  0.41800000000E+01 0.  1.
         -5    1    3    3    0  502  0.16622002891E+03 -0.10364536361E+03  0.24495878471E+03  0.31367776143E+03  0.41800000000E+01 0.  1.
        -11    1    1    2    0    0 -0.58204312685E+02  0.88701012028E+02  0.21303591476E+03  0.23799141272E+03  0.00000000000E+00 0. -1.
         11    1    1    2    0    0 -0.12204818142E+03  0.33809985381E+02  0.18363882929E+03  0.22307418793E+03  0.00000000000E+00 0.  1.
</event>
<event>
 7    1  0.2499014E-009  0.1460421E+03  0.7561462E-02  0.1205423E+00
         -2   -1    0    0    0  501 -0.00000000000E+00  0.00000000000E+00  0.93114891557E+02  0.93114891557E+02  0.00000000000E+00 0.  1.
          2   -1    0    0  501    0  0.00000000000E+00 -0.00000000000E+00 -0.29149334494E+03  0.29149334494E+03  0.00000000000E+00 0. -1.
         25    2    1    2    0    0  0.45289313281E+02 -0.90813446960E+02 -0.18906567101E+03  0.24838335148E+03  0.12510098838E+03 0.  0.
          5    1    3    3  502    0 -0.23961323963E+02 -0.83521778366E+02 -0.75920158722E+02  0.11546157546E+03  0.41800000000E+01 0. -1.
         -5    1    3    3    0  502  0.69250637245E+02 -0.72916685943E+01 -0.11314551229E+03  0.13292177602E+03  0.41800000000E+01 0. -1.
        -11    1    1    2    0    0 -0.71633916249E+02  0.52395064810E+02 -0.15918246100E+00  0.88750696407E+02  0.00000000000E+00 0.  1.
         11    1    1    2    0    0  0.26344602968E+02  0.38418382151E+02 -0.91535999113E+01  0.47474188608E+02  0.00000000000E+00 0. -1.
</event>
<event>
 7    1  0.2499014E-009  0.1059868E+03  0.7561462E-02  0.1268187E+00
         -1   -1    0    0    0  501 -0.00000000000E+00  0.00000000000E+00  0.13938471386E+03  0.13938471386E+03  0.00000000000E+00 0.  1.
          1   -1    0    0  501    0  0.00000000000E+00 -0.00000000000E+00 -0.18847437325E+03  0.18847437325E+03  0.00000000000E+00 0. -1.
         25    2    1    2    0    0 -0.60038869395E+02  0.11072484662E+02  0.78538297606E+02  0.15982235091E+03  0.12509058280E+03 0.  0.
          5    1    3    3  502    0  0.32655349562E+02 -0.18775149353E+02  0.61125230251E+01  0.38388975318E+02  0.41800000000E+01 0.  1.
         -5    1    3    3    0  502 -0.92694218958E+02  0.29847634015E+02  0.72425774581E+02  0.12143337559E+03  0.41800000000E+01 0.  1.
        -11    1    1    2    0    0  0.98567196532E+01  0.16593636253E+02 -0.10445865721E+03  0.10622671393E+03  0.00000000000E+00 0. -1.
         11    1    1    2    0    0  0.50182149742E+02 -0.27666120915E+02 -0.23169299788E+02  0.61810022261E+02  0.00000000000E+00 0.  1.
</event>
<event>
 7    1  0.2499014E-009  0.1425022E+03  0.7561462E-02  0.1210001E+00
         -3   -1    0    0    0  501 -0.00000000000E+00  0.00000000000E+00  0.34228721663E+03  0.34228721663E+03  0.00000000000E+00 0.  1.
          3   -1    0    0  501    0  0.00000000000E+00 -0.00000000000E+00 -0.91673627509E+02  0.91673627509E+02  0.00000000000E+00 0. -1.
         25    2    1    2    0    0  0.56596326387E+02 -0.10012901613E+03  0.22768613481E+03  0.28410846469E+03  0.12509068587E+03 0.  0.
          5    1    3    3  502    0  0.36075640959E+02  0.18754618529E+02  0.24170966110E+02  0.47485740907E+02  0.41800000000E+01 0. -1.
         -5    1    3    3    0  502  0.20520685428E+02 -0.11888363466E+03  0.20351516870E+03  0.23662272378E+03  0.41800000000E+01 0. -1.
        -11    1    1    2    0    0 -0.24587304483E+02  0.84096169845E+02  0.53598404619E+02  0.10271071172E+03  0.00000000000E+00 0.  1.
         11    1    1    2    0    0 -0.32009021904E+02  0.16032846281E+02 -0.30670950310E+02  0.47141667727E+02  0.00000000000E+00 0. -1.
</event>
<event>
 7    1  0.2499014E-009  0.7345445E+02  0.7561462E-02  0.1348725E+00
         -2   -1    0    0    0  501 -0.00000000000E+00  0.00000000000E+00  0.76657787140E+03  0.76657787140E+03  0.00000000000E+00 0.  1.
          2   -1    0    0  501    0  0.00000000000E+00 -0.00000000000E+00 -0.20433631932E+02  0.20433631932E+02  0.00000000000E+00 0. -1.
         25    2    1    2    0    0 -0.38892678333E+02 -0.18933763359E+01  0.56628384271E+03  0.58124046344E+03  0.12508741157E+03 0.  0.
          5    1    3    3  502    0  0.40915410434E+01  0.20069135619E+02  0.49266772171E+03  0.49311100913E+03  0.41800000000E+01 0.  1.
         -5    1    3    3    0  502 -0.42984219377E+02 -0.21962511955E+02  0.73616120995E+02  0.88129454311E+02  0.41800000000E+01 0.  1.
        -11    1    1    2    0    0  0.45952404145E+02  0.25749668246E+02  0.17168388131E+03  0.17958291668E+03  0.00000000000E+00 0.  1.
         11    1    1    2    0    0 -0.70597258114E+01 -0.23856291910E+02  0.81765154504E+01  0.26188123208E+02  0.00000000000E+00 0. -1.
</event>
<event>
 7    1  0.2499014E-009  0.1024208E+03  0.7561462E-02  0.1275286E+00
          2   -1    0    0  501    0  0.00000000000E+00  0.00000000000E+00  0.24610321426E+03  0.24610321426E+03  0.00000000000E+00 0. -1.
         -2   -1    0    0    0  501 -0.00000000000E+00 -0.00000000000E+00 -0.56046665022E+02  0.56046665022E+02  0.00000000000E+00 0.  1.
         25    2    1    2    0    0 -0.25576467963E+02 -0.37478159253E+02  0.11436986635E+03  0.17546163578E+03  0.12509017215E+03 0.  0.
          5    1    3    3  502    0 -0.52503354816E+01 -0.69140474021E+02  0.11852123412E+03  0.13737804230E+03  0.41800000000E+01 0.  1.
         -5    1    3    3    0  502 -0.20326132481E+02  0.31662314767E+02 -0.41513677687E+01  0.38083593481E+02  0.41800000000E+01 0.  1.
        -11    1    1    2    0    0 -0.22636140976E+02 -0.14296693779E+02  0.61101842802E+01  0.27461330689E+02  0.00000000000E+00 0. -1.
         11    1    1    2    0    0  0.48212608938E+02  0.51774853032E+02  0.69576498611E+02  0.99226912812E+02  0.00000000000E+00 0.  1.
</event>
<event>
 7    1  0.3140291E-009  0.1158804E+03  0.7561462E-02  0.1250052E+00
          1   -1    0    0  501    0  0.00000000000E+00  0.00000000000E+00  0.67905263438E+03  0.67905263438E+03  0.00000000000E+00 0. -1.
         -1   -1    0    0    0  501 -0.00000000000E+00 -0.00000000000E+00 -0.23457839099E+02  0.23457839099E+02  0.00000000000E+00 0.  1.
         25    2    1    2    0    0 -0.59220297824E+02 -0.22472064671E+02  0.33594307174E+03  0.36402947721E+03  0.12509066897E+03 0.  0.
          5    1    3    3  502    0  0.37668695631E+02 -0.18490222724E+02  0.82881767318E+02  0.92992896076E+02  0.41800000000E+01 0.  1.
         -5    1    3    3    0  502 -0.96888993455E+02 -0.39818419467E+01  0.25306130443E+03  0.27103658114E+03  0.41800000000E+01 0.  1.
        -11    1    1    2    0    0  0.23456650294E+02  0.44658229710E+02  0.75973793332E+02  0.91195335391E+02  0.00000000000E+00 0.  1.
         11    1    1    2    0    0  0.35763647530E+02 -0.22186165039E+02  0.24367793021E+03  0.24728566088E+03  0.00000000000E+00 0. -1.
</event>
<event>
 7    1  0.2499014E-009  0.9351359E+02  0.7561462E-02  0.1294559E+00
          1   -1    0    0  501    0  0.00000000000E+00  0.00000000000E+00  0.33151960991E+03  0.33151960991E+03  0.00000000000E+00 0. -1.
         -1   -1    0    0    0  501 -0.00000000000E+00 -0.00000000000E+00 -0.37436907668E+02  0.37436907668E+02  0.00000000000E+00 0.  1.
         25    2    1    2    0    0 -0.21881740272E+02  0.38421032806E+01  0.18917266529E+03  0.22787582400E+03  0.12509005380E+03 0.  0.
          5    1    3    3  502    0 -0.61127373219E+01 -0.43007387270E+02  0.16862447988E+03  0.17418004631E+03  0.41800000000E+01 0. -1.
         -5    1    3    3    0  502 -0.15769002950E+02  0.46849490550E+02  0.20548185408E+02  0.53695777696E+02  0.41800000000E+01 0. -1.
        -11    1    1    2    0    0 -0.13747678666E+02 -0.40433040201E+02  0.55399484487E+02  0.69949498140E+02  0.00000000000E+00 0. -1.
         11    1    1    2    0    0  0.35629418938E+02  0.36590936920E+02  0.49510552474E+02  0.71131195441E+02  0.00000000000E+00 0.  1.
</event>
<event>
 7    1  0.2499014E-009  0.1941333E+03  0.7561462E-02  0.1154785E+00
         -1   -1    0    0    0  501 -0.00000000000E+00  0.00000000000E+00  0.94916874760E+02  0.94916874760E+02  0.00000000000E+00 0.  1.
          1   -1    0    0  501    0  0.00000000000E+00 -0.00000000000E+00 -0.71923028801E+03  0.71923028801E+03  0.00000000000E+00 0. -1.
         25    2    1    2    0    0  0.15690534154E+03  0.78022782068E+02 -0.66094261720E+02  0.22521546033E+03  0.12508681551E+03 0.  0.
          5    1    3    3  502    0  0.15262243994E+03  0.23551188958E+02 -0.24495100362E+02  0.15641531260E+03  0.41800000000E+01 0. -1.
         -5    1    3    3    0  502  0.42829016023E+01  0.54471593110E+02 -0.41599161358E+02  0.68800147731E+02  0.41800000000E+01 0. -1.
        -11    1    1    2    0    0 -0.51840151867E+02 -0.45561543698E+02 -0.13447560831E+03  0.15115205867E+03  0.00000000000E+00 0.  1.
         11    1    1    2    0    0 -0.10506518967E+03 -0.32461238370E+02 -0.42374354321E+03  0.43777964376E+03  0.00000000000E+00 0. -1.
</event>
<event>
 7    1  0.2499014E-009  0.1322745E+03  0.7561462E-02  0.1224119E+00
          2   -1    0    0  501    0  0.00000000000E+00  0.00000000000E+00  0.11836376707E+04  0.11836376707E+04  0.00000000000E+00 0. -1.
         -2   -1    0    0    0  501 -0.00000000000E+00 -0.00000000000E+00 -0.36462640385E+02  0.36462640385E+02  0.00000000000E+00 0.  1.
         25    2    1    2    0    0 -0.32940576995E+02 -0.80912589219E+02  0.99688027250E+03  0.10084889718E+04  0.12509116597E+03 0.  0.
          5    1    3    3  502    0 -0.14782631737E+02 -0.11313471208E+03  0.80197961615E+03  0.81006590250E+03  0.41800000000E+01 0. -1.
         -5    1    3    3    0  502 -0.18157945258E+02  0.32222122858E+02  0.19490065635E+03  0.19842306928E+03  0.41800000000E+01 0. -1.
        -11    1    1    2    0    0 -0.22717859064E+02  0.16813704527E+02  0.11709722111E+03  0.12045978985E+03  0.00000000000E+00 0. -1.
         11    1    1    2    0    0  0.55658436059E+02  0.64098884691E+02  0.33197536709E+02  0.91151549448E+02  0.00000000000E+00 0.  1.
</event>
<event>
 7    1  0.2499014E-009  0.1297232E+03  0.7561462E-02  0.1227867E+00
         -2   -1    0    0    0  501 -0.00000000000E+00  0.00000000000E+00  0.78103424608E+02  0.78103424608E+02  0.00000000000E+00 0.  1.
          2   -1    0    0  501    0  0.00000000000E+00 -0.00000000000E+00 -0.32735017106E+03  0.32735017106E+03  0.00000000000E+00 0. -1.
         25    2    1    2    0    0 -0.13882715761E+02  0.10057228592E+03 -0.20819433833E+03  0.26324956985E+03  0.12509172243E+03 0.  0.
          5    1    3    3  502    0 -0.13484237653E+02 -0.92369151882E+01 -0.12313760492E+03  0.12428792143E+03  0.41800000000E+01 0.  1.
         -5    1    3    3    0  502 -0.39847810816E+00  0.10980920111E+03 -0.85056733410E+02  0.13896164842E+03  0.41800000000E+01 0.  1.
        -11    1    1    2    0    0  0.50145598041E+02 -0.54599129083E+02 -0.69849013226E+01  0.74460961221E+02  0.00000000000E+00 0.  1.
         11    1    1    2    0    0 -0.36262882280E+02 -0.45973156841E+02 -0.34067506794E+02  0.67743064592E+02  0.00000000000E+00 0. -1.
</event>
<event>
 7    1  0.2499014E-009  0.1091559E+03  0.7561462E-02  0.1262141E+00
          2   -1    0    0  501    0  0.00000000000E+00  0.00000000000E+00  0.14773248934E+03  0.14773248934E+03  0.00000000000E+00 0. -1.
         -2   -1    0    0    0  501 -0.00000000000E+00 -0.00000000000E+00 -0.12745882087E+03  0.12745882087E+03  0.00000000000E+00 0.  1.
         25    2    1    2    0    0  0.51718078170E+02 -0.23868901546E+02  0.71704347680E+02  0.15502915127E+03  0.12509212683E+03 0.  0.
          5    1    3    3  502    0  0.38764153653E+02 -0.61222981987E+02  0.86220847307E+02  0.11270501338E+03  0.41800000000E+01 0.  1.
         -5    1    3    3    0  502  0.12953924517E+02  0.37354080441E+02 -0.14516499626E+02  0.42324137881E+02  0.41800000000E+01 0.  1.
        -11    1    1    2    0    0 -0.44494342525E+02  0.56859420784E+02 -0.46881704810E+02  0.86085042223E+02  0.00000000000E+00 0.  1.
         11    1    1    2    0    0 -0.72237356454E+01 -0.32990519239E+02 -0.45489744000E+01  0.34077116727E+02  0.00000000000E+00 0. -1.
</event>
<event>
 7    1  0.2499014E-009  0.1654292E+03  0.7561462E-02  0.1182700E+00
         -1   -1    0    0    0  501 -0.00000000000E+00  0.00000000000E+00  0.20004432490E+03  0.20004432490E+03  0.00000000000E+00 0.  1.
          1   -1    0    0  501    0  0.00000000000E+00 -0.00000000000E+00 -0.20076574726E+03  0.20076574726E+03  0.00000000000E+00 0. -1.
         25    2    1    2    0    0  0.15546015378E+03 -0.15754078560E+02  0.60586171434E+02  0.20912823296E+03  0.12509149951E+03 0.  0.
          5    1    3    3  502    0  0.86674019687E+01 -0.25522483478E+02  0.55526790372E+02  0.61864512192E+02  0.41800000000E+01 0.  1.
         -5    1    3    3    0  502  0.14679275181E+03  0.97684049179E+01  0.50593810624E+01  0.14726372077E+03  0.41800000000E+01 0.  1.
        -11    1    1    2    0    0 -0.37633124954E+02  0.88232268171E+00 -0.62445961464E+02  0.72914530036E+02  0.00000000000E+00 0.  1.
         11    1    1    2    0    0 -0.11782702883E+03  0.14871755878E+02  0.11383676643E+01  0.11876730916E+03  0.00000000000E+00 0. -1.
</event>
<event>
 7    1  0.2499014E-009  0.1114323E+03  0.7561462E-02  0.1257940E+00
          1   -1    0    0  501    0  0.00000000000E+00  0.00000000000E+00  0.72702871945E+02  0.72702871945E+02  0.00000000000E+00 0. -1.
         -1   -1    0    0    0  501 -0.00000000000E+00 -0.00000000000E+00 -0.19716339940E+03  0.19716339940E+03  0.00000000000E+00 0.  1.
         25    2    1    2    0    0 -0.35986485343E+02 -0.25060552990E+01 -0.11013835773E+03  0.17052768046E+03  0.12509166447E+03 0.  0.
          5    1    3    3  502    0  0.34707811172E+02 -0.37437940658E+02 -0.43862040893E+02  0.67435766388E+02  0.41800000000E+01 0.  1.
         -5    1    3    3    0  502 -0.70694296515E+02  0.34931885359E+02 -0.66276316837E+02  0.10309191408E+03  0.41800000000E+01 0.  1.
        -11    1    1    2    0    0 -0.33278841118E+01  0.38937146211E+02 -0.22539771358E+02  0.45113384495E+02  0.00000000000E+00 0.  1.
         11    1    1    2    0    0  0.39314369455E+02 -0.36431090912E+02  0.82176016356E+01  0.54225206383E+02  0.00000000000E+00 0. -1.
</event>
<event>
 7    1  0.2499014E-009  0.1311471E+03  0.7561462E-02  0.1225763E+00
          1   -1    0    0  501    0  0.00000000000E+00  0.00000000000E+00  0.11928588021E+03  0.11928588021E+03  0.00000000000E+00 0. -1.
         -1   -1    0    0    0  501 -0.00000000000E+00 -0.00000000000E+00 -0.25471639938E+03  0.25471639938E+03  0.00000000000E+00 0.  1.
         25    2    1    2    0    0  0.87940943094E+02  0.19154395372E+02  0.36696763811E+02  0.15841400490E+03  0.12509134319E+03 0.  0.
          5    1    3    3  502    0  0.32856530805E+02  0.66477225378E+02  0.42274362257E+02  0.85459740315E+02  0.41800000000E+01 0. -1.
         -5    1    3    3    0  502  0.55084412289E+02 -0.47322830007E+02 -0.55775984457E+01  0.72954264587E+02  0.41800000000E+01 0. -1.
        -11    1    1    2    0    0 -0.64195569635E+01 -0.32103171950E+02 -0.10980434665E+02  0.34531062918E+02  0.00000000000E+00 0. -1.
         11    1    1    2    0    0 -0.81521386131E+02  0.12948776578E+02 -0.16114684832E+03  0.18105721177E+03  0.00000000000E+00 0.  1.
</event>
<event>
 7    1  0.2499014E-009  0.1003456E+03  0.7561462E-02  0.1279571E+00
          1   -1    0    0  501    0  0.00000000000E+00  0.00000000000E+00  0.57890768157E+02  0.57890768157E+02  0.00000000000E+00 0. -1.
         -1   -1    0    0    0  501 -0.00000000000E+00 -0.00000000000E+00 -0.37871076499E+03  0.37871076499E+03  0.00000000000E+00 0.  1.
         25    2    1    2    0    0 -0.32034995818E+02 -0.19175897357E+02 -0.36650783685E+02  0.13559785163E+03  0.12509812719E+03 0.  0.
          5    1    3    3  502    0  0.47919785580E+02 -0.13523032832E+02 -0.18704683927E+02  0.53352749393E+02  0.41800000000E+01 0.  1.
         -5    1    3    3    0  502 -0.79954781397E+02 -0.56528645252E+01 -0.17946099758E+02  0.82245102238E+02  0.41800000000E+01 0.  1.
        -11    1    1    2    0    0  0.48272526508E+02  0.43406864863E+01 -0.27114466973E+03  0.27544239016E+03  0.00000000000E+00 0.  1.
         11    1    1    2    0    0 -0.16237530690E+02  0.14835210871E+02 -0.13024543420E+02  0.25561291357E+02  0.00000000000E+00 0. -1.
</event>
<event>
 7    1  0.2499014E-009  0.3252830E+03  0.7561462E-02  0.1073243E+00
         -2   -1    0    0    0  501 -0.00000000000E+00  0.00000000000E+00  0.94688623570E+02  0.94688623570E+02  0.00000000000E+00 0. -1.
          2   -1    0    0  501    0  0.00000000000E+00 -0.00000000000E+00 -0.17715413420E+04  0.17715413420E+04  0.00000000000E+00 0.  1.
         25    2    1    2    0    0 -0.32128203368E+03 -0.16568481459E+02 -0.13680985017E+04  0.14109703652E+04  0.12508877352E+03 0.  0.
          5    1    3    3  502    0  0.22114742825E+01  0.87446787178E+00  0.22348186543E+00  0.48143178858E+01  0.41800000000E+01 0.  1.
         -5    1    3    3    0  502 -0.32349350797E+03 -0.17442949331E+02 -0.13683219836E+04  0.14061560473E+04  0.41800000000E+01 0.  1.
        -11    1    1    2    0    0  0.20952257689E+03  0.79005788533E+01 -0.25732086742E+03  0.33192794125E+03  0.00000000000E+00 0.  1.
         11    1    1    2    0    0  0.11175945680E+03  0.86679026058E+01 -0.51433349229E+02  0.12333165908E+03  0.00000000000E+00 0. -1.
</event>
<event>
 7    1  0.2499014E-009  0.1312258E+03  0.7561462E-02  0.1225648E+00
         -1   -1    0    0    0  501 -0.00000000000E+00  0.00000000000E+00  0.20615652973E+03  0.20615652973E+03  0.00000000000E+00 0.  1.
          1   -1    0    0  501    0  0.00000000000E+00 -0.00000000000E+00 -0.11814292803E+03  0.11814292803E+03  0.00000000000E+00 0. -1.
         25    2    1    2    0    0  0.68421905918E+02  0.22088593099E+02 -0.39772124183E+02  0.14966093399E+03  0.12508840933E+03 0.  0.
          5    1    3    3  502    0  0.84651370650E+02 -0.29056121929E+02 -0.32700957611E+02  0.95377868518E+02  0.41800000000E+01 0.  1.
         -5    1    3    3    0  502 -0.16229464732E+02  0.51144715029E+02 -0.70711665721E+01  0.54283065477E+02  0.41800000000E+01 0.  1.
        -11    1    1    2    0    0 -0.88802985911E+02  0.23891345198E+00  0.94990662033E+02  0.13003558459E+03  0.00000000000E+00 0. -1.
         11    1    1    2    0    0  0.20381079993E+02 -0.22327506551E+02  0.32795063851E+02  0.44602939180E+02  0.00000000000E+00 0.  1.
</event>
<event>
 7    1  0.2499014E-009  0.1334423E+03  0.7561462E-02  0.1222436E+00
          4   -1    0    0  501    0  0.00000000000E+00  0.00000000000E+00  0.45819037223E+02  0.45819037223E+02  0.00000000000E+00 0. -1.
         -4   -1    0    0    0  501 -0.00000000000E+00 -0.00000000000E+00 -0.46689360647E+03  0.46689360647E+03  0.00000000000E+00 0.  1.
         25    2    1    2    0    0 -0.72195667053E+02 -0.66615843269E+02 -0.24616670811E+03  0.29307815635E+03  0.12508745994E+03 0.  0.
          5    1    3    3  502    0 -0.10347051608E+03 -0.61482064424E+02 -0.15383246787E+03  0.19536655936E+03  0.41800000000E+01 0. -1.
         -5    1    3    3    0  502  0.31274849029E+02 -0.51337788454E+01 -0.92334240238E+02  0.97711596996E+02  0.41800000000E+01 0. -1.
        -11    1    1    2    0    0  0.50339762258E+02  0.75623641272E+02 -0.77540324771E+02  0.11943838892E+03  0.00000000000E+00 0. -1.
         11    1    1    2    0    0  0.21855904795E+02 -0.90077980029E+01 -0.97367536366E+02  0.10019609841E+03  0.00000000000E+00 0.  1.
</event>
<event>
 7    1  0.2499014E-009  0.1652959E+03  0.7561462E-02  0.1182844E+00
          2   -1    0    0  501    0  0.00000000000E+00  0.00000000000E+00  0.10593591505E+04  0.10593591505E+04  0.00000000000E+00 0. -1.
         -2   -1    0    0    0  501 -0.00000000000E+00 -0.00000000000E+00 -0.33089342464E+02  0.33089342464E+02  0.00000000000E+00 0.  1.
         25    2    1    2    0    0 -0.14905481737E+03 -0.15054189677E+02  0.62152414392E+03  0.65144734818E+03  0.12508964291E+03 0.  0.
          5    1    3    3  502    0  0.93112801099E+01  0.67791019496E+01  0.20365002639E+03  0.20401828793E+03  0.41800000000E+01 0. -1.
         -5    1    3    3    0  502 -0.15836609748E+03 -0.21833291626E+02  0.41787411753E+03  0.44742906025E+03  0.41800000000E+01 0. -1.
        -11    1    1    2    0    0  0.93675190537E+02 -0.15842043094E+02  0.14299927556E+03  0.17168227766E+03  0.00000000000E+00 0.  1.
         11    1    1    2    0    0  0.55379626833E+02  0.30896232770E+02  0.26174638852E+03  0.26931886709E+03  0.00000000000E+00 0. -1.
</event>
<event>
 7    1  0.2499014E-009  0.1176585E+03  0.7561462E-02  0.1247010E+00
          2   -1    0    0  501    0  0.00000000000E+00  0.00000000000E+00  0.23697133646E+03  0.23697133646E+03  0.00000000000E+00 0. -1.
         -2   -1    0    0    0  501 -0.00000000000E+00 -0.00000000000E+00 -0.10724754355E+03  0.10724754355E+03  0.00000000000E+00 0.  1.
         25    2    1    2    0    0  0.36015433658E+02 -0.46239964132E+02 -0.39369849979E+02  0.14363935489E+03  0.12508810272E+03 0.  0.
          5    1    3    3  502    0 -0.43778302105E+02 -0.25532434047E+01 -0.27177934145E+02  0.51760711852E+02  0.41800000000E+01 0.  1.
         -5    1    3    3    0  502  0.79793735763E+02 -0.43686720728E+02 -0.12191915835E+02  0.91878643039E+02  0.41800000000E+01 0.  1.
        -11    1    1    2    0    0 -0.10750626687E+02 -0.23598285980E+02  0.82604720345E+02  0.86579413826E+02  0.00000000000E+00 0. -1.
         11    1    1    2    0    0 -0.25264806971E+02  0.69838250112E+02  0.86488922551E+02  0.11400011129E+03  0.00000000000E+00 0.  1.
</event>
<event>
 7    1  0.2499014E-009  0.1300577E+03  0.7561462E-02  0.1227370E+00
         -2   -1    0    0    0  501 -0.00000000000E+00  0.00000000000E+00  0.21474796605E+02  0.21474796605E+02  0.00000000000E+00 0.  1.
          2   -1    0    0  501    0  0.00000000000E+00 -0.00000000000E+00 -0.12729462854E+04  0.12729462854E+04  0.00000000000E+00 0. -1.
         25    2    1    2    0    0 -0.10223549140E+02 -0.97364862427E+02 -0.98664434910E+03  0.99935169839E+03  0.12510918463E+03 0.  0.
          5    1    3    3  502    0  0.44816507265E+02 -0.81051125477E+02 -0.43850141742E+03  0.44819501307E+03  0.41800000000E+01 0. -1.
         -5    1    3    3    0  502 -0.55040056405E+02 -0.16313736950E+02 -0.54814293168E+03  0.55115668532E+03  0.41800000000E+01 0. -1.
        -11    1    1    2    0    0 -0.16244555220E+02  0.69663006796E+02 -0.84475496306E+02  0.11069295175E+03  0.00000000000E+00 0.  1.
         11    1    1    2    0    0  0.26468104361E+02  0.27701855631E+02 -0.18035164336E+03  0.18437643183E+03  0.00000000000E+00 0. -1.
</event>
<event>
 7    1  0.2499014E-009  0.7899256E+02  0.7561462E-02  0.1331935E+00
          2   -1    0    0  501    0  0.00000000000E+00  0.00000000000E+00  0.33137122367E+03  0.33137122367E+03  0.00000000000E+00 0.  1.
         -2   -1    0    0    0  501 -0.00000000000E+00 -0.00000000000E+00 -0.35334160482E+02  0.35334160482E+02  0.00000000000E+00 0. -1.
         25    2    1    2    0    0  0.51762060853E+01 -0.15853089002E+01  0.17246836903E+03  0.21311964045E+03  0.12508131961E+03 0.  0.
          5    1    3    3  502    0  0.32893495418E+02  0.12465396336E+02 -0.23595551943E+01  0.35502225949E+02  0.41800000000E+01 0. -1.
         -5    1    3    3    0  502 -0.27717289332E+02 -0.14050705236E+02  0.17482792423E+03  0.17761741450E+03  0.41800000000E+01 0. -1.
        -11    1    1    2    0    0 -0.48140686688E+02 -0.11546502664E+01  0.65978813544E+02  0.81682695651E+02  0.00000000000E+00 0. -1.
         11    1    1    2    0    0  0.42964480603E+02  0.27399591666E+01  0.57589880609E+02  0.71903048046E+02  0.00000000000E+00 0.  1.
</event>
<event>
 7    1  0.2499014E-009  0.1307774E+03  0.7561462E-02  0.1226307E+00
          1   -1    0    0  501    0  0.00000000000E+00  0.00000000000E+00  0.31183384205E+03  0.31183384205E+03  0.00000000000E+00 0. -1.
         -1   -1    0    0    0  501 -0.00000000000E+00 -0.00000000000E+00 -0.76508144275E+02  0.76508144275E+02  0.00000000000E+00 0.  1.
         25    2    1    2    0    0 -0.31367444097E+01 -0.92459686056E+02  0.19560602585E+03  0.24993248973E+03  0.12508356952E+03 0.  0.
          5    1    3    3  502    0 -0.37166255539E+02 -0.69570801094E+01  0.13354337215E+03  0.13885617077E+03  0.41800000000E+01 0. -1.
         -5    1    3    3    0  502  0.34029511129E+02 -0.85502605946E+02  0.62062653698E+02  0.11107631897E+03  0.41800000000E+01 0. -1.
        -11    1    1    2    0    0  0.44591546622E+02  0.73128859097E+02  0.34626979661E+02  0.92386491347E+02  0.00000000000E+00 0.  1.
         11    1    1    2    0    0 -0.41454802213E+02  0.19330826958E+02  0.50926922686E+01  0.46023005247E+02  0.00000000000E+00 0. -1.
</event>
<event>
 7    1  0.2499014E-009  0.1170595E+03  0.7561462E-02  0.1248028E+00
          1   -1    0    0  501    0  0.00000000000E+00  0.00000000000E+00  0.52355363720E+03  0.52355363720E+03  0.00000000000E+00 0. -1.
         -1   -1    0    0    0  501 -0.00000000000E+00 -0.00000000000E+00 -0.28689642625E+02  0.28689642625E+02  0.00000000000E+00 0.  1.
         25    2    1    2    0    0 -0.15749854509E+02 -0.51309957403E+02  0.31782638927E+03  0.34574791793E+03  0.12508892594E+03 0.  0.
          5    1    3    3  502    0  0.12667528377E+02 -0.88009637422E+02  0.19418808740E+03  0.21361799606E+03  0.41800000000E+01 0. -1.
         -5    1    3    3    0  502 -0.28417382886E+02  0.36699680019E+02  0.12363830187E+03  0.13212992187E+03  0.41800000000E+01 0. -1.
        -11    1    1    2    0    0  0.33483664154E+02 -0.97848849610E+01  0.28987904814E+02  0.45356348667E+02  0.00000000000E+00 0.  1.
         11    1    1    2    0    0 -0.17733809646E+02  0.61094842364E+02  0.14804970050E+03  0.16113901323E+03  0.00000000000E+00 0. -1.
</event>
<event>
 7    1  0.2777947E-009  0.1049573E+03  0.7561462E-02  0.1270204E+00
         -1   -1    0    0    0  501 -0.00000000000E+00  0.00000000000E+00  0.77537490821E+01  0.77537490821E+01  0.00000000000E+00 0.  1.
          1   -1    0    0  501    0  0.00000000000E+00 -0.00000000000E+00 -0.16851353826E+04  0.16851353826E+04  0.00000000000E+00 0. -1.
         25    2    1    2    0    0 -0.98480285492E+01  0.16374945155E+02 -0.11926892924E+04  0.11993818543E+04  0.12507582404E+03 0.  0.
          5    1    3    3  502    0 -0.24500107609E+01 -0.50024093051E+02 -0.29949394238E+03  0.30368158713E+03  0.41800000000E+01 0. -1.
         -5    1    3    3    0  502 -0.73980177883E+01  0.66399038205E+02 -0.89319535001E+03  0.89570026718E+03  0.41800000000E+01 0. -1.
        -11    1    1    2    0    0  0.41991105215E+02 -0.35781691032E+02 -0.30169937191E+03  0.30670196175E+03  0.00000000000E+00 0.  1.
         11    1    1    2    0    0 -0.32143076666E+02  0.19406745878E+02 -0.18299296918E+03  0.18680531559E+03  0.00000000000E+00 0. -1.
</event>
<event>
 7    1  0.2499014E-009  0.9664709E+02  0.7561462E-02  0.1287509E+00
         -1   -1    0    0    0  501 -0.00000000000E+00  0.00000000000E+00  0.52794715126E+02  0.52794715126E+02  0.00000000000E+00 0.  1.
          1   -1    0    0  501    0  0.00000000000E+00 -0.00000000000E+00 -0.25114021436E+03  0.25114021436E+03  0.00000000000E+00 0. -1.
         25    2    1    2    0    0 -0.22503215416E+02 -0.29890699242E+02 -0.99253046977E+02  0.16400844297E+03  0.12509098059E+03 0.  0.
          5    1    3    3  502    0 -0.42134613325E+02  0.17139237426E+02  0.68854148217E+01  0.46194809631E+02  0.41800000000E+01 0. -1.
         -5    1    3    3    0  502  0.19631397909E+02 -0.47029936668E+02 -0.10613846180E+03  0.11781363334E+03  0.41800000000E+01 0. -1.
        -11    1    1    2    0    0 -0.26760260796E+02 -0.14265467670E+02 -0.17974756021E+02  0.35252049298E+02  0.00000000000E+00 0. -1.
         11    1    1    2    0    0  0.49263476212E+02  0.44156166912E+02 -0.81117696239E+02  0.10467443722E+03  0.00000000000E+00 0.  1.
</event>
<event>
 7    1  0.2499014E-009  0.1266437E+03  0.7561462E-02  0.1232523E+00
         -1   -1    0    0    0  501 -0.00000000000E+00  0.00000000000E+00  0.39703188109E+03  0.39703188109E+03  0.00000000000E+00 0.  1.
          1   -1    0    0  501    0  0.00000000000E+00 -0.00000000000E+00 -0.58383998677E+02  0.58383998677E+02  0.00000000000E+00 0. -1.
         25    2    1    2    0    0 -0.39510751942E+02 -0.95754569696E+02  0.22358902971E+03  0.27634752393E+03  0.12508342272E+03 0.  0.
          5    1    3    3  502    0 -0.36570133948E+02  0.37947150070E+00  0.15195616940E+03  0.15635110654E+03  0.41800000000E+01 0. -1.
         -5    1    3    3    0  502 -0.29406179945E+01 -0.96134041197E+02  0.71632860302E+02  0.11999641739E+03  0.41800000000E+01 0. -1.
        -11    1    1    2    0    0  0.35014392050E+02  0.13029251406E+02  0.91322259351E-01  0.37360104157E+02  0.00000000000E+00 0. -1.
         11    1    1    2    0    0  0.44963598925E+01  0.82725318289E+02  0.11496753045E+03  0.14170825168E+03  0.00000000000E+00 0.  1.
</event>
<event>
 7    1  0.2499014E-009  0.1004449E+03  0.7561462E-02  0.1279363E+00
          3   -1    0    0  501    0  0.00000000000E+00  0.00000000000E+00  0.36811037938E+02  0.36811037938E+02  0.00000000000E+00 0. -1.
         -3   -1    0    0    0  501 -0.00000000000E+00 -0.00000000000E+00 -0.51531980325E+03  0.51531980325E+03  0.00000000000E+00 0.  1.
         25    2    1    2    0    0 -0.70254694644E+01 -0.77942120265E+02 -0.32943367974E+03  0.36097129858E+03  0.12509755282E+03 0.  0.
          5    1    3    3  502    0  0.36439195344E+02 -0.49071524736E+02 -0.57419366676E+02  0.83965978626E+02  0.41800000000E+01 0.  1.
         -5    1    3    3    0  502 -0.43464664808E+02 -0.28870595529E+02 -0.27201431306E+03  0.27700531995E+03  0.41800000000E+01 0.  1.
        -11    1    1    2    0    0 -0.15885419348E+02  0.38780163441E+02 -0.13832229732E+03  0.14453133072E+03  0.00000000000E+00 0.  1.
         11    1    1    2    0    0  0.22910888813E+02  0.39161956824E+02 -0.10752788257E+02  0.46628211887E+02  0.00000000000E+00 0. -1.
</event>
<event>
 7    1  0.2499014E-009  0.1178122E+03  0.7561462E-02  0.1246750E+00
         -2   -1    0    0    0  501 -0.00000000000E+00  0.00000000000E+00  0.15640787302E+02  0.15640787302E+02  0.00000000000E+00 0. -1.
          2   -1    0    0  501    0  0.00000000000E+00 -0.00000000000E+00 -0.94640396144E+03  0.94640396144E+03  0.00000000000E+00 0.  1.
         25    2    1    2    0    0  0.40125290986E+02 -0.25257065113E+02 -0.42648266193E+03  0.44697029951E+03  0.12508808658E+03 0.  0.
          5    1    3    3  502    0 -0.39991452083E+02  0.12479232057E+02 -0.18491642717E+03  0.18964863540E+03  0.41800000000E+01 0.  1.
         -5    1    3    3    0  502  0.80116743069E+02 -0.37736297171E+02 -0.24156623476E+03  0.25732166411E+03  0.41800000000E+01 0.  1.
        -11    1    1    2    0    0  0.26977422204E+02 -0.10357247326E+02 -0.13360613005E+03  0.13669547128E+03  0.00000000000E+00 0. -1.
         11    1    1    2    0    0 -0.67102713190E+02  0.35614312439E+02 -0.37067438216E+03  0.37837897795E+03  0.00000000000E+00 0.  1.
</event>
<event>
 7    1  0.2499014E-009  0.3401583E+03  0.7561462E-02  0.1066729E+00
         -1   -1    0    0    0  501 -0.00000000000E+00  0.00000000000E+00  0.92662156595E+02  0.92662156595E+02  0.00000000000E+00 0.  1.
          1   -1    0    0  501    0  0.00000000000E+00 -0.00000000000E+00 -0.12950340245E+04  0.12950340245E+04  0.00000000000E+00 0. -1.
         25    2    1    2    0    0 -0.32788305933E+03  0.17693084175E+02 -0.60773334344E+03  0.70200267021E+03  0.12509031308E+03 0.  0.
          5    1    3    3  502    0 -0.19415950395E+03  0.51649847730E+02 -0.26545690402E+03  0.33294212716E+03  0.41800000000E+01 0.  1.
         -5    1    3    3    0  502 -0.13372355539E+03 -0.33956763555E+02 -0.34227643942E+03  0.36906054305E+03  0.41800000000E+01 0.  1.
        -11    1    1    2    0    0  0.23538852054E+03  0.29950329394E+02 -0.42127760403E+03  0.48350759817E+03  0.00000000000E+00 0. -1.
         11    1    1    2    0    0  0.92494538792E+02 -0.47643413569E+02 -0.17336092039E+03  0.20218591267E+03  0.00000000000E+00 0.  1.
</event>
<event>
 7    1  0.2499014E-009  0.1638665E+03  0.7561462E-02  0.1184399E+00
         -2   -1    0    0    0  501 -0.00000000000E+00  0.00000000000E+00  0.86340420430E+03  0.86340420430E+03  0.00000000000E+00 0.  1.
          2   -1    0    0  501    0  0.00000000000E+00 -0.00000000000E+00 -0.37033256381E+02  0.37033256381E+02  0.00000000000E+00 0. -1.
         25    2    1    2    0    0  0.83614240714E+02  0.10671114437E+03  0.33007998054E+03  0.37812339585E+03  0.12508356947E+03 0.  0.
          5    1    3    3  502    0 -0.23873699983E+02 -0.66838573393E+01  0.73549517163E+02  0.77727931754E+02  0.41800000000E+01 0. -1.
         -5    1    3    3    0  502  0.10748794070E+03  0.11339500171E+03  0.25653046338E+03  0.30039546410E+03  0.41800000000E+01 0. -1.
        -11    1    1    2    0    0 -0.63128719585E+02 -0.10870855054E+03  0.47963859060E+03  0.49583864492E+03  0.00000000000E+00 0.  1.
         11    1    1    2    0    0 -0.20485521130E+02  0.19974061702E+01  0.16652376769E+02  0.26475419910E+02  0.00000000000E+00 0. -1.
</event>
<event>
 7    1  0.2499014E-009  0.8077691E+02  0.7561462E-02  0.1326861E+00
          2   -1    0    0  501    0  0.00000000000E+00  0.00000000000E+00  0.42320794473E+02  0.42320794473E+02  0.00000000000E+00 0.  1.
         -2   -1    0    0    0  501 -0.00000000000E+00 -0.00000000000E+00 -0.39673342279E+03  0.39673342279E+03  0.00000000000E+00 0. -1.
         25    2    1    2    0    0 -0.24777003692E+02 -0.46768029439E+02 -0.27827930262E+03  0.30965720402E+03  0.12508822983E+03 0.  0.
          5    1    3    3  502    0 -0.30164268915E+02 -0.22910635109E+02 -0.88952496186E+01  0.39132827473E+02  0.41800000000E+01 0.  1.
         -5    1    3    3    0  502  0.53872652231E+01 -0.23857394330E+02 -0.26938405300E+03  0.27052437654E+03  0.41800000000E+01 0.  1.
        -11    1    1    2    0    0 -0.13471030627E+02  0.57379765054E+02 -0.65888020868E+02  0.88403265764E+02  0.00000000000E+00 0. -1.
         11    1    1    2    0    0  0.38248034319E+02 -0.10611735615E+02 -0.10245304830E+02  0.40993747488E+02  0.00000000000E+00 0.  1.
</event>
<event>
 7    1  0.2499014E-009  0.6908819E+02  0.7561462E-02  0.1363221E+00
         -1   -1    0    0    0  501 -0.00000000000E+00  0.00000000000E+00  0.31766468830E+03  0.31766468830E+03  0.00000000000E+00 0.  1.
          1   -1    0    0  501    0  0.00000000000E+00 -0.00000000000E+00 -0.53402786962E+02  0.53402786962E+02  0.00000000000E+00 0. -1.
         25    2    1    2    0    0  0.28961115888E+02  0.48561436499E+00  0.23994447253E+03  0.27214125960E+03  0.12509409746E+03 0.  0.
          5    1    3    3  502    0  0.20231503337E+02 -0.24610236345E+02  0.24295967318E+03  0.24507519795E+03  0.41800000000E+01 0. -1.
         -5    1    3    3    0  502  0.87296125511E+01  0.25095850710E+02 -0.30152006418E+01  0.27066061647E+02  0.41800000000E+01 0. -1.
        -11    1    1    2    0    0 -0.53236577134E+02 -0.77736696083E+01  0.41804189851E+02  0.68133349934E+02  0.00000000000E+00 0.  1.
         11    1    1    2    0    0  0.24275461246E+02  0.72880552433E+01 -0.17486761048E+02  0.30792865731E+02  0.00000000000E+00 0. -1.
</event>
<event>
 7    1  0.2499014E-009  0.1926741E+03  0.7561462E-02  0.1156071E+00
         -1   -1    0    0    0  501 -0.00000000000E+00  0.00000000000E+00  0.22080458196E+03  0.22080458196E+03  0.00000000000E+00 0.  1.
          1   -1    0    0  501    0  0.00000000000E+00 -0.00000000000E+00 -0.17193541703E+03  0.17193541703E+03  0.00000000000E+00 0. -1.
         25    2    1    2    0    0 -0.48660635099E+02 -0.14993101344E+03  0.30118487756E+02  0.20347584857E+03  0.12509249157E+03 0.  0.
          5    1    3    3  502    0  0.37723613483E+02 -0.17369337907E+02 -0.27101082369E+01  0.41828004976E+02  0.41800000000E+01 0. -1.
         -5    1    3    3    0  502 -0.86384248583E+02 -0.13256167554E+03  0.32828595993E+02  0.16164784360E+03  0.41800000000E+01 0. -1.
        -11    1    1    2    0    0  0.43334554273E+02  0.89523673142E+01  0.19071550934E+02  0.48184567339E+02  0.00000000000E+00 0. -1.
         11    1    1    2    0    0  0.53260808258E+01  0.14097864613E+03 -0.32087376405E+00  0.14107958308E+03  0.00000000000E+00 0.  1.
</event>
<event>
 7    1  0.2499014E-009  0.1695973E+03  0.7561462E-02  0.1178268E+00
          2   -1    0    0  501    0  0.00000000000E+00  0.00000000000E+00  0.51394456553E+03  0.51394456553E+03  0.00000000000E+00 0. -1.
         -2   -1    0    0    0  501 -0.00000000000E+00 -0.00000000000E+00 -0.14596557926E+03  0.14596557926E+03  0.00000000000E+00 0.  1.
         25    2    1    2    0    0 -0.70873239787E+02 -0.14944613581E+03  0.40943750956E+03  0.45895864699E+03  0.12508717673E+03 0.  0.
          5    1    3    3  502    0 -0.17818494757E+02 -0.77510039295E+01  0.19763403944E+03  0.19863097131E+03  0.41800000000E+01 0. -1.
         -5    1    3    3    0  502 -0.53054745030E+02 -0.14169513188E+03  0.21180347012E+03  0.26032767568E+03  0.41800000000E+01 0. -1.
        -11    1    1    2    0    0  0.58824841079E+01  0.41824935494E+02 -0.60510951022E+02  0.73793658549E+02  0.00000000000E+00 0.  1.
         11    1    1    2    0    0  0.64990755680E+02  0.10762120032E+03  0.19052427728E+02  0.12715783926E+03  0.00000000000E+00 0. -1.
</event>
<event>
 7    1  0.2499014E-009  0.2730376E+03  0.7561462E-02  0.1099554E+00
          2   -1    0    0  501    0  0.00000000000E+00  0.00000000000E+00  0.13571441469E+04  0.13571441469E+04  0.00000000000E+00 0. -1.
         -2   -1    0    0    0  501 -0.00000000000E+00 -0.00000000000E+00 -0.61258094243E+02  0.61258094243E+02  0.00000000000E+00 0.  1.
         25    2    1    2    0    0 -0.21763812145E+03  0.14670868133E+03  0.53957128400E+03  0.61292150599E+03  0.12508322390E+03 0.  0.
          5    1    3    3  502    0 -0.17805754951E+03  0.78311835513E+02  0.46552189868E+03  0.50454469085E+03  0.41800000000E+01 0. -1.
         -5    1    3    3    0  502 -0.39580571941E+02  0.68396845814E+02  0.74049385319E+02  0.10837681513E+03  0.41800000000E+01 0. -1.
        -11    1    1    2    0    0  0.38251980104E+02  0.34949240232E+01  0.63361766636E+02  0.74095492083E+02  0.00000000000E+00 0.  1.
         11    1    1    2    0    0  0.17938614135E+03 -0.15020360535E+03  0.69295300199E+03  0.73138524304E+03  0.00000000000E+00 0. -1.
</event>
<event>
 7    1  0.2499014E-009  0.1253273E+03  0.7561462E-02  0.1234559E+00
         -2   -1    0    0    0  501 -0.00000000000E+00  0.00000000000E+00  0.81163561247E+02  0.81163561247E+02  0.00000000000E+00 0.  1.
          2   -1    0    0  501    0  0.00000000000E+00 -0.00000000000E+00 -0.26664791639E+03  0.26664791639E+03  0.00000000000E+00 0. -1.
         25    2    1    2    0    0 -0.69824945457E+02 -0.13442669791E+02 -0.18230302497E+03  0.23224600830E+03  0.12509031569E+03 0.  0.
          5    1    3    3  502    0 -0.87873455612E+02 -0.48902707123E+02 -0.15088996586E+03  0.18137936256E+03  0.41800000000E+01 0. -1.
         -5    1    3    3    0  502  0.18048510156E+02  0.35460037332E+02 -0.31413059108E+02  0.50866645741E+02  0.41800000000E+01 0. -1.
        -11    1    1    2    0    0  0.57674443872E+02 -0.29912307329E+02  0.15540772476E+02  0.66802718618E+02  0.00000000000E+00 0.  1.
         11    1    1    2    0    0  0.12150501585E+02  0.43354977119E+02 -0.18722102648E+02  0.48762750715E+02  0.00000000000E+00 0. -1.
</event>
<event>
 7    1  0.2499014E-009  0.2206102E+03  0.7561462E-02  0.1133429E+00
          1   -1    0    0  501    0  0.00000000000E+00  0.00000000000E+00  0.20635896922E+03  0.20635896922E+03  0.00000000000E+00 0. -1.
         -1   -1    0    0    0  501 -0.00000000000E+00 -0.00000000000E+00 -0.41771784887E+03  0.41771784887E+03  0.00000000000E+00 0.  1.
         25    2    1    2    0    0  0.63132275973E+02 -0.18268573290E+03 -0.31214556717E+03  0.38787150544E+03  0.12509871442E+03 0.  0.
          5    1    3    3  502    0  0.99188708684E+02 -0.12863856038E+03 -0.24787152174E+03  0.29638495717E+03  0.41800000000E+01 0.  1.
         -5    1    3    3    0  502 -0.36056432711E+02 -0.54047172522E+02 -0.64274045431E+02  0.91486548265E+02  0.41800000000E+01 0.  1.
        -11    1    1    2    0    0 -0.56724113575E+02  0.19317525408E+03  0.95041087566E+02  0.22263672693E+03  0.00000000000E+00 0. -1.
         11    1    1    2    0    0 -0.64081623972E+01 -0.10489521180E+02  0.57455999502E+01  0.13568585729E+02  0.00000000000E+00 0.  1.
</event>
<event>
 7    1  0.2499014E-009  0.1149721E+03  0.7561462E-02  0.1251630E+00
          3   -1    0    0  501    0  0.00000000000E+00  0.00000000000E+00  0.14001805370E+02  0.14001805370E+02  0.00000000000E+00 0. -1.
         -3   -1    0    0    0  501 -0.00000000000E+00 -0.00000000000E+00 -0.13078955774E+04  0.13078955774E+04  0.00000000000E+00 0.  1.
         25    2    1    2    0    0  0.60065125629E+02  0.29057683644E+02 -0.93860727937E+03  0.94925419634E+03  0.12509091132E+03 0.  0.
          5    1    3    3  502    0  0.44625602203E+02 -0.46361555564E+02 -0.45223245933E+03  0.45680686058E+03  0.41800000000E+01 0. -1.
         -5    1    3    3    0  502  0.15439523426E+02  0.75419239208E+02 -0.48637482004E+03  0.49244733576E+03  0.41800000000E+01 0. -1.
        -11    1    1    2    0    0 -0.68627589818E+02 -0.35855506181E+02 -0.35310505700E+03  0.36149487505E+03  0.00000000000E+00 0.  1.
         11    1    1    2    0    0  0.85624641885E+01  0.67978225368E+01 -0.21814356141E+01  0.11148311332E+02  0.00000000000E+00 0. -1.
</event>
<event>
 7    1  0.2499014E-009  0.6795563E+02  0.7561462E-02  0.1367186E+00
         -1   -1    0    0    0  501 -0.00000000000E+00  0.00000000000E+00  0.51972699805E+02  0.51972699805E+02  0.00000000000E+00 0.  1.
          1   -1    0    0  501    0  0.00000000000E+00 -0.00000000000E+00 -0.26557357496E+03  0.26557357496E+03  0.00000000000E+00 0. -1.
         25    2    1    2    0    0  0.90309026469E+01 -0.27011666585E+02 -0.18372611546E+03  0.22408474281E+03  0.12508996413E+03 0.  0.
          5    1    3    3  502    0  0.26998328788E+02 -0.18428047244E+02  0.58076756236E+01  0.33461981094E+02  0.41800000000E+01 0. -1.
         -5    1    3    3    0  502 -0.17967426141E+02 -0.85836193410E+01 -0.18953379108E+03  0.19062276172E+03  0.41800000000E+01 0. -1.
        -11    1    1    2    0    0  0.44391093773E+01  0.53081359973E+02 -0.34912201024E+02  0.63688289732E+02  0.00000000000E+00 0. -1.
         11    1    1    2    0    0 -0.13470012024E+02 -0.26069693387E+02  0.50374413278E+01  0.29773242221E+02  0.00000000000E+00 0.  1.
</event>
<event>
 7    1  0.2499014E-009  0.8512330E+02  0.7561462E-02  0.1315110E+00
         -3   -1    0    0    0  501 -0.00000000000E+00  0.00000000000E+00  0.14279258419E+03  0.14279258419E+03  0.00000000000E+00 0.  1.
          3   -1    0    0  501    0  0.00000000000E+00 -0.00000000000E+00 -0.86568054066E+02  0.86568054066E+02  0.00000000000E+00 0. -1.
         25    2    1    2    0    0  0.41436454935E+02 -0.35961866746E+01  0.15902593049E+02  0.13278070655E+03  0.12509161127E+03 0.  0.
          5    1    3    3  502    0  0.16303029440E+02  0.39831750491E+02 -0.39039302242E+02  0.58257159522E+02  0.41800000000E+01 0. -1.
         -5    1    3    3    0  502  0.25133425495E+02 -0.43427937165E+02  0.54941895291E+02  0.74523547029E+02  0.41800000000E+01 0. -1.
        -11    1    1    2    0    0 -0.53877979399E+02  0.18750558304E+02  0.48938854638E+02  0.75162700817E+02  0.00000000000E+00 0.  1.
         11    1    1    2    0    0  0.12441524464E+02 -0.15154371629E+02 -0.86169175653E+01  0.21417230885E+02  0.00000000000E+00 0. -1.
</event>
<event>
 7    1  0.2499014E-009  0.1155051E+03  0.7561462E-02  0.1250702E+00
          2   -1    0    0  501    0  0.00000000000E+00  0.00000000000E+00  0.51819491827E+03  0.51819491827E+03  0.00000000000E+00 0. -1.
         -2   -1    0    0    0  501 -0.00000000000E+00 -0.00000000000E+00 -0.36360253497E+02  0.36360253497E+02  0.00000000000E+00 0.  1.
         25    2    1    2    0    0 -0.45549813349E+02 -0.18577380433E+02  0.13200355593E+03  0.18839943048E+03  0.12509796987E+03 0.  0.
          5    1    3    3  502    0 -0.81630325268E+02 -0.36852957108E+02  0.67825737358E+02  0.11242532410E+03  0.41800000000E+01 0.  1.
         -5    1    3    3    0  502  0.36080511919E+02  0.18275576675E+02  0.64177818572E+02  0.75974106377E+02  0.41800000000E+01 0.  1.
        -11    1    1    2    0    0  0.24352068511E+01 -0.33212188542E+02  0.18682478894E+03  0.18976954830E+03  0.00000000000E+00 0. -1.
         11    1    1    2    0    0  0.43114606498E+02  0.51789568975E+02  0.16300631991E+03  0.17638619299E+03  0.00000000000E+00 0.  1.
</event>
<event>
 7    1  0.2499014E-009  0.9894507E+02  0.7561462E-02  0.1282530E+00
         -2   -1    0    0    0  501 -0.00000000000E+00  0.00000000000E+00  0.56064283717E+02  0.56064283717E+02  0.00000000000E+00 0.  1.
          2   -1    0    0  501    0  0.00000000000E+00 -0.00000000000E+00 -0.27650249976E+03  0.27650249976E+03  0.00000000000E+00 0. -1.
         25    2    1    2    0    0 -0.25105771166E+02 -0.29939354765E+02 -0.61214459767E+02  0.14464068395E+03  0.12508817953E+03 0.  0.
          5    1    3    3  502    0  0.37069758777E+02 -0.82523110379E+01 -0.68319927356E+02  0.78277407515E+02  0.41800000000E+01 0. -1.
         -5    1    3    3    0  502 -0.62175529944E+02 -0.21687043727E+02  0.71054675894E+01  0.66363276434E+02  0.41800000000E+01 0. -1.
        -11    1    1    2    0    0  0.55385767535E+02  0.30869581219E+02 -0.73846778296E+02  0.97333760611E+02  0.00000000000E+00 0.  1.
         11    1    1    2    0    0 -0.30279996369E+02 -0.93022645386E+00 -0.85376977979E+02  0.90592338915E+02  0.00000000000E+00 0. -1.
</event>
<event>
 7    1  0.2499014E-009  0.1006980E+03  0.7561462E-02  0.1278835E+00
          2   -1    0    0  501    0  0.00000000000E+00  0.00000000000E+00  0.38583237259E+03  0.38583237259E+03  0.00000000000E+00 0. -1.
         -2   -1    0    0    0  501 -0.00000000000E+00 -0.00000000000E+00 -0.42641280671E+02  0.42641280671E+02  0.00000000000E+00 0.  1.
         25    2    1    2    0    0  0.46484050622E+02 -0.30979846023E+02  0.12325155594E+03  0.18428072560E+03  0.12509165425E+03 0.  0.
          5    1    3    3  502    0 -0.99662048031E+01 -0.67214530890E+02  0.76528597349E+02  0.10242664211E+03  0.41800000000E+01 0. -1.
         -5    1    3    3    0  502  0.56450255426E+02  0.36234684867E+02  0.46722958589E+02  0.81854083492E+02  0.41800000000E+01 0. -1.
        -11    1    1    2    0    0 -0.15891644185E+02 -0.69793837889E+01 -0.15270502884E+01  0.17423777878E+02  0.00000000000E+00 0.  1.
         11    1    1    2    0    0 -0.30592406438E+02  0.37959229812E+02  0.22146658627E+03  0.22676914978E+03  0.00000000000E+00 0. -1.
</event>
<event>
 7    1  0.2499014E-009  0.7707012E+02  0.7561462E-02  0.1337578E+00
         -2   -1    0    0    0  501 -0.00000000000E+00  0.00000000000E+00  0.18924421609E+02  0.18924421609E+02  0.00000000000E+00 0.  1.
          2   -1    0    0  501    0  0.00000000000E+00 -0.00000000000E+00 -0.72177363099E+03  0.72177363099E+03  0.00000000000E+00 0. -1.
         25    2    1    2    0    0  0.27151145357E+02  0.20564736464E+02 -0.50347968855E+03  0.51990546806E+03  0.12509918408E+03 0.  0.
          5    1    3    3  502    0  0.39175208467E+02  0.27001600928E+02 -0.50337948096E+03  0.50564034418E+03  0.41800000000E+01 0.  1.
         -5    1    3    3    0  502 -0.12024063110E+02 -0.64368644641E+01 -0.10020758935E+00  0.14265123881E+02  0.41800000000E+01 0.  1.
        -11    1    1    2    0    0 -0.16239347034E+01 -0.51770659015E+02 -0.85148015446E+02  0.99664551538E+02  0.00000000000E+00 0. -1.
         11    1    1    2    0    0 -0.25527210654E+02  0.31205922551E+02 -0.11422150539E+03  0.12112803301E+03  0.00000000000E+00 0.  1.
</event>
<event>
 7    1  0.2499014E-009  0.1049551E+03  0.7561462E-02  0.1270208E+00
          2   -1    0    0  501    0  0.00000000000E+00  0.00000000000E+00  0.51895435392E+02  0.51895435392E+02  0.00000000000E+00 0. -1.
         -2   -1    0    0    0  501 -0.00000000000E+00 -0.00000000000E+00 -0.30294991303E+03  0.30294991303E+03  0.00000000000E+00 0.  1.
         25    2    1    2    0    0  0.44261870250E+02  0.25307771029E+02 -0.94693349441E+02  0.16496616285E+03  0.12508959998E+03 0.  0.
          5    1    3    3  502    0  0.17668774671E+02  0.70015272144E+02 -0.22236296430E+02  0.75671984318E+02  0.41800000000E+01 0.  1.
         -5    1    3    3    0  502  0.26593095579E+02 -0.44707501114E+02 -0.72457053011E+02  0.89294178530E+02  0.41800000000E+01 0.  1.
        -11    1    1    2    0    0 -0.44676834986E+01 -0.42001627399E+02 -0.13553211883E+03  0.14196144595E+03  0.00000000000E+00 0.  1.
         11    1    1    2    0    0 -0.39794186751E+02  0.16693856370E+02 -0.20829009361E+02  0.47917739623E+02  0.00000000000E+00 0. -1.
</event>
<event>
 7    1  0.2499014E-009  0.1020017E+03  0.7561462E-02  0.1276142E+00
          4   -1    0    0  501    0  0.00000000000E+00  0.00000000000E+00  0.88092907652E+02  0.88092907652E+02  0.00000000000E+00 0. -1.
         -4   -1    0    0    0  501 -0.00000000000E+00 -0.00000000000E+00 -0.17339481635E+03  0.17339481635E+03  0.00000000000E+00 0.  1.
         25    2    1    2    0    0  0.77298268503E+00 -0.46892698005E+02 -0.58910339520E+02  0.14600503956E+03  0.12509005094E+03 0.  0.
          5    1    3    3  502    0  0.39806082129E+02 -0.45570556219E+02  0.14845378354E+02  0.62442432904E+02  0.41800000000E+01 0.  1.
         -5    1    3    3    0  502 -0.39033099444E+02 -0.13221417859E+01 -0.73755717874E+02  0.83562606651E+02  0.41800000000E+01 0.  1.
        -11    1    1    2    0    0  0.45438038385E+02  0.14711308396E+02 -0.34045121411E+02  0.58652435746E+02  0.00000000000E+00 0. -1.
         11    1    1    2    0    0 -0.46211021070E+02  0.32181389609E+02  0.76535522359E+01  0.56830248700E+02  0.00000000000E+00 0.  1.
</event>
<event>
 7    1  0.2499014E-009  0.9104528E+02  0.7561462E-02  0.1300340E+00
          2   -1    0    0  501    0  0.00000000000E+00  0.00000000000E+00  0.57518712186E+03  0.57518712186E+03  0.00000000000E+00 0. -1.
         -2   -1    0    0    0  501 -0.00000000000E+00 -0.00000000000E+00 -0.22601757971E+02  0.22601757971E+02  0.00000000000E+00 0.  1.
         25    2    1    2    0    0 -0.16125916259E+02  0.11601664003E+02  0.38839814620E+03  0.40852297264E+03  0.12507300034E+03 0.  0.
          5    1    3    3  502    0 -0.51728923741E+02 -0.18705007815E+02  0.83792781252E+02  0.10032178955E+03  0.41800000000E+01 0.  1.
         -5    1    3    3    0  502  0.35603007483E+02  0.30306671818E+02  0.30460536495E+03  0.30820118309E+03  0.41800000000E+01 0.  1.
        -11    1    1    2    0    0  0.16347638840E+02  0.32236385290E+02  0.26639012538E+02  0.44900632748E+02  0.00000000000E+00 0.  1.
         11    1    1    2    0    0 -0.22172258139E+00 -0.43838049293E+02  0.13754820515E+03  0.14436527445E+03  0.00000000000E+00 0. -1.
</event>
<event>
 7    1  0.2499014E-009  0.1154726E+03  0.7561462E-02  0.1250758E+00
         -2   -1    0    0    0  501 -0.00000000000E+00  0.00000000000E+00  0.22916683069E+02  0.22916683069E+02  0.00000000000E+00 0. -1.
          2   -1    0    0  501    0  0.00000000000E+00 -0.00000000000E+00 -0.94919737669E+03  0.94919737669E+03  0.00000000000E+00 0.  1.
         25    2    1    2    0    0 -0.89967691304E+02 -0.32367506342E+02 -0.41827387610E+03  0.44692525576E+03  0.12508919963E+03 0.  0.
          5    1    3    3  502    0 -0.45169389176E+02  0.12761755245E+01 -0.37023685734E+03  0.37300764775E+03  0.41800000000E+01 0. -1.
         -5    1    3    3    0  502 -0.44798302128E+02 -0.33643681867E+02 -0.48037018751E+02  0.73917608008E+02  0.41800000000E+01 0. -1.
        -11    1    1    2    0    0  0.39380732469E+01  0.42570086149E+02 -0.11356862047E+03  0.12134888632E+03  0.00000000000E+00 0. -1.
         11    1    1    2    0    0  0.86029618057E+02 -0.10202579807E+02 -0.39443819705E+03  0.40383991768E+03  0.00000000000E+00 0.  1.
</event>
<event>
 7    1  0.2499014E-009  0.9413276E+02  0.7561462E-02  0.1293141E+00
          1   -1    0    0  501    0  0.00000000000E+00  0.00000000000E+00  0.56829423901E+02  0.56829423901E+02  0.00000000000E+00 0. -1.
         -1   -1    0    0    0  501 -0.00000000000E+00 -0.00000000000E+00 -0.31325982876E+03  0.31325982876E+03  0.00000000000E+00 0.  1.
         25    2    1    2    0    0 -0.47935366291E+02  0.65982026943E+02 -0.18947515137E+03  0.24124738097E+03  0.12509212051E+03 0.  0.
          5    1    3    3  502    0 -0.30417991772E+02  0.68926251847E+02 -0.20426633858E+03  0.21775741525E+03  0.41800000000E+01 0. -1.
         -5    1    3    3    0  502 -0.17517374519E+02 -0.29442249039E+01  0.14791187211E+02  0.23489965718E+02  0.41800000000E+01 0. -1.
        -11    1    1    2    0    0  0.87069158703E+01  0.73512735407E+01 -0.39731226054E+02  0.41333060985E+02  0.00000000000E+00 0.  1.
         11    1    1    2    0    0  0.39228450421E+02 -0.73333300484E+02 -0.27224027433E+02  0.87508810710E+02  0.00000000000E+00 0. -1.
</event>
<event>
 7    1  0.2499014E-009  0.1079661E+03  0.7561462E-02  0.1264383E+00
          2   -1    0    0  501    0  0.00000000000E+00  0.00000000000E+00  0.16729767608E+03  0.16729767608E+03  0.00000000000E+00 0. -1.
         -2   -1    0    0    0  501 -0.00000000000E+00 -0.00000000000E+00 -0.94268464199E+02  0.94268464199E+02  0.00000000000E+00 0.  1.
         25    2    1    2    0    0  0.33238900235E+02  0.17181212475E+02 -0.13767576830E+02  0.13128993686E+03  0.12508989887E+03 0.  0.
          5    1    3    3  502    0  0.70739982459E+02 -0.23674105395E+02 -0.39667198867E+01  0.74818551517E+02  0.41800000000E+01 0.  1.
         -5    1    3    3    0  502 -0.37501082223E+02  0.40855317870E+02 -0.98008569438E+01  0.56471385347E+02  0.41800000000E+01 0.  1.
        -11    1    1    2    0    0  0.18140328494E+02  0.16210366438E+02  0.36981755180E+00  0.24330726725E+02  0.00000000000E+00 0.  1.
         11    1    1    2    0    0 -0.51379228730E+02 -0.33391578914E+02  0.86426971161E+02  0.10594547669E+03  0.00000000000E+00 0. -1.
</event>
<event>
 7    1  0.2571606E-009  0.2144665E+03  0.7561462E-02  0.1138077E+00
         -1   -1    0    0    0  501 -0.00000000000E+00  0.00000000000E+00  0.56714906527E+02  0.56714906527E+02  0.00000000000E+00 0.  1.
          1   -1    0    0  501    0  0.00000000000E+00 -0.00000000000E+00 -0.10493882177E+04  0.10493882177E+04  0.00000000000E+00 0. -1.
         25    2    1    2    0    0 -0.20469159319E+03  0.56317149748E+02 -0.62491579388E+03  0.67174194450E+03  0.12508885191E+03 0.  0.
          5    1    3    3  502    0 -0.67367871509E+02  0.35703588441E+02 -0.40118630229E+03  0.40838841546E+03  0.41800000000E+01 0. -1.
         -5    1    3    3    0  502 -0.13732372168E+03  0.20613561307E+02 -0.22372949160E+03  0.26335352904E+03  0.41800000000E+01 0. -1.
        -11    1    1    2    0    0  0.90421469982E+02 -0.37275316095E+02 -0.25322671385E+03  0.27145765789E+03  0.00000000000E+00 0. -1.
         11    1    1    2    0    0  0.11427012321E+03 -0.19041833653E+02 -0.11453080342E+03  0.16290352181E+03  0.00000000000E+00 0.  1.
</event>
<event>
 7    1  0.2499014E-009  0.1254433E+03  0.7561462E-02  0.1234378E+00
         -2   -1    0    0    0  501 -0.00000000000E+00  0.00000000000E+00  0.56795544461E+02  0.56795544461E+02  0.00000000000E+00 0.  1.
          2   -1    0    0  501    0  0.00000000000E+00 -0.00000000000E+00 -0.31283154016E+03  0.31283154016E+03  0.00000000000E+00 0. -1.
         25    2    1    2    0    0 -0.30842108052E+02 -0.64743978171E+02 -0.98853010785E+02  0.17483360615E+03  0.12510736893E+03 0.  0.
          5    1    3    3  502    0 -0.25280689165E+02  0.34331030775E+02 -0.16841550045E+02  0.46030893177E+02  0.41800000000E+01 0. -1.
         -5    1    3    3    0  502 -0.55614188869E+01 -0.99075008946E+02 -0.82011460740E+02  0.12880271298E+03  0.41800000000E+01 0. -1.
        -11    1    1    2    0    0 -0.26266345021E+02  0.62922941954E+01 -0.71300588894E+02  0.76244919985E+02  0.00000000000E+00 0. -1.
         11    1    1    2    0    0  0.57108453073E+02  0.58451683976E+02 -0.85882396025E+02  0.11854855849E+03  0.00000000000E+00 0.  1.
</event>
<event>
 7    1  0.2499014E-009  0.8713245E+02  0.7561462E-02  0.1309948E+00
         -2   -1    0    0    0  501 -0.00000000000E+00  0.00000000000E+00  0.16762676589E+03  0.16762676589E+03  0.00000000000E+00 0.  1.
          2   -1    0    0  501    0  0.00000000000E+00 -0.00000000000E+00 -0.84591992545E+02  0.84591992545E+02  0.00000000000E+00 0. -1.
         25    2    1    2    0    0 -0.44435550573E+02  0.13986962290E+02  0.36094041291E+02  0.13827681601E+03  0.12509014654E+03 0.  0.
          5    1    3    3  502    0 -0.47451617113E+02  0.49832906153E+02 -0.19756142224E+02  0.71712983886E+02  0.41800000000E+01 0.  1.
         -5    1    3    3    0  502  0.30160665400E+01 -0.35845943862E+02  0.55850183515E+02  0.66563832127E+02  0.41800000000E+01 0.  1.
        -11    1    1    2    0    0  0.39350068788E+02 -0.31796449295E+02  0.68731619877E+02  0.85343293071E+02  0.00000000000E+00 0.  1.
         11    1    1    2    0    0  0.50854817846E+01  0.17809487004E+02 -0.21790887826E+02  0.28598649349E+02  0.00000000000E+00 0. -1.
</event>
<event>
 7    1  0.2499014E-009  0.8927829E+02  0.7561462E-02  0.1304609E+00
         -1   -1    0    0    0  501 -0.00000000000E+00  0.00000000000E+00  0.28512473525E+03  0.28512473525E+03  0.00000000000E+00 0.  1.
          1   -1    0    0  501    0  0.00000000000E+00 -0.00000000000E+00 -0.63351390830E+02  0.63351390830E+02  0.00000000000E+00 0. -1.
         25    2    1    2    0    0 -0.50074873206E+02  0.56783378015E+02  0.14377012969E+03  0.20505844244E+03  0.12508904701E+03 0.  0.
          5    1    3    3  502    0 -0.35116892594E+02  0.19809182661E+01  0.14379965820E+03  0.14809771869E+03  0.41800000000E+01 0. -1.
         -5    1    3    3    0  502 -0.14957980612E+02  0.54802459749E+02 -0.29528512335E-01  0.56960723753E+02  0.41800000000E+01 0. -1.
        -11    1    1    2    0    0  0.38404268246E+02 -0.62363208031E+02  0.96314458432E+02  0.12099806791E+03  0.00000000000E+00 0.  1.
         11    1    1    2    0    0  0.11670604960E+02  0.55798300165E+01 -0.18311243703E+02  0.22419615721E+02  0.00000000000E+00 0. -1.
</event>
<event>
 7    1  0.2499014E-009  0.1001346E+03  0.7561462E-02  0.1280013E+00
          1   -1    0    0  501    0  0.00000000000E+00  0.00000000000E+00  0.55409502657E+03  0.55409502657E+03  0.00000000000E+00 0. -1.
         -1   -1    0    0    0  501 -0.00000000000E+00 -0.00000000000E+00 -0.30254243756E+02  0.30254243756E+02  0.00000000000E+00 0.  1.
         25    2    1    2    0    0  0.36730221542E+02 -0.51448371110E+02  0.38564076496E+03  0.41031931461E+03  0.12508835392E+03 0.  0.
          5    1    3    3  502    0  0.55631591371E+02 -0.51553090590E+02  0.38337606417E+03  0.39082895758E+03  0.41800000000E+01 0.  1.
         -5    1    3    3    0  502 -0.18901369829E+02  0.10471947986E+00  0.22647007877E+01  0.19490357032E+02  0.41800000000E+01 0.  1.
        -11    1    1    2    0    0 -0.19167871600E+02  0.73956930171E+02  0.90477849411E+02  0.11841991410E+03  0.00000000000E+00 0. -1.
         11    1    1    2    0    0 -0.17562349942E+02 -0.22508559061E+02  0.47722168450E+02  0.55610041612E+02  0.00000000000E+00 0.  1.
</event>
<event>
 7    1  0.2499014E-009  0.1364644E+03  0.7561462E-02  0.1218167E+00
          2   -1    0    0  501    0  0.00000000000E+00  0.00000000000E+00  0.80658022784E+03  0.80658022784E+03  0.00000000000E+00 0. -1.
         -2   -1    0    0    0  501 -0.00000000000E+00 -0.00000000000E+00 -0.26729604474E+02  0.26729604474E+02  0.00000000000E+00 0.  1.
         25    2    1    2    0    0  0.25414869498E+02  0.97491529183E+02  0.50428661868E+03  0.52924722642E+03  0.12508844486E+03 0.  0.
          5    1    3    3  502    0  0.29379512239E+02  0.12533148182E+03  0.44859972064E+03  0.46672295619E+03  0.41800000000E+01 0. -1.
         -5    1    3    3    0  502 -0.39646427408E+01 -0.27839952633E+02  0.55686898036E+02  0.62524270228E+02  0.41800000000E+01 0. -1.
        -11    1    1    2    0    0  0.92383349614E+01 -0.72230727250E+02  0.23104737357E+03  0.24225093111E+03  0.00000000000E+00 0. -1.
         11    1    1    2    0    0 -0.34653204459E+02 -0.25260801933E+02  0.44516631126E+02  0.61811674790E+02  0.00000000000E+00 0.  1.
</event>
<event>
 7    1  0.2499014E-009  0.1168896E+03  0.7561462E-02  0.1248318E+00
         -2   -1    0    0    0  501 -0.00000000000E+00  0.00000000000E+00  0.12579802161E+02  0.12579802161E+02  0.00000000000E+00 0.  1.
          2   -1    0    0  501    0  0.00000000000E+00 -0.00000000000E+00 -0.11719431753E+04  0.11719431753E+04  0.00000000000E+00 0. -1.
         25    2    1    2    0    0 -0.92356372393E+01 -0.34117502086E+02 -0.66938985092E+03  0.68189380195E+03  0.12508830352E+03 0.  0.
          5    1    3    3  502    0 -0.38620669432E+02 -0.70119984348E+02 -0.49110916501E+03  0.49760833260E+03  0.41800000000E+01 0. -1.
         -5    1    3    3    0  502  0.29385032193E+02  0.36002482262E+02 -0.17828068591E+03  0.18428546935E+03  0.41800000000E+01 0. -1.
        -11    1    1    2    0    0  0.27064215184E+02 -0.30002480556E+02 -0.11741197984E+03  0.12417001889E+03  0.00000000000E+00 0.  1.
         11    1    1    2    0    0 -0.17828577945E+02  0.64119982643E+02 -0.37256154236E+03  0.37845915659E+03  0.00000000000E+00 0. -1.
</event>
<event>
 7    1  0.2499014E-009  0.1295752E+03  0.7561462E-02  0.1228087E+00
         -1   -1    0    0    0  501 -0.00000000000E+00  0.00000000000E+00  0.20098740179E+02  0.20098740179E+02  0.00000000000E+00 0.  1.
          1   -1    0    0  501    0  0.00000000000E+00 -0.00000000000E+00 -0.84795133071E+03  0.84795133071E+03  0.00000000000E+00 0. -1.
         25    2    1    2    0    0  0.67689337938E+02  0.21245492661E+02 -0.48214721172E+03  0.50313568661E+03  0.12508544257E+03 0.  0.
          5    1    3    3  502    0 -0.33898427089E+02 -0.12389083158E+02 -0.10688119495E+03  0.11288779817E+03  0.41800000000E+01 0. -1.
         -5    1    3    3    0  502  0.10158776503E+03  0.33634575819E+02 -0.37526601676E+03  0.39024788844E+03  0.41800000000E+01 0. -1.
        -11    1    1    2    0    0  0.56529177220E+01 -0.39696948582E+02 -0.14468240040E+03  0.15013593904E+03  0.00000000000E+00 0.  1.
         11    1    1    2    0    0 -0.73342255660E+02  0.18451455921E+02 -0.20102297842E+03  0.21477844525E+03  0.00000000000E+00 0. -1.
</event>
<event>
 7    1  0.2499014E-009  0.4107851E+03  0.7561462E-02  0.1040108E+00
         -1   -1    0    0    0  501 -0.00000000000E+00  0.00000000000E+00  0.24211266909E+03  0.24211266909E+03  0.00000000000E+00 0.  1.
          1   -1    0    0  501    0  0.00000000000E+00 -0.00000000000E+00 -0.72729853179E+03  0.72729853179E+03  0.00000000000E+00 0. -1.
         25    2    1    2    0    0 -0.37327305229E+03 -0.15676985300E+03 -0.22816514720E+03  0.48126493355E+03  0.12508814291E+03 0.  0.
          5    1    3    3  502    0 -0.25654530375E+02 -0.26242991499E+02 -0.66900127505E+02  0.76419558961E+02  0.41800000000E+01 0. -1.
         -5    1    3    3    0  502 -0.34761852192E+03 -0.13052686150E+03 -0.16126501969E+03  0.40484537459E+03  0.41800000000E+01 0. -1.
        -11    1    1    2    0    0  0.24990786734E+03  0.14606893462E+03 -0.15930185796E+03  0.33040453654E+03  0.00000000000E+00 0. -1.
         11    1    1    2    0    0  0.12336518495E+03  0.10700918379E+02 -0.97718857538E+02  0.15774173078E+03  0.00000000000E+00 0.  1.
</event>
<event>
 7    1  0.2499014E-009  0.1050966E+03  0.7561462E-02  0.1269929E+00
          1   -1    0    0  501    0  0.00000000000E+00  0.00000000000E+00  0.48825418344E+03  0.48825418344E+03  0.00000000000E+00 0. -1.
         -1   -1    0    0    0  501 -0.00000000000E+00 -0.00000000000E+00 -0.30138485469E+02  0.30138485469E+02  0.00000000000E+00 0.  1.
         25    2    1    2    0    0 -0.31138901014E+02 -0.16981715722E+02  0.34870255227E+03  0.37215629006E+03  0.12509526150E+03 0.  0.
          5    1    3    3  502    0  0.25597213757E+02 -0.53148454248E+02  0.12091326091E+03  0.13460113151E+03  0.41800000000E+01 0. -1.
         -5    1    3    3    0  502 -0.56736114770E+02  0.36166738525E+02  0.22778929136E+03  0.23755515855E+03  0.41800000000E+01 0. -1.
        -11    1    1    2    0    0  0.29020577058E+01  0.44274887313E+02  0.20179097504E+02  0.48743036031E+02  0.00000000000E+00 0.  1.
         11    1    1    2    0    0  0.28236843308E+02 -0.27293171590E+02  0.89234048195E+02  0.97493342812E+02  0.00000000000E+00 0. -1.
</event>
<event>
 7    1  0.2499014E-009  0.1323932E+03  0.7561462E-02  0.1223947E+00
          1   -1    0    0  501    0  0.00000000000E+00  0.00000000000E+00  0.15807751012E+03  0.15807751012E+03  0.00000000000E+00 0. -1.
         -1   -1    0    0    0  501 -0.00000000000E+00 -0.00000000000E+00 -0.14139738035E+03  0.14139738035E+03  0.00000000000E+00 0.  1.
         25    2    1    2    0    0 -0.70195289545E+02  0.72069720026E+02  0.23662801142E+02  0.16225998386E+03  0.12508777313E+03 0.  0.
          5    1    3    3  502    0 -0.22407696065E+02  0.98454308109E+02 -0.35530926572E+01  0.10112097950E+03  0.41800000000E+01 0. -1.
         -5    1    3    3    0  502 -0.47787593480E+02 -0.26384588083E+02  0.27215893799E+02  0.61139004360E+02  0.41800000000E+01 0. -1.
        -11    1    1    2    0    0  0.15751940931E+02 -0.45990374329E+02 -0.44694235465E+02  0.66036450978E+02  0.00000000000E+00 0.  1.
         11    1    1    2    0    0  0.54443348614E+02 -0.26079345698E+02  0.37711564095E+02  0.71178455636E+02  0.00000000000E+00 0. -1.
</event>
<event>
 7    1  0.2499014E-009  0.1608507E+03  0.7561462E-02  0.1187740E+00
         -2   -1    0    0    0  501 -0.00000000000E+00  0.00000000000E+00  0.38528311374E+03  0.38528311374E+03  0.00000000000E+00 0.  1.
          2   -1    0    0  501    0  0.00000000000E+00 -0.00000000000E+00 -0.10126187536E+03  0.10126187536E+03  0.00000000000E+00 0. -1.
         25    2    1    2    0    0 -0.12007330765E+03 -0.66636590368E+02  0.37356882405E+02  0.18947050613E+03  0.12508197969E+03 0.  0.
          5    1    3    3  502    0 -0.16117730708E+02 -0.47863397106E+02  0.62834811830E+02  0.80724048482E+02  0.41800000000E+01 0. -1.
         -5    1    3    3    0  502 -0.10395557694E+03 -0.18773193262E+02 -0.25477929425E+02  0.10874645764E+03  0.41800000000E+01 0. -1.
        -11    1    1    2    0    0  0.48097310278E+02 -0.20501426018E+02  0.85820816646E+02  0.10049314551E+03  0.00000000000E+00 0. -1.
         11    1    1    2    0    0  0.71975997371E+02  0.87138016386E+02  0.16084353933E+03  0.19658133747E+03  0.00000000000E+00 0.  1.
</event>
<event>
 7    1  0.2499014E-009  0.1169015E+03  0.7561462E-02  0.1248298E+00
          2   -1    0    0  501    0  0.00000000000E+00  0.00000000000E+00  0.23828236381E+03  0.23828236381E+03  0.00000000000E+00 0. -1.
         -2   -1    0    0    0  501 -0.00000000000E+00 -0.00000000000E+00 -0.78034545394E+02  0.78034545394E+02  0.00000000000E+00 0.  1.
         25    2    1    2    0    0 -0.77388571554E+02 -0.22773746953E+02  0.68362399333E+02  0.16379404537E+03  0.12508971620E+03 0.  0.
          5    1    3    3  502    0  0.13862161898E+02  0.24943568637E+02 -0.13818319056E+02  0.31980611163E+02  0.41800000000E+01 0. -1.
         -5    1    3    3    0  502 -0.91250733452E+02 -0.47717315589E+02  0.82180718389E+02  0.13181343421E+03  0.41800000000E+01 0. -1.
        -11    1    1    2    0    0  0.23531693605E+01  0.26663205603E+02  0.68951348556E+02  0.73964534790E+02  0.00000000000E+00 0.  1.
         11    1    1    2    0    0  0.75035402194E+02 -0.38894586502E+01  0.22934070526E+02  0.78558329042E+02  0.00000000000E+00 0. -1.
</event>
<event>
 7    1  0.2499014E-009  0.1084208E+03  0.7561462E-02  0.1263523E+00
          2   -1    0    0  501    0  0.00000000000E+00  0.00000000000E+00  0.71455016899E+03  0.71455016899E+03  0.00000000000E+00 0. -1.
         -2   -1    0    0    0  501 -0.00000000000E+00 -0.00000000000E+00 -0.23884471888E+02  0.23884471888E+02  0.00000000000E+00 0.  1.
         25    2    1    2    0    0  0.59658357806E+02 -0.19609360352E+02  0.48169472816E+03  0.50161968564E+03  0.12509536846E+03 0.  0.
          5    1    3    3  502    0 -0.21485736454E+02  0.10373798317E+02  0.29298906171E+03  0.29398863115E+03  0.41800000000E+01 0.  1.
         -5    1    3    3    0  502  0.81144094260E+02 -0.29983158669E+02  0.18870566645E+03  0.20763105449E+03  0.41800000000E+01 0.  1.
        -11    1    1    2    0    0 -0.41446138699E+02  0.53417287987E+02  0.16569202092E+03  0.17895539910E+03  0.00000000000E+00 0. -1.
         11    1    1    2    0    0 -0.18212219107E+02 -0.33807927635E+02  0.43278948017E+02  0.57859556144E+02  0.00000000000E+00 0.  1.
</event>
<event>
 7    1  0.2499014E-009  0.1102321E+03  0.7561462E-02  0.1260141E+00
          1   -1    0    0  501    0  0.00000000000E+00  0.00000000000E+00  0.48806343532E+03  0.48806343532E+03  0.00000000000E+00 0. -1.
         -1   -1    0    0    0  501 -0.00000000000E+00 -0.00000000000E+00 -0.29292081535E+02  0.29292081535E+02  0.00000000000E+00 0.  1.
         25    2    1    2    0    0 -0.57374977982E+01  0.39933209365E+02  0.18229811048E+03  0.22474137024E+03  0.12509397397E+03 0.  0.
          5    1    3    3  502    0 -0.22002065452E+02  0.81730539873E+02  0.13525578194E+03  0.15961068567E+03  0.41800000000E+01 0.  1.
         -5    1    3    3    0  502  0.16264567654E+02 -0.41797330508E+02  0.47042328539E+02  0.65130684573E+02  0.41800000000E+01 0.  1.
        -11    1    1    2    0    0 -0.38515284770E+01  0.24870360656E+02  0.40203861700E+02  0.47431209202E+02  0.00000000000E+00 0.  1.
         11    1    1    2    0    0  0.95890262751E+01 -0.64803570021E+02  0.23626938161E+03  0.24518293741E+03  0.00000000000E+00 0. -1.
</event>
<event>
 7    1  0.2499014E-009  0.1081077E+03  0.7561462E-02  0.1264115E+00
          1   -1    0    0  501    0  0.00000000000E+00  0.00000000000E+00  0.29451991078E+03  0.29451991078E+03  0.00000000000E+00 0. -1.
         -1   -1    0    0    0  501 -0.00000000000E+00 -0.00000000000E+00 -0.64532343817E+02  0.64532343817E+02  0.00000000000E+00 0.  1.
         25    2    1    2    0    0  0.66415250734E+02 -0.40913310044E+02  0.82856116488E+02  0.16909387332E+03  0.12507084987E+03 0.  0.
          5    1    3    3  502    0  0.47001202605E+02  0.54666384957E+01  0.10404230606E+03  0.11437338429E+03  0.41800000000E+01 0.  1.
         -5    1    3    3    0  502  0.19414048129E+02 -0.46379948540E+02 -0.21186189576E+02  0.54720489033E+02  0.41800000000E+01 0.  1.
        -11    1    1    2    0    0  0.25865315478E+00  0.50849533869E+02  0.46958898496E+02  0.69216184120E+02  0.00000000000E+00 0.  1.
         11    1    1    2    0    0 -0.66673903889E+02 -0.99362238255E+01  0.10017255198E+03  0.12074219716E+03  0.00000000000E+00 0. -1.
</event>
<event>
 7    1  0.2499014E-009  0.1400701E+03  0.7561462E-02  0.1213235E+00
         -2   -1    0    0    0  501 -0.00000000000E+00  0.00000000000E+00  0.92723876260E+02  0.92723876260E+02  0.00000000000E+00 0.  1.
          2   -1    0    0  501    0  0.00000000000E+00 -0.00000000000E+00 -0.33382243091E+03  0.33382243091E+03  0.00000000000E+00 0. -1.
         25    2    1    2    0    0  0.57503810250E+02 -0.12495204654E+03 -0.11597033833E+03  0.21912472481E+03  0.12508726363E+03 0.  0.
          5    1    3    3  502    0  0.57210017370E+02 -0.10986147207E+03 -0.24513392603E+02  0.12633648701E+03  0.41800000000E+01 0. -1.
         -5    1    3    3    0  502  0.29379287908E+00 -0.15090574466E+02 -0.91456945730E+02  0.92788237801E+02  0.41800000000E+01 0. -1.
        -11    1    1    2    0    0 -0.21324234789E+02  0.80248491451E+02 -0.12481491501E+03  0.14991099485E+03  0.00000000000E+00 0. -1.
         11    1    1    2    0    0 -0.36179575461E+02  0.44703555086E+02 -0.31330131233E+00  0.57510587508E+02  0.00000000000E+00 0.  1.
</event>
<event>
 7    1  0.2499014E-009  0.1731428E+03  0.7561462E-02  0.1174610E+00
         -1   -1    0    0    0  501 -0.00000000000E+00  0.00000000000E+00  0.55239540161E+03  0.55239540161E+03  0.00000000000E+00 0.  1.
          1   -1    0    0  501    0  0.00000000000E+00 -0.00000000000E+00 -0.90010846395E+02  0.90010846395E+02  0.00000000000E+00 0. -1.
         25    2    1    2    0    0 -0.69327748674E+02  0.12986720721E+03  0.42033098430E+03  0.46259918435E+03  0.12509212905E+03 0.  0.
          5    1    3    3  502    0 -0.88210774392E+02  0.14229573114E+03  0.33944601075E+03  0.37851061073E+03  0.41800000000E+01 0.  1.
         -5    1    3    3    0  502  0.18883025719E+02 -0.12428523926E+02  0.80884973552E+02  0.84088573622E+02  0.41800000000E+01 0.  1.
        -11    1    1    2    0    0  0.34622762821E+02 -0.18666192312E+02  0.49326639546E+02  0.63089458784E+02  0.00000000000E+00 0.  1.
         11    1    1    2    0    0  0.34704985852E+02 -0.11120101490E+03 -0.72730686373E+01  0.11671760487E+03  0.00000000000E+00 0. -1.
</event>
<event>
 7    1  0.2499014E-009  0.2334794E+03  0.7561462E-02  0.1124215E+00
          2   -1    0    0  501    0  0.00000000000E+00  0.00000000000E+00  0.46326322757E+03  0.46326322757E+03  0.00000000000E+00 0. -1.
         -2   -1    0    0    0  501 -0.00000000000E+00 -0.00000000000E+00 -0.13607751065E+03  0.13607751065E+03  0.00000000000E+00 0.  1.
         25    2    1    2    0    0 -0.20937633867E+03 -0.73700764476E+02  0.11509162325E+03  0.27957751389E+03  0.12508897095E+03 0.  0.
          5    1    3    3  502    0 -0.79863163678E+02 -0.80687933717E+02  0.12769055700E+02  0.11432055259E+03  0.41800000000E+01 0. -1.
         -5    1    3    3    0  502 -0.12951317499E+03  0.69871692406E+01  0.10232256755E+03  0.16525696131E+03  0.41800000000E+01 0. -1.
        -11    1    1    2    0    0  0.11033831932E+03  0.52995972018E+02  0.58075951698E+02  0.13548407259E+03  0.00000000000E+00 0. -1.
         11    1    1    2    0    0  0.99038019351E+02  0.20704792459E+02  0.15401814197E+03  0.18427915174E+03  0.00000000000E+00 0.  1.
</event>
<event>
 7    1  0.2499014E-009  0.1566268E+03  0.7561462E-02  0.1192559E+00
          2   -1    0    0  501    0  0.00000000000E+00  0.00000000000E+00  0.54394116478E+03  0.54394116478E+03  0.00000000000E+00 0. -1.
         -2   -1    0    0    0  501 -0.00000000000E+00 -0.00000000000E+00 -0.52551061994E+02  0.52551061994E+02  0.00000000000E+00 0.  1.
         25    2    1    2    0    0 -0.12042595226E+03  0.16171775790E+02  0.33892899627E+03  0.38116271641E+03  0.12509282778E+03 0.  0.
          5    1    3    3  502    0 -0.13263434862E+03 -0.10607822228E+02  0.31819338720E+03  0.34491868663E+03  0.41800000000E+01 0.  1.
         -5    1    3    3    0  502  0.12208396358E+02  0.26779598018E+02  0.20735609064E+02  0.36244029783E+02  0.41800000000E+01 0.  1.
        -11    1    1    2    0    0  0.12171711593E+02  0.30256711781E+02  0.47125542587E+02  0.57309998561E+02  0.00000000000E+00 0. -1.
         11    1    1    2    0    0  0.10825424067E+03 -0.46428487571E+02  0.10533556393E+03  0.15801951180E+03  0.00000000000E+00 0.  1.
</event>
<event>
 7    1  0.2499014E-009  0.6110102E+02  0.7561462E-02  0.1393268E+00
         -4   -1    0    0    0  501 -0.00000000000E+00  0.00000000000E+00  0.64784524965E+02  0.64784524965E+02  0.00000000000E+00 0.  1.
          4   -1    0    0  501    0  0.00000000000E+00 -0.00000000000E+00 -0.18169732251E+03  0.18169732251E+03  0.00000000000E+00 0. -1.
         25    2    1    2    0    0 -0.21896225712E+02 -0.10390319290E+02 -0.37436507360E+02  0.13280179867E+03  0.12508965669E+03 0.  0.
          5    1    3    3  502    0 -0.15446655667E+02  0.10325436177E+02  0.44252953180E+02  0.48176862379E+02  0.41800000000E+01 0. -1.
         -5    1    3    3    0  502 -0.64495700454E+01 -0.20715755467E+02 -0.81689460539E+02  0.84624936287E+02  0.41800000000E+01 0. -1.
        -11    1    1    2    0    0  0.93575276872E+01 -0.33829095635E+02 -0.38575915306E+02  0.52154312166E+02  0.00000000000E+00 0.  1.
         11    1    1    2    0    0  0.12538698025E+02  0.44219414924E+02 -0.40900374884E+02  0.61525736648E+02  0.00000000000E+00 0. -1.
</event>
<event>
 7    1  0.2499014E-009  0.1863562E+03  0.7561462E-02  0.1161789E+00
          1   -1    0    0  501    0  0.00000000000E+00  0.00000000000E+00  0.51923982112E+03  0.51923982112E+03  0.00000000000E+00 0. -1.
         -1   -1    0    0    0  501 -0.00000000000E+00 -0.00000000000E+00 -0.82389667615E+02  0.82389667615E+02  0.00000000000E+00 0.  1.
         25    2    1    2    0    0  0.11201814382E+03 -0.12177125156E+03  0.14243632420E+03  0.25161820826E+03  0.12508922424E+03 0.  0.
          5    1    3    3  502    0  0.10496703121E+03 -0.14684214680E+03  0.11821701883E+03  0.21580878031E+03  0.41800000000E+01 0.  1.
         -5    1    3    3    0  502  0.70511126163E+01  0.25070895240E+02  0.24219305374E+02  0.35809427949E+02  0.41800000000E+01 0.  1.
        -11    1    1    2    0    0 -0.37783878114E+02  0.33977689067E+02  0.24052671975E+02  0.56219532449E+02  0.00000000000E+00 0.  1.
         11    1    1    2    0    0 -0.74234265710E+02  0.87793562489E+02  0.27036115733E+03  0.29379174803E+03  0.00000000000E+00 0. -1.
</event>
<event>
 7    1  0.2499014E-009  0.1560383E+03  0.7561462E-02  0.1193243E+00
         -1   -1    0    0    0  501 -0.00000000000E+00  0.00000000000E+00  0.26155977772E+03  0.26155977772E+03  0.00000000000E+00 0.  1.
          1   -1    0    0  501    0  0.00000000000E+00 -0.00000000000E+00 -0.16555802285E+03  0.16555802285E+03  0.00000000000E+00 0. -1.
         25    2    1    2    0    0  0.11793671163E+03  0.67379567813E+02 -0.67188670880E+02  0.19649482079E+03  0.12508726151E+03 0.  0.
          5    1    3    3  502    0  0.97697706731E+02  0.14122113988E+02  0.11269956065E+02  0.99442246121E+02  0.41800000000E+01 0.  1.
         -5    1    3    3    0  502  0.20239004899E+02  0.53257453826E+02 -0.78458626945E+02  0.97052574666E+02  0.41800000000E+01 0.  1.
        -11    1    1    2    0    0 -0.42646549256E+01 -0.38673382940E+02  0.72940521773E+02  0.82668842657E+02  0.00000000000E+00 0.  1.
         11    1    1    2    0    0 -0.11367205670E+03 -0.28706184873E+02  0.90249903978E+02  0.14795413713E+03  0.00000000000E+00 0. -1.
</event>
<event>
 7    1  0.2499014E-009  0.1687247E+03  0.7561462E-02  0.1179184E+00
          1   -1    0    0  501    0  0.00000000000E+00  0.00000000000E+00  0.39291609887E+03  0.39291609887E+03  0.00000000000E+00 0. -1.
         -1   -1    0    0    0  501 -0.00000000000E+00 -0.00000000000E+00 -0.77637764063E+02  0.77637764063E+02  0.00000000000E+00 0.  1.
         25    2    1    2    0    0 -0.10485017744E+03 -0.82142350302E+02  0.20507038297E+03  0.27466636448E+03  0.12508726707E+03 0.  0.
          5    1    3    3  502    0 -0.92337236051E+02  0.60769042564E+01  0.90903549089E+02  0.12978451974E+03  0.41800000000E+01 0. -1.
         -5    1    3    3    0  502 -0.12512941393E+02 -0.88219254559E+02  0.11416683388E+03  0.14488184474E+03  0.41800000000E+01 0. -1.
        -11    1    1    2    0    0  0.43718163144E+02  0.83739725431E+02  0.39466115234E+02  0.10237770097E+03  0.00000000000E+00 0.  1.
         11    1    1    2    0    0  0.61132014300E+02 -0.15973751285E+01  0.70741836606E+02  0.93509797487E+02  0.00000000000E+00 0. -1.
</event>
<event>
 7    1  0.2499014E-009  0.6801719E+02  0.7561462E-02  0.1366969E+00
         -1   -1    0    0    0  501 -0.00000000000E+00  0.00000000000E+00  0.10496942569E+03  0.10496942569E+03  0.00000000000E+00 0.  1.
          1   -1    0    0  501    0  0.00000000000E+00 -0.00000000000E+00 -0.11378044420E+03  0.11378044420E+03  0.00000000000E+00 0. -1.
         25    2    1    2    0    0 -0.41360412840E+01 -0.14877174103E+02 -0.17361044858E+01  0.12605109006E+03  0.12508967224E+03 0.  0.
          5    1    3    3  502    0 -0.40241210719E+02 -0.41119234480E+02 -0.37414609064E+02  0.68756613178E+02  0.41800000000E+01 0. -1.
         -5    1    3    3    0  502  0.36105169435E+02  0.26242060376E+02  0.35678504578E+02  0.57294476886E+02  0.41800000000E+01 0. -1.
        -11    1    1    2    0    0  0.16889144215E+02  0.11130851719E+02 -0.46706125301E+02  0.50897948809E+02  0.00000000000E+00 0. -1.
         11    1    1    2    0    0 -0.12753102931E+02  0.37463223841E+01  0.39631211282E+02  0.41800831014E+02  0.00000000000E+00 0.  1.
</event>
<event>
 7    1  0.2499014E-009  0.1039231E+03  0.7561462E-02  0.1272256E+00
         -1   -1    0    0    0  501 -0.00000000000E+00  0.00000000000E+00  0.20237813992E+03  0.20237813992E+03  0.00000000000E+00 0.  1.
          1   -1    0    0  501    0  0.00000000000E+00 -0.00000000000E+00 -0.61021796024E+02  0.61021796024E+02  0.00000000000E+00 0. -1.
         25    2    1    2    0    0 -0.68704905984E+01 -0.22440701732E+02  0.68588227006E+02  0.14457910814E+03  0.12509190577E+03 0.  0.
          5    1    3    3  502    0 -0.62843503212E+02  0.77480922860E+00  0.51826792195E+02  0.81568345665E+02  0.41800000000E+01 0.  1.
         -5    1    3    3    0  502  0.55973012613E+02 -0.23215510961E+02  0.16761434812E+02  0.63010762471E+02  0.41800000000E+01 0.  1.
        -11    1    1    2    0    0 -0.17885965934E+02  0.46362443499E+02  0.15593578377E+02  0.52082085511E+02  0.00000000000E+00 0. -1.
         11    1    1    2    0    0  0.24756456532E+02 -0.23921741767E+02  0.57174538510E+02  0.66738742294E+02  0.00000000000E+00 0.  1.
</event>
<event>
 7    1  0.2499014E-009  0.3065403E+03  0.7561462E-02  0.1082016E+00
         -2   -1    0    0    0  501 -0.00000000000E+00  0.00000000000E+00  0.39852163459E+02  0.39852163459E+02  0.00000000000E+00 0.  1.
          2   -1    0    0  501    0  0.00000000000E+00 -0.00000000000E+00 -0.26204108366E+04  0.26204108366E+04  0.00000000000E+00 0. -1.
         25    2    1    2    0    0  0.29274078581E+03 -0.48930340295E+01 -0.97404622641E+03  0.10247607721E+04  0.12508988562E+03 0.  0.
          5    1    3    3  502    0  0.79928552035E+02  0.39269133709E+02 -0.17142877290E+03  0.19322508862E+03  0.41800000000E+01 0. -1.
         -5    1    3    3    0  502  0.21281223377E+03 -0.44162167739E+02 -0.80261745350E+03  0.83153568352E+03  0.41800000000E+01 0. -1.
        -11    1    1    2    0    0 -0.14490395285E+03  0.47834113008E+02 -0.81080157641E+03  0.82503603208E+03  0.00000000000E+00 0. -1.
         11    1    1    2    0    0 -0.14783683296E+03 -0.42941078978E+02 -0.79571087031E+03  0.81046619583E+03  0.00000000000E+00 0.  1.
</event>
<event>
 7    1  0.2499014E-009  0.1039533E+03  0.7561462E-02  0.1272196E+00
         -1   -1    0    0    0  501 -0.00000000000E+00  0.00000000000E+00  0.37908863805E+02  0.37908863805E+02  0.00000000000E+00 0.  1.
          1   -1    0    0  501    0  0.00000000000E+00 -0.00000000000E+00 -0.37472948208E+03  0.37472948208E+03  0.00000000000E+00 0. -1.
         25    2    1    2    0    0 -0.65366396615E+01  0.44163721499E+02 -0.22760044113E+03  0.26351788595E+03  0.12508618411E+03 0.  0.
          5    1    3    3  502    0  0.26313251198E+02 -0.34489203840E+02 -0.49007487134E+02  0.65582761190E+02  0.41800000000E+01 0. -1.
         -5    1    3    3    0  502 -0.32849890859E+02  0.78652925339E+02 -0.17859295400E+03  0.19793512476E+03  0.41800000000E+01 0. -1.
        -11    1    1    2    0    0 -0.28844694482E+02 -0.27586775926E+02 -0.10180691765E+03  0.10935124639E+03  0.00000000000E+00 0. -1.
         11    1    1    2    0    0  0.35381334144E+02 -0.16576945573E+02 -0.74132594983E+01  0.39769213554E+02  0.00000000000E+00 0.  1.
</event>
<event>
 7    1  0.2499014E-009  0.1907754E+03  0.7561462E-02  0.1157764E+00
          1   -1    0    0  501    0  0.00000000000E+00  0.00000000000E+00  0.54181751149E+03  0.54181751149E+03  0.00000000000E+00 0. -1.
         -1   -1    0    0    0  501 -0.00000000000E+00 -0.00000000000E+00 -0.77059536587E+02  0.77059536587E+02  0.00000000000E+00 0.  1.
         25    2    1    2    0    0  0.95279704127E+02  0.14372050118E+03  0.22653319928E+03  0.31096003335E+03  0.12508016425E+03 0.  0.
          5    1    3    3  502    0  0.65237627399E+02  0.21288504187E+02  0.24891595745E+02  0.73117797956E+02  0.41800000000E+01 0.  1.
         -5    1    3    3    0  502  0.30042076728E+02  0.12243199699E+03  0.20164160354E+03  0.23784223540E+03  0.41800000000E+01 0.  1.
        -11    1    1    2    0    0 -0.10176628754E+03 -0.10072389719E+03  0.21582856088E+03  0.25900511276E+03  0.00000000000E+00 0. -1.
         11    1    1    2    0    0  0.64865834097E+01 -0.42996603992E+02  0.22396214741E+02  0.48911901966E+02  0.00000000000E+00 0.  1.
</event>
<event>
 7    1  0.2499014E-009  0.1969127E+03  0.7561462E-02  0.1152370E+00
          1   -1    0    0  501    0  0.00000000000E+00  0.00000000000E+00  0.91157209986E+03  0.91157209986E+03  0.00000000000E+00 0. -1.
         -1   -1    0    0    0  501 -0.00000000000E+00 -0.00000000000E+00 -0.52222038052E+02  0.52222038052E+02  0.00000000000E+00 0.  1.
         25    2    1    2    0    0 -0.15646459388E+03 -0.80364900411E+02  0.29500216420E+03  0.36553309264E+03  0.12509387907E+03 0.  0.
          5    1    3    3  502    0 -0.42852093945E+02  0.21921311813E+02  0.13863659037E+03  0.14681424473E+03  0.41800000000E+01 0.  1.
         -5    1    3    3    0  502 -0.11361249994E+03 -0.10228621222E+03  0.15636557383E+03  0.21871884791E+03  0.41800000000E+01 0.  1.
        -11    1    1    2    0    0  0.56421924644E+02 -0.10548519304E+02  0.10791385608E+03  0.12222972295E+03  0.00000000000E+00 0. -1.
         11    1    1    2    0    0  0.10004266924E+03  0.90913419715E+02  0.45643404154E+03  0.47603132232E+03  0.00000000000E+00 0.  1.
</event>
<event>
 7    1  0.2499014E-009  0.1171193E+03  0.7561462E-02  0.1247926E+00
         -1   -1    0    0    0  501 -0.00000000000E+00  0.00000000000E+00  0.61983319156E+02  0.61983319156E+02  0.00000000000E+00 0.  1.
          1   -1    0    0  501    0  0.00000000000E+00 -0.00000000000E+00 -0.30939500301E+03  0.30939500301E+03  0.00000000000E+00 0. -1.
         25    2    1    2    0    0  0.62987992169E+02  0.54516972976E+02 -0.94934205557E+02  0.17776343511E+03  0.12509095882E+03 0.  0.
          5    1    3    3  502    0 -0.27159160435E+02  0.37540287022E+02 -0.11902208928E+01  0.46537964835E+02  0.41800000000E+01 0. -1.
         -5    1    3    3    0  502  0.90147152604E+02  0.16976685955E+02 -0.93743984664E+02  0.13122547028E+03  0.41800000000E+01 0. -1.
        -11    1    1    2    0    0 -0.79956450134E+01 -0.37472135767E+02 -0.12320861668E+03  0.12902889027E+03  0.00000000000E+00 0. -1.
         11    1    1    2    0    0 -0.54992347155E+02 -0.17044837209E+02 -0.29268861617E+02  0.64585996791E+02  0.00000000000E+00 0.  1.
</event>
<event>
 7    1  0.2499014E-009  0.1035369E+03  0.7561462E-02  0.1273029E+00
          2   -1    0    0  501    0  0.00000000000E+00  0.00000000000E+00  0.53553212478E+03  0.53553212478E+03  0.00000000000E+00 0. -1.
         -2   -1    0    0    0  501 -0.00000000000E+00 -0.00000000000E+00 -0.23872030608E+02  0.23872030608E+02  0.00000000000E+00 0.  1.
         25    2    1    2    0    0  0.59396855648E+01  0.25318232923E+02  0.31377820138E+03  0.33879311125E+03  0.12509084613E+03 0.  0.
          5    1    3    3  502    0 -0.57227406415E+02  0.28035047779E+02  0.17304968838E+03  0.18445760217E+03  0.41800000000E+01 0. -1.
         -5    1    3    3    0  502  0.63167091980E+02 -0.27168148557E+01  0.14072851299E+03  0.15433550908E+03  0.41800000000E+01 0. -1.
        -11    1    1    2    0    0 -0.38572085644E+02 -0.43643867744E-01  0.33380717800E+02  0.51010587299E+02  0.00000000000E+00 0.  1.
         11    1    1    2    0    0  0.32632400079E+02 -0.25274589055E+02  0.16450117499E+03  0.16960045684E+03  0.00000000000E+00 0. -1.
</event>
<event>
 7    1  0.2499014E-009  0.1073499E+03  0.7561462E-02  0.1265558E+00
         -4   -1    0    0    0  501 -0.00000000000E+00  0.00000000000E+00  0.17899898325E+03  0.17899898325E+03  0.00000000000E+00 0.  1.
          4   -1    0    0  501    0  0.00000000000E+00 -0.00000000000E+00 -0.98079446807E+02  0.98079446807E+02  0.00000000000E+00 0. -1.
         25    2    1    2    0    0  0.13954152752E+02  0.28553321615E+02  0.11593815938E+03  0.17349127812E+03  0.12509019237E+03 0.  0.
          5    1    3    3  502    0  0.66533914336E+02 -0.24394554743E+01  0.48752465567E+02  0.82625589249E+02  0.41800000000E+01 0.  1.
         -5    1    3    3    0  502 -0.52579761584E+02  0.30992777090E+02  0.67185693817E+02  0.90865688869E+02  0.41800000000E+01 0.  1.
        -11    1    1    2    0    0 -0.42239958513E+02  0.54417018816E+01 -0.40810328674E+02  0.58985668947E+02  0.00000000000E+00 0. -1.
         11    1    1    2    0    0  0.28285805761E+02 -0.33995023497E+02  0.57917057378E+01  0.44601482996E+02  0.00000000000E+00 0.  1.
</event>
<event>
 7    1  0.2499014E-009  0.1087898E+03  0.7561462E-02  0.1262828E+00
         -2   -1    0    0    0  501 -0.00000000000E+00  0.00000000000E+00  0.56531548452E+02  0.56531548452E+02  0.00000000000E+00 0.  1.
          2   -1    0    0  501    0  0.00000000000E+00 -0.00000000000E+00 -0.27818360431E+03  0.27818360431E+03  0.00000000000E+00 0. -1.
         25    2    1    2    0    0 -0.35835428520E+02 -0.31162166332E+02 -0.63036326245E+02  0.14790645415E+03  0.12508989650E+03 0.  0.
          5    1    3    3  502    0  0.27712320963E+02  0.31177490652E+02 -0.34614891933E+02  0.54366090535E+02  0.41800000000E+01 0.  1.
         -5    1    3    3    0  502 -0.63547749483E+02 -0.62339656984E+02 -0.28421434312E+02  0.93540363617E+02  0.41800000000E+01 0.  1.
        -11    1    1    2    0    0  0.40044415014E+02  0.51801654790E+02 -0.70517592333E+02  0.96227321699E+02  0.00000000000E+00 0.  1.
         11    1    1    2    0    0 -0.42089864940E+01 -0.20639488458E+02 -0.88098137276E+02  0.90581376909E+02  0.00000000000E+00 0. -1.
</event>
<event>
 7    1  0.2499014E-009  0.1285481E+03  0.7561462E-02  0.1229626E+00
          3   -1    0    0  501    0  0.00000000000E+00  0.00000000000E+00  0.24917663889E+03  0.24917663889E+03  0.00000000000E+00 0. -1.
         -3   -1    0    0    0  501 -0.00000000000E+00 -0.00000000000E+00 -0.11661674408E+03  0.11661674408E+03  0.00000000000E+00 0.  1.
         25    2    1    2    0    0  0.96087157273E+02  0.69680315281E+02  0.71164872575E+01  0.17258501817E+03  0.12508739335E+03 0.  0.
          5    1    3    3  502    0  0.43969682982E+02  0.63381644360E+01 -0.54115213279E+02  0.70138677334E+02  0.41800000000E+01 0. -1.
         -5    1    3    3    0  502  0.52117474291E+02  0.63342150845E+02  0.61231700537E+02  0.10244634084E+03  0.41800000000E+01 0. -1.
        -11    1    1    2    0    0 -0.31380151462E+02 -0.56018037051E+02  0.17388006137E+02  0.66521253282E+02  0.00000000000E+00 0.  1.
         11    1    1    2    0    0 -0.64707005811E+02 -0.13662278230E+02  0.10805540142E+03  0.12668711151E+03  0.00000000000E+00 0. -1.
</event>
<event>
 7    1  0.2499014E-009  0.2667583E+03  0.7561462E-02  0.1103149E+00
         -2   -1    0    0    0  501 -0.00000000000E+00  0.00000000000E+00  0.41074242342E+03  0.41074242342E+03  0.00000000000E+00 0. -1.
          2   -1    0    0  501    0  0.00000000000E+00 -0.00000000000E+00 -0.21523792269E+03  0.21523792269E+03  0.00000000000E+00 0.  1.
         25    2    1    2    0    0  0.18354117818E+03 -0.17046662510E+03  0.22388060850E+03  0.35849112476E+03  0.12508846992E+03 0.  0.
          5    1    3    3  502    0  0.17419693754E+03 -0.85656771357E+02  0.16417902117E+03  0.25427127034E+03  0.41800000000E+01 0.  1.
         -5    1    3    3    0  502  0.93442406387E+01 -0.84809853743E+02  0.59701587338E+02  0.10421985442E+03  0.41800000000E+01 0.  1.
        -11    1    1    2    0    0 -0.16897450346E+03  0.16948758557E+03 -0.43422070201E+01  0.23936850094E+03  0.00000000000E+00 0. -1.
         11    1    1    2    0    0 -0.14566674722E+02  0.97903953243E+00 -0.24033900757E+02  0.28120720411E+02  0.00000000000E+00 0.  1.
</event>
<event>
 7    1  0.2499014E-009  0.8372798E+02  0.7561462E-02  0.1318793E+00
          4   -1    0    0  501    0  0.00000000000E+00  0.00000000000E+00  0.99208876129E+02  0.99208876129E+02  0.00000000000E+00 0. -1.
         -4   -1    0    0    0  501 -0.00000000000E+00 -0.00000000000E+00 -0.15663513205E+03  0.15663513205E+03  0.00000000000E+00 0.  1.
         25    2    1    2    0    0  0.94513254270E+01 -0.55245619585E+02 -0.38637976887E+01  0.13712728829E+03  0.12509020035E+03 0.  0.
          5    1    3    3  502    0 -0.12741130920E+02 -0.39872452976E+02  0.56750224882E+02  0.70641413828E+02  0.41800000000E+01 0.  1.
         -5    1    3    3    0  502  0.22192456347E+02 -0.15373166609E+02 -0.60614022571E+02  0.66485874459E+02  0.41800000000E+01 0.  1.
        -11    1    1    2    0    0 -0.80952764918E+01 -0.20640975648E+02 -0.33566764129E+02  0.40228236741E+02  0.00000000000E+00 0.  1.
         11    1    1    2    0    0 -0.13560489351E+01  0.75886595234E+02 -0.19995694105E+02  0.78488483152E+02  0.00000000000E+00 0. -1.
</event>
<event>
 7    1  0.2499014E-009  0.1106488E+03  0.7561462E-02  0.1259373E+00
          1   -1    0    0  501    0  0.00000000000E+00  0.00000000000E+00  0.10513796978E+03  0.10513796978E+03  0.00000000000E+00 0. -1.
         -1   -1    0    0    0  501 -0.00000000000E+00 -0.00000000000E+00 -0.13076161306E+03  0.13076161306E+03  0.00000000000E+00 0.  1.
         25    2    1    2    0    0  0.46552042546E+02 -0.96801508977E+00 -0.70161207938E+01  0.13365481477E+03  0.12508538621E+03 0.  0.
          5    1    3    3  502    0 -0.21253351621E+02 -0.37833407422E+02  0.24702421152E+02  0.50107421437E+02  0.41800000000E+01 0.  1.
         -5    1    3    3    0  502  0.67805394167E+02  0.36865392332E+02 -0.31718541946E+02  0.83547393335E+02  0.41800000000E+01 0.  1.
        -11    1    1    2    0    0 -0.65792655705E+02 -0.22979849645E+02 -0.15275653307E+02  0.71344885019E+02  0.00000000000E+00 0.  1.
         11    1    1    2    0    0  0.19240613159E+02  0.23947864735E+02 -0.33318691768E+01  0.30899883047E+02  0.00000000000E+00 0. -1.
</event>
<event>
 7    1  0.2499014E-009  0.8590035E+02  0.7561462E-02  0.1313095E+00
          1   -1    0    0  501    0  0.00000000000E+00  0.00000000000E+00  0.17397421133E+03  0.17397421133E+03  0.00000000000E+00 0. -1.
         -1   -1    0    0    0  501 -0.00000000000E+00 -0.00000000000E+00 -0.12227712851E+03  0.12227712851E+03  0.00000000000E+00 0.  1.
         25    2    1    2    0    0 -0.74403444417E+02 -0.19383456632E+02  0.89769342190E+02  0.17209890477E+03  0.12509159561E+03 0.  0.
          5    1    3    3  502    0  0.71626540686E+01  0.16394563067E+01  0.87319656873E+02  0.87727910648E+02  0.41800000000E+01 0. -1.
         -5    1    3    3    0  502 -0.81566098485E+02 -0.21022912939E+02  0.24496853172E+01  0.84370994119E+02  0.41800000000E+01 0. -1.
        -11    1    1    2    0    0  0.64046754190E+02  0.95955209538E+01  0.17253903713E+02  0.67020578467E+02  0.00000000000E+00 0. -1.
         11    1    1    2    0    0  0.10356690226E+02  0.97879356783E+01 -0.55326163089E+02  0.57131856608E+02  0.00000000000E+00 0.  1.
</event>
<event>
 7    1  0.2499014E-009  0.6574542E+02  0.7561462E-02  0.1375189E+00
          3   -1    0    0  501    0  0.00000000000E+00  0.00000000000E+00  0.36081914289E+02  0.36081914289E+02  0.00000000000E+00 0. -1.
         -3   -1    0    0    0  501 -0.00000000000E+00 -0.00000000000E+00 -0.36697945071E+03  0.36697945071E+03  0.00000000000E+00 0.  1.
         25    2    1    2    0    0  0.32492210619E+02  0.20566332872E+02 -0.19455910656E+03  0.23447954154E+03  0.12509473074E+03 0.  0.
          5    1    3    3  502    0  0.27315463982E+02 -0.63286518866E+01 -0.20342418083E+03  0.20539000987E+03  0.41800000000E+01 0. -1.
         -5    1    3    3    0  502  0.51767466367E+01  0.26894984758E+02  0.88650742748E+01  0.29089531670E+02  0.41800000000E+01 0. -1.
        -11    1    1    2    0    0 -0.12370748371E+02 -0.43325884511E+02 -0.12994848977E+03  0.13753827713E+03  0.00000000000E+00 0.  1.
         11    1    1    2    0    0 -0.20121462248E+02  0.22759551639E+02 -0.63899400924E+01  0.31043546321E+02  0.00000000000E+00 0. -1.
</event>
<event>
 7    1  0.2499014E-009  0.1361130E+03  0.7561462E-02  0.1218657E+00
         -1   -1    0    0    0  501 -0.00000000000E+00  0.00000000000E+00  0.13784400841E+04  0.13784400841E+04  0.00000000000E+00 0.  1.
          1   -1    0    0  501    0  0.00000000000E+00 -0.00000000000E+00 -0.13679775041E+02  0.13679775041E+02  0.00000000000E+00 0. -1.
         25    2    1    2    0    0  0.34357706867E+02 -0.75429337576E+02  0.83937449544E+03  0.85268225832E+03  0.12508978003E+03 0.  0.
          5    1    3    3  502    0 -0.35893204635E+02 -0.70792872396E+02  0.43392267720E+03  0.44114205774E+03  0.41800000000E+01 0.  1.
         -5    1    3    3    0  502  0.70250911503E+02 -0.46364651797E+01  0.40545181825E+03  0.41154020059E+03  0.41800000000E+01 0.  1.
        -11    1    1    2    0    0 -0.61934507986E+02  0.29400614787E+02  0.30580635257E+03  0.31339719957E+03  0.00000000000E+00 0. -1.
         11    1    1    2    0    0  0.27576801119E+02  0.46028722789E+02  0.21957946109E+03  0.22604040128E+03  0.00000000000E+00 0.  1.
</event>
<event>
 7    1  0.2499014E-009  0.1109848E+03  0.7561462E-02  0.1258757E+00
          3   -1    0    0  501    0  0.00000000000E+00  0.00000000000E+00  0.99194072366E+02  0.99194072366E+02  0.00000000000E+00 0. -1.
         -3   -1    0    0    0  501 -0.00000000000E+00 -0.00000000000E+00 -0.13524898490E+03  0.13524898490E+03  0.00000000000E+00 0.  1.
         25    2    1    2    0    0  0.29179889817E+02 -0.23042886495E+02 -0.10982452803E+02  0.13095335382E+03  0.12508287660E+03 0.  0.
          5    1    3    3  502    0  0.64600578069E+02  0.24746900369E+02 -0.15945734363E+02  0.71115276904E+02  0.41800000000E+01 0.  1.
         -5    1    3    3    0  502 -0.35420688251E+02 -0.47789786864E+02  0.49632815605E+01  0.59838076912E+02  0.41800000000E+01 0.  1.
        -11    1    1    2    0    0 -0.26409172101E+02  0.54970680234E+02  0.27533745284E+01  0.61047531709E+02  0.00000000000E+00 0. -1.
         11    1    1    2    0    0 -0.27707177163E+01 -0.31927793739E+02 -0.27825834256E+02  0.42442171737E+02  0.00000000000E+00 0.  1.
</event>
<event>
 7    1  0.2499014E-009  0.2565687E+03  0.7561462E-02  0.1109222E+00
         -1   -1    0    0    0  501 -0.00000000000E+00  0.00000000000E+00  0.79161242719E+02  0.79161242719E+02  0.00000000000E+00 0.  1.
          1   -1    0    0  501    0  0.00000000000E+00 -0.00000000000E+00 -0.10522799614E+04  0.10522799614E+04  0.00000000000E+00 0. -1.
         25    2    1    2    0    0 -0.21651267637E+03  0.11453941843E+03 -0.71342995583E+03  0.76460748452E+03  0.12508111809E+03 0.  0.
          5    1    3    3  502    0 -0.30065163500E+02 -0.16048661582E+02 -0.35148269531E+02  0.49136003560E+02  0.41800000000E+01 0. -1.
         -5    1    3    3    0  502 -0.18644751287E+03  0.13058808001E+03 -0.67828168630E+03  0.71547148096E+03  0.41800000000E+01 0. -1.
        -11    1    1    2    0    0  0.12285880255E+03 -0.33654670005E+02 -0.86501012035E+02  0.15397839868E+03  0.00000000000E+00 0.  1.
         11    1    1    2    0    0  0.93653873822E+02 -0.80884748422E+02 -0.17318775077E+03  0.21285532088E+03  0.00000000000E+00 0. -1.
</event>
<event>
 7    1  0.2499014E-009  0.1075760E+03  0.7561462E-02  0.1265126E+00
         -2   -1    0    0    0  501 -0.00000000000E+00  0.00000000000E+00  0.10738210121E+03  0.10738210121E+03  0.00000000000E+00 0.  1.
          2   -1    0    0  501    0  0.00000000000E+00 -0.00000000000E+00 -0.12915734669E+03  0.12915734669E+03  0.00000000000E+00 0. -1.
         25    2    1    2    0    0 -0.24415203274E+02  0.25043947917E+02  0.15522634579E+02  0.13081156290E+03  0.12508961318E+03 0.  0.
          5    1    3    3  502    0  0.14364935420E+02  0.65256487424E+02  0.29363141692E+02  0.73105588094E+02  0.41800000000E+01 0. -1.
         -5    1    3    3    0  502 -0.38780138694E+02 -0.40212539507E+02 -0.13840507113E+02  0.57705974802E+02  0.41800000000E+01 0. -1.
        -11    1    1    2    0    0  0.55556392145E+02 -0.25282869415E+02 -0.56057711294E+01  0.61295683894E+02  0.00000000000E+00 0.  1.
         11    1    1    2    0    0 -0.31141188872E+02  0.23892149747E+00 -0.31692108926E+02  0.44432201116E+02  0.00000000000E+00 0. -1.
</event>
<event>
 7    1  0.2499014E-009  0.1921688E+03  0.7561462E-02  0.1156520E+00
          2   -1    0    0  501    0  0.00000000000E+00  0.00000000000E+00  0.14185192081E+04  0.14185192081E+04  0.00000000000E+00 0. -1.
         -2   -1    0    0    0  501 -0.00000000000E+00 -0.00000000000E+00 -0.29759544155E+02  0.29759544155E+02  0.00000000000E+00 0.  1.
         25    2    1    2    0    0  0.14530761234E+03  0.65036861937E+02  0.47561438198E+03  0.51691260183E+03  0.12508198099E+03 0.  0.
          5    1    3    3  502    0  0.10169369460E+02  0.66303840021E+02  0.16283763246E+03  0.17616237460E+03  0.41800000000E+01 0.  1.
         -5    1    3    3    0  502  0.13513824288E+03 -0.12669780844E+01  0.31277674952E+03  0.34075022723E+03  0.41800000000E+01 0.  1.
        -11    1    1    2    0    0 -0.27111405832E+02 -0.57395467078E+02  0.26579455355E+03  0.27326912131E+03  0.00000000000E+00 0.  1.
         11    1    1    2    0    0 -0.11819620651E+03 -0.76413948587E+01  0.64735072846E+03  0.65809702915E+03  0.00000000000E+00 0. -1.
</event>
<event>
 7    1  0.2499014E-009  0.1183665E+03  0.7561462E-02  0.1245816E+00
         -2   -1    0    0    0  501 -0.00000000000E+00  0.00000000000E+00  0.22340927537E+02  0.22340927537E+02  0.00000000000E+00 0. -1.
          2   -1    0    0  501    0  0.00000000000E+00 -0.00000000000E+00 -0.89146892177E+03  0.89146892177E+03  0.00000000000E+00 0.  1.
         25    2    1    2    0    0  0.14481009245E+02  0.84034509089E+02 -0.58217173654E+03  0.60153353315E+03  0.12508861793E+03 0.  0.
          5    1    3    3  502    0  0.22901296632E+02  0.11489821856E+03 -0.49165733252E+03  0.50544087194E+03  0.41800000000E+01 0.  1.
         -5    1    3    3    0  502 -0.84202873872E+01 -0.30863709474E+02 -0.90514404027E+02  0.96092661210E+02  0.41800000000E+01 0.  1.
        -11    1    1    2    0    0  0.44241574596E+01 -0.19115517475E+02 -0.23648487054E+01  0.19762810705E+02  0.00000000000E+00 0. -1.
         11    1    1    2    0    0 -0.18905166705E+02 -0.64918991614E+02 -0.28459140898E+03  0.29251350544E+03  0.00000000000E+00 0.  1.
</event>
<event>
 7    1  0.2499014E-009  0.1026435E+03  0.7561462E-02  0.1274833E+00
          2   -1    0    0  501    0  0.00000000000E+00  0.00000000000E+00  0.93688797593E+02  0.93688797593E+02  0.00000000000E+00 0. -1.
         -2   -1    0    0    0  501 -0.00000000000E+00 -0.00000000000E+00 -0.14609522870E+03  0.14609522870E+03  0.00000000000E+00 0.  1.
         25    2    1    2    0    0 -0.90993965604E+01  0.36825461121E+02 -0.56718509917E+02  0.14248862179E+03  0.12508838622E+03 0.  0.
          5    1    3    3  502    0  0.27083926925E+02 -0.32221462218E+02 -0.47936808515E+02  0.63930991982E+02  0.41800000000E+01 0.  1.
         -5    1    3    3    0  502 -0.36183323485E+02  0.69046923340E+02 -0.87817014020E+01  0.78557629805E+02  0.41800000000E+01 0.  1.
        -11    1    1    2    0    0 -0.33638942829E+02 -0.13630562179E+02  0.25392177540E+02  0.44295974764E+02  0.00000000000E+00 0. -1.
         11    1    1    2    0    0  0.42738339390E+02 -0.23194898942E+02 -0.21080098733E+02  0.52999429745E+02  0.00000000000E+00 0.  1.
</event>
<event>
 7    1  0.2499014E-009  0.1653149E+03  0.7561462E-02  0.1182824E+00
          1   -1    0    0  501    0  0.00000000000E+00  0.00000000000E+00  0.52359951661E+03  0.52359951661E+03  0.00000000000E+00 0. -1.
         -1   -1    0    0    0  501 -0.00000000000E+00 -0.00000000000E+00 -0.64844800937E+02  0.64844800937E+02  0.00000000000E+00 0.  1.
         25    2    1    2    0    0  0.18540144562E+02 -0.14667391915E+03  0.24654984011E+03  0.31351390421E+03  0.12508864439E+03 0.  0.
          5    1    3    3  502    0  0.31208134485E+02 -0.30805609922E+01  0.47736265177E+01  0.31995271904E+02  0.41800000000E+01 0.  1.
         -5    1    3    3    0  502 -0.12667989923E+02 -0.14359335816E+03  0.24177621360E+03  0.28151863231E+03  0.41800000000E+01 0.  1.
        -11    1    1    2    0    0 -0.33888158508E+02  0.94289246490E+02  0.19228353051E+03  0.21682210541E+03  0.00000000000E+00 0. -1.
         11    1    1    2    0    0  0.15348013946E+02  0.52384672658E+02  0.19921345057E+02  0.58108307929E+02  0.00000000000E+00 0.  1.
</event>
<event>
 7    1  0.2499014E-009  0.1063574E+03  0.7561462E-02  0.1267468E+00
         -2   -1    0    0    0  501 -0.00000000000E+00  0.00000000000E+00  0.13041013122E+03  0.13041013122E+03  0.00000000000E+00 0.  1.
          2   -1    0    0  501    0  0.00000000000E+00 -0.00000000000E+00 -0.12172523906E+03  0.12172523906E+03  0.00000000000E+00 0. -1.
         25    2    1    2    0    0 -0.43740972139E+02 -0.53484825555E+01 -0.40955962626E+02  0.13880790368E+03  0.12509342245E+03 0.  0.
          5    1    3    3  502    0 -0.68253132924E+02  0.25743444462E+02  0.10426489346E+02  0.73806498134E+02  0.41800000000E+01 0. -1.
         -5    1    3    3    0  502  0.24512160786E+02 -0.31091927017E+02 -0.51382451972E+02  0.65001405544E+02  0.41800000000E+01 0. -1.
        -11    1    1    2    0    0 -0.14351152100E+02  0.32637700344E+02  0.28842526415E+02  0.45859201698E+02  0.00000000000E+00 0.  1.
         11    1    1    2    0    0  0.58092124239E+02 -0.27289217789E+02  0.20798328372E+02  0.67468264904E+02  0.00000000000E+00 0. -1.
</event>
<event>
 7    1  0.2499014E-009  0.1961335E+03  0.7561462E-02  0.1153043E+00
          1   -1    0    0  501    0  0.00000000000E+00  0.00000000000E+00  0.56803255316E+03  0.56803255316E+03  0.00000000000E+00 0. -1.
         -1   -1    0    0    0  501 -0.00000000000E+00 -0.00000000000E+00 -0.92250154967E+02  0.92250154967E+02  0.00000000000E+00 0.  1.
         25    2    1    2    0    0 -0.12783131291E+03  0.11846652347E+03  0.37885244388E+03  0.43537571560E+03  0.12509067816E+03 0.  0.
          5    1    3    3  502    0 -0.58611289082E+02  0.13142961492E+03  0.25183091985E+03  0.29007811272E+03  0.41800000000E+01 0. -1.
         -5    1    3    3    0  502 -0.69220023829E+02 -0.12963091442E+02  0.12702152402E+03  0.14529760288E+03  0.41800000000E+01 0. -1.
        -11    1    1    2    0    0  0.56985692009E+02 -0.29952863399E+02 -0.14445075559E+02  0.65978809685E+02  0.00000000000E+00 0.  1.
         11    1    1    2    0    0  0.70845620902E+02 -0.88513660076E+02  0.11137502988E+03  0.15892818284E+03  0.00000000000E+00 0. -1.
</event>
<event>
 7    1  0.2499014E-009  0.1863327E+03  0.7561462E-02  0.1161811E+00
          2   -1    0    0  501    0  0.00000000000E+00  0.00000000000E+00  0.88068766235E+03  0.88068766235E+03  0.00000000000E+00 0. -1.
         -2   -1    0    0    0  501 -0.00000000000E+00 -0.00000000000E+00 -0.71335274292E+02  0.71335274292E+02  0.00000000000E+00 0.  1.
         25    2    1    2    0    0  0.13317122421E+02  0.16287180739E+03  0.71269674519E+03  0.74181507590E+03  0.12509350438E+03 0.  0.
          5    1    3    3  502    0 -0.39961102848E+02  0.78460499380E+02  0.18733454111E+03  0.20703778012E+03  0.41800000000E+01 0.  1.
         -5    1    3    3    0  502  0.53278225269E+02  0.84411308012E+02  0.52536220408E+03  0.53477729578E+03  0.41800000000E+01 0.  1.
        -11    1    1    2    0    0 -0.50098779373E+02 -0.96266043350E+02  0.71964456502E+02  0.13021490620E+03  0.00000000000E+00 0. -1.
         11    1    1    2    0    0  0.36781656952E+02 -0.66605764042E+02  0.24691186363E+02  0.79992954538E+02  0.00000000000E+00 0.  1.
</event>
<event>
 7    1  0.2499014E-009  0.1104385E+03  0.7561462E-02  0.1259760E+00
          1   -1    0    0  501    0  0.00000000000E+00  0.00000000000E+00  0.32938427864E+03  0.32938427864E+03  0.00000000000E+00 0. -1.
         -1   -1    0    0    0  501 -0.00000000000E+00 -0.00000000000E+00 -0.42217073987E+02  0.42217073987E+02  0.00000000000E+00 0.  1.
         25    2    1    2    0    0 -0.39618826183E+02  0.19067041171E+02  0.15049833729E+03  0.20057575905E+03  0.12509069568E+03 0.  0.
          5    1    3    3  502    0 -0.24122932151E+02 -0.46123761820E+02  0.11102969476E+03  0.12269630303E+03  0.41800000000E+01 0. -1.
         -5    1    3    3    0  502 -0.15495894032E+02  0.65190802991E+02  0.39468642530E+02  0.77879456018E+02  0.41800000000E+01 0. -1.
        -11    1    1    2    0    0  0.61530088895E+02  0.12800422608E+02  0.71042049334E+02  0.94851333316E+02  0.00000000000E+00 0.  1.
         11    1    1    2    0    0 -0.21911262712E+02 -0.31867463779E+02  0.65626818031E+02  0.76174260260E+02  0.00000000000E+00 0. -1.
</event>
<event>
 7    1  0.2499014E-009  0.8686728E+02  0.7561462E-02  0.1310620E+00
          2   -1    0    0  501    0  0.00000000000E+00  0.00000000000E+00  0.10999493246E+03  0.10999493246E+03  0.00000000000E+00 0. -1.
         -2   -1    0    0    0  501 -0.00000000000E+00 -0.00000000000E+00 -0.14936834715E+03  0.14936834715E+03  0.00000000000E+00 0.  1.
         25    2    1    2    0    0  0.64650877104E+00  0.64956808822E+02 -0.14777707218E+01  0.14095824752E+03  0.12508892338E+03 0.  0.
          5    1    3    3  502    0 -0.38848485145E+02  0.17846787199E+02  0.46173760126E+02  0.63065054790E+02  0.41800000000E+01 0.  1.
         -5    1    3    3    0  502  0.39494993916E+02  0.47110021623E+02 -0.47651530848E+02  0.77893192731E+02  0.41800000000E+01 0.  1.
        -11    1    1    2    0    0  0.11513704044E+02 -0.28872629916E+02 -0.64740211328E+02  0.71815660561E+02  0.00000000000E+00 0.  1.
         11    1    1    2    0    0 -0.12160212815E+02 -0.36084178906E+02  0.26844567356E+02  0.46589371530E+02  0.00000000000E+00 0. -1.
</event>
<event>
 7    1  0.2499014E-009  0.1645470E+03  0.7561462E-02  0.1183657E+00
          2   -1    0    0  501    0  0.00000000000E+00  0.00000000000E+00  0.35947294889E+03  0.35947294889E+03  0.00000000000E+00 0.  1.
         -2   -1    0    0    0  501 -0.00000000000E+00 -0.00000000000E+00 -0.98584933276E+02  0.98584933276E+02  0.00000000000E+00 0. -1.
         25    2    1    2    0    0  0.32073800402E+02 -0.12936786097E+03  0.41066042719E+02  0.18734805138E+03  0.12509236735E+03 0.  0.
          5    1    3    3  502    0 -0.27819715734E+02  0.18432646510E+01 -0.15722771184E+02  0.32280212852E+02  0.41800000000E+01 0. -1.
         -5    1    3    3    0  502  0.59893516136E+02 -0.13121112562E+03  0.56788813903E+02  0.15506783853E+03  0.41800000000E+01 0. -1.
        -11    1    1    2    0    0 -0.15748483303E+02 -0.84178712750E+01  0.38072516552E+02  0.42052250828E+02  0.00000000000E+00 0. -1.
         11    1    1    2    0    0 -0.16325317099E+02  0.13778573225E+03  0.18174945635E+03  0.22865757996E+03  0.00000000000E+00 0.  1.
</event>
<event>
 7    1  0.2499014E-009  0.2131077E+03  0.7561462E-02  0.1139128E+00
          2   -1    0    0  501    0  0.00000000000E+00  0.00000000000E+00  0.20924166456E+03  0.20924166456E+03  0.00000000000E+00 0.  1.
         -2   -1    0    0    0  501 -0.00000000000E+00 -0.00000000000E+00 -0.23826982735E+03  0.23826982735E+03  0.00000000000E+00 0. -1.
         25    2    1    2    0    0  0.15677485466E+03 -0.11516963091E+03 -0.18286681815E+02  0.23200078423E+03  0.12509021630E+03 0.  0.
          5    1    3    3  502    0  0.85991938428E+01  0.16084464128E+02  0.23100983804E+02  0.29728504398E+02  0.41800000000E+01 0.  1.
         -5    1    3    3    0  502  0.14817566082E+03 -0.13125409504E+03 -0.41387665620E+02  0.20227227983E+03  0.41800000000E+01 0.  1.
        -11    1    1    2    0    0 -0.11821588297E+03  0.39599586727E+02  0.17937049861E+02  0.12595578595E+03  0.00000000000E+00 0.  1.
         11    1    1    2    0    0 -0.38558971689E+02  0.75570044181E+02 -0.28678530834E+02  0.89554921730E+02  0.00000000000E+00 0. -1.
</event>
<event>
 7    1  0.2671563E-009  0.1139473E+03  0.7561462E-02  0.1253430E+00
         -2   -1    0    0    0  501 -0.00000000000E+00  0.00000000000E+00  0.31949796017E+02  0.31949796017E+02  0.00000000000E+00 0.  1.
          2   -1    0    0  501    0  0.00000000000E+00 -0.00000000000E+00 -0.55322935299E+03  0.55322935299E+03  0.00000000000E+00 0. -1.
         25    2    1    2    0    0  0.16984467128E+02 -0.68901974501E+02 -0.34954675027E+03  0.37797681024E+03  0.12509030435E+03 0.  0.
          5    1    3    3  502    0  0.56074710408E+02 -0.83935342130E+02 -0.22908068013E+03  0.25036961720E+03  0.41800000000E+01 0.  1.
         -5    1    3    3    0  502 -0.39090243280E+02  0.15033367629E+02 -0.12046607014E+03  0.12760719305E+03  0.41800000000E+01 0.  1.
        -11    1    1    2    0    0  0.15123594325E+02  0.34760154239E+02 -0.15147070978E+03  0.15614213829E+03  0.00000000000E+00 0. -1.
         11    1    1    2    0    0 -0.32108061453E+02  0.34141820263E+02 -0.20262096922E+02  0.51060200478E+02  0.00000000000E+00 0.  1.
</event>
<event>
 7    1  0.2499014E-009  0.7697272E+02  0.7561462E-02  0.1337869E+00
         -2   -1    0    0    0  501 -0.00000000000E+00  0.00000000000E+00  0.29029694147E+02  0.29029694147E+02  0.00000000000E+00 0.  1.
          2   -1    0    0  501    0  0.00000000000E+00 -0.00000000000E+00 -0.48468329376E+03  0.48468329376E+03  0.00000000000E+00 0. -1.
         25    2    1    2    0    0 -0.39584047763E+02 -0.23375665501E+02 -0.23595008908E+03  0.27098174724E+03  0.12508135044E+03 0.  0.
          5    1    3    3  502    0 -0.39458435252E+02 -0.24955266374E+01 -0.24473700214E+03  0.24794529312E+03  0.41800000000E+01 0. -1.
         -5    1    3    3    0  502 -0.12561251047E+00 -0.20880138864E+02  0.87869130592E+01  0.23036454123E+02  0.41800000000E+01 0. -1.
        -11    1    1    2    0    0  0.64719920257E+02  0.18193753481E+02 -0.19805982204E+03  0.20915872885E+03  0.00000000000E+00 0. -1.
         11    1    1    2    0    0 -0.25135872494E+02  0.51819120198E+01 -0.21643688491E+02  0.33572511817E+02  0.00000000000E+00 0.  1.
</event>
<event>
 7    1  0.2499014E-009  0.1361766E+03  0.7561462E-02  0.1218568E+00
         -1   -1    0    0    0  501 -0.00000000000E+00  0.00000000000E+00  0.28688281434E+03  0.28688281434E+03  0.00000000000E+00 0. -1.
          1   -1    0    0  501    0  0.00000000000E+00 -0.00000000000E+00 -0.84499433865E+02  0.84499433865E+02  0.00000000000E+00 0.  1.
         25    2    1    2    0    0  0.39137460505E+02  0.10281831840E+03  0.89403075891E+02  0.18905519471E+03  0.12508240986E+03 0.  0.
          5    1    3    3  502    0 -0.28181586967E+02 -0.10527450365E+02  0.35103005135E+02  0.46418987760E+02  0.41800000000E+01 0. -1.
         -5    1    3    3    0  502  0.67319047472E+02  0.11334576877E+03  0.54300070756E+02  0.14263620695E+03  0.41800000000E+01 0. -1.
        -11    1    1    2    0    0 -0.33060592679E+02 -0.82532777748E+02  0.25748341738E+02  0.92561543275E+02  0.00000000000E+00 0.  1.
         11    1    1    2    0    0 -0.60768678257E+01 -0.20285540655E+02  0.87231962845E+02  0.89765510214E+02  0.00000000000E+00 0. -1.
</event>
<event>
 7    1  0.2499014E-009  0.1084623E+03  0.7561462E-02  0.1263444E+00
         -2   -1    0    0    0  501 -0.00000000000E+00  0.00000000000E+00  0.29561538950E+02  0.29561538950E+02  0.00000000000E+00 0.  1.
          2   -1    0    0  501    0  0.00000000000E+00 -0.00000000000E+00 -0.59847360724E+03  0.59847360724E+03  0.00000000000E+00 0. -1.
         25    2    1    2    0    0 -0.10485239024E+02  0.77950556497E+02 -0.31997123103E+03  0.35244128526E+03  0.12508813442E+03 0.  0.
          5    1    3    3  502    0 -0.11771716275E+02  0.91103057789E+02 -0.32495248208E+03  0.33771278989E+03  0.41800000000E+01 0.  1.
         -5    1    3    3    0  502  0.12864772505E+01 -0.13152501292E+02  0.49812510498E+01  0.14728495374E+02  0.41800000000E+01 0.  1.
        -11    1    1    2    0    0  0.38320653596E+02 -0.73540878558E+02 -0.22039641575E+03  0.23548102554E+03  0.00000000000E+00 0. -1.
         11    1    1    2    0    0 -0.27835414572E+02 -0.44096779393E+01 -0.28544421496E+02  0.40112835383E+02  0.00000000000E+00 0.  1.
</event>
<event>
 7    1  0.2499014E-009  0.1209550E+03  0.7561462E-02  0.1241530E+00
         -1   -1    0    0    0  501 -0.00000000000E+00  0.00000000000E+00  0.15042132071E+03  0.15042132071E+03  0.00000000000E+00 0.  1.
          1   -1    0    0  501    0  0.00000000000E+00 -0.00000000000E+00 -0.11504721599E+03  0.11504721599E+03  0.00000000000E+00 0. -1.
         25    2    1    2    0    0  0.15840089950E+02 -0.68611916456E+02  0.11733375035E+02  0.14402963622E+03  0.12509340706E+03 0.  0.
          5    1    3    3  502    0  0.15781315820E+02  0.32541989412E+02 -0.14909953882E+02  0.39342218146E+02  0.41800000000E+01 0. -1.
         -5    1    3    3    0  502  0.58774129927E-01 -0.10115390587E+03  0.26643328916E+02  0.10468741807E+03  0.41800000000E+01 0. -1.
        -11    1    1    2    0    0 -0.17728106445E+02 -0.13403737287E+02 -0.18767155700E+02  0.29088693068E+02  0.00000000000E+00 0. -1.
         11    1    1    2    0    0  0.18880164947E+01  0.82015653743E+02  0.42407885386E+02  0.92350207406E+02  0.00000000000E+00 0.  1.
</event>
<event>
 7    1  0.2499014E-009  0.1527605E+03  0.7561462E-02  0.1197121E+00
         -1   -1    0    0    0  501 -0.00000000000E+00  0.00000000000E+00  0.34910139630E+03  0.34910139630E+03  0.00000000000E+00 0.  1.
          1   -1    0    0  501    0  0.00000000000E+00 -0.00000000000E+00 -0.79272941024E+02  0.79272941024E+02  0.00000000000E+00 0. -1.
         25    2    1    2    0    0  0.12292731905E+03 -0.24545272542E+02  0.15662722468E+03  0.23642042296E+03  0.12509569420E+03 0.  0.
          5    1    3    3  502    0 -0.25372075574E+02 -0.11470756496E+02  0.25543728647E+02  0.38016771914E+02  0.41800000000E+01 0.  1.
         -5    1    3    3    0  502  0.14829939462E+03 -0.13074516046E+02  0.13108349603E+03  0.19840365104E+03  0.41800000000E+01 0.  1.
        -11    1    1    2    0    0 -0.89907495395E+02  0.49693991137E+01  0.12290451510E+03  0.15236000947E+03  0.00000000000E+00 0.  1.
         11    1    1    2    0    0 -0.33019823656E+02  0.19575873428E+02 -0.97032844966E+01  0.39593904894E+02  0.00000000000E+00 0. -1.
</event>
<event>
 7    1  0.2499014E-009  0.8657660E+02  0.7561462E-02  0.1311360E+00
         -3   -1    0    0    0  501 -0.00000000000E+00  0.00000000000E+00  0.13799606160E+03  0.13799606160E+03  0.00000000000E+00 0.  1.
          3   -1    0    0  501    0  0.00000000000E+00 -0.00000000000E+00 -0.10825612433E+03  0.10825612433E+03  0.00000000000E+00 0. -1.
         25    2    1    2    0    0 -0.43921710827E+02  0.28761854771E+02 -0.67643354099E+01  0.13582945432E+03  0.12509006138E+03 0.  0.
          5    1    3    3  502    0 -0.44109863791E+02  0.41955079396E+02  0.49071820294E+02  0.78303414470E+02  0.41800000000E+01 0. -1.
         -5    1    3    3    0  502  0.18815296370E+00 -0.13193224626E+02 -0.55836155704E+02  0.57526039854E+02  0.41800000000E+01 0. -1.
        -11    1    1    2    0    0  0.15694179925E+02 -0.56547103427E+02  0.33675846927E+01  0.58781143372E+02  0.00000000000E+00 0.  1.
         11    1    1    2    0    0  0.28227530902E+02  0.27785248656E+02  0.33136687986E+02  0.51641588225E+02  0.00000000000E+00 0. -1.
</event>
<event>
 7    1  0.2593597E-009  0.9740640E+02  0.7561462E-02  0.1285846E+00
          1   -1    0    0  501    0  0.00000000000E+00  0.00000000000E+00  0.17343381404E+03  0.17343381404E+03  0.00000000000E+00 0. -1.
         -1   -1    0    0    0  501 -0.00000000000E+00 -0.00000000000E+00 -0.80540032830E+02  0.80540032830E+02  0.00000000000E+00 0.  1.
         25    2    1    2    0    0 -0.34717082833E+02 -0.12163669372E+02  0.83997544291E+02  0.15510242449E+03  0.12509174211E+03 0.  0.
          5    1    3    3  502    0 -0.32334215115E+02 -0.65799832066E+02  0.64782967744E+02  0.97925607870E+02  0.41800000000E+01 0. -1.
         -5    1    3    3    0  502 -0.23828677184E+01  0.53636162694E+02  0.19214576546E+02  0.57176816621E+02  0.41800000000E+01 0. -1.
        -11    1    1    2    0    0  0.11050057065E+02  0.33738507208E+02 -0.31402442499E+02  0.47397299762E+02  0.00000000000E+00 0.  1.
         11    1    1    2    0    0  0.23667025768E+02 -0.21574837836E+02  0.40298679416E+02  0.51474122615E+02  0.00000000000E+00 0. -1.
</event>
<event>
 7    1  0.2499014E-009  0.1189982E+03  0.7561462E-02  0.1244759E+00
         -2   -1    0    0    0  501 -0.00000000000E+00  0.00000000000E+00  0.12060559033E+03  0.12060559033E+03  0.00000000000E+00 0.  1.
          2   -1    0    0  501    0  0.00000000000E+00 -0.00000000000E+00 -0.25447146792E+03  0.25447146792E+03  0.00000000000E+00 0. -1.
         25    2    1    2    0    0 -0.83369916279E+02  0.48718414565E+02  0.31598565807E+02  0.16115394174E+03  0.12509235276E+03 0.  0.
          5    1    3    3  502    0 -0.38490244375E+02  0.78358521259E+02  0.54004171577E+02  0.10273986429E+03  0.41800000000E+01 0.  1.
         -5    1    3    3    0  502 -0.44879671904E+02 -0.29640106694E+02 -0.22405605770E+02  0.58414077455E+02  0.41800000000E+01 0.  1.
        -11    1    1    2    0    0  0.17572481558E+02 -0.12247107248E+02  0.95298295052E+01  0.23443578960E+02  0.00000000000E+00 0.  1.
         11    1    1    2    0    0  0.65797434721E+02 -0.36471307317E+02 -0.17499427291E+03  0.19047953755E+03  0.00000000000E+00 0. -1.
</event>
<event>
 7    1  0.2499014E-009  0.1814474E+03  0.7561462E-02  0.1166410E+00
          1   -1    0    0  501    0  0.00000000000E+00  0.00000000000E+00  0.16082759999E+03  0.16082759999E+03  0.00000000000E+00 0. -1.
         -1   -1    0    0    0  501 -0.00000000000E+00 -0.00000000000E+00 -0.30163770302E+03  0.30163770302E+03  0.00000000000E+00 0.  1.
         25    2    1    2    0    0 -0.89538146030E+02  0.15280375694E+03 -0.15030087535E+03  0.26382505125E+03  0.12508891561E+03 0.  0.
          5    1    3    3  502    0 -0.82053010110E+02  0.89257489556E+02 -0.26160922386E+02  0.12410262757E+03  0.41800000000E+01 0.  1.
         -5    1    3    3    0  502 -0.74851359205E+01  0.63546267381E+02 -0.12413995297E+03  0.13972242368E+03  0.41800000000E+01 0.  1.
        -11    1    1    2    0    0  0.86624242161E+02 -0.14261405674E+03 -0.19288153551E+02  0.16797190651E+03  0.00000000000E+00 0.  1.
         11    1    1    2    0    0  0.29139038692E+01 -0.10189700199E+02  0.28778925871E+02  0.30668345247E+02  0.00000000000E+00 0. -1.
</event>
<event>
 7    1  0.2499014E-009  0.1086299E+03  0.7561462E-02  0.1263128E+00
          2   -1    0    0  501    0  0.00000000000E+00  0.00000000000E+00  0.11733760745E+03  0.11733760745E+03  0.00000000000E+00 0. -1.
         -2   -1    0    0    0  501 -0.00000000000E+00 -0.00000000000E+00 -0.18044011428E+03  0.18044011428E+03  0.00000000000E+00 0.  1.
         25    2    1    2    0    0  0.64116948674E+02  0.29432511860E+02 -0.10035741442E+03  0.17520521994E+03  0.12509197658E+03 0.  0.
          5    1    3    3  502    0 -0.17825433526E+02 -0.14648343447E+02 -0.75136932014E+02  0.78710552015E+02  0.41800000000E+01 0.  1.
         -5    1    3    3    0  502  0.81942382199E+02  0.44080855307E+02 -0.25220482406E+02  0.96494667925E+02  0.41800000000E+01 0.  1.
        -11    1    1    2    0    0  0.13260815183E+02  0.71681994178E+01  0.33680999331E+02  0.36900433848E+02  0.00000000000E+00 0. -1.
         11    1    1    2    0    0 -0.77377763857E+02 -0.36600711278E+02  0.35739082614E+01  0.85672067944E+02  0.00000000000E+00 0.  1.
</event>
<event>
 7    1  0.2499014E-009  0.1141093E+03  0.7561462E-02  0.1253144E+00
          1   -1    0    0  501    0  0.00000000000E+00  0.00000000000E+00  0.91881006068E+02  0.91881006068E+02  0.00000000000E+00 0. -1.
         -1   -1    0    0    0  501 -0.00000000000E+00 -0.00000000000E+00 -0.31122659619E+03  0.31122659619E+03  0.00000000000E+00 0.  1.
         25    2    1    2    0    0 -0.46650183728E+02 -0.64000407731E+02 -0.22465037501E+03  0.26904779138E+03  0.12508649496E+03 0.  0.
          5    1    3    3  502    0 -0.61078606422E+02 -0.59433799566E+02 -0.61586852759E+02  0.10523015502E+03  0.41800000000E+01 0.  1.
         -5    1    3    3    0  502  0.14428422694E+02 -0.45666081658E+01 -0.16306352225E+03  0.16381763635E+03  0.41800000000E+01 0.  1.
        -11    1    1    2    0    0  0.47515551837E+02 -0.13728299599E+02 -0.18433511816E+02  0.52782461426E+02  0.00000000000E+00 0.  1.
         11    1    1    2    0    0 -0.86536810925E+00  0.77728707330E+02  0.23738296699E+02  0.81277349461E+02  0.00000000000E+00 0. -1.
</event>
<event>
 7    1  0.2499014E-009  0.8125223E+02  0.7561462E-02  0.1325535E+00
          1   -1    0    0  501    0  0.00000000000E+00  0.00000000000E+00  0.12765222807E+02  0.12765222807E+02  0.00000000000E+00 0. -1.
         -1   -1    0    0    0  501 -0.00000000000E+00 -0.00000000000E+00 -0.86800116469E+03  0.86800116469E+03  0.00000000000E+00 0.  1.
         25    2    1    2    0    0  0.43094472908E+02  0.29803091547E+02 -0.69175648991E+03  0.70492749200E+03  0.12510143798E+03 0.  0.
          5    1    3    3  502    0  0.20394518262E+02  0.60409864719E+02 -0.16753547379E+03  0.17930670793E+03  0.41800000000E+01 0. -1.
         -5    1    3    3    0  502  0.22699954646E+02 -0.30606773172E+02 -0.52422101613E+03  0.52562078408E+03  0.41800000000E+01 0. -1.
        -11    1    1    2    0    0 -0.41182887247E+02 -0.12746892955E+02 -0.14168139260E+03  0.14809500495E+03  0.00000000000E+00 0.  1.
         11    1    1    2    0    0 -0.19115856609E+01 -0.17056198592E+02 -0.21798059361E+02  0.27743890536E+02  0.00000000000E+00 0. -1.
</event>
<event>
 7    1  0.2499014E-009  0.1103539E+03  0.7561462E-02  0.1259916E+00
         -2   -1    0    0    0  501 -0.00000000000E+00  0.00000000000E+00  0.90462116356E+01  0.90462116356E+01  0.00000000000E+00 0.  1.
          2   -1    0    0  501    0  0.00000000000E+00 -0.00000000000E+00 -0.13993141041E+04  0.13993141041E+04  0.00000000000E+00 0. -1.
         25    2    1    2    0    0  0.12300728411E+02  0.26606034738E+02 -0.85092602968E+03  0.86057077046E+03  0.12509098274E+03 0.  0.
          5    1    3    3  502    0  0.31645832312E+02 -0.42421200869E+02 -0.46501189534E+03  0.46803264009E+03  0.41800000000E+01 0.  1.
         -5    1    3    3    0  502 -0.19345103901E+02  0.69027235608E+02 -0.38591413435E+03  0.39253813036E+03  0.41800000000E+01 0.  1.
        -11    1    1    2    0    0 -0.30724054630E+01 -0.60553036401E+02 -0.34692408888E+03  0.35218238647E+03  0.00000000000E+00 0.  1.
         11    1    1    2    0    0 -0.92283229482E+01  0.33947001663E+02 -0.19241777393E+03  0.19560715884E+03  0.00000000000E+00 0. -1.
</event>
<event>
 7    1  0.2499014E-009  0.1024921E+03  0.7561462E-02  0.1275141E+00
         -2   -1    0    0    0  501 -0.00000000000E+00  0.00000000000E+00  0.40267118214E+02  0.40267118214E+02  0.00000000000E+00 0. -1.
          2   -1    0    0  501    0  0.00000000000E+00 -0.00000000000E+00 -0.53354797256E+03  0.53354797256E+03  0.00000000000E+00 0.  1.
         25    2    1    2    0    0  0.22136225344E+02  0.75615323326E+02 -0.15201237323E+03  0.21204535730E+03  0.12509109617E+03 0.  0.
          5    1    3    3  502    0 -0.47105196333E+00  0.85126040104E+02 -0.34532695267E+02  0.91960013246E+02  0.41800000000E+01 0. -1.
         -5    1    3    3    0  502  0.22607277307E+02 -0.95107167781E+01 -0.11747967796E+03  0.12008534405E+03  0.41800000000E+01 0. -1.
        -11    1    1    2    0    0 -0.36796325267E+02 -0.31671535013E+02 -0.28395594098E+03  0.28807643447E+03  0.00000000000E+00 0.  1.
         11    1    1    2    0    0  0.14660099922E+02 -0.43943788314E+02 -0.57312540137E+02  0.73693299003E+02  0.00000000000E+00 0. -1.
</event>
<event>
 7    1  0.2499014E-009  0.1228679E+03  0.7561462E-02  0.1238439E+00
         -2   -1    0    0    0  501 -0.00000000000E+00  0.00000000000E+00  0.36956681000E+02  0.36956681000E+02  0.00000000000E+00 0.  1.
          2   -1    0    0  501    0  0.00000000000E+00 -0.00000000000E+00 -0.65041146455E+03  0.65041146455E+03  0.00000000000E+00 0. -1.
         25    2    1    2    0    0  0.77657879758E+02 -0.82633382056E+01 -0.15724038087E+03  0.21557286647E+03  0.12509234323E+03 0.  0.
          5    1    3    3  502    0  0.90988914026E+02  0.23403278786E+02 -0.58049152790E+02  0.11051639007E+03  0.41800000000E+01 0. -1.
         -5    1    3    3    0  502 -0.13331034269E+02 -0.31666616991E+02 -0.99191228082E+02  0.10505647641E+03  0.41800000000E+01 0. -1.
        -11    1    1    2    0    0 -0.11261252297E+02 -0.35709665601E+02 -0.99819013396E+02  0.10661065358E+03  0.00000000000E+00 0.  1.
         11    1    1    2    0    0 -0.66396627460E+02  0.43973003807E+02 -0.35639538928E+03  0.36518462550E+03  0.00000000000E+00 0. -1.
</event>
<event>
 7    1  0.2499014E-009  0.1230078E+03  0.7561462E-02  0.1238216E+00
         -1   -1    0    0    0  501 -0.00000000000E+00  0.00000000000E+00  0.57451715604E+03  0.57451715604E+03  0.00000000000E+00 0.  1.
          1   -1    0    0  501    0  0.00000000000E+00 -0.00000000000E+00 -0.41050441723E+02  0.41050441723E+02  0.00000000000E+00 0. -1.
         25    2    1    2    0    0  0.29155318591E+02  0.99859280895E+02  0.21938601411E+03  0.27312816425E+03  0.12508741877E+03 0.  0.
          5    1    3    3  502    0  0.34336666272E+02  0.28543324322E+02  0.27187801950E+01  0.44928745584E+02  0.41800000000E+01 0.  1.
         -5    1    3    3    0  502 -0.51813476811E+01  0.71315956573E+02  0.21666723391E+03  0.22819941866E+03  0.41800000000E+01 0.  1.
        -11    1    1    2    0    0  0.23328057597E+02 -0.57654657242E+02  0.97671390726E+02  0.11579273872E+03  0.00000000000E+00 0. -1.
         11    1    1    2    0    0 -0.52483376188E+02 -0.42204623652E+02  0.21640930948E+03  0.22664669480E+03  0.00000000000E+00 0.  1.
</event>
<event>
 7    1  0.2499014E-009  0.1115356E+03  0.7561462E-02  0.1257752E+00
         -1   -1    0    0    0  501 -0.00000000000E+00  0.00000000000E+00  0.66632955214E+02  0.66632955214E+02  0.00000000000E+00 0.  1.
          1   -1    0    0  501    0  0.00000000000E+00 -0.00000000000E+00 -0.40313023454E+03  0.40313023454E+03  0.00000000000E+00 0. -1.
         25    2    1    2    0    0 -0.88820346300E+02  0.48441159731E+02 -0.27927004167E+03  0.32229715571E+03  0.12509236799E+03 0.  0.
          5    1    3    3  502    0 -0.54762787580E+02  0.47919529602E+02 -0.45288386925E+02  0.85812322024E+02  0.41800000000E+01 0.  1.
         -5    1    3    3    0  502 -0.34057558720E+02  0.52163012933E+00 -0.23398165475E+03  0.23648483369E+03  0.41800000000E+01 0.  1.
        -11    1    1    2    0    0  0.53182874615E+02 -0.58276461593E+02 -0.72798598511E+02  0.10735082707E+03  0.00000000000E+00 0. -1.
         11    1    1    2    0    0  0.35637471685E+02  0.98353018615E+01  0.15571360865E+02  0.40115206967E+02  0.00000000000E+00 0.  1.
</event>
<event>
 7    1  0.2499014E-009  0.1211263E+03  0.7561462E-02  0.1241250E+00
          2   -1    0    0  501    0  0.00000000000E+00  0.00000000000E+00  0.24197017765E+03  0.24197017765E+03  0.00000000000E+00 0. -1.
         -2   -1    0    0    0  501 -0.00000000000E+00 -0.00000000000E+00 -0.71499067658E+02  0.71499067658E+02  0.00000000000E+00 0.  1.
         25    2    1    2    0    0  0.57693769346E+02 -0.45831793800E+02  0.90632407800E+02  0.17114528566E+03  0.12508937251E+03 0.  0.
          5    1    3    3  502    0 -0.87414542796E+01  0.36140200122E+02  0.37349832935E+02  0.52867849474E+02  0.41800000000E+01 0. -1.
         -5    1    3    3    0  502  0.66435223626E+02 -0.81971993922E+02  0.53282574865E+02  0.11827743618E+03  0.41800000000E+01 0. -1.
        -11    1    1    2    0    0 -0.67768904428E+02  0.18705324008E+02  0.15808300641E+02  0.72058420208E+02  0.00000000000E+00 0.  1.
         11    1    1    2    0    0  0.10075135082E+02  0.27126469792E+02  0.64030401555E+02  0.70265539446E+02  0.00000000000E+00 0. -1.
</event>
<event>
 7    1  0.2499014E-009  0.8815643E+02  0.7561462E-02  0.1307379E+00
          2   -1    0    0  501    0  0.00000000000E+00  0.00000000000E+00  0.45487984045E+03  0.45487984045E+03  0.00000000000E+00 0. -1.
         -2   -1    0    0    0  501 -0.00000000000E+00 -0.00000000000E+00 -0.38209687147E+02  0.38209687147E+02  0.00000000000E+00 0.  1.
         25    2    1    2    0    0 -0.58594975735E+02  0.48063880067E+02  0.19924189697E+03  0.24716031089E+03  0.12508948006E+03 0.  0.
          5    1    3    3  502    0  0.13368694396E+02  0.16732913799E+01 -0.12422266859E+02  0.18796462641E+02  0.41800000000E+01 0.  1.
         -5    1    3    3    0  502 -0.71963670131E+02  0.46390588687E+02  0.21166416383E+03  0.22836384825E+03  0.41800000000E+01 0.  1.
        -11    1    1    2    0    0  0.16245421775E+02 -0.76923967411E+01 -0.26834849724E+01  0.18173821499E+02  0.00000000000E+00 0.  1.
         11    1    1    2    0    0  0.42349553960E+02 -0.40371483326E+02  0.22011174131E+03  0.22775539521E+03  0.00000000000E+00 0. -1.
</event>
<event>
 7    1  0.2499014E-009  0.1238656E+03  0.7561462E-02  0.1236853E+00
          3   -1    0    0  501    0  0.00000000000E+00  0.00000000000E+00  0.78251937367E+03  0.78251937367E+03  0.00000000000E+00 0. -1.
         -3   -1    0    0    0  501 -0.00000000000E+00 -0.00000000000E+00 -0.28701776271E+02  0.28701776271E+02  0.00000000000E+00 0.  1.
         25    2    1    2    0    0 -0.60320256238E+02 -0.75783061688E+02  0.31617036412E+03  0.35354281254E+03  0.12508883002E+03 0.  0.
          5    1    3    3  502    0 -0.43005593420E+02 -0.85827478950E+02  0.31876206032E+03  0.33293026403E+03  0.41800000000E+01 0.  1.
         -5    1    3    3    0  502 -0.17314662818E+02  0.10044417262E+02 -0.25916962004E+01  0.20612548504E+02  0.41800000000E+01 0.  1.
        -11    1    1    2    0    0  0.82796203364E+02  0.68816789549E+02  0.31774504807E+03  0.33548901232E+03  0.00000000000E+00 0.  1.
         11    1    1    2    0    0 -0.22475947126E+02  0.69662721390E+01  0.11990218521E+03  0.12218932508E+03  0.00000000000E+00 0. -1.
</event>
<event>
 7    1  0.2499014E-009  0.1004844E+03  0.7561462E-02  0.1279281E+00
         -2   -1    0    0    0  501 -0.00000000000E+00  0.00000000000E+00  0.35465011703E+02  0.35465011703E+02  0.00000000000E+00 0. -1.
          2   -1    0    0  501    0  0.00000000000E+00 -0.00000000000E+00 -0.41606021890E+03  0.41606021890E+03  0.00000000000E+00 0.  1.
         25    2    1    2    0    0 -0.13114466495E+02  0.52315829538E+02 -0.19373461977E+03  0.23683274298E+03  0.12509080700E+03 0.  0.
          5    1    3    3  502    0 -0.21306786706E+02 -0.15723521037E+02 -0.15639862397E+03  0.15867958361E+03  0.41800000000E+01 0.  1.
         -5    1    3    3    0  502  0.81923202112E+01  0.68039350575E+02 -0.37335995798E+02  0.78153159369E+02  0.41800000000E+01 0.  1.
        -11    1    1    2    0    0 -0.36521926876E+02 -0.40389723662E+02 -0.89609306272E+02  0.10485708698E+03  0.00000000000E+00 0. -1.
         11    1    1    2    0    0  0.49636393371E+02 -0.11926105876E+02 -0.97251281160E+02  0.10983540065E+03  0.00000000000E+00 0.  1.
</event>
<event>
 7    1  0.2499014E-009  0.1131511E+03  0.7561462E-02  0.1254843E+00
          2   -1    0    0  501    0  0.00000000000E+00  0.00000000000E+00  0.34337307309E+03  0.34337307309E+03  0.00000000000E+00 0.  1.
         -2   -1    0    0    0  501 -0.00000000000E+00 -0.00000000000E+00 -0.43303129595E+02  0.43303129595E+02  0.00000000000E+00 0. -1.
         25    2    1    2    0    0 -0.11728109011E+02  0.50101434797E+02  0.12769269411E+03  0.18601052721E+03  0.12508712881E+03 0.  0.
          5    1    3    3  502    0 -0.37695018512E+02  0.81368483784E+02  0.63663097471E+02  0.11005547216E+03  0.41800000000E+01 0.  1.
         -5    1    3    3    0  502  0.25966909501E+02 -0.31267048986E+02  0.64029596643E+02  0.75955055050E+02  0.41800000000E+01 0.  1.
        -11    1    1    2    0    0  0.42855784534E+02 -0.48182937146E+02  0.14677653801E+03  0.16031707897E+03  0.00000000000E+00 0. -1.
         11    1    1    2    0    0 -0.31127675523E+02 -0.19184976515E+01  0.25600711378E+02  0.40348596503E+02  0.00000000000E+00 0.  1.
</event>
<event>
 7    1  0.2499014E-009  0.1168301E+03  0.7561462E-02  0.1248420E+00
          2   -1    0    0  501    0  0.00000000000E+00  0.00000000000E+00  0.34449547649E+03  0.34449547649E+03  0.00000000000E+00 0.  1.
         -2   -1    0    0    0  501 -0.00000000000E+00 -0.00000000000E+00 -0.71631419194E+02  0.71631419194E+02  0.00000000000E+00 0. -1.
         25    2    1    2    0    0 -0.90359016522E+02 -0.41259222148E+02  0.21884219751E+03  0.27093794812E+03  0.12509352120E+03 0.  0.
          5    1    3    3  502    0 -0.34590776511E+02 -0.10261726883E+02  0.20141638693E+03  0.20466523443E+03  0.41800000000E+01 0. -1.
         -5    1    3    3    0  502 -0.55768240011E+02 -0.30997495265E+02  0.17425810573E+02  0.66272713697E+02  0.41800000000E+01 0. -1.
        -11    1    1    2    0    0 -0.52739617922E+01  0.37312173847E+02  0.24806207902E+02  0.45114974683E+02  0.00000000000E+00 0.  1.
         11    1    1    2    0    0  0.95632978314E+02  0.39470483006E+01  0.29215651885E+02  0.10007397287E+03  0.00000000000E+00 0. -1.
</event>
<event>
 7    1  0.2499014E-009  0.8241268E+02  0.7561462E-02  0.1322341E+00
         -2   -1    0    0    0  501 -0.00000000000E+00  0.00000000000E+00  0.56021741753E+02  0.56021741753E+02  0.00000000000E+00 0.  1.
          2   -1    0    0  501    0  0.00000000000E+00 -0.00000000000E+00 -0.21786213279E+03  0.21786213279E+03  0.00000000000E+00 0. -1.
         25    2    1    2    0    0  0.66549993334E+00  0.11243562256E+02 -0.12116786981E+03  0.17451608272E+03  0.12508936754E+03 0.  0.
          5    1    3    3  502    0 -0.41285421315E+02  0.49472789770E+02 -0.86264730116E+02  0.10775490245E+03  0.41800000000E+01 0.  1.
         -5    1    3    3    0  502  0.41950921249E+02 -0.38229227513E+02 -0.34903139689E+02  0.66761180262E+02  0.41800000000E+01 0.  1.
        -11    1    1    2    0    0 -0.11720329025E+02 -0.23851029641E+02 -0.64770370184E+02  0.70010274825E+02  0.00000000000E+00 0. -1.
         11    1    1    2    0    0  0.11054829092E+02  0.12607467384E+02  0.24097848955E+02  0.29357516999E+02  0.00000000000E+00 0.  1.
</event>
<event>
 7    1  0.2499014E-009  0.8867921E+02  0.7561462E-02  0.1306082E+00
         -1   -1    0    0    0  501 -0.00000000000E+00  0.00000000000E+00  0.28888761894E+02  0.28888761894E+02  0.00000000000E+00 0.  1.
          1   -1    0    0  501    0  0.00000000000E+00 -0.00000000000E+00 -0.54500332282E+03  0.54500332282E+03  0.00000000000E+00 0. -1.
         25    2    1    2    0    0  0.32492415331E+02 -0.17426809212E+02 -0.41367066116E+03  0.43374319246E+03  0.12510112058E+03 0.  0.
          5    1    3    3  502    0  0.31004063553E+02  0.29374666106E+02 -0.35935489064E+03  0.36190818282E+03  0.41800000000E+01 0. -1.
         -5    1    3    3    0  502  0.14883517780E+01 -0.46801475318E+02 -0.54315770519E+02  0.71835009640E+02  0.41800000000E+01 0. -1.
        -11    1    1    2    0    0 -0.57816008863E+02  0.21446566576E+01 -0.37937691190E+02  0.69184961125E+02  0.00000000000E+00 0. -1.
         11    1    1    2    0    0  0.25323593532E+02  0.15282152555E+02 -0.64506208575E+02  0.70963931125E+02  0.00000000000E+00 0.  1.
</event>
<event>
 7    1  0.2499014E-009  0.8459611E+02  0.7561462E-02  0.1316492E+00
         -2   -1    0    0    0  501 -0.00000000000E+00  0.00000000000E+00  0.31500082805E+02  0.31500082805E+02  0.00000000000E+00 0.  1.
          2   -1    0    0  501    0  0.00000000000E+00 -0.00000000000E+00 -0.41987076865E+03  0.41987076865E+03  0.00000000000E+00 0. -1.
         25    2    1    2    0    0  0.28686993688E+02  0.23050353872E+02 -0.24198049808E+03  0.27487115324E+03  0.12508128161E+03 0.  0.
          5    1    3    3  502    0  0.37405119088E+02  0.37549108435E+02 -0.27822622282E+02  0.60005409664E+02  0.41800000000E+01 0. -1.
         -5    1    3    3    0  502 -0.87181254002E+01 -0.14498754563E+02 -0.21415787580E+03  0.21486574358E+03  0.41800000000E+01 0. -1.
        -11    1    1    2    0    0 -0.32114117468E+02  0.30885251967E+02 -0.66387344869E+02  0.79953079294E+02  0.00000000000E+00 0. -1.
         11    1    1    2    0    0  0.34271237805E+01 -0.53935605839E+02 -0.80002842893E+02  0.96546618924E+02  0.00000000000E+00 0.  1.
</event>
<event>
 7    1  0.2499014E-009  0.1531661E+03  0.7561462E-02  0.1196636E+00
          1   -1    0    0  501    0  0.00000000000E+00  0.00000000000E+00  0.25479212870E+03  0.25479212870E+03  0.00000000000E+00 0. -1.
         -1   -1    0    0    0  501 -0.00000000000E+00 -0.00000000000E+00 -0.11446964457E+03  0.11446964457E+03  0.00000000000E+00 0.  1.
         25    2    1    2    0    0  0.88161500000E+02 -0.94676036882E+02  0.10068757645E+03  0.20620386977E+03  0.12508415493E+03 0.  0.
          5    1    3    3  502    0  0.28997736880E+02 -0.82739542700E+02 -0.11151288419E+01  0.87780502293E+02  0.41800000000E+01 0.  1.
         -5    1    3    3    0  502  0.59163763119E+02 -0.11936494182E+02  0.10180270529E+03  0.11842336748E+03  0.41800000000E+01 0.  1.
        -11    1    1    2    0    0 -0.29156110870E+02 -0.15541893978E+02  0.58372420599E+01  0.33551492729E+02  0.00000000000E+00 0.  1.
         11    1    1    2    0    0 -0.59005389130E+02  0.11021793086E+03  0.33797665617E+02  0.12950641077E+03  0.00000000000E+00 0. -1.
</event>
<event>
 7    1  0.2499014E-009  0.1379814E+03  0.7561462E-02  0.1216071E+00
         -1   -1    0    0    0  501 -0.00000000000E+00  0.00000000000E+00  0.18041651084E+03  0.18041651084E+03  0.00000000000E+00 0.  1.
          1   -1    0    0  501    0  0.00000000000E+00 -0.00000000000E+00 -0.15587967868E+03  0.15587967868E+03  0.00000000000E+00 0. -1.
         25    2    1    2    0    0 -0.34571577633E+02  0.10214737846E+03 -0.54758881074E+02  0.17399872229E+03  0.12509092452E+03 0.  0.
          5    1    3    3  502    0  0.14227945451E+02  0.11096289182E+03 -0.53844216268E+02  0.12422507725E+03  0.41800000000E+01 0. -1.
         -5    1    3    3    0  502 -0.48799523084E+02 -0.88155133571E+01 -0.91466480599E+00  0.49773645042E+02  0.41800000000E+01 0. -1.
        -11    1    1    2    0    0  0.14272443095E+02 -0.88832569322E+02  0.96961227052E+02  0.13227398669E+03  0.00000000000E+00 0.  1.
         11    1    1    2    0    0  0.20299134538E+02 -0.13314809137E+02 -0.17665513811E+02  0.30023480538E+02  0.00000000000E+00 0. -1.
</event>
<event>
 7    1  0.2499014E-009  0.1338131E+03  0.7561462E-02  0.1221905E+00
          1   -1    0    0  501    0  0.00000000000E+00  0.00000000000E+00  0.31220788560E+03  0.31220788560E+03  0.00000000000E+00 0. -1.
         -1   -1    0    0    0  501 -0.00000000000E+00 -0.00000000000E+00 -0.84469802494E+02  0.84469802494E+02  0.00000000000E+00 0.  1.
         25    2    1    2    0    0 -0.10424380066E+03  0.61920602563E+01  0.50352820981E+02  0.17055405453E+03  0.12509263508E+03 0.  0.
          5    1    3    3  502    0 -0.12732469811E+03  0.28539102289E+02  0.40787629898E+02  0.13677412862E+03  0.41800000000E+01 0. -1.
         -5    1    3    3    0  502  0.23080897441E+02 -0.22347042033E+02  0.95651910826E+01  0.33779925914E+02  0.41800000000E+01 0. -1.
        -11    1    1    2    0    0  0.33691081302E+02  0.13845637222E+01 -0.14238263768E+01  0.33749566776E+02  0.00000000000E+00 0.  1.
         11    1    1    2    0    0  0.70552719361E+02 -0.75766239785E+01  0.17880908850E+03  0.19237406678E+03  0.00000000000E+00 0. -1.
</event>
<event>
 7    1  0.2499014E-009  0.9620439E+02  0.7561462E-02  0.1288486E+00
         -1   -1    0    0    0  501 -0.00000000000E+00  0.00000000000E+00  0.93835453726E+02  0.93835453726E+02  0.00000000000E+00 0.  1.
          1   -1    0    0  501    0  0.00000000000E+00 -0.00000000000E+00 -0.13365561703E+03  0.13365561703E+03  0.00000000000E+00 0. -1.
         25    2    1    2    0    0 -0.78491567320E+01  0.11939464615E+02 -0.48779797932E+02  0.13502451679E+03  0.12509193168E+03 0.  0.
          5    1    3    3  502    0  0.34763024699E+02 -0.40208713214E+02 -0.40685426587E+02  0.67067017536E+02  0.41800000000E+01 0. -1.
         -5    1    3    3    0  502 -0.42612181431E+02  0.52148177828E+02 -0.80943713451E+01  0.67957499252E+02  0.41800000000E+01 0. -1.
        -11    1    1    2    0    0  0.38622650390E+02 -0.13208020760E+02  0.33722410756E+02  0.52946783875E+02  0.00000000000E+00 0.  1.
         11    1    1    2    0    0 -0.30773493658E+02  0.12685561452E+01 -0.24762776125E+02  0.39519770090E+02  0.00000000000E+00 0. -1.
</event>
<event>
 7    1  0.2499014E-009  0.9871667E+02  0.7561462E-02  0.1283018E+00
         -2   -1    0    0    0  501 -0.00000000000E+00  0.00000000000E+00  0.21312257964E+02  0.21312257964E+02  0.00000000000E+00 0. -1.
          2   -1    0    0  501    0  0.00000000000E+00 -0.00000000000E+00 -0.74254529739E+03  0.74254529739E+03  0.00000000000E+00 0.  1.
         25    2    1    2    0    0  0.59239905213E+01  0.23432764496E+02 -0.57982432192E+03  0.59365573259E+03  0.12508675565E+03 0.  0.
          5    1    3    3  502    0  0.62145920956E+02  0.40138505892E+01 -0.21083936412E+03  0.21988391562E+03  0.41800000000E+01 0.  1.
         -5    1    3    3    0  502 -0.56221930435E+02  0.19418913906E+02 -0.36898495780E+03  0.37377181697E+03  0.41800000000E+01 0.  1.
        -11    1    1    2    0    0  0.29514309798E+02  0.50260494524E+01 -0.10662982315E+02  0.31781360068E+02  0.00000000000E+00 0. -1.
         11    1    1    2    0    0 -0.35438300319E+02 -0.28458813948E+02 -0.13074573519E+03  0.13842046269E+03  0.00000000000E+00 0.  1.
</event>
<event>
 7    1  0.2499014E-009  0.1349470E+03  0.7561462E-02  0.1220294E+00
          2   -1    0    0  501    0  0.00000000000E+00  0.00000000000E+00  0.75071316327E+02  0.75071316327E+02  0.00000000000E+00 0.  1.
         -2   -1    0    0    0  501 -0.00000000000E+00 -0.00000000000E+00 -0.28321293654E+03  0.28321293654E+03  0.00000000000E+00 0. -1.
         25    2    1    2    0    0  0.95081667616E+02 -0.19450473079E+02 -0.10768959579E+03  0.19148145589E+03  0.12509698034E+03 0.  0.
          5    1    3    3  502    0  0.27950759342E+02  0.52058621656E+02 -0.30676782504E+02  0.66707439025E+02  0.41800000000E+01 0. -1.
         -5    1    3    3    0  502  0.67130908273E+02 -0.71509094734E+02 -0.77012813287E+02  0.12477401687E+03  0.41800000000E+01 0. -1.
        -11    1    1    2    0    0 -0.28836903900E+02 -0.20269030164E+02  0.55113405136E+01  0.35675979098E+02  0.00000000000E+00 0.  1.
         11    1    1    2    0    0 -0.66244763716E+02  0.39719503243E+02 -0.10596336493E+03  0.13112681787E+03  0.00000000000E+00 0. -1.
</event>
<event>
 7    1  0.2499014E-009  0.1754283E+03  0.7561462E-02  0.1172302E+00
          2   -1    0    0  501    0  0.00000000000E+00  0.00000000000E+00  0.25342450353E+02  0.25342450353E+02  0.00000000000E+00 0. -1.
         -2   -1    0    0    0  501 -0.00000000000E+00 -0.00000000000E+00 -0.12739075997E+04  0.12739075997E+04  0.00000000000E+00 0.  1.
         25    2    1    2    0    0 -0.73493621353E+02  0.11840471831E+03 -0.78197577452E+03  0.80408647639E+03  0.12509180579E+03 0.  0.
          5    1    3    3  502    0 -0.10543664923E+03  0.11054729713E+03 -0.67526481581E+03  0.69234213780E+03  0.41800000000E+01 0. -1.
         -5    1    3    3    0  502  0.31943027877E+02  0.78574211875E+01 -0.10671095871E+03  0.11174433859E+03  0.41800000000E+01 0. -1.
        -11    1    1    2    0    0 -0.20598972934E+02 -0.22979739104E+02 -0.68731909666E+02  0.75342295569E+02  0.00000000000E+00 0.  1.
         11    1    1    2    0    0  0.94092594287E+02 -0.95424979209E+02 -0.39785746513E+03  0.41982127806E+03  0.00000000000E+00 0. -1.
</event>
<event>
 7    1  0.2499014E-009  0.9710906E+02  0.7561462E-02  0.1286495E+00
          1   -1    0    0  501    0  0.00000000000E+00  0.00000000000E+00  0.31571475573E+03  0.31571475573E+03  0.00000000000E+00 0. -1.
         -1   -1    0    0    0  501 -0.00000000000E+00 -0.00000000000E+00 -0.60557472126E+02  0.60557472126E+02  0.00000000000E+00 0.  1.
         25    2    1    2    0    0  0.74926342021E+02  0.40936749607E+02  0.12983610512E+03  0.19948355617E+03  0.12508597360E+03 0.  0.
          5    1    3    3  502    0  0.55366909498E+01  0.29626435661E+01  0.11934196919E+03  0.11958014138E+03  0.41800000000E+01 0. -1.
         -5    1    3    3    0  502  0.69389651071E+02  0.37974106041E+02  0.10494135935E+02  0.79903414785E+02  0.41800000000E+01 0. -1.
        -11    1    1    2    0    0 -0.37889196352E+02 -0.55889185820E+02  0.30878783590E+02  0.74247502098E+02  0.00000000000E+00 0.  1.
         11    1    1    2    0    0 -0.37037145669E+02  0.14952436213E+02  0.94442394893E+02  0.10254116959E+03  0.00000000000E+00 0. -1.
</event>
<event>
 7    1  0.2499014E-009  0.1376483E+03  0.7561462E-02  0.1216529E+00
          2   -1    0    0  501    0  0.00000000000E+00  0.00000000000E+00  0.51303588319E+03  0.51303588319E+03  0.00000000000E+00 0. -1.
         -2   -1    0    0    0  501 -0.00000000000E+00 -0.00000000000E+00 -0.44656371673E+02  0.44656371673E+02  0.00000000000E+00 0.  1.
         25    2    1    2    0    0 -0.79973954350E+02 -0.60095381356E+02  0.31943236856E+03  0.35733967160E+03  0.12508922649E+03 0.  0.
          5    1    3    3  502    0 -0.91937010034E+01 -0.72125373970E+02  0.23703781600E+03  0.24797377346E+03  0.41800000000E+01 0. -1.
         -5    1    3    3    0  502 -0.70780253346E+02  0.12029992614E+02  0.82394552556E+02  0.10936589814E+03  0.41800000000E+01 0. -1.
        -11    1    1    2    0    0  0.94133099772E+01 -0.21025249918E+02  0.11202444865E+02  0.25615743397E+02  0.00000000000E+00 0.  1.
         11    1    1    2    0    0  0.70560644373E+02  0.81120631274E+02  0.13774469810E+03  0.17473683987E+03  0.00000000000E+00 0. -1.
</event>
<event>
 7    1  0.2499014E-009  0.9306779E+02  0.7561462E-02  0.1295588E+00
          1   -1    0    0  501    0  0.00000000000E+00  0.00000000000E+00  0.63191365845E+03  0.63191365845E+03  0.00000000000E+00 0. -1.
         -1   -1    0    0    0  501 -0.00000000000E+00 -0.00000000000E+00 -0.23477771984E+02  0.23477771984E+02  0.00000000000E+00 0.  1.
         25    2    1    2    0    0 -0.46388151971E+02 -0.31260787516E+02  0.33390353582E+03  0.36092670665E+03  0.12508964330E+03 0.  0.
          5    1    3    3  502    0 -0.93819363440E+01 -0.40267997098E+02  0.31584821290E+03  0.31857039773E+03  0.41800000000E+01 0. -1.
         -5    1    3    3    0  502 -0.37006215627E+02  0.90072095818E+01  0.18055322926E+02  0.42356308922E+02  0.41800000000E+01 0. -1.
        -11    1    1    2    0    0 -0.25245661676E+02 -0.53643558946E+01  0.75347268724E+02  0.79645029047E+02  0.00000000000E+00 0.  1.
         11    1    1    2    0    0  0.71633813648E+02  0.36625143411E+02  0.19918508192E+03  0.21481969474E+03  0.00000000000E+00 0. -1.
</event>
<event>
 7    1  0.2499014E-009  0.1145962E+03  0.7561462E-02  0.1252288E+00
          2   -1    0    0  501    0  0.00000000000E+00  0.00000000000E+00  0.23403143132E+03  0.23403143132E+03  0.00000000000E+00 0. -1.
         -2   -1    0    0    0  501 -0.00000000000E+00 -0.00000000000E+00 -0.69877688801E+02  0.69877688801E+02  0.00000000000E+00 0.  1.
         25    2    1    2    0    0 -0.63350353269E+02 -0.20944762976E+02  0.11446868000E+03  0.18222763957E+03  0.12510748805E+03 0.  0.
          5    1    3    3  502    0 -0.61154279750E+02  0.29102902740E+02  0.11315482559E+03  0.13194056174E+03  0.41800000000E+01 0.  1.
         -5    1    3    3    0  502 -0.21960735187E+01 -0.50047665715E+02  0.13138544116E+01  0.50287077822E+02  0.41800000000E+01 0.  1.
        -11    1    1    2    0    0  0.31028005772E+02 -0.34803712532E+02  0.21584525376E+02  0.51380222693E+02  0.00000000000E+00 0. -1.
         11    1    1    2    0    0  0.32322347496E+02  0.55748475508E+02  0.28100537141E+02  0.70301257860E+02  0.00000000000E+00 0.  1.
</event>
<event>
 7    1  0.2499014E-009  0.1124599E+03  0.7561462E-02  0.1256081E+00
          1   -1    0    0  501    0  0.00000000000E+00  0.00000000000E+00  0.82494616917E+03  0.82494616917E+03  0.00000000000E+00 0. -1.
         -1   -1    0    0    0  501 -0.00000000000E+00 -0.00000000000E+00 -0.16156354561E+02  0.16156354561E+02  0.00000000000E+00 0.  1.
         25    2    1    2    0    0  0.20146747038E+02 -0.36445875988E+02  0.48686968900E+03  0.50440384426E+03  0.12508777216E+03 0.  0.
          5    1    3    3  502    0  0.33104010612E+02 -0.76767340451E+02  0.24726414951E+03  0.26104814137E+03  0.41800000000E+01 0.  1.
         -5    1    3    3    0  502 -0.12957263574E+02  0.40321464464E+02  0.23960553949E+03  0.24335570290E+03  0.41800000000E+01 0.  1.
        -11    1    1    2    0    0  0.35474891335E+02  0.19653709783E+02  0.13137128581E+03  0.13748873030E+03  0.00000000000E+00 0.  1.
         11    1    1    2    0    0 -0.55621638373E+02  0.16792166205E+02  0.19054883980E+03  0.19920994917E+03  0.00000000000E+00 0. -1.
</event>
<event>
 7    1  0.2499014E-009  0.1209228E+03  0.7561462E-02  0.1241582E+00
          3   -1    0    0  501    0  0.00000000000E+00  0.00000000000E+00  0.68391108324E+03  0.68391108324E+03  0.00000000000E+00 0. -1.
         -3   -1    0    0    0  501 -0.00000000000E+00 -0.00000000000E+00 -0.31314300987E+02  0.31314300987E+02  0.00000000000E+00 0.  1.
         25    2    1    2    0    0 -0.45250623820E+02  0.61042199604E+02  0.49533150149E+03  0.51650183928E+03  0.12508830688E+03 0.  0.
          5    1    3    3  502    0 -0.76300267164E+02  0.78245443067E+01  0.35447898141E+03  0.36270618264E+03  0.41800000000E+01 0.  1.
         -5    1    3    3    0  502  0.31049643345E+02  0.53217655297E+02  0.14085252008E+03  0.15379565664E+03  0.41800000000E+01 0.  1.
        -11    1    1    2    0    0  0.64177468302E+02 -0.50073952818E+02  0.15699868157E+03  0.17684664035E+03  0.00000000000E+00 0.  1.
         11    1    1    2    0    0 -0.18926844482E+02 -0.10968246786E+02  0.26659918615E+00  0.21876904596E+02  0.00000000000E+00 0. -1.
</event>
<event>
 7    1  0.2499014E-009  0.6511276E+02  0.7561462E-02  0.1377548E+00
         -2   -1    0    0    0  501 -0.00000000000E+00  0.00000000000E+00  0.10178881589E+03  0.10178881589E+03  0.00000000000E+00 0.  1.
          2   -1    0    0  501    0  0.00000000000E+00 -0.00000000000E+00 -0.13451828317E+03  0.13451828317E+03  0.00000000000E+00 0. -1.
         25    2    1    2    0    0 -0.31492474719E+02  0.34819606006E+02 -0.10788912949E+02  0.13405463644E+03  0.12510021575E+03 0.  0.
          5    1    3    3  502    0  0.59084289188E+01  0.25960366843E+02 -0.63327465871E+02  0.68823618857E+02  0.41800000000E+01 0.  1.
         -5    1    3    3    0  502 -0.37400903638E+02  0.88592391631E+01  0.52538552922E+02  0.65231017581E+02  0.41800000000E+01 0.  1.
        -11    1    1    2    0    0  0.50103842357E+01 -0.37648030472E+02  0.26955734915E+02  0.46573488096E+02  0.00000000000E+00 0.  1.
         11    1    1    2    0    0  0.26482090483E+02  0.28284244654E+01 -0.48896289249E+02  0.55678974521E+02  0.00000000000E+00 0. -1.
</event>
<event>
 7    1  0.2499014E-009  0.1255159E+03  0.7561462E-02  0.1234265E+00
         -2   -1    0    0    0  501 -0.00000000000E+00  0.00000000000E+00  0.27041872115E+02  0.27041872115E+02  0.00000000000E+00 0.  1.
          2   -1    0    0  501    0  0.00000000000E+00 -0.00000000000E+00 -0.98651105259E+03  0.98651105259E+03  0.00000000000E+00 0. -1.
         25    2    1    2    0    0 -0.14043097848E+02  0.11667068621E+03 -0.42085354567E+03  0.45450389376E+03  0.12508726922E+03 0.  0.
          5    1    3    3  502    0  0.21751945464E+02  0.45406326791E+02 -0.32871252791E+03  0.33257221780E+03  0.41800000000E+01 0.  1.
         -5    1    3    3    0  502 -0.35795043312E+02  0.71264359420E+02 -0.92141017756E+02  0.12193167596E+03  0.41800000000E+01 0.  1.
        -11    1    1    2    0    0  0.22130744997E+02 -0.94383084431E+02 -0.51984961748E+03  0.52881146101E+03  0.00000000000E+00 0. -1.
         11    1    1    2    0    0 -0.80876471493E+01 -0.22287601780E+02 -0.18766017330E+02  0.30237569941E+02  0.00000000000E+00 0.  1.
</event>
<event>
 7    1  0.2499014E-009  0.1143878E+03  0.7561462E-02  0.1252654E+00
         -2   -1    0    0    0  501 -0.00000000000E+00  0.00000000000E+00  0.63991766781E+02  0.63991766781E+02  0.00000000000E+00 0.  1.
          2   -1    0    0  501    0  0.00000000000E+00 -0.00000000000E+00 -0.30042888612E+03  0.30042888612E+03  0.00000000000E+00 0. -1.
         25    2    1    2    0    0 -0.57922095737E+02 -0.53088413181E+02 -0.17740966963E+03  0.23085614640E+03  0.12508805164E+03 0.  0.
          5    1    3    3  502    0  0.36258786425E+02 -0.35097595123E+02 -0.48263246891E+02  0.69952513728E+02  0.41800000000E+01 0.  1.
         -5    1    3    3    0  502 -0.94180882162E+02 -0.17990818057E+02 -0.12914642274E+03  0.16090363267E+03  0.41800000000E+01 0.  1.
        -11    1    1    2    0    0  0.39985535405E+02  0.20424445820E+02  0.17702947349E+02  0.48263810184E+02  0.00000000000E+00 0.  1.
         11    1    1    2    0    0  0.17936560332E+02  0.32663967361E+02 -0.76730397059E+02  0.85300696323E+02  0.00000000000E+00 0. -1.
</event>
<event>
 7    1  0.2499014E-009  0.9793081E+02  0.7561462E-02  0.1284708E+00
          2   -1    0    0  501    0  0.00000000000E+00  0.00000000000E+00  0.35590426713E+03  0.35590426713E+03  0.00000000000E+00 0. -1.
         -2   -1    0    0    0  501 -0.00000000000E+00 -0.00000000000E+00 -0.41246494974E+02  0.41246494974E+02  0.00000000000E+00 0.  1.
         25    2    1    2    0    0  0.21140079618E+02  0.35777137389E+02  0.11794163419E+03  0.17687625713E+03  0.12509226488E+03 0.  0.
          5    1    3    3  502    0 -0.30794597868E+02 -0.32448726332E+02  0.51343761507E+02  0.68226690848E+02  0.41800000000E+01 0. -1.
         -5    1    3    3    0  502  0.51934677486E+02  0.68225863722E+02  0.66597872687E+02  0.10864956628E+03  0.41800000000E+01 0. -1.
        -11    1    1    2    0    0 -0.10114304278E+02 -0.47750260897E+02  0.19801911714E+03  0.20394596667E+03  0.00000000000E+00 0. -1.
         11    1    1    2    0    0 -0.11025775341E+02  0.11973123508E+02 -0.13029791825E+01  0.16328538304E+02  0.00000000000E+00 0.  1.
</event>
<event>
 7    1  0.2499014E-009  0.9306860E+02  0.7561462E-02  0.1295586E+00
          2   -1    0    0  501    0  0.00000000000E+00  0.00000000000E+00  0.83661767636E+03  0.83661767636E+03  0.00000000000E+00 0. -1.
         -2   -1    0    0    0  501 -0.00000000000E+00 -0.00000000000E+00 -0.25138853791E+02  0.25138853791E+02  0.00000000000E+00 0.  1.
         25    2    1    2    0    0  0.39252325606E+02 -0.63678328611E+02  0.62734454289E+03  0.64405259695E+03  0.12508755952E+03 0.  0.
          5    1    3    3  502    0  0.49848383531E+02 -0.39255515642E+01  0.88092838640E+02  0.10138092481E+03  0.41800000000E+01 0.  1.
         -5    1    3    3    0  502 -0.10596057925E+02 -0.59752777047E+02  0.53925170425E+03  0.54267167214E+03  0.41800000000E+01 0.  1.
        -11    1    1    2    0    0 -0.31224977101E+02  0.55441161848E+02  0.19297657517E+03  0.20319616184E+03  0.00000000000E+00 0. -1.
         11    1    1    2    0    0 -0.80273485049E+01  0.82371667626E+01 -0.88422954909E+01  0.14507771360E+02  0.00000000000E+00 0.  1.
</event>
<event>
 7    1  0.2511082E-009  0.8885849E+02  0.7561462E-02  0.1305640E+00
         -3   -1    0    0    0  501 -0.00000000000E+00  0.00000000000E+00  0.91741970082E+02  0.91741970082E+02  0.00000000000E+00 0.  1.
          3   -1    0    0  501    0  0.00000000000E+00 -0.00000000000E+00 -0.14881350535E+03  0.14881350535E+03  0.00000000000E+00 0. -1.
         25    2    1    2    0    0 -0.32108864042E+00  0.42770606661E+02 -0.31334834468E+02  0.13586322113E+03  0.12509002803E+03 0.  0.
          5    1    3    3  502    0  0.27843908957E+02 -0.28094784094E+02  0.19320423560E+02  0.44219354652E+02  0.41800000000E+01 0. -1.
         -5    1    3    3    0  502 -0.28164997597E+02  0.70865390755E+02 -0.50655258028E+02  0.91643866474E+02  0.41800000000E+01 0. -1.
        -11    1    1    2    0    0  0.10070411811E+02 -0.48984369025E+02  0.22682134280E+02  0.54912301157E+02  0.00000000000E+00 0.  1.
         11    1    1    2    0    0 -0.97493231702E+01  0.62137623638E+01 -0.48418835076E+02  0.49779953145E+02  0.00000000000E+00 0. -1.
</event>
<event>
 7    1  0.2499014E-009  0.1035412E+03  0.7561462E-02  0.1273021E+00
          2   -1    0    0  501    0  0.00000000000E+00  0.00000000000E+00  0.34964958117E+03  0.34964958117E+03  0.00000000000E+00 0. -1.
         -2   -1    0    0    0  501 -0.00000000000E+00 -0.00000000000E+00 -0.65421189850E+02  0.65421189850E+02  0.00000000000E+00 0.  1.
         25    2    1    2    0    0 -0.44995078909E+02  0.34068522372E+02  0.43315766106E+02  0.14391291769E+03  0.12509776553E+03 0.  0.
          5    1    3    3  502    0 -0.61553871397E+02  0.26005105590E+02  0.78990375072E+02  0.10354755601E+03  0.41800000000E+01 0. -1.
         -5    1    3    3    0  502  0.16558792488E+02  0.80634167818E+01 -0.35674608966E+02  0.40365361682E+02  0.41800000000E+01 0. -1.
        -11    1    1    2    0    0  0.71388914943E+02  0.77336701652E+01  0.17162565407E+03  0.18604180166E+03  0.00000000000E+00 0. -1.
         11    1    1    2    0    0 -0.26393836034E+02 -0.41802192537E+02  0.69286971146E+02  0.85116051671E+02  0.00000000000E+00 0.  1.
</event>
<event>
 7    1  0.2499014E-009  0.1403542E+03  0.7561462E-02  0.1212853E+00
         -4   -1    0    0    0  501 -0.00000000000E+00  0.00000000000E+00  0.10431489557E+03  0.10431489557E+03  0.00000000000E+00 0.  1.
          4   -1    0    0  501    0  0.00000000000E+00 -0.00000000000E+00 -0.21878101976E+03  0.21878101976E+03  0.00000000000E+00 0. -1.
         25    2    1    2    0    0 -0.41752287378E+02 -0.90669133512E+02 -0.49370424422E+02  0.16747945888E+03  0.12509110707E+03 0.  0.
          5    1    3    3  502    0 -0.23953003446E+02  0.20129920557E+02  0.18183396187E+02  0.36428949650E+02  0.41800000000E+01 0. -1.
         -5    1    3    3    0  502 -0.17799283932E+02 -0.11079905407E+03 -0.67553820609E+02  0.13105050923E+03  0.41800000000E+01 0. -1.
        -11    1    1    2    0    0 -0.12086792484E+02 -0.14390532149E+02 -0.24290178932E+02  0.30711410919E+02  0.00000000000E+00 0. -1.
         11    1    1    2    0    0  0.53839079862E+02  0.10505966566E+03 -0.40805520831E+02  0.12490504553E+03  0.00000000000E+00 0.  1.
</event>
<event>
 7    1  0.2499014E-009  0.8712162E+02  0.7561462E-02  0.1309976E+00
         -2   -1    0    0    0  501 -0.00000000000E+00  0.00000000000E+00  0.39806098956E+02  0.39806098956E+02  0.00000000000E+00 0.  1.
          2   -1    0    0  501    0  0.00000000000E+00 -0.00000000000E+00 -0.29983098475E+03  0.29983098475E+03  0.00000000000E+00 0. -1.
         25    2    1    2    0    0  0.42741504091E+00  0.72569924662E+00 -0.13157115017E+03  0.18154620405E+03  0.12508935736E+03 0.  0.
          5    1    3    3  502    0  0.56942518872E+02 -0.13635353039E+02 -0.34098736385E+02  0.67886445856E+02  0.41800000000E+01 0. -1.
         -5    1    3    3    0  502 -0.56515103831E+02  0.14361052285E+02 -0.97472413783E+02  0.11365975819E+03  0.41800000000E+01 0. -1.
        -11    1    1    2    0    0  0.26623165541E+02 -0.10067149386E+02 -0.12621584885E+03  0.12938539694E+03  0.00000000000E+00 0. -1.
         11    1    1    2    0    0 -0.27050580582E+02  0.93414501394E+01 -0.22378867712E+01  0.28705482712E+02  0.00000000000E+00 0.  1.
</event>
<event>
 7    1  0.2499014E-009  0.1039136E+03  0.7561462E-02  0.1272275E+00
          2   -1    0    0  501    0  0.00000000000E+00  0.00000000000E+00  0.39705806082E+02  0.39705806082E+02  0.00000000000E+00 0. -1.
         -2   -1    0    0    0  501 -0.00000000000E+00 -0.00000000000E+00 -0.40504879341E+03  0.40504879341E+03  0.00000000000E+00 0.  1.
         25    2    1    2    0    0  0.51281959934E+02 -0.22250072466E+02 -0.15198122055E+03  0.20462430771E+03  0.12509160951E+03 0.  0.
          5    1    3    3  502    0 -0.18925694592E+02 -0.19164770815E+02 -0.12704932344E+03  0.12994026836E+03  0.41800000000E+01 0. -1.
         -5    1    3    3    0  502  0.70207654525E+02 -0.30853016511E+01 -0.24931897106E+02  0.74684039350E+02  0.41800000000E+01 0. -1.
        -11    1    1    2    0    0  0.66001663424E+01 -0.30894350671E+02 -0.62495220658E+02  0.70026250109E+02  0.00000000000E+00 0.  1.
         11    1    1    2    0    0 -0.57882126276E+02  0.53144423138E+02 -0.15086654612E+03  0.17010404167E+03  0.00000000000E+00 0. -1.
</event>
<event>
 7    1  0.2499014E-009  0.1485172E+03  0.7561462E-02  0.1202307E+00
         -1   -1    0    0    0  501 -0.00000000000E+00  0.00000000000E+00  0.48737721521E+03  0.48737721521E+03  0.00000000000E+00 0.  1.
          1   -1    0    0  501    0  0.00000000000E+00 -0.00000000000E+00 -0.59540021384E+02  0.59540021384E+02  0.00000000000E+00 0. -1.
         25    2    1    2    0    0  0.13089438825E+03  0.43649304553E+01  0.21045542536E+03  0.27765371371E+03  0.12509078777E+03 0.  0.
          5    1    3    3  502    0  0.23130716313E+02  0.19503560598E+02  0.15003713656E+03  0.15311444628E+03  0.41800000000E+01 0. -1.
         -5    1    3    3    0  502  0.10776367193E+03 -0.15138630143E+02  0.60418288798E+02  0.12453926743E+03  0.41800000000E+01 0. -1.
        -11    1    1    2    0    0  0.12837049775E+02  0.44526860133E+01  0.10371094969E+02  0.17093152737E+02  0.00000000000E+00 0.  1.
         11    1    1    2    0    0 -0.14373143802E+03 -0.88176164686E+01  0.20701067350E+03  0.25217037014E+03  0.00000000000E+00 0. -1.
</event>
<event>
 7    1  0.2499014E-009  0.1285235E+03  0.7561462E-02  0.1229663E+00
          2   -1    0    0  501    0  0.00000000000E+00  0.00000000000E+00  0.27102683876E+03  0.27102683876E+03  0.00000000000E+00 0.  1.
         -2   -1    0    0    0  501 -0.00000000000E+00 -0.00000000000E+00 -0.63343042036E+02  0.63343042036E+02  0.00000000000E+00 0. -1.
         25    2    1    2    0    0  0.49902022748E+02  0.52861154633E+02  0.10165138108E+03  0.17681893287E+03  0.12508964067E+03 0.  0.
          5    1    3    3  502    0  0.78858627897E+02  0.71060205965E+02  0.93247856094E+02  0.14135370930E+03  0.41800000000E+01 0. -1.
         -5    1    3    3    0  502 -0.28956605149E+02 -0.18199051332E+02  0.84035249844E+01  0.35465223576E+02  0.41800000000E+01 0. -1.
        -11    1    1    2    0    0 -0.41031663041E+02 -0.78855158348E+02  0.77271280246E+02  0.11778193461E+03  0.00000000000E+00 0.  1.
         11    1    1    2    0    0 -0.88703597062E+01  0.25994003715E+02  0.28761135403E+02  0.39769013316E+02  0.00000000000E+00 0. -1.
</event>
<event>
 7    1  0.2499014E-009  0.8085815E+02  0.7561462E-02  0.1326634E+00
          3   -1    0    0  501    0  0.00000000000E+00  0.00000000000E+00  0.10939713699E+03  0.10939713699E+03  0.00000000000E+00 0. -1.
         -3   -1    0    0    0  501 -0.00000000000E+00 -0.00000000000E+00 -0.11011832163E+03  0.11011832163E+03  0.00000000000E+00 0.  1.
         25    2    1    2    0    0  0.12542489766E+02 -0.16030629482E+02  0.76150676135E+01  0.12696116715E+03  0.12508738377E+03 0.  0.
          5    1    3    3  502    0 -0.30673886526E+02 -0.36508781282E+02 -0.37712155716E+02  0.60938144984E+02  0.41800000000E+01 0.  1.
         -5    1    3    3    0  502  0.43216376292E+02  0.20478151800E+02  0.45327223330E+02  0.66023022165E+02  0.41800000000E+01 0.  1.
        -11    1    1    2    0    0  0.12963128516E+02  0.32834462922E+02  0.28020891456E+02  0.45070112206E+02  0.00000000000E+00 0. -1.
         11    1    1    2    0    0 -0.25505618282E+02 -0.16803833440E+02 -0.36357143712E+02  0.47484179272E+02  0.00000000000E+00 0.  1.
</event>
<event>
 7    1  0.2499014E-009  0.1332169E+03  0.7561462E-02  0.1222759E+00
         -1   -1    0    0    0  501 -0.00000000000E+00  0.00000000000E+00  0.23885193974E+03  0.23885193974E+03  0.00000000000E+00 0.  1.
          1   -1    0    0  501    0  0.00000000000E+00 -0.00000000000E+00 -0.11668771959E+03  0.11668771959E+03  0.00000000000E+00 0. -1.
         25    2    1    2    0    0 -0.11060450661E+03  0.87947864177E+01  0.13074056741E+03  0.21225199872E+03  0.12508840810E+03 0.  0.
          5    1    3    3  502    0 -0.12524582543E+03 -0.15595630988E+02  0.68438525696E+02  0.14363510954E+03  0.41800000000E+01 0.  1.
         -5    1    3    3    0  502  0.14641318822E+02  0.24390417406E+02  0.62302041716E+02  0.68616889175E+02  0.41800000000E+01 0.  1.
        -11    1    1    2    0    0  0.50158357072E+02  0.97543777932E+00  0.40771901856E+02  0.64646424835E+02  0.00000000000E+00 0.  1.
         11    1    1    2    0    0  0.60446149535E+02 -0.97702241970E+01 -0.49348249118E+02  0.78641235783E+02  0.00000000000E+00 0. -1.
</event>
<event>
 7    1  0.2499014E-009  0.1676819E+03  0.7561462E-02  0.1180287E+00
          1   -1    0    0  501    0  0.00000000000E+00  0.00000000000E+00  0.55779157290E+03  0.55779157290E+03  0.00000000000E+00 0. -1.
         -1   -1    0    0    0  501 -0.00000000000E+00 -0.00000000000E+00 -0.54721264643E+02  0.54721264643E+02  0.00000000000E+00 0.  1.
         25    2    1    2    0    0 -0.85767923002E+02 -0.99308138059E+02  0.33382722102E+03  0.37987640206E+03  0.12508886619E+03 0.  0.
          5    1    3    3  502    0 -0.64796748281E+02  0.11866187693E+02  0.96317739544E+02  0.11676473932E+03  0.41800000000E+01 0. -1.
         -5    1    3    3    0  502 -0.20971174721E+02 -0.11117432575E+03  0.23750948148E+03  0.26311166273E+03  0.41800000000E+01 0. -1.
        -11    1    1    2    0    0  0.10114593460E+03  0.97795332195E+02  0.13462515753E+03  0.19472637244E+03  0.00000000000E+00 0.  1.
         11    1    1    2    0    0 -0.15378011602E+02  0.15128058642E+01  0.34617929708E+02  0.37910063040E+02  0.00000000000E+00 0. -1.
</event>
<event>
 7    1  0.2499014E-009  0.2441881E+03  0.7561462E-02  0.1117034E+00
         -2   -1    0    0    0  501 -0.00000000000E+00  0.00000000000E+00  0.25539127436E+03  0.25539127436E+03  0.00000000000E+00 0.  1.
          2   -1    0    0  501    0  0.00000000000E+00 -0.00000000000E+00 -0.25550296181E+03  0.25550296181E+03  0.00000000000E+00 0. -1.
         25    2    1    2    0    0  0.95134982493E+02  0.20575845483E+03  0.43067342793E+02  0.26246758702E+03  0.12508889477E+03 0.  0.
          5    1    3    3  502    0  0.91119714770E+02  0.21708953869E+03  0.20253559463E+02  0.23634371009E+03  0.41800000000E+01 0.  1.
         -5    1    3    3    0  502  0.40152677230E+01 -0.11331083858E+02  0.22813783330E+02  0.26123876935E+02  0.41800000000E+01 0.  1.
        -11    1    1    2    0    0  0.12615812438E+02 -0.44316762560E+02 -0.27586631433E+02  0.53704342479E+02  0.00000000000E+00 0.  1.
         11    1    1    2    0    0 -0.10775079493E+03 -0.16144169227E+03 -0.15592398812E+02  0.19472230666E+03  0.00000000000E+00 0. -1.
</event>
<event>
 7    1  0.2499014E-009  0.1559488E+03  0.7561462E-02  0.1193348E+00
         -2   -1    0    0    0  501 -0.00000000000E+00  0.00000000000E+00  0.11991868302E+03  0.11991868302E+03  0.00000000000E+00 0.  1.
          2   -1    0    0  501    0  0.00000000000E+00 -0.00000000000E+00 -0.38479907727E+03  0.38479907727E+03  0.00000000000E+00 0. -1.
         25    2    1    2    0    0  0.53957801037E+02 -0.11585738629E+03 -0.29453744968E+03  0.34458349900E+03  0.12510435751E+03 0.  0.
          5    1    3    3  502    0 -0.40201280207E+02 -0.46567499835E+02 -0.10956362020E+03  0.12572324464E+03  0.41800000000E+01 0.  1.
         -5    1    3    3    0  502  0.94159081245E+02 -0.69289886458E+02 -0.18497382948E+03  0.21886025436E+03  0.41800000000E+01 0.  1.
        -11    1    1    2    0    0  0.74463463338E+00  0.38519412152E+02  0.50124212813E+02  0.63219746151E+02  0.00000000000E+00 0.  1.
         11    1    1    2    0    0 -0.54702435671E+02  0.77337974142E+02 -0.20467157387E+02  0.96914515137E+02  0.00000000000E+00 0. -1.
</event>
<event>
 7    1  0.2499014E-009  0.1285456E+03  0.7561462E-02  0.1229630E+00
         -4   -1    0    0    0  501 -0.00000000000E+00  0.00000000000E+00  0.17379349928E+03  0.17379349928E+03  0.00000000000E+00 0.  1.
          4   -1    0    0  501    0  0.00000000000E+00 -0.00000000000E+00 -0.11688755799E+03  0.11688755799E+03  0.00000000000E+00 0. -1.
         25    2    1    2    0    0 -0.55993432640E+02  0.55334292930E+02 -0.18247903484E+02  0.14892054292E+03  0.12508874309E+03 0.  0.
          5    1    3    3  502    0  0.27954611558E+02 -0.19094321176E+02  0.43898187331E+01  0.34391805958E+02  0.41800000000E+01 0. -1.
         -5    1    3    3    0  502 -0.83948044199E+02  0.74428614106E+02 -0.22637722217E+02  0.11452873696E+03  0.41800000000E+01 0. -1.
        -11    1    1    2    0    0  0.81566959169E+00 -0.55527410736E+02  0.10077754685E+02  0.56440409278E+02  0.00000000000E+00 0. -1.
         11    1    1    2    0    0  0.55177763048E+02  0.19311780620E+00  0.65076090084E+02  0.85320105076E+02  0.00000000000E+00 0.  1.
</event>
<event>
 7    1  0.2499014E-009  0.1052121E+03  0.7561462E-02  0.1269702E+00
          3   -1    0    0  501    0  0.00000000000E+00  0.00000000000E+00  0.11255098251E+03  0.11255098251E+03  0.00000000000E+00 0. -1.
         -3   -1    0    0    0  501 -0.00000000000E+00 -0.00000000000E+00 -0.23157978744E+03  0.23157978744E+03  0.00000000000E+00 0.  1.
         25    2    1    2    0    0  0.25952123739E+02  0.76359908997E+02 -0.15656793781E+03  0.21602846623E+03  0.12510168121E+03 0.  0.
          5    1    3    3  502    0 -0.37751136564E+02  0.38154358033E+02 -0.14654701077E+02  0.55795483800E+02  0.41800000000E+01 0.  1.
         -5    1    3    3    0  502  0.63703260304E+02  0.38205550964E+02 -0.14191323673E+03  0.16023298243E+03  0.41800000000E+01 0.  1.
        -11    1    1    2    0    0 -0.73421280942E+01 -0.45973608680E+02 -0.27406481808E+02  0.54024020446E+02  0.00000000000E+00 0.  1.
         11    1    1    2    0    0 -0.18609995645E+02 -0.30386300316E+02  0.64945614695E+02  0.74078283275E+02  0.00000000000E+00 0. -1.
</event>
<event>
 7    1  0.2499014E-009  0.1286220E+03  0.7561462E-02  0.1229515E+00
          2   -1    0    0  501    0  0.00000000000E+00  0.00000000000E+00  0.32478100123E+03  0.32478100123E+03  0.00000000000E+00 0. -1.
         -2   -1    0    0    0  501 -0.00000000000E+00 -0.00000000000E+00 -0.51839349539E+02  0.51839349539E+02  0.00000000000E+00 0.  1.
         25    2    1    2    0    0 -0.38577401136E+02  0.58666710863E+02  0.12758401943E+03  0.19197648310E+03  0.12508912505E+03 0.  0.
          5    1    3    3  502    0 -0.18441095919E+02 -0.39123474937E+02  0.36027714985E+02  0.56446336966E+02  0.41800000000E+01 0. -1.
         -5    1    3    3    0  502 -0.20136305217E+02  0.97790185800E+02  0.91556304448E+02  0.13553014613E+03  0.41800000000E+01 0. -1.
        -11    1    1    2    0    0 -0.56101422339E+01 -0.68387438887E+02  0.87321612712E+02  0.11105574969E+03  0.00000000000E+00 0. -1.
         11    1    1    2    0    0  0.44187543370E+02  0.97207280246E+01  0.58036019547E+02  0.73588117976E+02  0.00000000000E+00 0.  1.
</event>
<event>
 7    1  0.2499014E-009  0.1396478E+03  0.7561462E-02  0.1213804E+00
         -1   -1    0    0    0  501 -0.00000000000E+00  0.00000000000E+00  0.38715949963E+03  0.38715949963E+03  0.00000000000E+00 0.  1.
          1   -1    0    0  501    0  0.00000000000E+00 -0.00000000000E+00 -0.51315888476E+02  0.51315888476E+02  0.00000000000E+00 0. -1.
         25    2    1    2    0    0 -0.35004911133E+02  0.81293685941E+02  0.15783168051E+03  0.21998094843E+03  0.12508705417E+03 0.  0.
          5    1    3    3  502    0 -0.72156166756E+02  0.89229669854E+02  0.12301169810E+03  0.16827892516E+03  0.41800000000E+01 0.  1.
         -5    1    3    3    0  502  0.37151255623E+02 -0.79359839131E+01  0.34819982405E+02  0.51702023265E+02  0.41800000000E+01 0.  1.
        -11    1    1    2    0    0 -0.28668560085E+02 -0.43819335938E+02  0.82987070945E+02  0.98126828561E+02  0.00000000000E+00 0.  1.
         11    1    1    2    0    0  0.63673471218E+02 -0.37474350003E+02  0.95024859699E+02  0.12036761112E+03  0.00000000000E+00 0. -1.
</event>
<event>
 7    1  0.2499014E-009  0.1130114E+03  0.7561462E-02  0.1255093E+00
         -1   -1    0    0    0  501 -0.00000000000E+00  0.00000000000E+00  0.68143504079E+02  0.68143504079E+02  0.00000000000E+00 0.  1.
          1   -1    0    0  501    0  0.00000000000E+00 -0.00000000000E+00 -0.26895096984E+03  0.26895096984E+03  0.00000000000E+00 0. -1.
         25    2    1    2    0    0  0.15978264126E+02 -0.56835451133E+02 -0.42001098279E+02  0.14456001447E+03  0.12509169475E+03 0.  0.
          5    1    3    3  502    0 -0.18578261598E+02  0.30495551408E+02 -0.35178484504E+02  0.50300384011E+02  0.41800000000E+01 0. -1.
         -5    1    3    3    0  502  0.34556525724E+02 -0.87331002540E+02 -0.68226137744E+01  0.94259630455E+02  0.41800000000E+01 0. -1.
        -11    1    1    2    0    0  0.23053455769E+02 -0.43717541961E+01 -0.73648135375E+01  0.24592977374E+02  0.00000000000E+00 0.  1.
         11    1    1    2    0    0 -0.39031719896E+02  0.61207205329E+02 -0.15144155395E+03  0.16794148208E+03  0.00000000000E+00 0. -1.
</event>
<event>
 7    1  0.2499014E-009  0.1370035E+03  0.7561462E-02  0.1217419E+00
         -2   -1    0    0    0  501 -0.00000000000E+00  0.00000000000E+00  0.34671876201E+02  0.34671876201E+02  0.00000000000E+00 0.  1.
          2   -1    0    0  501    0  0.00000000000E+00 -0.00000000000E+00 -0.80168004140E+03  0.80168004140E+03  0.00000000000E+00 0. -1.
         25    2    1    2    0    0 -0.11330697913E+03 -0.34759690366E+02 -0.51545868843E+03  0.54349980909E+03  0.12509066878E+03 0.  0.
          5    1    3    3  502    0 -0.83827753257E+02  0.87338645012E+01 -0.45725716146E+03  0.46497844757E+03  0.41800000000E+01 0. -1.
         -5    1    3    3    0  502 -0.29479225869E+02 -0.43493554867E+02 -0.58201526970E+02  0.78521361517E+02  0.41800000000E+01 0. -1.
        -11    1    1    2    0    0  0.58305518839E+02  0.53173897593E+02 -0.20092211254E+03  0.21586266981E+03  0.00000000000E+00 0. -1.
         11    1    1    2    0    0  0.55001460286E+02 -0.18414207227E+02 -0.50627364236E+02  0.76989438697E+02  0.00000000000E+00 0.  1.
</event>
<event>
 7    1  0.2499014E-009  0.1203253E+03  0.7561462E-02  0.1242561E+00
          2   -1    0    0  501    0  0.00000000000E+00  0.00000000000E+00  0.90463214812E+03  0.90463214812E+03  0.00000000000E+00 0. -1.
         -2   -1    0    0    0  501 -0.00000000000E+00 -0.00000000000E+00 -0.17618480630E+02  0.17618480630E+02  0.00000000000E+00 0.  1.
         25    2    1    2    0    0 -0.78466117704E+01  0.63208292974E+02  0.50192935119E+03  0.52118667361E+03  0.12508244302E+03 0.  0.
          5    1    3    3  502    0 -0.15416184182E+02  0.98313907298E+02  0.30161271516E+03  0.31763341362E+03  0.41800000000E+01 0. -1.
         -5    1    3    3    0  502  0.75695724116E+01 -0.35105614324E+02  0.20031663603E+03  0.20355325999E+03  0.41800000000E+01 0. -1.
        -11    1    1    2    0    0 -0.36533622156E+02 -0.42120943891E+02  0.13264807237E+03  0.14389020316E+03  0.00000000000E+00 0.  1.
         11    1    1    2    0    0  0.44380233927E+02 -0.21087349083E+02  0.25243624394E+03  0.25717375198E+03  0.00000000000E+00 0. -1.
</event>
<event>
 7    1  0.2499014E-009  0.1491501E+03  0.7561462E-02  0.1201521E+00
          1   -1    0    0  501    0  0.00000000000E+00  0.00000000000E+00  0.14866229589E+04  0.14866229589E+04  0.00000000000E+00 0. -1.
         -1   -1    0    0    0  501 -0.00000000000E+00 -0.00000000000E+00 -0.20195733620E+02  0.20195733620E+02  0.00000000000E+00 0.  1.
         25    2    1    2    0    0  0.12927354318E+03 -0.14558144750E+02  0.93119250985E+03  0.94851992757E+03  0.12508786534E+03 0.  0.
          5    1    3    3  502    0 -0.14969924047E+02 -0.12109896983E+02  0.31645317698E+03  0.31706597713E+03  0.41800000000E+01 0. -1.
         -5    1    3    3    0  502  0.14424346723E+03 -0.24482477664E+01  0.61473933287E+03  0.63145395044E+03  0.41800000000E+01 0. -1.
        -11    1    1    2    0    0 -0.79979361155E+02 -0.73750150331E+01  0.45218077419E+03  0.45925868702E+03  0.00000000000E+00 0. -1.
         11    1    1    2    0    0 -0.49294182024E+02  0.21933159783E+02  0.83053941209E+02  0.99040077897E+02  0.00000000000E+00 0.  1.
</event>
<event>
 7    1  0.2499014E-009  0.1604416E+03  0.7561462E-02  0.1188199E+00
          2   -1    0    0  501    0  0.00000000000E+00  0.00000000000E+00  0.45223830730E+03  0.45223830730E+03  0.00000000000E+00 0. -1.
         -2   -1    0    0    0  501 -0.00000000000E+00 -0.00000000000E+00 -0.67656147214E+02  0.67656147214E+02  0.00000000000E+00 0.  1.
         25    2    1    2    0    0  0.12460669081E+03 -0.19728960280E+02  0.28196893728E+03  0.33327275433E+03  0.12509271730E+03 0.  0.
          5    1    3    3  502    0  0.96030747768E+02  0.43779859889E+02  0.19510290751E+03  0.22185850799E+03  0.41800000000E+01 0. -1.
         -5    1    3    3    0  502  0.28575943037E+02 -0.63508820169E+02  0.86866029776E+02  0.11141424635E+03  0.41800000000E+01 0. -1.
        -11    1    1    2    0    0 -0.67867384846E+02  0.46988359092E+02  0.24104965265E+02  0.85993820513E+02  0.00000000000E+00 0.  1.
         11    1    1    2    0    0 -0.56739305959E+02 -0.27259398812E+02  0.78508257535E+02  0.10062787966E+03  0.00000000000E+00 0. -1.
</event>
<event>
 7    1  0.2499014E-009  0.1141073E+03  0.7561462E-02  0.1253147E+00
         -2   -1    0    0    0  501 -0.00000000000E+00  0.00000000000E+00  0.54309710584E+02  0.54309710584E+02  0.00000000000E+00 0.  1.
          2   -1    0    0  501    0  0.00000000000E+00 -0.00000000000E+00 -0.26647584001E+03  0.26647584001E+03  0.00000000000E+00 0. -1.
         25    2    1    2    0    0 -0.39923241824E+02  0.40043864852E+02 -0.12765352557E+03  0.18746118201E+03  0.12509554677E+03 0.  0.
          5    1    3    3  502    0 -0.20166910879E+02  0.80178746227E+02 -0.11325094881E+03  0.14028038155E+03  0.41800000000E+01 0.  1.
         -5    1    3    3    0  502 -0.19756330945E+02 -0.40134881375E+02 -0.14402576757E+02  0.47180800466E+02  0.41800000000E+01 0.  1.
        -11    1    1    2    0    0 -0.48312130983E+01 -0.53541191478E+02 -0.59932768953E+02  0.80510475090E+02  0.00000000000E+00 0.  1.
         11    1    1    2    0    0  0.44754454922E+02  0.13497326626E+02 -0.24579834904E+02  0.52813893488E+02  0.00000000000E+00 0. -1.
</event>
<event>
 7    1  0.2499014E-009  0.1667211E+03  0.7561462E-02  0.1181311E+00
          1   -1    0    0  501    0  0.00000000000E+00  0.00000000000E+00  0.14695509215E+04  0.14695509215E+04  0.00000000000E+00 0. -1.
         -1   -1    0    0    0  501 -0.00000000000E+00 -0.00000000000E+00 -0.20346476183E+02  0.20346476183E+02  0.00000000000E+00 0.  1.
         25    2    1    2    0    0 -0.11565845187E+03 -0.61203686963E+02  0.60601010998E+03  0.63247191378E+03  0.12509875913E+03 0.  0.
          5    1    3    3  502    0 -0.65528616042E+02 -0.96872251995E+02  0.44269369750E+03  0.45790109732E+03  0.41800000000E+01 0.  1.
         -5    1    3    3    0  502 -0.50129835828E+02  0.35668565032E+02  0.16331641249E+03  0.17457081646E+03  0.41800000000E+01 0.  1.
        -11    1    1    2    0    0  0.16770236572E+02  0.52918927227E+02  0.26149888247E+03  0.26732624119E+03  0.00000000000E+00 0.  1.
         11    1    1    2    0    0  0.98888215299E+02  0.82847597366E+01  0.58169545285E+03  0.59009924270E+03  0.00000000000E+00 0. -1.
</event>
<event>
 7    1  0.2499014E-009  0.1000955E+03  0.7561462E-02  0.1280095E+00
         -2   -1    0    0    0  501 -0.00000000000E+00  0.00000000000E+00  0.96520939666E+03  0.96520939666E+03  0.00000000000E+00 0.  1.
          2   -1    0    0  501    0  0.00000000000E+00 -0.00000000000E+00 -0.28869175309E+02  0.28869175309E+02  0.00000000000E+00 0. -1.
         25    2    1    2    0    0 -0.60092128437E+02  0.24946044979E+02  0.82194153074E+03  0.83394716343E+03  0.12508645962E+03 0.  0.
          5    1    3    3  502    0 -0.40900888219E+02 -0.16465987543E+02  0.72874867132E+03  0.73009321991E+03  0.41800000000E+01 0. -1.
         -5    1    3    3    0  502 -0.19191240218E+02  0.41412032523E+02  0.93192859420E+02  0.10385394352E+03  0.41800000000E+01 0. -1.
        -11    1    1    2    0    0  0.75986027002E+02  0.50165106574E+01  0.92260162371E+02  0.11962850513E+03  0.00000000000E+00 0. -1.
         11    1    1    2    0    0 -0.15893898565E+02 -0.29962555637E+02  0.22138528239E+02  0.40502903408E+02  0.00000000000E+00 0.  1.
</event>
<event>
 7    1  0.2499014E-009  0.1140593E+03  0.7561462E-02  0.1253232E+00
         -1   -1    0    0    0  501 -0.00000000000E+00  0.00000000000E+00  0.96782187815E+02  0.96782187815E+02  0.00000000000E+00 0.  1.
          1   -1    0    0  501    0  0.00000000000E+00 -0.00000000000E+00 -0.19161992052E+03  0.19161992052E+03  0.00000000000E+00 0. -1.
         25    2    1    2    0    0  0.72099907509E+02 -0.37042158219E+02 -0.41525579570E+02  0.15473152279E+03  0.12508777813E+03 0.  0.
          5    1    3    3  502    0 -0.24053209395E+02  0.14238583137E+01 -0.44792844994E+02  0.51033867356E+02  0.41800000000E+01 0.  1.
         -5    1    3    3    0  502  0.96153116905E+02 -0.38466016533E+02  0.32672654237E+01  0.10369765543E+03  0.41800000000E+01 0.  1.
        -11    1    1    2    0    0 -0.72561343955E+02  0.49316572588E+02 -0.70496367747E+02  0.11254781577E+03  0.00000000000E+00 0. -1.
         11    1    1    2    0    0  0.46143644543E+00 -0.12274414369E+02  0.17184214608E+02  0.21122769785E+02  0.00000000000E+00 0.  1.
</event>
<event>
 7    1  0.2499014E-009  0.1221069E+03  0.7561462E-02  0.1239661E+00
         -2   -1    0    0    0  501 -0.00000000000E+00  0.00000000000E+00  0.19672676759E+03  0.19672676759E+03  0.00000000000E+00 0.  1.
          2   -1    0    0  501    0  0.00000000000E+00 -0.00000000000E+00 -0.15717741003E+03  0.15717741003E+03  0.00000000000E+00 0. -1.
         25    2    1    2    0    0 -0.66823117004E+02 -0.72744004557E+02  0.10206730091E+03  0.18927071910E+03  0.12509457233E+03 0.  0.
          5    1    3    3  502    0 -0.12308483165E+02 -0.36701059321E+02 -0.25035753275E+02  0.46289608500E+02  0.41800000000E+01 0. -1.
         -5    1    3    3    0  502 -0.54514633839E+02 -0.36042945236E+02  0.12710305419E+03  0.14298111060E+03  0.41800000000E+01 0. -1.
        -11    1    1    2    0    0  0.21421196129E+02  0.89020391020E+02 -0.81018672690E+01  0.91919192306E+02  0.00000000000E+00 0.  1.
         11    1    1    2    0    0  0.45401920875E+02 -0.16276386463E+02 -0.54416076081E+02  0.72714266217E+02  0.00000000000E+00 0. -1.
</event>
<event>
 7    1  0.2499014E-009  0.1287456E+03  0.7561462E-02  0.1229329E+00
          1   -1    0    0  501    0  0.00000000000E+00  0.00000000000E+00  0.38472157952E+03  0.38472157952E+03  0.00000000000E+00 0. -1.
         -1   -1    0    0    0  501 -0.00000000000E+00 -0.00000000000E+00 -0.71471784771E+02  0.71471784771E+02  0.00000000000E+00 0.  1.
         25    2    1    2    0    0  0.26762308229E+02 -0.11220031809E+03  0.22884245227E+03  0.28517118771E+03  0.12509438763E+03 0.  0.
          5    1    3    3  502    0  0.52670080500E+02 -0.62390567465E+02  0.21072272182E+03  0.22602711824E+03  0.41800000000E+01 0.  1.
         -5    1    3    3    0  502 -0.25907772271E+02 -0.49809750630E+02  0.18119730448E+02  0.59144069469E+02  0.41800000000E+01 0.  1.
        -11    1    1    2    0    0 -0.13928021145E+02  0.11909704235E+02 -0.19000667421E+02  0.26398033836E+02  0.00000000000E+00 0.  1.
         11    1    1    2    0    0 -0.12834287084E+02  0.10029061386E+03  0.10340800991E+03  0.14462414275E+03  0.00000000000E+00 0. -1.
</event>
<event>
 7    1  0.2586081E-009  0.7453199E+02  0.7561462E-02  0.1345326E+00
          1   -1    0    0  501    0  0.00000000000E+00  0.00000000000E+00  0.12312568367E+03  0.12312568367E+03  0.00000000000E+00 0. -1.
         -1   -1    0    0    0  501 -0.00000000000E+00 -0.00000000000E+00 -0.14362227137E+03  0.14362227137E+03  0.00000000000E+00 0.  1.
         25    2    1    2    0    0  0.43414202000E+02 -0.58615136512E+01  0.51226137997E+02  0.14209470847E+03  0.12509052196E+03 0.  0.
          5    1    3    3  502    0  0.33544276447E+02  0.40887513441E+02  0.72325756136E+02  0.89696681312E+02  0.41800000000E+01 0. -1.
         -5    1    3    3    0  502  0.98699255532E+01 -0.46749027092E+02 -0.21099618139E+02  0.52398027158E+02  0.41800000000E+01 0. -1.
        -11    1    1    2    0    0 -0.22547220499E+02 -0.69134478107E+01 -0.90683178367E+02  0.93699582451E+02  0.00000000000E+00 0.  1.
         11    1    1    2    0    0 -0.20866981501E+02  0.12774961462E+02  0.18960452665E+02  0.30953664122E+02  0.00000000000E+00 0. -1.
</event>
<event>
 7    1  0.2499014E-009  0.1670844E+03  0.7561462E-02  0.1180923E+00
         -1   -1    0    0    0  501 -0.00000000000E+00  0.00000000000E+00  0.10099505553E+03  0.10099505553E+03  0.00000000000E+00 0.  1.
          1   -1    0    0  501    0  0.00000000000E+00 -0.00000000000E+00 -0.34971062101E+03  0.34971062101E+03  0.00000000000E+00 0. -1.
         25    2    1    2    0    0 -0.11128632346E+03  0.10485438115E+03 -0.99896082857E+02  0.22137298613E+03  0.12509070542E+03 0.  0.
          5    1    3    3  502    0 -0.41709628784E+02  0.78861934118E+02 -0.11485564499E+03  0.14549291863E+03  0.41800000000E+01 0.  1.
         -5    1    3    3    0  502 -0.69576694672E+02  0.25992447037E+02  0.14959562130E+02  0.75880067498E+02  0.41800000000E+01 0.  1.
        -11    1    1    2    0    0  0.76127322789E+02 -0.11117837591E+03 -0.95511393914E+02  0.16516182038E+03  0.00000000000E+00 0.  1.
         11    1    1    2    0    0  0.35159000667E+02  0.63239947526E+01 -0.53308088713E+02  0.64170870025E+02  0.00000000000E+00 0. -1.
</event>
<event>
 7    1  0.2499014E-009  0.1006993E+03  0.7561462E-02  0.1278832E+00
         -3   -1    0    0    0  501 -0.00000000000E+00  0.00000000000E+00  0.89878987978E+02  0.89878987978E+02  0.00000000000E+00 0.  1.
          3   -1    0    0  501    0  0.00000000000E+00 -0.00000000000E+00 -0.16440765599E+03  0.16440765599E+03  0.00000000000E+00 0. -1.
         25    2    1    2    0    0  0.42643934285E+02  0.27216365032E+02 -0.19412119789E+02  0.13632181720E+03  0.12509025458E+03 0.  0.
          5    1    3    3  502    0  0.58216544312E+01  0.58515819581E+02 -0.51402057716E+02  0.78215322917E+02  0.41800000000E+01 0. -1.
         -5    1    3    3    0  502  0.36822279854E+02 -0.31299454550E+02  0.31989937927E+02  0.58106494279E+02  0.41800000000E+01 0. -1.
        -11    1    1    2    0    0 -0.34367017100E+01 -0.48976408530E+02 -0.54177209967E+02  0.73114086133E+02  0.00000000000E+00 0. -1.
         11    1    1    2    0    0 -0.39207232575E+02  0.21760043499E+02 -0.93933825153E+00  0.44850740636E+02  0.00000000000E+00 0.  1.
</event>
<event>
 7    1  0.2499014E-009  0.7924401E+02  0.7561462E-02  0.1331211E+00
          2   -1    0    0  501    0  0.00000000000E+00  0.00000000000E+00  0.12216532514E+04  0.12216532514E+04  0.00000000000E+00 0. -1.
         -2   -1    0    0    0  501 -0.00000000000E+00 -0.00000000000E+00 -0.19186238304E+02  0.19186238304E+02  0.00000000000E+00 0.  1.
         25    2    1    2    0    0 -0.30936046547E+02 -0.58705876385E+02  0.99265347090E+03  0.10027024339E+04  0.12509132182E+03 0.  0.
          5    1    3    3  502    0 -0.37986636991E+02 -0.32901978983E+02  0.12728365274E+03  0.13690918693E+03  0.41800000000E+01 0.  1.
         -5    1    3    3    0  502  0.70505904440E+01 -0.25803897402E+02  0.86536981816E+03  0.86579324698E+03  0.41800000000E+01 0.  1.
        -11    1    1    2    0    0  0.34296780748E+02  0.15478809555E+02  0.18421274422E+02  0.41895179511E+02  0.00000000000E+00 0.  1.
         11    1    1    2    0    0 -0.33607342011E+01  0.43227066829E+02  0.19139226782E+03  0.19624187632E+03  0.00000000000E+00 0. -1.
</event>
<event>
 7    1  0.2499014E-009  0.1060471E+03  0.7561462E-02  0.1268070E+00
         -4   -1    0    0    0  501 -0.00000000000E+00  0.00000000000E+00  0.40330647857E+03  0.40330647857E+03  0.00000000000E+00 0.  1.
          4   -1    0    0  501    0  0.00000000000E+00 -0.00000000000E+00 -0.30328398212E+02  0.30328398212E+02  0.00000000000E+00 0. -1.
         25    2    1    2    0    0  0.13526577876E+02 -0.21058310916E+02  0.21554133278E+03  0.25046260226E+03  0.12508808189E+03 0.  0.
          5    1    3    3  502    0 -0.52564556123E+02 -0.24604926532E+02  0.73854893200E+02  0.94023681164E+02  0.41800000000E+01 0. -1.
         -5    1    3    3    0  502  0.66091133999E+02  0.35466156161E+01  0.14168643958E+03  0.15643892110E+03  0.41800000000E+01 0. -1.
        -11    1    1    2    0    0 -0.42422898185E+02  0.35469293134E+02  0.12817989711E+03  0.13959892216E+03  0.00000000000E+00 0.  1.
         11    1    1    2    0    0  0.28896320309E+02 -0.14410982218E+02  0.29256850473E+02  0.43573352355E+02  0.00000000000E+00 0. -1.
</event>
<event>
 7    1  0.2499014E-009  0.1052604E+03  0.7561462E-02  0.1269607E+00
          1   -1    0    0  501    0  0.00000000000E+00  0.00000000000E+00  0.43273333019E+02  0.43273333019E+02  0.00000000000E+00 0. -1.
         -1   -1    0    0    0  501 -0.00000000000E+00 -0.00000000000E+00 -0.49424832100E+03  0.49424832100E+03  0.00000000000E+00 0.  1.
         25    2    1    2    0    0 -0.61893185582E+02  0.10396053984E+02 -0.38857616684E+03  0.41300840976E+03  0.12508263161E+03 0.  0.
          5    1    3    3  502    0 -0.74318487772E+02  0.53361974204E+02 -0.30036098998E+03  0.31401422678E+03  0.41800000000E+01 0. -1.
         -5    1    3    3    0  502  0.12425302190E+02 -0.42965920220E+02 -0.88215176861E+02  0.98994182978E+02  0.41800000000E+01 0. -1.
        -11    1    1    2    0    0  0.36947562981E+02  0.13626657391E+02 -0.77345409232E+02  0.86793551207E+02  0.00000000000E+00 0.  1.
         11    1    1    2    0    0  0.24945622601E+02 -0.24022711376E+02  0.14946588093E+02  0.37719693058E+02  0.00000000000E+00 0. -1.
</event>
<event>
 7    1  0.2499014E-009  0.1010339E+03  0.7561462E-02  0.1278137E+00
         -1   -1    0    0    0  501 -0.00000000000E+00  0.00000000000E+00  0.10267742421E+03  0.10267742421E+03  0.00000000000E+00 0. -1.
          1   -1    0    0  501    0  0.00000000000E+00 -0.00000000000E+00 -0.16780173586E+03  0.16780173586E+03  0.00000000000E+00 0.  1.
         25    2    1    2    0    0  0.43767948344E+02  0.15186028552E+02  0.23025114603E+02  0.13536563165E+03  0.12508976602E+03 0.  0.
          5    1    3    3  502    0 -0.37299329231E+01  0.58036334652E+02 -0.15812363462E+02  0.60412182361E+02  0.41800000000E+01 0.  1.
         -5    1    3    3    0  502  0.47497881267E+02 -0.42850306099E+02  0.38837478065E+02  0.74953449287E+02  0.41800000000E+01 0.  1.
        -11    1    1    2    0    0 -0.35063783184E+02  0.22046386457E+02 -0.87571906980E+02  0.96872859662E+02  0.00000000000E+00 0.  1.
         11    1    1    2    0    0 -0.87041651603E+01 -0.37232415009E+02 -0.57751926560E+00  0.38240668758E+02  0.00000000000E+00 0. -1.
</event>
<event>
 7    1  0.2499014E-009  0.1288063E+03  0.7561462E-02  0.1229238E+00
         -1   -1    0    0    0  501 -0.00000000000E+00  0.00000000000E+00  0.10287553143E+03  0.10287553143E+03  0.00000000000E+00 0.  1.
          1   -1    0    0  501    0  0.00000000000E+00 -0.00000000000E+00 -0.41114201459E+03  0.41114201459E+03  0.00000000000E+00 0. -1.
         25    2    1    2    0    0  0.65538159919E+02 -0.75425717304E+02  0.17581235275E+02  0.16106389692E+03  0.12509272489E+03 0.  0.
          5    1    3    3  502    0 -0.44177254976E+01  0.16252467668E+02  0.39917467854E+02  0.43526263838E+02  0.41800000000E+01 0. -1.
         -5    1    3    3    0  502  0.69955885417E+02 -0.91678184971E+02 -0.22336232579E+02  0.11753763308E+03  0.41800000000E+01 0. -1.
        -11    1    1    2    0    0 -0.10726381054E+02  0.68824978458E+02 -0.24745535909E+03  0.25707214484E+03  0.00000000000E+00 0. -1.
         11    1    1    2    0    0 -0.54811778865E+02  0.66007388456E+01 -0.78392359343E+02  0.95881504259E+02  0.00000000000E+00 0.  1.
</event>
<event>
 7    1  0.2499014E-009  0.3683677E+03  0.7561462E-02  0.1055319E+00
          2   -1    0    0  501    0  0.00000000000E+00  0.00000000000E+00  0.25344555481E+03  0.25344555481E+03  0.00000000000E+00 0. -1.
         -2   -1    0    0    0  501 -0.00000000000E+00 -0.00000000000E+00 -0.59753390370E+03  0.59753390370E+03  0.00000000000E+00 0.  1.
         25    2    1    2    0    0 -0.32145540555E+03  0.16700267899E+03 -0.27321037487E+03  0.47065321092E+03  0.12508822271E+03 0.  0.
          5    1    3    3  502    0 -0.18193986143E+03  0.67430916884E+02 -0.21487271026E+03  0.28954584394E+03  0.41800000000E+01 0. -1.
         -5    1    3    3    0  502 -0.13951554413E+03  0.99571762110E+02 -0.58337664613E+02  0.18110736698E+03  0.41800000000E+01 0. -1.
        -11    1    1    2    0    0  0.29068408509E+03 -0.11881764099E+03 -0.75464671821E+02  0.32297025533E+03  0.00000000000E+00 0.  1.
         11    1    1    2    0    0  0.30771320467E+02 -0.48185038003E+02  0.45866978049E+01  0.57355992254E+02  0.00000000000E+00 0. -1.
</event>
<event>
 7    1  0.2499014E-009  0.9964266E+02  0.7561462E-02  0.1281049E+00
          2   -1    0    0  501    0  0.00000000000E+00  0.00000000000E+00  0.36720680276E+03  0.36720680276E+03  0.00000000000E+00 0. -1.
         -2   -1    0    0    0  501 -0.00000000000E+00 -0.00000000000E+00 -0.53861580451E+02  0.53861580451E+02  0.00000000000E+00 0.  1.
         25    2    1    2    0    0 -0.68563455562E+02  0.52103078878E+02  0.21697496191E+03  0.26484525220E+03  0.12509674356E+03 0.  0.
          5    1    3    3  502    0 -0.39491252827E+01  0.15110193797E+02  0.18158248637E+03  0.18230080993E+03  0.41800000000E+01 0. -1.
         -5    1    3    3    0  502 -0.64614330279E+02  0.36992885081E+02  0.35392475541E+02  0.82544442266E+02  0.41800000000E+01 0. -1.
        -11    1    1    2    0    0  0.14516752898E+01 -0.40394504078E+02  0.74350222731E+02  0.84627294302E+02  0.00000000000E+00 0. -1.
         11    1    1    2    0    0  0.67111780272E+02 -0.11708574800E+02  0.22020037669E+02  0.71595836709E+02  0.00000000000E+00 0.  1.
</event>
<event>
 7    1  0.2499014E-009  0.7373636E+02  0.7561462E-02  0.1347829E+00
         -3   -1    0    0    0  501 -0.00000000000E+00  0.00000000000E+00  0.23301315056E+03  0.23301315056E+03  0.00000000000E+00 0.  1.
          3   -1    0    0  501    0  0.00000000000E+00 -0.00000000000E+00 -0.59224640808E+02  0.59224640808E+02  0.00000000000E+00 0. -1.
         25    2    1    2    0    0  0.44055419420E+01 -0.40302700103E+02  0.12418503546E+03  0.18086658092E+03  0.12508829132E+03 0.  0.
          5    1    3    3  502    0 -0.87940016546E+01 -0.37295660343E+02 -0.14705238538E+02  0.41255510977E+02  0.41800000000E+01 0. -1.
         -5    1    3    3    0  502  0.13199543597E+02 -0.30070397598E+01  0.13889027400E+03  0.13961106995E+03  0.41800000000E+01 0. -1.
        -11    1    1    2    0    0  0.34928408408E+02 -0.44115698400E+01  0.35859815289E+02  0.50253179153E+02  0.00000000000E+00 0.  1.
         11    1    1    2    0    0 -0.39333950350E+02  0.44714269943E+02  0.13743659002E+02  0.61118031295E+02  0.00000000000E+00 0. -1.
</event>
<event>
 7    1  0.2499014E-009  0.9302556E+02  0.7561462E-02  0.1295686E+00
          3   -1    0    0  501    0  0.00000000000E+00  0.00000000000E+00  0.14426660418E+02  0.14426660418E+02  0.00000000000E+00 0. -1.
         -3   -1    0    0    0  501 -0.00000000000E+00 -0.00000000000E+00 -0.10833730280E+04  0.10833730280E+04  0.00000000000E+00 0.  1.
         25    2    1    2    0    0 -0.79798275147E+01 -0.27119498644E+02 -0.84145388210E+03  0.85117006717E+03  0.12508678066E+03 0.  0.
          5    1    3    3  502    0  0.48843117312E+01 -0.64978251052E+02 -0.25116353601E+03  0.25951228070E+03  0.41800000000E+01 0. -1.
         -5    1    3    3    0  502 -0.12864139246E+02  0.37858752408E+02 -0.59029034609E+03  0.59165778648E+03  0.41800000000E+01 0. -1.
        -11    1    1    2    0    0 -0.61012450866E+01 -0.25428995283E+02 -0.22363243054E+02  0.34408917923E+02  0.00000000000E+00 0. -1.
         11    1    1    2    0    0  0.14081072601E+02  0.52548493927E+02 -0.20512924242E+03  0.21222070331E+03  0.00000000000E+00 0.  1.
</event>
<event>
 7    1  0.2499014E-009  0.1764765E+03  0.7561462E-02  0.1171257E+00
         -2   -1    0    0    0  501 -0.00000000000E+00  0.00000000000E+00  0.38789231803E+03  0.38789231803E+03  0.00000000000E+00 0.  1.
          2   -1    0    0  501    0  0.00000000000E+00 -0.00000000000E+00 -0.83190212074E+02  0.83190212074E+02  0.00000000000E+00 0. -1.
         25    2    1    2    0    0  0.97455151141E+02 -0.10318250964E+03  0.14017956101E+03  0.23546338657E+03  0.12509420574E+03 0.  0.
          5    1    3    3  502    0  0.11908716181E+03 -0.46239796899E+02  0.10114119619E+03  0.16299351181E+03  0.41800000000E+01 0.  1.
         -5    1    3    3    0  502 -0.21632010668E+02 -0.56942712742E+02  0.39038364816E+02  0.72469874758E+02  0.41800000000E+01 0.  1.
        -11    1    1    2    0    0 -0.71761016155E+02  0.16452333776E+02  0.47118722600E+02  0.87409935051E+02  0.00000000000E+00 0.  1.
         11    1    1    2    0    0 -0.25694134987E+02  0.86730175864E+02  0.11740382235E+03  0.14820920849E+03  0.00000000000E+00 0. -1.
</event>
<event>
 7    1  0.2499014E-009  0.1659870E+03  0.7561462E-02  0.1182099E+00
          1   -1    0    0  501    0  0.00000000000E+00  0.00000000000E+00  0.27289388485E+03  0.27289388485E+03  0.00000000000E+00 0. -1.
         -1   -1    0    0    0  501 -0.00000000000E+00 -0.00000000000E+00 -0.14854188384E+03  0.14854188384E+03  0.00000000000E+00 0.  1.
         25    2    1    2    0    0 -0.13368742188E+03 -0.48745020485E+02  0.16130185161E+03  0.24882122515E+03  0.12508121747E+03 0.  0.
          5    1    3    3  502    0 -0.82839900372E+00 -0.48329712506E+02  0.14187149023E+02  0.50548936222E+02  0.41800000000E+01 0.  1.
         -5    1    3    3    0  502 -0.13285902287E+03 -0.41530797902E+00  0.14711470259E+03  0.19827228893E+03  0.41800000000E+01 0.  1.
        -11    1    1    2    0    0  0.12023697082E+03  0.24355690916E+02 -0.59903086212E+02  0.13652292324E+03  0.00000000000E+00 0.  1.
         11    1    1    2    0    0  0.13450451055E+02  0.24389329569E+02  0.22953235609E+02  0.36091620292E+02  0.00000000000E+00 0. -1.
</event>
<event>
 7    1  0.2499014E-009  0.1218898E+03  0.7561462E-02  0.1240012E+00
         -1   -1    0    0    0  501 -0.00000000000E+00  0.00000000000E+00  0.13024212095E+03  0.13024212095E+03  0.00000000000E+00 0.  1.
          1   -1    0    0  501    0  0.00000000000E+00 -0.00000000000E+00 -0.14212034494E+03  0.14212034494E+03  0.00000000000E+00 0. -1.
         25    2    1    2    0    0 -0.67082649009E+02  0.66047866601E+01  0.37710154349E+02  0.14701506585E+03  0.12509064250E+03 0.  0.
          5    1    3    3  502    0 -0.16320826666E+02  0.56214232620E+02 -0.12463679035E+02  0.59993541546E+02  0.41800000000E+01 0.  1.
         -5    1    3    3    0  502 -0.50761822344E+02 -0.49609445960E+02  0.50173833384E+02  0.87021524306E+02  0.41800000000E+01 0.  1.
        -11    1    1    2    0    0  0.50763460230E+02 -0.47773960999E+02 -0.38749537555E+02  0.79754666978E+02  0.00000000000E+00 0.  1.
         11    1    1    2    0    0  0.16319188779E+02  0.41169174339E+02 -0.10838840788E+02  0.45592733059E+02  0.00000000000E+00 0. -1.
</event>
<event>
 7    1  0.2499014E-009  0.1047944E+03  0.7561462E-02  0.1270525E+00
          1   -1    0    0  501    0  0.00000000000E+00  0.00000000000E+00  0.14794978499E+03  0.14794978499E+03  0.00000000000E+00 0. -1.
         -1   -1    0    0    0  501 -0.00000000000E+00 -0.00000000000E+00 -0.30766172640E+03  0.30766172640E+03  0.00000000000E+00 0.  1.
         25    2    1    2    0    0  0.91624620908E+02  0.84005497409E+01  0.86753368087E+02  0.17788079379E+03  0.12509911884E+03 0.  0.
          5    1    3    3  502    0 -0.30915992300E+01  0.18066277729E+02  0.80180085357E+02  0.82354519394E+02  0.41800000000E+01 0.  1.
         -5    1    3    3    0  502  0.94716220138E+02 -0.96657279884E+01  0.65732827303E+01  0.95526274399E+02  0.41800000000E+01 0.  1.
        -11    1    1    2    0    0 -0.59154851949E+02 -0.17643099703E+02 -0.53056356738E+02  0.81397496685E+02  0.00000000000E+00 0. -1.
         11    1    1    2    0    0 -0.32469768959E+02  0.92425499616E+01 -0.19340895276E+03  0.19633322091E+03  0.00000000000E+00 0.  1.
</event>
<event>
 7    1  0.2499014E-009  0.1059359E+03  0.7561462E-02  0.1268287E+00
          2   -1    0    0  501    0  0.00000000000E+00  0.00000000000E+00  0.24087166029E+03  0.24087166029E+03  0.00000000000E+00 0. -1.
         -2   -1    0    0    0  501 -0.00000000000E+00 -0.00000000000E+00 -0.71145420726E+02  0.71145420726E+02  0.00000000000E+00 0.  1.
         25    2    1    2    0    0 -0.45446364982E+02  0.47798417107E+02  0.68352451816E+02  0.15706507042E+03  0.12508923978E+03 0.  0.
          5    1    3    3  502    0  0.40527392958E+02  0.25198375378E+02  0.57282910655E+01  0.48246382457E+02  0.41800000000E+01 0. -1.
         -5    1    3    3    0  502 -0.85973757940E+02  0.22600041729E+02  0.62624160750E+02  0.10881868796E+03  0.41800000000E+01 0. -1.
        -11    1    1    2    0    0  0.51527040998E+01 -0.30822389868E+02 -0.11972281457E+02  0.33464990662E+02  0.00000000000E+00 0.  1.
         11    1    1    2    0    0  0.40293660882E+02 -0.16976027239E+02  0.11334606920E+03  0.12148701993E+03  0.00000000000E+00 0. -1.
</event>
<event>
 7    1  0.2499014E-009  0.8901466E+02  0.7561462E-02  0.1305256E+00
         -2   -1    0    0    0  501 -0.00000000000E+00  0.00000000000E+00  0.19608913966E+02  0.19608913966E+02  0.00000000000E+00 0.  1.
          2   -1    0    0  501    0  0.00000000000E+00 -0.00000000000E+00 -0.11877374858E+04  0.11877374858E+04  0.00000000000E+00 0. -1.
         25    2    1    2    0    0 -0.46521037258E+01 -0.76356161357E+02 -0.92935153871E+03  0.94084764148E+03  0.12509235201E+03 0.  0.
          5    1    3    3  502    0  0.21768010728E+02 -0.35590117375E+01 -0.26757748281E+02  0.34927959412E+02  0.41800000000E+01 0.  1.
         -5    1    3    3    0  502 -0.26420114453E+02 -0.72797149619E+02 -0.90259379043E+03  0.90591968207E+03  0.41800000000E+01 0.  1.
        -11    1    1    2    0    0 -0.51228421154E+01  0.41765435330E+02 -0.22352552225E+03  0.22745165244E+03  0.00000000000E+00 0. -1.
         11    1    1    2    0    0  0.97749458412E+01  0.34590726027E+02 -0.15251510920E+02  0.39047105893E+02  0.00000000000E+00 0.  1.
</event>
<event>
 7    1  0.2499014E-009  0.1537347E+03  0.7561462E-02  0.1195957E+00
          2   -1    0    0  501    0  0.00000000000E+00  0.00000000000E+00  0.19519884819E+03  0.19519884819E+03  0.00000000000E+00 0. -1.
         -2   -1    0    0    0  501 -0.00000000000E+00 -0.00000000000E+00 -0.17663475638E+03  0.17663475638E+03  0.00000000000E+00 0.  1.
         25    2    1    2    0    0 -0.28105811131E+02 -0.13716507471E+03  0.61523288969E+02  0.19757752718E+03  0.12509024670E+03 0.  0.
          5    1    3    3  502    0 -0.50036382761E+02 -0.91305354823E+02  0.91279482334E+02  0.13852697829E+03  0.41800000000E+01 0.  1.
         -5    1    3    3    0  502  0.21930571630E+02 -0.45859719888E+02 -0.29756193365E+02  0.59050548887E+02  0.41800000000E+01 0.  1.
        -11    1    1    2    0    0 -0.10278305616E+02  0.47821086108E+00 -0.29972261296E+02  0.31689252108E+02  0.00000000000E+00 0.  1.
         11    1    1    2    0    0  0.38384116747E+02  0.13668686385E+03 -0.12986935869E+02  0.14256682528E+03  0.00000000000E+00 0. -1.
</event>
<event>
 7    1  0.2499014E-009  0.1166070E+03  0.7561462E-02  0.1248802E+00
         -2   -1    0    0    0  501 -0.00000000000E+00  0.00000000000E+00  0.81671830220E+02  0.81671830220E+02  0.00000000000E+00 0. -1.
          2   -1    0    0  501    0  0.00000000000E+00 -0.00000000000E+00 -0.18056775435E+03  0.18056775435E+03  0.00000000000E+00 0.  1.
         25    2    1    2    0    0  0.42751790995E+02  0.32187117891E+02 -0.40150019699E+02  0.14185921498E+03  0.12509311172E+03 0.  0.
          5    1    3    3  502    0 -0.40347910530E+02 -0.19878293316E+01  0.55090689086E+01  0.40984479865E+02  0.41800000000E+01 0.  1.
         -5    1    3    3    0  502  0.83099701525E+02  0.34174947223E+02 -0.45659088608E+02  0.10087473511E+03  0.41800000000E+01 0.  1.
        -11    1    1    2    0    0 -0.63505645028E+02 -0.45385583666E+02 -0.55033602118E+02  0.95506625515E+02  0.00000000000E+00 0. -1.
         11    1    1    2    0    0  0.20753854033E+02  0.13198465775E+02 -0.37123023135E+01  0.24873744079E+02  0.00000000000E+00 0.  1.
</event>
<event>
 7    1  0.2499014E-009  0.1090337E+03  0.7561462E-02  0.1262370E+00
         -1   -1    0    0    0  501 -0.00000000000E+00  0.00000000000E+00  0.64170567550E+02  0.64170567550E+02  0.00000000000E+00 0.  1.
          1   -1    0    0  501    0  0.00000000000E+00 -0.00000000000E+00 -0.30783184463E+03  0.30783184463E+03  0.00000000000E+00 0. -1.
         25    2    1    2    0    0 -0.46260945331E+02 -0.26102590676E+02 -0.22298829581E+03  0.26113764378E+03  0.12509064165E+03 0.  0.
          5    1    3    3  502    0 -0.70933395942E+02 -0.47492154456E+02 -0.89916649420E+02  0.12405453493E+03  0.41800000000E+01 0. -1.
         -5    1    3    3    0  502  0.24672450612E+02  0.21389563779E+02 -0.13307164639E+03  0.13708310885E+03  0.41800000000E+01 0. -1.
        -11    1    1    2    0    0 -0.19262690938E+02  0.28168337118E+02  0.13785274698E+02  0.36804079620E+02  0.00000000000E+00 0.  1.
         11    1    1    2    0    0  0.65523636269E+02 -0.20657464411E+01 -0.34458255967E+02  0.74060688780E+02  0.00000000000E+00 0. -1.
</event>
<event>
 7    1  0.2499014E-009  0.1235347E+03  0.7561462E-02  0.1237377E+00
          1   -1    0    0  501    0  0.00000000000E+00  0.00000000000E+00  0.54459217427E+03  0.54459217427E+03  0.00000000000E+00 0. -1.
         -1   -1    0    0    0  501 -0.00000000000E+00 -0.00000000000E+00 -0.38942071087E+02  0.38942071087E+02  0.00000000000E+00 0.  1.
         25    2    1    2    0    0  0.91639351014E+02 -0.43084385415E+02  0.24136712014E+03  0.29010184012E+03  0.12508779330E+03 0.  0.
          5    1    3    3  502    0  0.97006154355E+02 -0.23105317206E+02  0.24852355812E+03  0.26781613283E+03  0.41800000000E+01 0. -1.
         -5    1    3    3    0  502 -0.53668033404E+01 -0.19979068209E+02 -0.71564379766E+01  0.22285707283E+02  0.41800000000E+01 0. -1.
        -11    1    1    2    0    0 -0.79514066740E+02 -0.19301683284E+01  0.14535013367E+03  0.16568908750E+03  0.00000000000E+00 0.  1.
         11    1    1    2    0    0 -0.12125284274E+02  0.45014553743E+02  0.11893284937E+03  0.12774331774E+03  0.00000000000E+00 0. -1.
</event>
<event>
 7    1  0.3611658E-009  0.7860328E+02  0.7561462E-02  0.1333062E+00
         -2   -1    0    0    0  501 -0.00000000000E+00  0.00000000000E+00  0.26171309575E+02  0.26171309575E+02  0.00000000000E+00 0. -1.
          2   -1    0    0  501    0  0.00000000000E+00 -0.00000000000E+00 -0.72074063849E+03  0.72074063849E+03  0.00000000000E+00 0.  1.
         25    2    1    2    0    0  0.17406635246E+02  0.76015408944E+02 -0.46707022542E+03  0.48977905879E+03  0.12509035778E+03 0.  0.
          5    1    3    3  502    0  0.10298500723E+02  0.45180677902E+02 -0.39540771324E+02  0.61059788484E+02  0.41800000000E+01 0.  1.
         -5    1    3    3    0  502  0.71081345226E+01  0.30834731043E+02 -0.42752945410E+03  0.42871927031E+03  0.41800000000E+01 0.  1.
        -11    1    1    2    0    0 -0.13974536379E+02 -0.36297938518E+02 -0.16246746843E+02  0.42151925111E+02  0.00000000000E+00 0. -1.
         11    1    1    2    0    0 -0.34320988668E+01 -0.39717470427E+02 -0.21125235665E+03  0.21498096416E+03  0.00000000000E+00 0.  1.
</event>
<event>
 7    1  0.2499014E-009  0.1452726E+03  0.7561462E-02  0.1206405E+00
          1   -1    0    0  501    0  0.00000000000E+00  0.00000000000E+00  0.60464258519E+03  0.60464258519E+03  0.00000000000E+00 0. -1.
         -1   -1    0    0    0  501 -0.00000000000E+00 -0.00000000000E+00 -0.41485109520E+02  0.41485109520E+02  0.00000000000E+00 0.  1.
         25    2    1    2    0    0  0.87586967953E+02  0.77122437854E+02  0.31486969191E+03  0.35834386681E+03  0.12509219250E+03 0.  0.
          5    1    3    3  502    0  0.11577164593E+03  0.69074571696E+02  0.21174757790E+03  0.25105553091E+03  0.41800000000E+01 0.  1.
         -5    1    3    3    0  502 -0.28184677974E+02  0.80478661580E+01  0.10312211401E+03  0.10728833590E+03  0.41800000000E+01 0.  1.
        -11    1    1    2    0    0 -0.50811087595E+02 -0.13500188795E+02  0.37566258888E+02  0.64616139833E+02  0.00000000000E+00 0.  1.
         11    1    1    2    0    0 -0.36775880358E+02 -0.63622249059E+02  0.21072152487E+03  0.22316768806E+03  0.00000000000E+00 0. -1.
</event>
<event>
 7    1  0.2499014E-009  0.1563280E+03  0.7561462E-02  0.1192906E+00
         -1   -1    0    0    0  501 -0.00000000000E+00  0.00000000000E+00  0.54773343592E+02  0.54773343592E+02  0.00000000000E+00 0.  1.
          1   -1    0    0  501    0  0.00000000000E+00 -0.00000000000E+00 -0.47559944354E+03  0.47559944354E+03  0.00000000000E+00 0. -1.
         25    2    1    2    0    0  0.67131370921E+02  0.97557968679E+02 -0.24168801017E+03  0.29678874499E+03  0.12508511773E+03 0.  0.
          5    1    3    3  502    0 -0.10105334098E+02 -0.22161968756E+02 -0.66491104468E+02  0.70935252236E+02  0.41800000000E+01 0. -1.
         -5    1    3    3    0  502  0.77236705020E+02  0.11971993744E+03 -0.17519690570E+03  0.22585349275E+03  0.41800000000E+01 0. -1.
        -11    1    1    2    0    0 -0.87478003253E+02 -0.78971333900E+02 -0.16455985280E+03  0.20240755368E+03  0.00000000000E+00 0.  1.
         11    1    1    2    0    0  0.20346632332E+02 -0.18586634780E+02 -0.14578236978E+02  0.31176488466E+02  0.00000000000E+00 0. -1.
</event>
<event>
 7    1  0.2499014E-009  0.1011752E+03  0.7561462E-02  0.1277844E+00
          2   -1    0    0  501    0  0.00000000000E+00  0.00000000000E+00  0.40935768521E+03  0.40935768521E+03  0.00000000000E+00 0.  1.
         -2   -1    0    0    0  501 -0.00000000000E+00 -0.00000000000E+00 -0.42493529570E+02  0.42493529570E+02  0.00000000000E+00 0. -1.
         25    2    1    2    0    0  0.53888945152E+02 -0.23480577186E+02  0.13143855875E+03  0.19073410346E+03  0.12509215636E+03 0.  0.
          5    1    3    3  502    0  0.32040399112E+02 -0.51755400678E+02  0.14089257890E+03  0.15353631448E+03  0.41800000000E+01 0. -1.
         -5    1    3    3    0  502  0.21848546039E+02  0.28274823491E+02 -0.94540201576E+01  0.37197788975E+02  0.41800000000E+01 0. -1.
        -11    1    1    2    0    0 -0.74867716820E+02  0.33607760595E+02  0.13467651182E+03  0.15770992179E+03  0.00000000000E+00 0. -1.
         11    1    1    2    0    0  0.20978771668E+02 -0.10127183408E+02  0.10074908507E+03  0.10340718953E+03  0.00000000000E+00 0.  1.
</event>
<event>
 7    1  0.2499014E-009  0.1849025E+03  0.7561462E-02  0.1163141E+00
          1   -1    0    0  501    0  0.00000000000E+00  0.00000000000E+00  0.55136649710E+03  0.55136649710E+03  0.00000000000E+00 0. -1.
         -1   -1    0    0    0  501 -0.00000000000E+00 -0.00000000000E+00 -0.76392154637E+02  0.76392154637E+02  0.00000000000E+00 0.  1.
         25    2    1    2    0    0  0.14542059564E+03 -0.90089392270E+02  0.29788011201E+03  0.36557172788E+03  0.12508748482E+03 0.  0.
          5    1    3    3  502    0  0.12173322546E+03 -0.25284707999E+02  0.11251017561E+03  0.16773284310E+03  0.41800000000E+01 0. -1.
         -5    1    3    3    0  502  0.23687370178E+02 -0.64804684271E+02  0.18536993640E+03  0.19783888478E+03  0.41800000000E+01 0. -1.
        -11    1    1    2    0    0 -0.70064210981E+02  0.68274379765E+02  0.15020960042E+03  0.17925765995E+03  0.00000000000E+00 0. -1.
         11    1    1    2    0    0 -0.75356384658E+02  0.21815012505E+02  0.26884630029E+02  0.82929263900E+02  0.00000000000E+00 0.  1.
</event>
<event>
 7    1  0.2499014E-009  0.9277230E+02  0.7561462E-02  0.1296274E+00
          1   -1    0    0  501    0  0.00000000000E+00  0.00000000000E+00  0.11108962811E+03  0.11108962811E+03  0.00000000000E+00 0. -1.
         -1   -1    0    0    0  501 -0.00000000000E+00 -0.00000000000E+00 -0.11028387889E+03  0.11028387889E+03  0.00000000000E+00 0.  1.
         25    2    1    2    0    0  0.21665221991E+01  0.73595809049E+01  0.21084847977E+02  0.12708103922E+03  0.12508462122E+03 0.  0.
          5    1    3    3  502    0 -0.48795046791E+02 -0.55544506313E+01  0.47189339236E+02  0.68235728549E+02  0.41800000000E+01 0.  1.
         -5    1    3    3    0  502  0.50961568990E+02  0.12914031536E+02 -0.26104491259E+02  0.58845310674E+02  0.41800000000E+01 0.  1.
        -11    1    1    2    0    0 -0.37975898950E+02 -0.23048666778E+02 -0.30496792402E+02  0.53883803579E+02  0.00000000000E+00 0.  1.
         11    1    1    2    0    0  0.35809376751E+02  0.15689085873E+02  0.10217693640E+02  0.40408664197E+02  0.00000000000E+00 0. -1.
</event>
<event>
 7    1  0.2499014E-009  0.1030084E+03  0.7561462E-02  0.1274094E+00
          1   -1    0    0  501    0  0.00000000000E+00  0.00000000000E+00  0.83574912365E+03  0.83574912365E+03  0.00000000000E+00 0. -1.
         -1   -1    0    0    0  501 -0.00000000000E+00 -0.00000000000E+00 -0.17260634797E+02  0.17260634797E+02  0.00000000000E+00 0.  1.
         25    2    1    2    0    0  0.29040453365E+02  0.36053598667E+02  0.40190292867E+03  0.42345806122E+03  0.12509018998E+03 0.  0.
          5    1    3    3  502    0 -0.23554916090E+02  0.46750510954E+02  0.71587971619E+02  0.88784877242E+02  0.41800000000E+01 0.  1.
         -5    1    3    3    0  502  0.52595369455E+02 -0.10696912287E+02  0.33031495705E+03  0.33467318398E+03  0.41800000000E+01 0.  1.
        -11    1    1    2    0    0 -0.47443233613E+02  0.11379032012E+02  0.27038321575E+03  0.27474975186E+03  0.00000000000E+00 0. -1.
         11    1    1    2    0    0  0.18402780248E+02 -0.47432630678E+02  0.14620234443E+03  0.15480194537E+03  0.00000000000E+00 0.  1.
</event>
<event>
 7    1  0.2499014E-009  0.1331978E+03  0.7561462E-02  0.1222786E+00
         -1   -1    0    0    0  501 -0.00000000000E+00  0.00000000000E+00  0.28782507483E+02  0.28782507483E+02  0.00000000000E+00 0.  1.
          1   -1    0    0  501    0  0.00000000000E+00 -0.00000000000E+00 -0.10092072045E+04  0.10092072045E+04  0.00000000000E+00 0. -1.
         25    2    1    2    0    0 -0.11531573597E+03 -0.44632618957E+02 -0.66495614415E+03  0.68782381834E+03  0.12508054119E+03 0.  0.
          5    1    3    3  502    0 -0.12119139472E+03 -0.32310456197E+02 -0.33782177928E+03  0.36037806078E+03  0.41800000000E+01 0.  1.
         -5    1    3    3    0  502  0.58756587525E+01 -0.12322162760E+02 -0.32713436487E+03  0.32744575756E+03  0.41800000000E+01 0.  1.
        -11    1    1    2    0    0  0.10132355998E+03  0.28471304501E+02 -0.31100111452E+03  0.32832723344E+03  0.00000000000E+00 0.  1.
         11    1    1    2    0    0  0.13992175996E+02  0.16161314457E+02 -0.44674383383E+01  0.21838660201E+02  0.00000000000E+00 0. -1.
</event>
<event>
 7    1  0.2499014E-009  0.9316566E+02  0.7561462E-02  0.1295362E+00
         -2   -1    0    0    0  501 -0.00000000000E+00  0.00000000000E+00  0.66748227056E+02  0.66748227056E+02  0.00000000000E+00 0.  1.
          2   -1    0    0  501    0  0.00000000000E+00 -0.00000000000E+00 -0.29070455774E+03  0.29070455774E+03  0.00000000000E+00 0. -1.
         25    2    1    2    0    0  0.14414726649E+02 -0.72892199066E+02 -0.18153216033E+03  0.23263989043E+03  0.12508531631E+03 0.  0.
          5    1    3    3  502    0  0.51263860136E+01 -0.53366459316E+02 -0.41924727074E+01  0.53938001825E+02  0.41800000000E+01 0. -1.
         -5    1    3    3    0  502  0.92883406359E+01 -0.19525739750E+02 -0.17733968762E+03  0.17870188860E+03  0.41800000000E+01 0. -1.
        -11    1    1    2    0    0 -0.28795637027E+02 -0.67726196440E+01  0.64149927143E+01  0.30268948118E+02  0.00000000000E+00 0.  1.
         11    1    1    2    0    0  0.14380910377E+02  0.79664818710E+02 -0.48839163071E+02  0.94543946252E+02  0.00000000000E+00 0. -1.
</event>
<event>
 7    1  0.2499014E-009  0.1489839E+03  0.7561462E-02  0.1201727E+00
         -2   -1    0    0    0  501 -0.00000000000E+00  0.00000000000E+00  0.58268675239E+02  0.58268675239E+02  0.00000000000E+00 0.  1.
          2   -1    0    0  501    0  0.00000000000E+00 -0.00000000000E+00 -0.50963314462E+03  0.50963314462E+03  0.00000000000E+00 0. -1.
         25    2    1    2    0    0  0.13210412011E+03 -0.72015906944E+01 -0.20791515731E+03  0.27636796217E+03  0.12508867422E+03 0.  0.
          5    1    3    3  502    0  0.48213501381E+02  0.17017785872E+02 -0.51933125755E+00  0.51301938134E+02  0.41800000000E+01 0. -1.
         -5    1    3    3    0  502  0.83890618727E+02 -0.24219376566E+02 -0.20739582605E+03  0.22506602403E+03  0.41800000000E+01 0. -1.
        -11    1    1    2    0    0 -0.64756728997E+02  0.47913653757E+02 -0.10580397634E+03  0.13297982395E+03  0.00000000000E+00 0.  1.
         11    1    1    2    0    0 -0.67347391111E+02 -0.40712063062E+02 -0.13764533573E+03  0.15855403374E+03  0.00000000000E+00 0. -1.
</event>
<event>
 7    1  0.2499014E-009  0.1048968E+03  0.7561462E-02  0.1270323E+00
         -2   -1    0    0    0  501 -0.00000000000E+00  0.00000000000E+00  0.73650306611E+02  0.73650306611E+02  0.00000000000E+00 0.  1.
          2   -1    0    0  501    0  0.00000000000E+00 -0.00000000000E+00 -0.22564809444E+03  0.22564809444E+03  0.00000000000E+00 0. -1.
         25    2    1    2    0    0 -0.57646155167E+02  0.79773152160E+01 -0.37513975230E+02  0.14297282976E+03  0.12508882823E+03 0.  0.
          5    1    3    3  502    0 -0.99074433363E+01 -0.56471249118E+02 -0.12207876971E+02  0.58767882985E+02  0.41800000000E+01 0. -1.
         -5    1    3    3    0  502 -0.47738711831E+02  0.64448564334E+02 -0.25306098259E+02  0.84204946773E+02  0.41800000000E+01 0. -1.
        -11    1    1    2    0    0  0.42815674360E+02  0.14380402748E+02 -0.71981171722E+01  0.45736100018E+02  0.00000000000E+00 0.  1.
         11    1    1    2    0    0  0.14830480808E+02 -0.22357717964E+02 -0.10728569542E+03  0.11058947127E+03  0.00000000000E+00 0. -1.
</event>
<event>
 7    1  0.2499014E-009  0.8620509E+02  0.7561462E-02  0.1312311E+00
         -1   -1    0    0    0  501 -0.00000000000E+00  0.00000000000E+00  0.40032444906E+02  0.40032444906E+02  0.00000000000E+00 0.  1.
          1   -1    0    0  501    0  0.00000000000E+00 -0.00000000000E+00 -0.39060455520E+03  0.39060455520E+03  0.00000000000E+00 0. -1.
         25    2    1    2    0    0 -0.52281618512E+02 -0.51421412750E+01 -0.25273893644E+03  0.28685230247E+03  0.12508982448E+03 0.  0.
          5    1    3    3  502    0 -0.26731464898E+02  0.35418602704E+02 -0.19410384773E+02  0.48613620212E+02  0.41800000000E+01 0.  1.
         -5    1    3    3    0  502 -0.25550153614E+02 -0.40560743979E+02 -0.23332855166E+03  0.23823868226E+03  0.41800000000E+01 0.  1.
        -11    1    1    2    0    0  0.29432831955E+02 -0.27230083756E+02 -0.96092725820E+02  0.10412291301E+03  0.00000000000E+00 0. -1.
         11    1    1    2    0    0  0.22848786557E+02  0.32372225031E+02 -0.17404480393E+01  0.39661784629E+02  0.00000000000E+00 0.  1.
</event>
<event>
 7    1  0.2499014E-009  0.5866097E+02  0.7561462E-02  0.1403539E+00
         -1   -1    0    0    0  501 -0.00000000000E+00  0.00000000000E+00  0.38003527273E+02  0.38003527273E+02  0.00000000000E+00 0.  1.
          1   -1    0    0  501    0  0.00000000000E+00 -0.00000000000E+00 -0.35929963372E+03  0.35929963372E+03  0.00000000000E+00 0. -1.
         25    2    1    2    0    0 -0.13935307682E+02 -0.30292592534E+02 -0.21967623544E+03  0.25498101080E+03  0.12508330620E+03 0.  0.
          5    1    3    3  502    0  0.15527419106E+02 -0.86224996306E+01  0.11053535421E+02  0.21333103133E+02  0.41800000000E+01 0.  1.
         -5    1    3    3    0  502 -0.29462726788E+02 -0.21670092903E+02 -0.23072977087E+03  0.23364790767E+03  0.41800000000E+01 0.  1.
        -11    1    1    2    0    0  0.33609379110E+02  0.25007523124E+02 -0.34202184359E+01  0.42031707925E+02  0.00000000000E+00 0.  1.
         11    1    1    2    0    0 -0.19674071428E+02  0.52850694103E+01 -0.98199652569E+02  0.10029044227E+03  0.00000000000E+00 0. -1.
</event>
<event>
 7    1  0.2499014E-009  0.1327717E+03  0.7561462E-02  0.1223400E+00
          1   -1    0    0  501    0  0.00000000000E+00  0.00000000000E+00  0.31002022509E+03  0.31002022509E+03  0.00000000000E+00 0.  1.
         -1   -1    0    0    0  501 -0.00000000000E+00 -0.00000000000E+00 -0.63862773086E+02  0.63862773086E+02  0.00000000000E+00 0. -1.
         25    2    1    2    0    0  0.44271281588E+02 -0.73468126835E+02  0.16758436445E+03  0.22602874826E+03  0.12508782434E+03 0.  0.
          5    1    3    3  502    0 -0.20324541825E+02 -0.75859378438E+02  0.12765178115E+03  0.14993392521E+03  0.41800000000E+01 0. -1.
         -5    1    3    3    0  502  0.64595823413E+02  0.23912516036E+01  0.39932583302E+02  0.76094823055E+02  0.41800000000E+01 0. -1.
        -11    1    1    2    0    0 -0.41728853853E+02 -0.63973353962E+01  0.43412379527E+02  0.60554585625E+02  0.00000000000E+00 0.  1.
         11    1    1    2    0    0 -0.25424277354E+01  0.79865462231E+02  0.35160708026E+02  0.87299664289E+02  0.00000000000E+00 0. -1.
</event>
<event>
 7    1  0.2499014E-009  0.8597901E+02  0.7561462E-02  0.1312892E+00
         -2   -1    0    0    0  501 -0.00000000000E+00  0.00000000000E+00  0.90332598050E+02  0.90332598050E+02  0.00000000000E+00 0. -1.
          2   -1    0    0  501    0  0.00000000000E+00 -0.00000000000E+00 -0.12843943488E+03  0.12843943488E+03  0.00000000000E+00 0.  1.
         25    2    1    2    0    0  0.92917273911E+01 -0.37218967460E+02 -0.11197755113E+02  0.13131457759E+03  0.12508613365E+03 0.  0.
          5    1    3    3  502    0 -0.49310816450E+02  0.27148940575E+01 -0.29864838889E+02  0.57864568351E+02  0.41800000000E+01 0. -1.
         -5    1    3    3    0  502  0.58602543841E+02 -0.39933861518E+02  0.18667083776E+02  0.73450009238E+02  0.41800000000E+01 0. -1.
        -11    1    1    2    0    0  0.44536431928E+01  0.37347041894E+02 -0.48797730589E+02  0.61610510357E+02  0.00000000000E+00 0.  1.
         11    1    1    2    0    0 -0.13745370584E+02 -0.12807443317E+00  0.21888648872E+02  0.25846944984E+02  0.00000000000E+00 0. -1.
</event>
<event>
 7    1  0.2499014E-009  0.1134127E+03  0.7561462E-02  0.1254377E+00
         -2   -1    0    0    0  501 -0.00000000000E+00  0.00000000000E+00  0.17761116214E+03  0.17761116214E+03  0.00000000000E+00 0.  1.
          2   -1    0    0  501    0  0.00000000000E+00 -0.00000000000E+00 -0.79025577604E+02  0.79025577604E+02  0.00000000000E+00 0. -1.
         25    2    1    2    0    0 -0.31199000118E+02 -0.19128984440E+02  0.25380598323E+02  0.13278131630E+03  0.12508959803E+03 0.  0.
          5    1    3    3  502    0  0.34503650118E+02 -0.45514876485E+02  0.23295660958E+02  0.61824477939E+02  0.41800000000E+01 0.  1.
         -5    1    3    3    0  502 -0.65702650236E+02  0.26385892045E+02  0.20849373657E+01  0.70956838365E+02  0.41800000000E+01 0.  1.
        -11    1    1    2    0    0  0.63822805887E+02  0.88908656736E+01  0.56939134950E+02  0.85991064260E+02  0.00000000000E+00 0.  1.
         11    1    1    2    0    0 -0.32623805769E+02  0.10238118767E+02  0.16265851262E+02  0.37864359179E+02  0.00000000000E+00 0. -1.
</event>
<event>
 7    1  0.2499014E-009  0.1271675E+03  0.7561462E-02  0.1231720E+00
          2   -1    0    0  501    0  0.00000000000E+00  0.00000000000E+00  0.30327211775E+03  0.30327211775E+03  0.00000000000E+00 0. -1.
         -2   -1    0    0    0  501 -0.00000000000E+00 -0.00000000000E+00 -0.67364429083E+02  0.67364429083E+02  0.00000000000E+00 0.  1.
         25    2    1    2    0    0 -0.74018402213E+02  0.11461591779E+02  0.64687069448E+02  0.15950671231E+03  0.12509149598E+03 0.  0.
          5    1    3    3  502    0 -0.72247051630E+02  0.61066979307E+02  0.32107631166E+02  0.99985923059E+02  0.41800000000E+01 0. -1.
         -5    1    3    3    0  502 -0.17713505830E+01 -0.49605387528E+02  0.32579438281E+02  0.59520789254E+02  0.41800000000E+01 0. -1.
        -11    1    1    2    0    0  0.52000263853E+02 -0.45631201991E+02  0.15020004359E+03  0.16536712832E+03  0.00000000000E+00 0.  1.
         11    1    1    2    0    0  0.22018138360E+02  0.34169610212E+02  0.21020575637E+02  0.45762706203E+02  0.00000000000E+00 0. -1.
</event>
<event>
 7    1  0.2499014E-009  0.1056006E+03  0.7561462E-02  0.1268941E+00
         -2   -1    0    0    0  501 -0.00000000000E+00  0.00000000000E+00  0.47556635000E+02  0.47556635000E+02  0.00000000000E+00 0.  1.
          2   -1    0    0  501    0  0.00000000000E+00 -0.00000000000E+00 -0.37441236064E+03  0.37441236064E+03  0.00000000000E+00 0. -1.
         25    2    1    2    0    0  0.39625339008E+02  0.87032879596E+01 -0.27812656142E+03  0.30764997004E+03  0.12509278631E+03 0.  0.
          5    1    3    3  502    0  0.43288059440E+02 -0.47079214553E+02 -0.84409068005E+02  0.10598429928E+03  0.41800000000E+01 0.  1.
         -5    1    3    3    0  502 -0.36627204318E+01  0.55782502512E+02 -0.19371749342E+03  0.20166567076E+03  0.41800000000E+01 0.  1.
        -11    1    1    2    0    0 -0.22524185086E+02 -0.45335829067E+02  0.48977721120E+00  0.50625252519E+02  0.00000000000E+00 0.  1.
         11    1    1    2    0    0 -0.17101153922E+02  0.36632541107E+02 -0.49218941431E+02  0.63693773078E+02  0.00000000000E+00 0. -1.
</event>
<event>
 7    1  0.2499014E-009  0.1171021E+03  0.7561462E-02  0.1247956E+00
          2   -1    0    0  501    0  0.00000000000E+00  0.00000000000E+00  0.26947942234E+03  0.26947942234E+03  0.00000000000E+00 0. -1.
         -2   -1    0    0    0  501 -0.00000000000E+00 -0.00000000000E+00 -0.88475728236E+02  0.88475728236E+02  0.00000000000E+00 0.  1.
         25    2    1    2    0    0 -0.43566631257E+02 -0.27461912512E+02  0.21110132356E+03  0.25073353104E+03  0.12510526281E+03 0.  0.
          5    1    3    3  502    0 -0.49927886358E+02 -0.72258858608E+02  0.15822108127E+03  0.18101248421E+03  0.41800000000E+01 0.  1.
         -5    1    3    3    0  502  0.63612551015E+01  0.44796946096E+02  0.52880242292E+02  0.69721046829E+02  0.41800000000E+01 0.  1.
        -11    1    1    2    0    0  0.62241190018E+01  0.54422799209E+02 -0.26970987113E+02  0.61057471918E+02  0.00000000000E+00 0.  1.
         11    1    1    2    0    0  0.37342512255E+02 -0.26960886698E+02 -0.31266423411E+01  0.46164147619E+02  0.00000000000E+00 0. -1.
</event>
<event>
 7    1  0.2499014E-009  0.1429609E+03  0.7561462E-02  0.1209399E+00
         -1   -1    0    0    0  501 -0.00000000000E+00  0.00000000000E+00  0.98790259891E+02  0.98790259891E+02  0.00000000000E+00 0.  1.
          1   -1    0    0  501    0  0.00000000000E+00 -0.00000000000E+00 -0.22396472805E+03  0.22396472805E+03  0.00000000000E+00 0. -1.
         25    2    1    2    0    0  0.83145555351E+02 -0.47985068008E+02 -0.34448267006E+02  0.16140449213E+03  0.12509587066E+03 0.  0.
          5    1    3    3  502    0 -0.24229216779E+01  0.33963153512E+02  0.84462567360E+01  0.35329562675E+02  0.41800000000E+01 0. -1.
         -5    1    3    3    0  502  0.85568477029E+02 -0.81948221520E+02 -0.42894523742E+02  0.12607492946E+03  0.41800000000E+01 0. -1.
        -11    1    1    2    0    0 -0.15901566242E+02 -0.27626444460E+02 -0.26948788482E+02  0.41741076209E+02  0.00000000000E+00 0.  1.
         11    1    1    2    0    0 -0.67243989110E+02  0.75611512468E+02 -0.63777412669E+02  0.11960941959E+03  0.00000000000E+00 0. -1.
</event>
<event>
 7    1  0.2499014E-009  0.1186168E+03  0.7561462E-02  0.1245396E+00
         -4   -1    0    0    0  501 -0.00000000000E+00  0.00000000000E+00  0.15098577391E+03  0.15098577391E+03  0.00000000000E+00 0.  1.
          4   -1    0    0  501    0  0.00000000000E+00 -0.00000000000E+00 -0.13784751111E+03  0.13784751111E+03  0.00000000000E+00 0. -1.
         25    2    1    2    0    0 -0.74988044650E+02 -0.56105803869E+02 -0.19626082020E+02  0.15748387708E+03  0.12507965612E+03 0.  0.
          5    1    3    3  502    0 -0.98746073276E+02 -0.26045918025E+02 -0.44644252950E+02  0.11153366557E+03  0.41800000000E+01 0.  1.
         -5    1    3    3    0  502  0.23758028626E+02 -0.30059885844E+02  0.25018170931E+02  0.45950211510E+02  0.41800000000E+01 0.  1.
        -11    1    1    2    0    0  0.14765771209E+02  0.24151406608E+02  0.53127496163E+02  0.60198416001E+02  0.00000000000E+00 0.  1.
         11    1    1    2    0    0  0.60222273441E+02  0.31954397261E+02 -0.20363151343E+02  0.71150991949E+02  0.00000000000E+00 0. -1.
</event>
<event>
 7    1  0.2499014E-009  0.3532540E+03  0.7561462E-02  0.1061287E+00
          1   -1    0    0  501    0  0.00000000000E+00  0.00000000000E+00  0.10041071257E+04  0.10041071257E+04  0.00000000000E+00 0. -1.
         -1   -1    0    0    0  501 -0.00000000000E+00 -0.00000000000E+00 -0.20663071755E+03  0.20663071755E+03  0.00000000000E+00 0.  1.
         25    2    1    2    0    0 -0.23433690052E+03  0.25304514019E+03  0.34677858273E+02  0.36850527182E+03  0.12509178864E+03 0.  0.
          5    1    3    3  502    0 -0.52826219973E+02  0.12925052948E+03 -0.22376183404E+02  0.14147252338E+03  0.41800000000E+01 0. -1.
         -5    1    3    3    0  502 -0.18151068054E+03  0.12379461071E+03  0.57054041677E+02  0.22703274844E+03  0.41800000000E+01 0. -1.
        -11    1    1    2    0    0  0.83849550314E+02 -0.64246145797E+02  0.33190023848E+03  0.34830458315E+03  0.00000000000E+00 0.  1.
         11    1    1    2    0    0  0.15048735020E+03 -0.18879899439E+03  0.43089831144E+03  0.49392798833E+03  0.00000000000E+00 0. -1.
</event>
<event>
 7    1  0.2499014E-009  0.1387086E+03  0.7561462E-02  0.1215077E+00
          1   -1    0    0  501    0  0.00000000000E+00  0.00000000000E+00  0.47785481011E+03  0.47785481011E+03  0.00000000000E+00 0. -1.
         -1   -1    0    0    0  501 -0.00000000000E+00 -0.00000000000E+00 -0.52265109314E+02  0.52265109314E+02  0.00000000000E+00 0.  1.
         25    2    1    2    0    0  0.88159601129E+02  0.60128057822E+02  0.30253610627E+03  0.34432771039E+03  0.12508388361E+03 0.  0.
          5    1    3    3  502    0  0.52425743585E+02 -0.33268102678E+02  0.90184768841E+02  0.10957184938E+03  0.41800000000E+01 0. -1.
         -5    1    3    3    0  502  0.35733857545E+02  0.93396160500E+02  0.21235133743E+03  0.23475586101E+03  0.41800000000E+01 0. -1.
        -11    1    1    2    0    0 -0.51325726656E+02 -0.90362018607E+01  0.10963860895E+03  0.12139443040E+03  0.00000000000E+00 0. -1.
         11    1    1    2    0    0 -0.36833874474E+02 -0.51091855961E+02  0.13414985580E+02  0.64397778629E+02  0.00000000000E+00 0.  1.
</event>
<event>
 7    1  0.2499014E-009  0.8241148E+02  0.7561462E-02  0.1322344E+00
          2   -1    0    0  501    0  0.00000000000E+00  0.00000000000E+00  0.60865032505E+03  0.60865032505E+03  0.00000000000E+00 0. -1.
         -2   -1    0    0    0  501 -0.00000000000E+00 -0.00000000000E+00 -0.21681616304E+02  0.21681616304E+02  0.00000000000E+00 0.  1.
         25    2    1    2    0    0 -0.28530278217E+01  0.31279727158E+02  0.35889200640E+03  0.38136242323E+03  0.12508902629E+03 0.  0.
          5    1    3    3  502    0 -0.61740124026E+01  0.51933040079E+02  0.35598811429E+03  0.35983352956E+03  0.41800000000E+01 0. -1.
         -5    1    3    3    0  502  0.33209845809E+01 -0.20653312921E+02  0.29038921051E+01  0.21528893667E+02  0.41800000000E+01 0. -1.
        -11    1    1    2    0    0 -0.13749991648E+02 -0.57977655387E+02  0.19240571909E+03  0.20142103051E+03  0.00000000000E+00 0. -1.
         11    1    1    2    0    0  0.16603019470E+02  0.26697928229E+02  0.35670983256E+02  0.47548487607E+02  0.00000000000E+00 0.  1.
</event>
<event>
 7    1  0.2499014E-009  0.1582098E+03  0.7561462E-02  0.1190733E+00
          2   -1    0    0  501    0  0.00000000000E+00  0.00000000000E+00  0.23764918797E+04  0.23764918797E+04  0.00000000000E+00 0. -1.
         -2   -1    0    0    0  501 -0.00000000000E+00 -0.00000000000E+00 -0.15424510010E+02  0.15424510010E+02  0.00000000000E+00 0.  1.
         25    2    1    2    0    0 -0.14351151691E+03  0.44548493622E+01  0.16485307177E+04  0.16594931475E+04  0.12509427776E+03 0.  0.
          5    1    3    3  502    0 -0.50106812157E+02  0.35320925555E+02  0.24775280756E+03  0.25525905755E+03  0.41800000000E+01 0. -1.
         -5    1    3    3    0  502 -0.93404704755E+02 -0.30866076193E+02  0.14007779101E+04  0.14042340900E+04  0.41800000000E+01 0. -1.
        -11    1    1    2    0    0  0.18141495669E+02  0.21862075270E+02  0.49049589928E+02  0.56682682296E+02  0.00000000000E+00 0.  1.
         11    1    1    2    0    0  0.12537002124E+03 -0.26316924633E+02  0.66348706212E+03  0.67574055994E+03  0.00000000000E+00 0. -1.
</event>
<event>
 7    1  0.2499014E-009  0.1000593E+03  0.7561462E-02  0.1280171E+00
          3   -1    0    0  501    0  0.00000000000E+00  0.00000000000E+00  0.56849936451E+02  0.56849936451E+02  0.00000000000E+00 0. -1.
         -3   -1    0    0    0  501 -0.00000000000E+00 -0.00000000000E+00 -0.22387620609E+03  0.22387620609E+03  0.00000000000E+00 0.  1.
         25    2    1    2    0    0  0.18972643953E+01 -0.25156433707E+02 -0.74467417503E+02  0.14774753892E+03  0.12508994052E+03 0.  0.
          5    1    3    3  502    0 -0.60801281344E+02 -0.60708683266E+01 -0.43616117559E+02  0.75189689228E+02  0.41800000000E+01 0. -1.
         -5    1    3    3    0  502  0.62698545739E+02 -0.19085565381E+02 -0.30851299944E+02  0.72557849692E+02  0.41800000000E+01 0. -1.
        -11    1    1    2    0    0 -0.25306107574E+02  0.38637176344E+02 -0.95224384378E+02  0.10583436992E+03  0.00000000000E+00 0.  1.
         11    1    1    2    0    0  0.23408843179E+02 -0.13480742637E+02  0.26655322418E+01  0.27144233700E+02  0.00000000000E+00 0. -1.
</event>
<event>
 7    1  0.2499014E-009  0.1470392E+03  0.7561462E-02  0.1204159E+00
          2   -1    0    0  501    0  0.00000000000E+00  0.00000000000E+00  0.16094379698E+03  0.16094379698E+03  0.00000000000E+00 0. -1.
         -2   -1    0    0    0  501 -0.00000000000E+00 -0.00000000000E+00 -0.14236365887E+03  0.14236365887E+03  0.00000000000E+00 0.  1.
         25    2    1    2    0    0 -0.63231419126E+01 -0.10155058073E+03  0.29526690315E+02  0.16392549130E+03  0.12508892312E+03 0.  0.
          5    1    3    3  502    0  0.58837676187E+02 -0.53388885889E+02  0.78594449250E+01  0.79946785739E+02  0.41800000000E+01 0. -1.
         -5    1    3    3    0  502 -0.65160818100E+02 -0.48161694842E+02  0.21667245390E+02  0.83978705564E+02  0.41800000000E+01 0. -1.
        -11    1    1    2    0    0 -0.21604734949E+02  0.10317074237E+03  0.78157242884E+01  0.10569792903E+03  0.00000000000E+00 0.  1.
         11    1    1    2    0    0  0.27927876862E+02 -0.16201616427E+01 -0.18762276499E+02  0.33684035524E+02  0.00000000000E+00 0. -1.
</event>
<event>
 7    1  0.2499014E-009  0.3085202E+03  0.7561462E-02  0.1081057E+00
         -2   -1    0    0    0  501 -0.00000000000E+00  0.00000000000E+00  0.55540450587E+02  0.55540450587E+02  0.00000000000E+00 0.  1.
          2   -1    0    0  501    0  0.00000000000E+00 -0.00000000000E+00 -0.18917094180E+04  0.18917094180E+04  0.00000000000E+00 0. -1.
         25    2    1    2    0    0  0.30212530809E+03 -0.34249645809E+02 -0.86008145672E+03  0.92078321663E+03  0.12509548280E+03 0.  0.
          5    1    3    3  502    0  0.14163594670E+03 -0.36541085661E+02 -0.24763070932E+03  0.28763593819E+03  0.41800000000E+01 0.  1.
         -5    1    3    3    0  502  0.16048936140E+03  0.22914398527E+01 -0.61245074740E+03  0.63314727845E+03  0.41800000000E+01 0.  1.
        -11    1    1    2    0    0 -0.17962409805E+03  0.50461616685E+02 -0.69110484129E+03  0.71584711567E+03  0.00000000000E+00 0.  1.
         11    1    1    2    0    0 -0.12250121004E+03 -0.16211970877E+02 -0.28498266945E+03  0.31061953633E+03  0.00000000000E+00 0. -1.
</event>
<event>
 7    1  0.2499014E-009  0.1606582E+03  0.7561462E-02  0.1187956E+00
          1   -1    0    0  501    0  0.00000000000E+00  0.00000000000E+00  0.10260343586E+03  0.10260343586E+03  0.00000000000E+00 0. -1.
         -1   -1    0    0    0  501 -0.00000000000E+00 -0.00000000000E+00 -0.33647513000E+03  0.33647513000E+03  0.00000000000E+00 0.  1.
         25    2    1    2    0    0 -0.12677765694E+03 -0.15361804687E+02 -0.28022463644E+02  0.18094422777E+03  0.12508795206E+03 0.  0.
          5    1    3    3  502    0 -0.48726807326E+02 -0.61990644843E+02  0.14839655216E+02  0.80341953967E+02  0.41800000000E+01 0.  1.
         -5    1    3    3    0  502 -0.78050849619E+02  0.46628840156E+02 -0.42862118860E+02  0.10060227380E+03  0.41800000000E+01 0.  1.
        -11    1    1    2    0    0  0.37782859871E+02  0.43865503976E+02 -0.10979337658E+03  0.12412216756E+03  0.00000000000E+00 0. -1.
         11    1    1    2    0    0  0.88994797073E+02 -0.28503699289E+02 -0.96055853922E+02  0.13401217054E+03  0.00000000000E+00 0.  1.
</event>
<event>
 7    1  0.2499014E-009  0.1327461E+03  0.7561462E-02  0.1223437E+00
          2   -1    0    0  501    0  0.00000000000E+00  0.00000000000E+00  0.91312656480E+03  0.91312656480E+03  0.00000000000E+00 0.  1.
         -2   -1    0    0    0  501 -0.00000000000E+00 -0.00000000000E+00 -0.21074222685E+02  0.21074222685E+02  0.00000000000E+00 0. -1.
         25    2    1    2    0    0  0.67499833491E+02  0.57065229052E+02  0.51269930775E+03  0.53509122684E+03  0.12509745395E+03 0.  0.
          5    1    3    3  502    0 -0.29170471777E+02  0.27525928673E+02  0.68246723955E+02  0.79269672029E+02  0.41800000000E+01 0.  1.
         -5    1    3    3    0  502  0.96670305268E+02  0.29539300379E+02  0.44445258380E+03  0.45582155481E+03  0.41800000000E+01 0.  1.
        -11    1    1    2    0    0  0.21229045449E+02 -0.86857095414E+01  0.67677384290E+02  0.71458675227E+02  0.00000000000E+00 0.  1.
         11    1    1    2    0    0 -0.88728878940E+02 -0.48379519511E+02  0.31167565007E+03  0.32765088542E+03  0.00000000000E+00 0. -1.
</event>
<event>
 7    1  0.2499014E-009  0.1080513E+03  0.7561462E-02  0.1264222E+00
         -2   -1    0    0    0  501 -0.00000000000E+00  0.00000000000E+00  0.33590835434E+02  0.33590835434E+02  0.00000000000E+00 0.  1.
          2   -1    0    0  501    0  0.00000000000E+00 -0.00000000000E+00 -0.52454346578E+03  0.52454346578E+03  0.00000000000E+00 0. -1.
         25    2    1    2    0    0 -0.24561995534E+02 -0.12345999347E+02 -0.12139132205E+03  0.17646958267E+03  0.12509974107E+03 0.  0.
          5    1    3    3  502    0 -0.33396963028E+02 -0.65022391334E+02 -0.82262512249E+02  0.11012657189E+03  0.41800000000E+01 0.  1.
         -5    1    3    3    0  502  0.88349674943E+01  0.52676391987E+02 -0.39128809800E+02  0.66343010783E+02  0.41800000000E+01 0.  1.
        -11    1    1    2    0    0  0.12442539913E+02 -0.36719311290E+02 -0.97069853448E+02  0.10452598275E+03  0.00000000000E+00 0.  1.
         11    1    1    2    0    0  0.12119455621E+02  0.49065310637E+02 -0.27249145485E+03  0.27713873579E+03  0.00000000000E+00 0. -1.
</event>
<event>
 7    1  0.2499014E-009  0.1638492E+03  0.7561462E-02  0.1184418E+00
         -1   -1    0    0    0  501 -0.00000000000E+00  0.00000000000E+00  0.70176586927E+02  0.70176586927E+02  0.00000000000E+00 0.  1.
          1   -1    0    0  501    0  0.00000000000E+00 -0.00000000000E+00 -0.60851095451E+03  0.60851095451E+03  0.00000000000E+00 0. -1.
         25    2    1    2    0    0  0.24847461004E+01  0.14378116957E+03 -0.44822943117E+03  0.48706854071E+03  0.12508773598E+03 0.  0.
          5    1    3    3  502    0 -0.50287704656E+02  0.51220551683E+02 -0.10202794388E+03  0.12481815527E+03  0.41800000000E+01 0.  1.
         -5    1    3    3    0  502  0.52772450756E+02  0.92560617890E+02 -0.34620148730E+03  0.36225038544E+03  0.41800000000E+01 0.  1.
        -11    1    1    2    0    0 -0.20594249639E+02 -0.59533867344E+02 -0.84319990117E+02  0.10525333825E+03  0.00000000000E+00 0.  1.
         11    1    1    2    0    0  0.18109503539E+02 -0.84247302229E+02 -0.57849462918E+01  0.86365662475E+02  0.00000000000E+00 0. -1.
</event>
<event>
 7    1  0.2499014E-009  0.1053456E+03  0.7561462E-02  0.1269440E+00
          1   -1    0    0  501    0  0.00000000000E+00  0.00000000000E+00  0.44259158498E+03  0.44259158498E+03  0.00000000000E+00 0. -1.
         -1   -1    0    0    0  501 -0.00000000000E+00 -0.00000000000E+00 -0.50134175439E+02  0.50134175439E+02  0.00000000000E+00 0.  1.
         25    2    1    2    0    0  0.92970911698E+02 -0.31188617046E+02  0.25161378889E+03  0.29760933310E+03  0.12508195768E+03 0.  0.
          5    1    3    3  502    0  0.20699814208E+01  0.15334314812E+01  0.17276912956E+03  0.17283888672E+03  0.41800000000E+01 0.  1.
         -5    1    3    3    0  502  0.90900930277E+02 -0.32722048527E+02  0.78844659326E+02  0.12477044638E+03  0.41800000000E+01 0.  1.
        -11    1    1    2    0    0 -0.96286951360E+02  0.21252010864E+02  0.15111868055E+03  0.18044301200E+03  0.00000000000E+00 0. -1.
         11    1    1    2    0    0  0.33160396622E+01  0.99366061815E+01 -0.10275059891E+02  0.14673415322E+02  0.00000000000E+00 0.  1.
</event>
<event>
 7    1  0.2499014E-009  0.2504169E+03  0.7561462E-02  0.1113042E+00
         -1   -1    0    0    0  501 -0.00000000000E+00  0.00000000000E+00  0.44018471695E+03  0.44018471695E+03  0.00000000000E+00 0.  1.
          1   -1    0    0  501    0  0.00000000000E+00 -0.00000000000E+00 -0.17814058640E+03  0.17814058640E+03  0.00000000000E+00 0. -1.
         25    2    1    2    0    0  0.21681759667E+03 -0.11007974895E+03  0.23287121281E+03  0.35917053847E+03  0.12508817929E+03 0.  0.
          5    1    3    3  502    0  0.21432099683E+03 -0.90968599636E+02  0.24336781400E+03  0.33682954308E+03  0.41800000000E+01 0. -1.
         -5    1    3    3    0  502  0.24965998376E+01 -0.19111149315E+02 -0.10496601183E+02  0.22340995396E+02  0.41800000000E+01 0. -1.
        -11    1    1    2    0    0 -0.13361635632E+02  0.23713320100E+02  0.26677751713E+02  0.38112429644E+02  0.00000000000E+00 0.  1.
         11    1    1    2    0    0 -0.20345596104E+03  0.86366428850E+02  0.24951660253E+01  0.22104233524E+03  0.00000000000E+00 0. -1.
</event>
<event>
 7    1  0.2499014E-009  0.1040562E+03  0.7561462E-02  0.1271990E+00
         -1   -1    0    0    0  501 -0.00000000000E+00  0.00000000000E+00  0.24551132381E+03  0.24551132381E+03  0.00000000000E+00 0.  1.
          1   -1    0    0  501    0  0.00000000000E+00 -0.00000000000E+00 -0.74479613317E+02  0.74479613317E+02  0.00000000000E+00 0. -1.
         25    2    1    2    0    0  0.29128183307E+02  0.10954027543E+01  0.39141992222E+01  0.12849886175E+03  0.12508791126E+03 0.  0.
          5    1    3    3  502    0  0.55707703627E+02  0.44305663936E+02 -0.17272507758E+02  0.73363151680E+02  0.41800000000E+01 0. -1.
         -5    1    3    3    0  502 -0.26579520320E+02 -0.43210261181E+02  0.21186706980E+02  0.55135710066E+02  0.41800000000E+01 0. -1.
        -11    1    1    2    0    0 -0.32293014807E+02 -0.37430952168E+02  0.56794344146E+02  0.75296165325E+02  0.00000000000E+00 0. -1.
         11    1    1    2    0    0  0.31648314999E+01  0.36335549414E+02  0.11032316712E+03  0.11619591005E+03  0.00000000000E+00 0.  1.
</event>
<event>
 7    1  0.2499014E-009  0.5156888E+02  0.7561462E-02  0.1437059E+00
         -4   -1    0    0    0  501 -0.00000000000E+00  0.00000000000E+00  0.19109355020E+03  0.19109355020E+03  0.00000000000E+00 0.  1.
          4   -1    0    0  501    0  0.00000000000E+00 -0.00000000000E+00 -0.68745336375E+02  0.68745336375E+02  0.00000000000E+00 0. -1.
         25    2    1    2    0    0 -0.34656634362E+02  0.12791055530E+02  0.77469570908E+02  0.15170301287E+03  0.12509027256E+03 0.  0.
          5    1    3    3  502    0  0.14445413333E+01 -0.75932850673E+01  0.10264432870E+03  0.10301978107E+03  0.41800000000E+01 0.  1.
         -5    1    3    3    0  502 -0.36101175695E+02  0.20384340597E+02 -0.25174757792E+02  0.48683231795E+02  0.41800000000E+01 0.  1.
        -11    1    1    2    0    0 -0.32384705971E+01 -0.14392849271E+02  0.63986881161E+02  0.65665537101E+02  0.00000000000E+00 0.  1.
         11    1    1    2    0    0  0.37895104959E+02  0.16017937417E+01 -0.19108238242E+02  0.42470336610E+02  0.00000000000E+00 0. -1.
</event>
<event>
 7    1  0.2499014E-009  0.1238036E+03  0.7561462E-02  0.1236951E+00
          2   -1    0    0  501    0  0.00000000000E+00  0.00000000000E+00  0.36558461161E+03  0.36558461161E+03  0.00000000000E+00 0. -1.
         -2   -1    0    0    0  501 -0.00000000000E+00 -0.00000000000E+00 -0.47766860417E+02  0.47766860417E+02  0.00000000000E+00 0.  1.
         25    2    1    2    0    0  0.16768110581E+02 -0.69631144734E+02  0.21078046568E+03  0.25535470845E+03  0.12509179257E+03 0.  0.
          5    1    3    3  502    0  0.65240122096E+02 -0.22976953082E+02  0.14719511024E+03  0.16269015577E+03  0.41800000000E+01 0.  1.
         -5    1    3    3    0  502 -0.48472011515E+02 -0.46654191651E+02  0.63585355431E+02  0.92664552685E+02  0.41800000000E+01 0.  1.
        -11    1    1    2    0    0  0.30880720596E+02  0.60754796419E+01  0.10940861091E+02  0.33320156044E+02  0.00000000000E+00 0.  1.
         11    1    1    2    0    0 -0.47648831177E+02  0.63555665092E+02  0.96096424429E+02  0.12467660753E+03  0.00000000000E+00 0. -1.
</event>
<event>
 7    1  0.2499014E-009  0.1461838E+03  0.7561462E-02  0.1205242E+00
          2   -1    0    0  501    0  0.00000000000E+00  0.00000000000E+00  0.80373168376E+02  0.80373168376E+02  0.00000000000E+00 0. -1.
         -2   -1    0    0    0  501 -0.00000000000E+00 -0.00000000000E+00 -0.26775838310E+03  0.26775838310E+03  0.00000000000E+00 0.  1.
         25    2    1    2    0    0 -0.94088833698E+02  0.31786652349E+02 -0.92870763856E+02  0.18475651601E+03  0.12508753550E+03 0.  0.
          5    1    3    3  502    0 -0.87819924661E+02 -0.33260667567E+02 -0.49777315531E+02  0.10636665227E+03  0.41800000000E+01 0. -1.
         -5    1    3    3    0  502 -0.62689090368E+01  0.65047319916E+02 -0.43093448325E+02  0.78389863741E+02  0.41800000000E+01 0. -1.
        -11    1    1    2    0    0  0.67216286553E+02 -0.62702940035E+02 -0.59613520292E+02  0.10956030152E+03  0.00000000000E+00 0.  1.
         11    1    1    2    0    0  0.26872547145E+02  0.30916287686E+02 -0.34900930572E+02  0.53814733941E+02  0.00000000000E+00 0. -1.
</event>
<event>
 7    1  0.2499014E-009  0.2716891E+03  0.7561462E-02  0.1100317E+00
         -4   -1    0    0    0  501 -0.00000000000E+00  0.00000000000E+00  0.58010269881E+03  0.58010269881E+03  0.00000000000E+00 0.  1.
          4   -1    0    0  501    0  0.00000000000E+00 -0.00000000000E+00 -0.14574042678E+03  0.14574042678E+03  0.00000000000E+00 0. -1.
         25    2    1    2    0    0 -0.21842065639E+03  0.15673559171E+03  0.25229383226E+03  0.38932557459E+03  0.12509434992E+03 0.  0.
          5    1    3    3  502    0 -0.19348505281E+03  0.15527223946E+03  0.26323238890E+03  0.36173843724E+03  0.41800000000E+01 0.  1.
         -5    1    3    3    0  502 -0.24935603582E+02  0.14633522428E+01 -0.10938556637E+02  0.27587137349E+02  0.41800000000E+01 0.  1.
        -11    1    1    2    0    0  0.13595081056E+03 -0.82852995115E+02  0.56098502404E+02  0.16880249899E+03  0.00000000000E+00 0.  1.
         11    1    1    2    0    0  0.82469845831E+02 -0.73882596592E+02  0.12596993737E+03  0.16771505201E+03  0.00000000000E+00 0. -1.
</event>
<event>
 7    1  0.2499014E-009  0.2077047E+03  0.7561462E-02  0.1143397E+00
         -1   -1    0    0    0  501 -0.00000000000E+00  0.00000000000E+00  0.36111698785E+02  0.36111698785E+02  0.00000000000E+00 0. -1.
          1   -1    0    0  501    0  0.00000000000E+00 -0.00000000000E+00 -0.14169557560E+04  0.14169557560E+04  0.00000000000E+00 0.  1.
         25    2    1    2    0    0 -0.79861338878E+02  0.17206684595E+03 -0.88666390570E+03  0.91531550113E+03  0.12507898306E+03 0.  0.
          5    1    3    3  502    0 -0.87170601830E+02  0.49617750962E+02 -0.31445395043E+03  0.33008997921E+03  0.41800000000E+01 0.  1.
         -5    1    3    3    0  502  0.73092629519E+01  0.12244909499E+03 -0.57220995528E+03  0.58522552192E+03  0.41800000000E+01 0.  1.
        -11    1    1    2    0    0  0.38411843376E+02 -0.48022118999E+02 -0.66743879718E+02  0.90754278712E+02  0.00000000000E+00 0. -1.
         11    1    1    2    0    0  0.41449495502E+02 -0.12404472695E+03 -0.42743627179E+03  0.44699767494E+03  0.00000000000E+00 0.  1.
</event>
<event>
 7    1  0.2499014E-009  0.1192052E+03  0.7561462E-02  0.1244414E+00
         -1   -1    0    0    0  501 -0.00000000000E+00  0.00000000000E+00  0.18007966047E+02  0.18007966047E+02  0.00000000000E+00 0.  1.
          1   -1    0    0  501    0  0.00000000000E+00 -0.00000000000E+00 -0.99404139899E+03  0.99404139899E+03  0.00000000000E+00 0. -1.
         25    2    1    2    0    0  0.66938027651E+02  0.21105372225E+01 -0.69864455166E+03  0.71290518950E+03  0.12507775872E+03 0.  0.
          5    1    3    3  502    0  0.41849885438E+02 -0.60676883455E+02 -0.34083330799E+03  0.34873759954E+03  0.41800000000E+01 0.  1.
         -5    1    3    3    0  502  0.25088142213E+02  0.62787420678E+02 -0.35781124368E+03  0.36416758996E+03  0.41800000000E+01 0.  1.
        -11    1    1    2    0    0 -0.41447436797E+02  0.33328195195E+02 -0.74040229157E+02  0.91162569871E+02  0.00000000000E+00 0.  1.
         11    1    1    2    0    0 -0.25490590855E+02 -0.35438732418E+02 -0.20334865212E+03  0.20798160567E+03  0.00000000000E+00 0. -1.
</event>
<event>
 7    1  0.2499014E-009  0.1028299E+03  0.7561462E-02  0.1274455E+00
         -2   -1    0    0    0  501 -0.00000000000E+00  0.00000000000E+00  0.14518134694E+02  0.14518134694E+02  0.00000000000E+00 0. -1.
          2   -1    0    0  501    0  0.00000000000E+00 -0.00000000000E+00 -0.12722405190E+04  0.12722405190E+04  0.00000000000E+00 0.  1.
         25    2    1    2    0    0 -0.38706427678E+02  0.69931242216E+02 -0.58699000270E+03  0.60546924111E+03  0.12508865847E+03 0.  0.
          5    1    3    3  502    0 -0.22812587310E+02  0.12157409570E+02 -0.49445984270E+03  0.49515272915E+03  0.41800000000E+01 0. -1.
         -5    1    3    3    0  502 -0.15893840367E+02  0.57773832646E+02 -0.92530160006E+02  0.11031651196E+03  0.41800000000E+01 0. -1.
        -11    1    1    2    0    0  0.65611811645E+02 -0.32255195374E+02 -0.39984016946E+03  0.40646951739E+03  0.00000000000E+00 0. -1.
         11    1    1    2    0    0 -0.26905383967E+02 -0.37676046842E+02 -0.27089221217E+03  0.27481989522E+03  0.00000000000E+00 0.  1.
</event>
<event>
 7    1  0.2499014E-009  0.1411408E+03  0.7561462E-02  0.1211802E+00
         -2   -1    0    0    0  501 -0.00000000000E+00  0.00000000000E+00  0.33188933594E+03  0.33188933594E+03  0.00000000000E+00 0.  1.
          2   -1    0    0  501    0  0.00000000000E+00 -0.00000000000E+00 -0.84098607660E+02  0.84098607660E+02  0.00000000000E+00 0. -1.
         25    2    1    2    0    0  0.45071979243E+02  0.10384690286E+03  0.20043299088E+03  0.26198416545E+03  0.12508659627E+03 0.  0.
          5    1    3    3  502    0  0.42028390357E+01 -0.11789210396E+02 -0.11225002917E+02  0.17324041914E+02  0.41800000000E+01 0.  1.
         -5    1    3    3    0  502  0.40869140208E+02  0.11563611326E+03  0.21165799379E+03  0.24466012353E+03  0.41800000000E+01 0.  1.
        -11    1    1    2    0    0 -0.60237330528E+02 -0.23589759232E+02  0.17228393446E+02  0.66946473174E+02  0.00000000000E+00 0. -1.
         11    1    1    2    0    0  0.15165351284E+02 -0.80257143631E+02  0.30129343963E+02  0.87057304984E+02  0.00000000000E+00 0.  1.
</event>
<event>
 7    1  0.2499014E-009  0.1163015E+03  0.7561462E-02  0.1249326E+00
          1   -1    0    0  501    0  0.00000000000E+00  0.00000000000E+00  0.16615854782E+03  0.16615854782E+03  0.00000000000E+00 0. -1.
         -1   -1    0    0    0  501 -0.00000000000E+00 -0.00000000000E+00 -0.91000993148E+02  0.91000993148E+02  0.00000000000E+00 0.  1.
         25    2    1    2    0    0  0.44579074743E+02  0.35396848949E+02  0.71151598854E+02  0.15476103466E+03  0.12509275362E+03 0.  0.
          5    1    3    3  502    0  0.13239185963E+02  0.79385254765E+02  0.57184354962E+02  0.98817091495E+02  0.41800000000E+01 0.  1.
         -5    1    3    3    0  502  0.31339888781E+02 -0.43988405816E+02  0.13967243892E+02  0.55943943166E+02  0.41800000000E+01 0.  1.
        -11    1    1    2    0    0  0.21489642017E+02  0.25652620166E+01 -0.11694010323E+02  0.24599495131E+02  0.00000000000E+00 0.  1.
         11    1    1    2    0    0 -0.66068716761E+02 -0.37962110966E+02  0.15699966144E+02  0.77799011178E+02  0.00000000000E+00 0. -1.
</event>
<event>
 7    1  0.2499014E-009  0.1673734E+03  0.7561462E-02  0.1180615E+00
          2   -1    0    0  501    0  0.00000000000E+00  0.00000000000E+00  0.22755287706E+03  0.22755287706E+03  0.00000000000E+00 0. -1.
         -2   -1    0    0    0  501 -0.00000000000E+00 -0.00000000000E+00 -0.18526058825E+03  0.18526058825E+03  0.00000000000E+00 0.  1.
         25    2    1    2    0    0 -0.99823003421E+02  0.88733524805E+02  0.13430337522E+03  0.22699274320E+03  0.12510011364E+03 0.  0.
          5    1    3    3  502    0  0.28232743327E+02  0.30319095377E+02  0.38239534623E+02  0.56533792977E+02  0.41800000000E+01 0.  1.
         -5    1    3    3    0  502 -0.12805574675E+03  0.58414429428E+02  0.96063840596E+02  0.17045895022E+03  0.41800000000E+01 0.  1.
        -11    1    1    2    0    0  0.74842197873E+02 -0.17572372407E+02 -0.77223618038E+02  0.10896618759E+03  0.00000000000E+00 0.  1.
         11    1    1    2    0    0  0.24980805548E+02 -0.71161152397E+02 -0.14787468365E+02  0.76854534525E+02  0.00000000000E+00 0. -1.
</event>
<event>
 7    1  0.2499014E-009  0.2138379E+03  0.7561462E-02  0.1138562E+00
          1   -1    0    0  501    0  0.00000000000E+00  0.00000000000E+00  0.13056331918E+03  0.13056331918E+03  0.00000000000E+00 0. -1.
         -1   -1    0    0    0  501 -0.00000000000E+00 -0.00000000000E+00 -0.63473376511E+03  0.63473376511E+03  0.00000000000E+00 0.  1.
         25    2    1    2    0    0 -0.14606391315E+03  0.14766784093E+03 -0.35861885299E+02  0.24509933276E+03  0.12508856916E+03 0.  0.
          5    1    3    3  502    0 -0.48187471742E+02  0.94964431617E+02  0.36202979006E+02  0.11255400390E+03  0.41800000000E+01 0. -1.
         -5    1    3    3    0  502 -0.97876441408E+02  0.52703409315E+02 -0.72064864304E+02  0.13254532886E+03  0.41800000000E+01 0. -1.
        -11    1    1    2    0    0  0.10748840210E+03 -0.12598816173E+03 -0.43299015295E+03  0.46358089482E+03  0.00000000000E+00 0.  1.
         11    1    1    2    0    0  0.38575511054E+02 -0.21679679200E+02 -0.35318407671E+02  0.56616856710E+02  0.00000000000E+00 0. -1.
</event>
<event>
 7    1  0.2499014E-009  0.1751981E+03  0.7561462E-02  0.1172533E+00
         -1   -1    0    0    0  501 -0.00000000000E+00  0.00000000000E+00  0.26757407737E+03  0.26757407737E+03  0.00000000000E+00 0.  1.
          1   -1    0    0  501    0  0.00000000000E+00 -0.00000000000E+00 -0.15684513680E+03  0.15684513680E+03  0.00000000000E+00 0. -1.
         25    2    1    2    0    0 -0.52115575876E+02  0.16607660662E+03  0.52338829808E+02  0.22063592337E+03  0.12507351863E+03 0.  0.
          5    1    3    3  502    0 -0.17681840622E+02  0.80478175353E+02 -0.38541152022E+02  0.91061940431E+02  0.41800000000E+01 0.  1.
         -5    1    3    3    0  502 -0.34433735254E+02  0.85598431262E+02  0.90879981830E+02  0.12957398294E+03  0.41800000000E+01 0.  1.
        -11    1    1    2    0    0  0.40617566411E+02 -0.91968791265E+02 -0.11596099373E+02  0.10120531008E+03  0.00000000000E+00 0. -1.
         11    1    1    2    0    0  0.11498009465E+02 -0.74107815350E+02  0.69986210138E+02  0.10257798071E+03  0.00000000000E+00 0.  1.
</event>
<event>
 7    1  0.2499014E-009  0.9721628E+02  0.7561462E-02  0.1286261E+00
         -1   -1    0    0    0  501 -0.00000000000E+00  0.00000000000E+00  0.15410105633E+03  0.15410105633E+03  0.00000000000E+00 0.  1.
          1   -1    0    0  501    0  0.00000000000E+00 -0.00000000000E+00 -0.13029482889E+03  0.13029482889E+03  0.00000000000E+00 0. -1.
         25    2    1    2    0    0  0.77675625549E+01  0.87367484005E+02 -0.11492457234E+02  0.15321146745E+03  0.12509302496E+03 0.  0.
          5    1    3    3  502    0  0.25294528692E+02  0.27453993987E+02 -0.62210774803E+02  0.72671781794E+02  0.41800000000E+01 0.  1.
         -5    1    3    3    0  502 -0.17526966137E+02  0.59913490018E+02  0.50718317569E+02  0.80539685653E+02  0.41800000000E+01 0.  1.
        -11    1    1    2    0    0 -0.21486998506E+02 -0.47246098984E+02  0.62167728779E+02  0.80985872074E+02  0.00000000000E+00 0.  1.
         11    1    1    2    0    0  0.13719435951E+02 -0.40121385021E+02 -0.26869044106E+02  0.50198545696E+02  0.00000000000E+00 0. -1.
</event>
<event>
 7    1  0.2499014E-009  0.3579736E+03  0.7561462E-02  0.1059389E+00
          1   -1    0    0  501    0  0.00000000000E+00  0.00000000000E+00  0.80430271037E+03  0.80430271037E+03  0.00000000000E+00 0. -1.
         -1   -1    0    0    0  501 -0.00000000000E+00 -0.00000000000E+00 -0.19361756872E+03  0.19361756872E+03  0.00000000000E+00 0.  1.
         25    2    1    2    0    0 -0.92181294472E+02  0.34241414247E+03  0.13965665459E+03  0.40111765488E+03  0.12508619377E+03 0.  0.
          5    1    3    3  502    0 -0.16092985190E+02  0.13898442768E+03 -0.51055348193E+01  0.14006853392E+03  0.41800000000E+01 0. -1.
         -5    1    3    3    0  502 -0.76088309281E+02  0.20342971479E+03  0.14476218941E+03  0.26104912095E+03  0.41800000000E+01 0. -1.
        -11    1    1    2    0    0  0.53737761039E+02 -0.10219879159E+03  0.21228634571E+03  0.24165643492E+03  0.00000000000E+00 0. -1.
         11    1    1    2    0    0  0.38443533433E+02 -0.24021535087E+03  0.25874214135E+03  0.35514618929E+03  0.00000000000E+00 0.  1.
</event>
<event>
 7    1  0.2499014E-009  0.1265095E+03  0.7561462E-02  0.1232729E+00
          1   -1    0    0  501    0  0.00000000000E+00  0.00000000000E+00  0.19469068491E+03  0.19469068491E+03  0.00000000000E+00 0. -1.
         -1   -1    0    0    0  501 -0.00000000000E+00 -0.00000000000E+00 -0.11182787484E+03  0.11182787484E+03  0.00000000000E+00 0.  1.
         25    2    1    2    0    0  0.65140147584E+02 -0.37175057994E+02 -0.27602103507E+02  0.14844182961E+03  0.12509147411E+03 0.  0.
          5    1    3    3  502    0 -0.34628018695E+02 -0.13650035636E+02 -0.26437533190E+02  0.45845814561E+02  0.41800000000E+01 0.  1.
         -5    1    3    3    0  502  0.99768166279E+02 -0.23525022358E+02 -0.11645703170E+01  0.10259601505E+03  0.41800000000E+01 0.  1.
        -11    1    1    2    0    0 -0.83751246104E+02  0.16875657383E+02  0.80634798897E+02  0.11747778441E+03  0.00000000000E+00 0.  1.
         11    1    1    2    0    0  0.18611098519E+02  0.20299400611E+02  0.29830114675E+02  0.40598945735E+02  0.00000000000E+00 0. -1.
</event>
<event>
 7    1  0.2499014E-009  0.3870037E+03  0.7561462E-02  0.1048375E+00
          2   -1    0    0  501    0  0.00000000000E+00  0.00000000000E+00  0.11134993236E+04  0.11134993236E+04  0.00000000000E+00 0.  1.
         -2   -1    0    0    0  501 -0.00000000000E+00 -0.00000000000E+00 -0.15473812123E+03  0.15473812123E+03  0.00000000000E+00 0. -1.
         25    2    1    2    0    0 -0.34074426497E+03  0.16802163261E+03  0.68341855363E+03  0.79186308340E+03  0.12509316632E+03 0.  0.
          5    1    3    3  502    0 -0.25444984419E+03  0.73333664307E+02  0.52555839915E+03  0.58851648477E+03  0.41800000000E+01 0. -1.
         -5    1    3    3    0  502 -0.86294420778E+02  0.94687968306E+02  0.15786015449E+03  0.20334659863E+03  0.41800000000E+01 0. -1.
        -11    1    1    2    0    0  0.10668888687E+03 -0.67578500901E+02  0.13777664689E+03  0.18690044621E+03  0.00000000000E+00 0.  1.
         11    1    1    2    0    0  0.23405537810E+03 -0.10044313171E+03  0.13756600183E+03  0.28947391520E+03  0.00000000000E+00 0. -1.
</event>
<event>
 7    1  0.2499014E-009  0.7611278E+02  0.7561462E-02  0.1340459E+00
         -2   -1    0    0    0  501 -0.00000000000E+00  0.00000000000E+00  0.47483037626E+02  0.47483037626E+02  0.00000000000E+00 0.  1.
          2   -1    0    0  501    0  0.00000000000E+00 -0.00000000000E+00 -0.28659783805E+03  0.28659783805E+03  0.00000000000E+00 0. -1.
         25    2    1    2    0    0 -0.23686288744E+02 -0.33818780837E+02 -0.15931044280E+03  0.20671594924E+03  0.12508763438E+03 0.  0.
          5    1    3    3  502    0 -0.36337894774E+02 -0.38848818218E+02 -0.70864490623E+01  0.53827162603E+02  0.41800000000E+01 0.  1.
         -5    1    3    3    0  502  0.12651606030E+02  0.50300373808E+01 -0.15222399374E+03  0.15288878664E+03  0.41800000000E+01 0.  1.
        -11    1    1    2    0    0 -0.23617895838E+02 -0.41346689118E+01  0.35954916765E+01  0.24245165522E+02  0.00000000000E+00 0.  1.
         11    1    1    2    0    0  0.47304184582E+02  0.37953449749E+02 -0.83399849305E+02  0.10311976091E+03  0.00000000000E+00 0. -1.
</event>
<event>
 7    1  0.2499014E-009  0.1602685E+03  0.7561462E-02  0.1188394E+00
          1   -1    0    0  501    0  0.00000000000E+00  0.00000000000E+00  0.21183681244E+03  0.21183681244E+03  0.00000000000E+00 0. -1.
         -1   -1    0    0    0  501 -0.00000000000E+00 -0.00000000000E+00 -0.16568676128E+03  0.16568676128E+03  0.00000000000E+00 0.  1.
         25    2    1    2    0    0 -0.10560191277E+03 -0.10950881666E+03  0.14956655097E+02  0.19752178064E+03  0.12508879800E+03 0.  0.
          5    1    3    3  502    0 -0.52771877071E+02 -0.94169341460E+02 -0.44118795477E+02  0.11669051545E+03  0.41800000000E+01 0. -1.
         -5    1    3    3    0  502 -0.52830035703E+02 -0.15339475204E+02  0.59075450574E+02  0.80831265191E+02  0.41800000000E+01 0. -1.
        -11    1    1    2    0    0  0.25361738660E+02  0.54324281973E+02  0.53208893522E+02  0.80159414604E+02  0.00000000000E+00 0.  1.
         11    1    1    2    0    0  0.80240174114E+02  0.55184534691E+02 -0.22015497461E+02  0.99842378474E+02  0.00000000000E+00 0. -1.
</event>
<event>
 7    1  0.3643504E-009  0.1016019E+03  0.7561462E-02  0.1276963E+00
         -2   -1    0    0    0  501 -0.00000000000E+00  0.00000000000E+00  0.40550676262E+02  0.40550676262E+02  0.00000000000E+00 0.  1.
          2   -1    0    0  501    0  0.00000000000E+00 -0.00000000000E+00 -0.33648416884E+03  0.33648416884E+03  0.00000000000E+00 0. -1.
         25    2    1    2    0    0  0.62144569204E+00  0.40397358051E+01 -0.96667677259E+02  0.15814269051E+03  0.12509102715E+03 0.  0.
          5    1    3    3  502    0  0.24167028139E+02 -0.55646032679E+02 -0.44789392262E+02  0.75525414671E+02  0.41800000000E+01 0. -1.
         -5    1    3    3    0  502 -0.23545582447E+02  0.59685768484E+02 -0.51878284997E+02  0.82617275836E+02  0.41800000000E+01 0. -1.
        -11    1    1    2    0    0 -0.35471713139E+02  0.14849123010E+02 -0.43042845957E+02  0.57718502018E+02  0.00000000000E+00 0.  1.
         11    1    1    2    0    0  0.34850267447E+02 -0.18888858815E+02 -0.15622296937E+03  0.16117365258E+03  0.00000000000E+00 0. -1.
</event>
<event>
 7    1  0.2499014E-009  0.1042904E+03  0.7561462E-02  0.1271524E+00
         -1   -1    0    0    0  501 -0.00000000000E+00  0.00000000000E+00  0.71956258401E+02  0.71956258401E+02  0.00000000000E+00 0.  1.
          1   -1    0    0  501    0  0.00000000000E+00 -0.00000000000E+00 -0.23332546943E+03  0.23332546943E+03  0.00000000000E+00 0. -1.
         25    2    1    2    0    0  0.47916713390E+02  0.53057434548E+02 -0.94608907476E+02  0.17236383875E+03  0.12508934708E+03 0.  0.
          5    1    3    3  502    0 -0.57421315965E+01 -0.32276156354E+02  0.14209202889E+01  0.33078902018E+02  0.41800000000E+01 0.  1.
         -5    1    3    3    0  502  0.53658844986E+02  0.85333590902E+02 -0.96029827764E+02  0.13928493674E+03  0.41800000000E+01 0.  1.
        -11    1    1    2    0    0 -0.18744186535E+02 -0.67684610033E+01  0.21347148742E+02  0.29203721554E+02  0.00000000000E+00 0.  1.
         11    1    1    2    0    0 -0.29172526855E+02 -0.46288973545E+02 -0.88107452300E+02  0.10371416753E+03  0.00000000000E+00 0. -1.
</event>
<event>
 7    1  0.2499014E-009  0.1424650E+03  0.7561462E-02  0.1210050E+00
          2   -1    0    0  501    0  0.00000000000E+00  0.00000000000E+00  0.13214739832E+03  0.13214739832E+03  0.00000000000E+00 0. -1.
         -2   -1    0    0    0  501 -0.00000000000E+00 -0.00000000000E+00 -0.17034215534E+03  0.17034215534E+03  0.00000000000E+00 0.  1.
         25    2    1    2    0    0  0.92722534077E+02  0.22117897242E+02  0.18541396518E+02  0.15836290485E+03  0.12509339129E+03 0.  0.
          5    1    3    3  502    0  0.10936654662E+03  0.52616488705E+02  0.21171877907E+02  0.12326904403E+03  0.41800000000E+01 0. -1.
         -5    1    3    3    0  502 -0.16644012543E+02 -0.30498591464E+02 -0.26304813890E+01  0.35093860818E+02  0.41800000000E+01 0. -1.
        -11    1    1    2    0    0 -0.81170760886E+02  0.21013089509E+02 -0.53278021774E+02  0.99341783544E+02  0.00000000000E+00 0. -1.
         11    1    1    2    0    0 -0.11551773191E+02 -0.43130986750E+02 -0.34581317599E+01  0.44784865269E+02  0.00000000000E+00 0.  1.
</event>
<event>
 7    1  0.2499014E-009  0.1048055E+03  0.7561462E-02  0.1270503E+00
         -1   -1    0    0    0  501 -0.00000000000E+00  0.00000000000E+00  0.61626368492E+02  0.61626368492E+02  0.00000000000E+00 0.  1.
          1   -1    0    0  501    0  0.00000000000E+00 -0.00000000000E+00 -0.27453841104E+03  0.27453841104E+03  0.00000000000E+00 0. -1.
         25    2    1    2    0    0 -0.37456477116E+02 -0.30262180004E+02 -0.48852271986E+02  0.14266350267E+03  0.12509014070E+03 0.  0.
          5    1    3    3  502    0 -0.67781232069E+02  0.20977591479E+02 -0.10835685040E+02  0.71897421618E+02  0.41800000000E+01 0.  1.
         -5    1    3    3    0  502  0.30324754953E+02 -0.51239771484E+02 -0.38016586945E+02  0.70766081053E+02  0.41800000000E+01 0.  1.
        -11    1    1    2    0    0 -0.11483604322E+02  0.27532383562E+02 -0.94263988281E+01  0.31285177125E+02  0.00000000000E+00 0.  1.
         11    1    1    2    0    0  0.48940081438E+02  0.27297964421E+01 -0.15463337174E+03  0.16221609974E+03  0.00000000000E+00 0. -1.
</event>
<event>
 7    1  0.2499014E-009  0.1199047E+03  0.7561462E-02  0.1243254E+00
         -1   -1    0    0    0  501 -0.00000000000E+00  0.00000000000E+00  0.43650112492E+02  0.43650112492E+02  0.00000000000E+00 0.  1.
          1   -1    0    0  501    0  0.00000000000E+00 -0.00000000000E+00 -0.35353971251E+03  0.35353971251E+03  0.00000000000E+00 0. -1.
         25    2    1    2    0    0 -0.26736429425E+02  0.55452387407E+02 -0.18449854510E+03  0.23125103640E+03  0.12509006661E+03 0.  0.
          5    1    3    3  502    0 -0.14954965027E+02  0.93508851591E+02 -0.15428512285E+03  0.18107713229E+03  0.41800000000E+01 0.  1.
         -5    1    3    3    0  502 -0.11781464399E+02 -0.38056464184E+02 -0.30213422251E+02  0.50173904110E+02  0.41800000000E+01 0.  1.
        -11    1    1    2    0    0  0.54429224405E+02 -0.15945475942E+02 -0.88880475944E+02  0.10543499266E+03  0.00000000000E+00 0.  1.
         11    1    1    2    0    0 -0.27692794979E+02 -0.39506911464E+02 -0.36510578973E+02  0.60503795949E+02  0.00000000000E+00 0. -1.
</event>
<event>
 7    1  0.2535386E-009  0.1850675E+03  0.7561462E-02  0.1162987E+00
         -1   -1    0    0    0  501 -0.00000000000E+00  0.00000000000E+00  0.69233439364E+02  0.69233439364E+02  0.00000000000E+00 0.  1.
          1   -1    0    0  501    0  0.00000000000E+00 -0.00000000000E+00 -0.56518230078E+03  0.56518230078E+03  0.00000000000E+00 0. -1.
         25    2    1    2    0    0 -0.12328725126E+03 -0.10986024776E+03 -0.25967500367E+03  0.33218452128E+03  0.12508568379E+03 0.  0.
          5    1    3    3  502    0 -0.13225671649E+03 -0.50600181032E+02 -0.21430557121E+03  0.25689797124E+03  0.41800000000E+01 0. -1.
         -5    1    3    3    0  502  0.89694652263E+01 -0.59260066732E+02 -0.45369432455E+02  0.75286550039E+02  0.41800000000E+01 0. -1.
        -11    1    1    2    0    0  0.39931266344E+02  0.57307510094E+02 -0.34990007793E+02  0.78121427217E+02  0.00000000000E+00 0.  1.
         11    1    1    2    0    0  0.83355984916E+02  0.52552737669E+02 -0.20128384995E+03  0.22410979164E+03  0.00000000000E+00 0. -1.
</event>
<event>
 7    1  0.2499014E-009  0.6414816E+02  0.7561462E-02  0.1381205E+00
         -2   -1    0    0    0  501 -0.00000000000E+00  0.00000000000E+00  0.23785214976E+03  0.23785214976E+03  0.00000000000E+00 0.  1.
          2   -1    0    0  501    0  0.00000000000E+00 -0.00000000000E+00 -0.50097390251E+02  0.50097390251E+02  0.00000000000E+00 0. -1.
         25    2    1    2    0    0 -0.20890358423E+02  0.14379076457E+02  0.12085762641E+03  0.17577530107E+03  0.12508887117E+03 0.  0.
          5    1    3    3  502    0 -0.53365775290E+02  0.17754374793E+02  0.12992095911E+03  0.14163351232E+03  0.41800000000E+01 0. -1.
         -5    1    3    3    0  502  0.32475416867E+02 -0.33752983367E+01 -0.90633327012E+01  0.34141788752E+02  0.41800000000E+01 0. -1.
        -11    1    1    2    0    0  0.38509196445E+01 -0.20514140786E+02 -0.16641837162E+02  0.26694761629E+02  0.00000000000E+00 0. -1.
         11    1    1    2    0    0  0.17039438779E+02  0.61350643292E+01  0.83538970263E+02  0.85479477308E+02  0.00000000000E+00 0.  1.
</event>
<event>
 7    1  0.2499014E-009  0.1962006E+03  0.7561462E-02  0.1152985E+00
          2   -1    0    0  501    0  0.00000000000E+00  0.00000000000E+00  0.16097873348E+04  0.16097873348E+04  0.00000000000E+00 0. -1.
         -2   -1    0    0    0  501 -0.00000000000E+00 -0.00000000000E+00 -0.29887311269E+02  0.29887311269E+02  0.00000000000E+00 0.  1.
         25    2    1    2    0    0 -0.15761454149E+03 -0.96079151321E+02  0.64029791346E+03  0.67801345673E+03  0.12508909836E+03 0.  0.
          5    1    3    3  502    0 -0.89908287727E+02 -0.35489537267E+02  0.14421789573E+03  0.17366427758E+03  0.41800000000E+01 0.  1.
         -5    1    3    3    0  502 -0.67706253762E+02 -0.60589614054E+02  0.49608001772E+03  0.50434917916E+03  0.41800000000E+01 0.  1.
        -11    1    1    2    0    0  0.82766184127E+02  0.99924278530E+02  0.58130399646E+03  0.59560846113E+03  0.00000000000E+00 0. -1.
         11    1    1    2    0    0  0.74848357362E+02 -0.38451272085E+01  0.35829811362E+03  0.36605272821E+03  0.00000000000E+00 0.  1.
</event>
<event>
 7    1  0.2499014E-009  0.9588989E+02  0.7561462E-02  0.1289184E+00
         -2   -1    0    0    0  501 -0.00000000000E+00  0.00000000000E+00  0.28628755881E+02  0.28628755881E+02  0.00000000000E+00 0.  1.
          2   -1    0    0  501    0  0.00000000000E+00 -0.00000000000E+00 -0.60925251060E+03  0.60925251060E+03  0.00000000000E+00 0. -1.
         25    2    1    2    0    0  0.28155939108E+02 -0.39522269717E+02 -0.45539715012E+03  0.47475357730E+03  0.12509847365E+03 0.  0.
          5    1    3    3  502    0 -0.43561794972E+02  0.11962397892E+02 -0.17292154813E+03  0.17877377647E+03  0.41800000000E+01 0. -1.
         -5    1    3    3    0  502  0.71717734080E+02 -0.51484667609E+02 -0.28247560199E+03  0.29597980083E+03  0.41800000000E+01 0. -1.
        -11    1    1    2    0    0  0.11198075088E+01  0.25577514568E+02  0.73554398359E+01  0.26637674739E+02  0.00000000000E+00 0.  1.
         11    1    1    2    0    0 -0.29275746617E+02  0.13944755148E+02 -0.13258204443E+03  0.13649001444E+03  0.00000000000E+00 0. -1.
</event>
<event>
 7    1  0.2499014E-009  0.1453508E+03  0.7561462E-02  0.1206305E+00
         -2   -1    0    0    0  501 -0.00000000000E+00  0.00000000000E+00  0.23574754984E+03  0.23574754984E+03  0.00000000000E+00 0.  1.
          2   -1    0    0  501    0  0.00000000000E+00 -0.00000000000E+00 -0.13303210732E+03  0.13303210732E+03  0.00000000000E+00 0. -1.
         25    2    1    2    0    0  0.57178879539E+02 -0.11568385688E+03  0.12356366067E+01  0.17972562900E+03  0.12509035100E+03 0.  0.
          5    1    3    3  502    0  0.59231394803E+02 -0.10672192507E+03 -0.46688635852E+02  0.13074872289E+03  0.41800000000E+01 0. -1.
         -5    1    3    3    0  502 -0.20525152644E+01 -0.89619318121E+01  0.47924272458E+02  0.48976906103E+02  0.41800000000E+01 0. -1.
        -11    1    1    2    0    0 -0.50354785219E+02  0.84934244846E+01  0.22871514089E+02  0.55953988336E+02  0.00000000000E+00 0. -1.
         11    1    1    2    0    0 -0.68240943195E+01  0.10719043240E+03  0.78608291824E+02  0.13310003983E+03  0.00000000000E+00 0.  1.
</event>
<event>
 7    1  0.2499014E-009  0.1238471E+03  0.7561462E-02  0.1236882E+00
         -1   -1    0    0    0  501 -0.00000000000E+00  0.00000000000E+00  0.29144909663E+02  0.29144909663E+02  0.00000000000E+00 0. -1.
          1   -1    0    0  501    0  0.00000000000E+00 -0.00000000000E+00 -0.54193895599E+03  0.54193895599E+03  0.00000000000E+00 0.  1.
         25    2    1    2    0    0  0.75687933198E+00 -0.77815287475E+02 -0.30723443435E+03  0.34073073579E+03  0.12509454358E+03 0.  0.
          5    1    3    3  502    0 -0.60836886793E+02 -0.25605732950E+02 -0.12690507730E+03  0.14310538564E+03  0.41800000000E+01 0. -1.
         -5    1    3    3    0  502  0.61593766125E+02 -0.52209554525E+02 -0.18032935704E+03  0.19762535015E+03  0.41800000000E+01 0. -1.
        -11    1    1    2    0    0  0.31522634248E+02  0.41527392780E+02 -0.77610818094E+02  0.93496737410E+02  0.00000000000E+00 0. -1.
         11    1    1    2    0    0 -0.32279513580E+02  0.36287894695E+02 -0.12794879389E+03  0.13685639245E+03  0.00000000000E+00 0.  1.
</event>
<event>
 7    1  0.4427512E-009  0.1973037E+03  0.7561462E-02  0.1152034E+00
          2   -1    0    0  501    0  0.00000000000E+00  0.00000000000E+00  0.10761238653E+04  0.10761238653E+04  0.00000000000E+00 0. -1.
         -2   -1    0    0    0  501 -0.00000000000E+00 -0.00000000000E+00 -0.40533858459E+02  0.40533858459E+02  0.00000000000E+00 0.  1.
         25    2    1    2    0    0 -0.15749832284E+03 -0.80888539221E+02  0.58671090131E+03  0.62548080153E+03  0.12509146209E+03 0.  0.
          5    1    3    3  502    0  0.21361001653E+01 -0.37593461667E+02  0.21910863131E+03  0.22235983450E+03  0.41800000000E+01 0.  1.
         -5    1    3    3    0  502 -0.15963442301E+03 -0.43295077554E+02  0.36760227000E+03  0.40312096703E+03  0.41800000000E+01 0.  1.
        -11    1    1    2    0    0  0.94933397153E+02  0.80889423765E+01  0.15422944339E+03  0.18128569191E+03  0.00000000000E+00 0.  1.
         11    1    1    2    0    0  0.62564925688E+02  0.72799596845E+02  0.29464966210E+03  0.30989123027E+03  0.00000000000E+00 0. -1.
</event>
<event>
 7    1  0.2499014E-009  0.1238725E+03  0.7561462E-02  0.1236842E+00
          2   -1    0    0  501    0  0.00000000000E+00  0.00000000000E+00  0.17771763243E+04  0.17771763243E+04  0.00000000000E+00 0. -1.
         -2   -1    0    0    0  501 -0.00000000000E+00 -0.00000000000E+00 -0.32611273440E+02  0.32611273440E+02  0.00000000000E+00 0.  1.
         25    2    1    2    0    0 -0.63996527455E+02  0.40296359163E+01  0.16535818282E+04  0.16595449177E+04  0.12507868669E+03 0.  0.
          5    1    3    3  502    0 -0.30702997789E+02 -0.58486411953E+02  0.61767455573E+03  0.62121064354E+03  0.41800000000E+01 0. -1.
         -5    1    3    3    0  502 -0.33293529665E+02  0.62516047869E+02  0.10359072725E+04  0.10383342742E+04  0.41800000000E+01 0. -1.
        -11    1    1    2    0    0 -0.30548044996E+01  0.33585259544E+02  0.56904044256E+02  0.66146592821E+02  0.00000000000E+00 0. -1.
         11    1    1    2    0    0  0.67051331954E+02 -0.37614895461E+02  0.34079178354E+02  0.84096087154E+02  0.00000000000E+00 0.  1.
</event>
<event>
 7    1  0.2499014E-009  0.1107811E+03  0.7561462E-02  0.1259130E+00
          2   -1    0    0  501    0  0.00000000000E+00  0.00000000000E+00  0.49077748587E+03  0.49077748587E+03  0.00000000000E+00 0. -1.
         -2   -1    0    0    0  501 -0.00000000000E+00 -0.00000000000E+00 -0.36325659259E+02  0.36325659259E+02  0.00000000000E+00 0.  1.
         25    2    1    2    0    0  0.36675175004E+02 -0.57350655638E+02  0.33052151588E+03  0.35989826502E+03  0.12509245597E+03 0.  0.
          5    1    3    3  502    0  0.37568357521E+02  0.14782101894E+02  0.24316518299E+03  0.24652924905E+03  0.41800000000E+01 0.  1.
         -5    1    3    3    0  502 -0.89318251636E+00 -0.72132757533E+02  0.87356332899E+02  0.11336901597E+03  0.41800000000E+01 0.  1.
        -11    1    1    2    0    0 -0.43138587693E+01  0.72749278137E+02  0.62136298004E+02  0.95770488025E+02  0.00000000000E+00 0.  1.
         11    1    1    2    0    0 -0.32361316235E+02 -0.15398622499E+02  0.61794012719E+02  0.71434392076E+02  0.00000000000E+00 0. -1.
</event>
<event>
 7    1  0.2499014E-009  0.1217438E+03  0.7561462E-02  0.1240248E+00
         -2   -1    0    0    0  501 -0.00000000000E+00  0.00000000000E+00  0.19071024201E+02  0.19071024201E+02  0.00000000000E+00 0.  1.
          2   -1    0    0  501    0  0.00000000000E+00 -0.00000000000E+00 -0.80033519526E+03  0.80033519526E+03  0.00000000000E+00 0. -1.
         25    2    1    2    0    0  0.55614614139E+02 -0.21819111431E+02 -0.43101818971E+03  0.45275859046E+03  0.12507838519E+03 0.  0.
          5    1    3    3  502    0  0.82126234966E+02 -0.50759841002E+02 -0.26374624798E+03  0.28089292560E+03  0.41800000000E+01 0.  1.
         -5    1    3    3    0  502 -0.26511620826E+02  0.28940729571E+02 -0.16727194173E+03  0.17186566486E+03  0.41800000000E+01 0.  1.
        -11    1    1    2    0    0  0.15972530358E+02 -0.19119740657E+02 -0.61455084959E+02  0.66312997792E+02  0.00000000000E+00 0.  1.
         11    1    1    2    0    0 -0.71587144497E+02  0.40938852088E+02 -0.28879089639E+03  0.30033463121E+03  0.00000000000E+00 0. -1.
</event>
<event>
 7    1  0.2499014E-009  0.2447032E+03  0.7561462E-02  0.1116699E+00
         -1   -1    0    0    0  501 -0.00000000000E+00  0.00000000000E+00  0.77726908289E+02  0.77726908289E+02  0.00000000000E+00 0.  1.
          1   -1    0    0  501    0  0.00000000000E+00 -0.00000000000E+00 -0.11056174156E+04  0.11056174156E+04  0.00000000000E+00 0. -1.
         25    2    1    2    0    0 -0.71542897904E+02 -0.21612289071E+03 -0.82643379871E+03  0.86629368705E+03  0.12507772963E+03 0.  0.
          5    1    3    3  502    0  0.25878264394E+02 -0.19444272386E+02 -0.19680392017E+03  0.19949190382E+03  0.41800000000E+01 0.  1.
         -5    1    3    3    0  502 -0.97421162298E+02 -0.19667861832E+03 -0.62962987854E+03  0.66680178323E+03  0.41800000000E+01 0.  1.
        -11    1    1    2    0    0 -0.79985837328E+01  0.73553861350E+02 -0.10156978155E+03  0.12566052835E+03  0.00000000000E+00 0.  1.
         11    1    1    2    0    0  0.79541481637E+02  0.14256902936E+03 -0.99886927062E+02  0.19139010850E+03  0.00000000000E+00 0. -1.
</event>
<event>
 7    1  0.2499014E-009  0.1386798E+03  0.7561462E-02  0.1215117E+00
         -2   -1    0    0    0  501 -0.00000000000E+00  0.00000000000E+00  0.81603552070E+02  0.81603552070E+02  0.00000000000E+00 0.  1.
          2   -1    0    0  501    0  0.00000000000E+00 -0.00000000000E+00 -0.40221103980E+03  0.40221103980E+03  0.00000000000E+00 0. -1.
         25    2    1    2    0    0 -0.12117733959E+03  0.19779061207E+02 -0.73390744320E+02  0.19002273217E+03  0.12508908225E+03 0.  0.
          5    1    3    3  502    0 -0.57029273679E+02  0.54593364429E+02 -0.84907461089E+02  0.11601518368E+03  0.41800000000E+01 0. -1.
         -5    1    3    3    0  502 -0.64148065908E+02 -0.34814303222E+02  0.11516716769E+02  0.74007548492E+02  0.41800000000E+01 0. -1.
        -11    1    1    2    0    0  0.74528047729E+02 -0.24145789065E+02 -0.23146219338E+03  0.24436079062E+03  0.00000000000E+00 0. -1.
         11    1    1    2    0    0  0.46649291859E+02  0.43667278575E+01 -0.15754550023E+02  0.49431069071E+02  0.00000000000E+00 0.  1.
</event>
<event>
 7    1  0.2800735E-009  0.8602500E+02  0.7561462E-02  0.1312774E+00
          1   -1    0    0  501    0  0.00000000000E+00  0.00000000000E+00  0.52433450327E+03  0.52433450327E+03  0.00000000000E+00 0. -1.
         -1   -1    0    0    0  501 -0.00000000000E+00 -0.00000000000E+00 -0.28168294193E+02  0.28168294193E+02  0.00000000000E+00 0.  1.
         25    2    1    2    0    0 -0.22168692599E+01 -0.45315972531E+02  0.20959504029E+03  0.24826344177E+03  0.12508478616E+03 0.  0.
          5    1    3    3  502    0 -0.24286577647E+02 -0.41007380698E+02  0.11967318322E+02  0.49316652698E+02  0.41800000000E+01 0. -1.
         -5    1    3    3    0  502  0.22069708387E+02 -0.43085918330E+01  0.19762772197E+03  0.19894678907E+03  0.41800000000E+01 0. -1.
        -11    1    1    2    0    0 -0.14345260333E+02 -0.25147876947E+02  0.65320535897E+02  0.71449105094E+02  0.00000000000E+00 0. -1.
         11    1    1    2    0    0  0.16562129593E+02  0.70463849478E+02  0.22125063289E+03  0.23279025060E+03  0.00000000000E+00 0.  1.
</event>
<event>
 7    1  0.2499014E-009  0.1041956E+03  0.7561462E-02  0.1271713E+00
          1   -1    0    0  501    0  0.00000000000E+00  0.00000000000E+00  0.23793126132E+02  0.23793126132E+02  0.00000000000E+00 0. -1.
         -1   -1    0    0    0  501 -0.00000000000E+00 -0.00000000000E+00 -0.65376393358E+03  0.65376393358E+03  0.00000000000E+00 0.  1.
         25    2    1    2    0    0 -0.93140082759E+01 -0.40322664567E+02 -0.22520508761E+03  0.26091653003E+03  0.12508971233E+03 0.  0.
          5    1    3    3  502    0  0.45145894471E+02 -0.31684372006E+02 -0.41728791502E+02  0.69287918552E+02  0.41800000000E+01 0. -1.
         -5    1    3    3    0  502 -0.54459902747E+02 -0.86382925615E+01 -0.18347629610E+03  0.19162861148E+03  0.41800000000E+01 0. -1.
        -11    1    1    2    0    0 -0.18245113562E+02  0.60778603593E+02 -0.23347806001E+03  0.24194819141E+03  0.00000000000E+00 0. -1.
         11    1    1    2    0    0  0.27559121838E+02 -0.20455939026E+02 -0.17128765983E+03  0.17469233827E+03  0.00000000000E+00 0.  1.
</event>
<event>
 7    1  0.2499014E-009  0.1222516E+03  0.7561462E-02  0.1239428E+00
         -2   -1    0    0    0  501 -0.00000000000E+00  0.00000000000E+00  0.50967460608E+02  0.50967460608E+02  0.00000000000E+00 0.  1.
          2   -1    0    0  501    0  0.00000000000E+00 -0.00000000000E+00 -0.72170691521E+03  0.72170691521E+03  0.00000000000E+00 0. -1.
         25    2    1    2    0    0  0.34162277205E+02  0.84481917229E+02 -0.93076666608E+02  0.18059470218E+03  0.12508766952E+03 0.  0.
          5    1    3    3  502    0 -0.21261807848E+02  0.28552651215E+02 -0.95191106064E+02  0.10171596452E+03  0.41800000000E+01 0.  1.
         -5    1    3    3    0  502  0.55424085052E+02  0.55929266014E+02  0.21144394563E+01  0.78878737661E+02  0.41800000000E+01 0.  1.
        -11    1    1    2    0    0 -0.52710188284E+02 -0.10770059625E+02 -0.24776648538E+03  0.25354011401E+03  0.00000000000E+00 0. -1.
         11    1    1    2    0    0  0.18547911080E+02 -0.73711857603E+02 -0.32989630262E+03  0.33853955964E+03  0.00000000000E+00 0.  1.
</event>
<event>
 7    1  0.2499014E-009  0.8799792E+02  0.7561462E-02  0.1307774E+00
          1   -1    0    0  501    0  0.00000000000E+00  0.00000000000E+00  0.32847145819E+02  0.32847145819E+02  0.00000000000E+00 0.  1.
         -1   -1    0    0    0  501 -0.00000000000E+00 -0.00000000000E+00 -0.47263483163E+03  0.47263483163E+03  0.00000000000E+00 0. -1.
         25    2    1    2    0    0  0.31714229690E+02  0.53415558058E+02 -0.28372532795E+03  0.31623773797E+03  0.12508889234E+03 0.  0.
          5    1    3    3  502    0  0.61418378513E+02  0.31779765898E+02 -0.26664644790E+03  0.27549949423E+03  0.41800000000E+01 0.  1.
         -5    1    3    3    0  502 -0.29704148823E+02  0.21635792160E+02 -0.17078880051E+02  0.40738243746E+02  0.41800000000E+01 0.  1.
        -11    1    1    2    0    0 -0.31499635736E+02 -0.22251571216E+02 -0.15316422259E+03  0.15794504916E+03  0.00000000000E+00 0. -1.
         11    1    1    2    0    0 -0.21459395358E+00 -0.31163986843E+02 -0.28981352695E+01  0.31299190317E+02  0.00000000000E+00 0.  1.
</event>
<event>
 7    1  0.2499014E-009  0.1462175E+03  0.7561462E-02  0.1205199E+00
         -2   -1    0    0    0  501 -0.00000000000E+00  0.00000000000E+00  0.13337535042E+02  0.13337535042E+02  0.00000000000E+00 0.  1.
          2   -1    0    0  501    0  0.00000000000E+00 -0.00000000000E+00 -0.21274668963E+04  0.21274668963E+04  0.00000000000E+00 0. -1.
         25    2    1    2    0    0 -0.85259469248E+02 -0.54331019442E+02 -0.15858054802E+04  0.15939409562E+04  0.12509082243E+03 0.  0.
          5    1    3    3  502    0 -0.46007857746E+01 -0.70906245369E+02 -0.50447249836E+03  0.50946917165E+03  0.41800000000E+01 0. -1.
         -5    1    3    3    0  502 -0.80658683473E+02  0.16575225927E+02 -0.10813329819E+04  0.10844717845E+04  0.41800000000E+01 0. -1.
        -11    1    1    2    0    0  0.81580863623E+02 -0.27305548081E+01 -0.35836577275E+03  0.36754444672E+03  0.00000000000E+00 0. -1.
         11    1    1    2    0    0  0.36786056250E+01  0.57061574250E+02 -0.16995810832E+03  0.17931902849E+03  0.00000000000E+00 0.  1.
</event>
<event>
 7    1  0.2499014E-009  0.7701888E+02  0.7561462E-02  0.1337731E+00
         -2   -1    0    0    0  501 -0.00000000000E+00  0.00000000000E+00  0.20682212392E+02  0.20682212392E+02  0.00000000000E+00 0.  1.
          2   -1    0    0  501    0  0.00000000000E+00 -0.00000000000E+00 -0.76832537644E+03  0.76832537644E+03  0.00000000000E+00 0. -1.
         25    2    1    2    0    0  0.36085267095E+02 -0.12586284236E+02 -0.57830516946E+03  0.59291408767E+03  0.12509870216E+03 0.  0.
          5    1    3    3  502    0  0.47941966117E+02 -0.64170154716E+01 -0.74554787790E+02  0.88969090054E+02  0.41800000000E+01 0.  1.
         -5    1    3    3    0  502 -0.11856699022E+02 -0.61692687645E+01 -0.50375038167E+03  0.50394499761E+03  0.41800000000E+01 0.  1.
        -11    1    1    2    0    0 -0.36432782098E+02  0.45656892543E+02 -0.68778661537E+02  0.90235268775E+02  0.00000000000E+00 0.  1.
         11    1    1    2    0    0  0.34751500234E+00 -0.33070608307E+02 -0.10055933305E+03  0.10585823239E+03  0.00000000000E+00 0. -1.
</event>
<event>
 7    1  0.2499014E-009  0.1098646E+03  0.7561462E-02  0.1260821E+00
          1   -1    0    0  501    0  0.00000000000E+00  0.00000000000E+00  0.12311621569E+03  0.12311621569E+03  0.00000000000E+00 0. -1.
         -1   -1    0    0    0  501 -0.00000000000E+00 -0.00000000000E+00 -0.10466878410E+03  0.10466878410E+03  0.00000000000E+00 0.  1.
         25    2    1    2    0    0 -0.72012582053E+01 -0.22220192068E+02 -0.28543795837E+01  0.12728853592E+03  0.12509447965E+03 0.  0.
          5    1    3    3  502    0  0.31295614011E+02  0.38573300675E+02  0.16758271349E+02  0.52589229314E+02  0.41800000000E+01 0. -1.
         -5    1    3    3    0  502 -0.38496872216E+02 -0.60793492743E+02 -0.19612650932E+02  0.74699306603E+02  0.41800000000E+01 0. -1.
        -11    1    1    2    0    0 -0.18425762793E+02 -0.32510813465E+02  0.37019196435E+01  0.37552176178E+02  0.00000000000E+00 0. -1.
         11    1    1    2    0    0  0.25627020998E+02  0.54731005533E+02  0.17599891531E+02  0.62944287698E+02  0.00000000000E+00 0.  1.
</event>
<event>
 7    1  0.2499014E-009  0.8833629E+02  0.7561462E-02  0.1306931E+00
          2   -1    0    0  501    0  0.00000000000E+00  0.00000000000E+00  0.49257054806E+03  0.49257054806E+03  0.00000000000E+00 0. -1.
         -2   -1    0    0    0  501 -0.00000000000E+00 -0.00000000000E+00 -0.33803322950E+02  0.33803322950E+02  0.00000000000E+00 0.  1.
         25    2    1    2    0    0 -0.59979190240E+00  0.19964337387E+02  0.12328742183E+03  0.17677327778E+03  0.12510023517E+03 0.  0.
          5    1    3    3  502    0  0.41791725864E+02  0.87137772794E+01  0.12553202064E+03  0.13265835395E+03  0.41800000000E+01 0.  1.
         -5    1    3    3    0  502 -0.42391517766E+02  0.11250560107E+02 -0.22445988118E+01  0.44114923836E+02  0.41800000000E+01 0.  1.
        -11    1    1    2    0    0 -0.19727718190E+02 -0.49830027953E+02  0.26539722120E+03  0.27075431588E+03  0.00000000000E+00 0. -1.
         11    1    1    2    0    0  0.20327510092E+02  0.29865690566E+02  0.70082582085E+02  0.78846277346E+02  0.00000000000E+00 0.  1.
</event>
<event>
 7    1  0.2499014E-009  0.1491479E+03  0.7561462E-02  0.1201524E+00
         -3   -1    0    0    0  501 -0.00000000000E+00  0.00000000000E+00  0.20708790076E+03  0.20708790076E+03  0.00000000000E+00 0.  1.
          3   -1    0    0  501    0  0.00000000000E+00 -0.00000000000E+00 -0.12566549227E+03  0.12566549227E+03  0.00000000000E+00 0. -1.
         25    2    1    2    0    0 -0.11796572979E+03  0.17774814282E+01  0.53269842754E+02  0.18001329893E+03  0.12509212126E+03 0.  0.
          5    1    3    3  502    0 -0.75415369775E+01  0.50406120453E+02  0.13308548706E+02  0.52841665642E+02  0.41800000000E+01 0. -1.
         -5    1    3    3    0  502 -0.11042419282E+03 -0.48628639025E+02  0.39961294047E+02  0.12717163329E+03  0.41800000000E+01 0. -1.
        -11    1    1    2    0    0  0.96842620880E+02  0.16810025691E+02 -0.16791875783E+02  0.99714779621E+02  0.00000000000E+00 0. -1.
         11    1    1    2    0    0  0.21123108914E+02 -0.18587507119E+02  0.44944441526E+02  0.53025314475E+02  0.00000000000E+00 0.  1.
</event>
<event>
 7    1  0.2499014E-009  0.1142083E+03  0.7561462E-02  0.1252969E+00
          2   -1    0    0  501    0  0.00000000000E+00  0.00000000000E+00  0.70017690969E+03  0.70017690969E+03  0.00000000000E+00 0. -1.
         -2   -1    0    0    0  501 -0.00000000000E+00 -0.00000000000E+00 -0.27072558965E+02  0.27072558965E+02  0.00000000000E+00 0.  1.
         25    2    1    2    0    0 -0.35591646095E+01 -0.77255845900E+02  0.27916710415E+03  0.31553587236E+03  0.12508989298E+03 0.  0.
          5    1    3    3  502    0 -0.29931258143E+02  0.61843528786E+01  0.18244826639E+03  0.18503774951E+03  0.41800000000E+01 0.  1.
         -5    1    3    3    0  502  0.26372093533E+02 -0.83440198778E+02  0.96718837763E+02  0.13049812285E+03  0.41800000000E+01 0.  1.
        -11    1    1    2    0    0 -0.37333139378E+02  0.38200417814E+02  0.11102287673E+03  0.12320354855E+03  0.00000000000E+00 0.  1.
         11    1    1    2    0    0  0.40892303988E+02  0.39055428086E+02  0.28291436984E+03  0.28851004775E+03  0.00000000000E+00 0. -1.
</event>
<event>
 7    1  0.2499014E-009  0.1222448E+03  0.7561462E-02  0.1239439E+00
         -1   -1    0    0    0  501 -0.00000000000E+00  0.00000000000E+00  0.32835472746E+02  0.32835472746E+02  0.00000000000E+00 0.  1.
          1   -1    0    0  501    0  0.00000000000E+00 -0.00000000000E+00 -0.58080881275E+03  0.58080881275E+03  0.00000000000E+00 0. -1.
         25    2    1    2    0    0  0.35405037566E+02  0.73922578808E+02 -0.26920135264E+03  0.30795994397E+03  0.12510753168E+03 0.  0.
          5    1    3    3  502    0 -0.45399859469E+02  0.12550629220E+02 -0.71907322354E+02  0.86062773263E+02  0.41800000000E+01 0. -1.
         -5    1    3    3    0  502  0.80804897034E+02  0.61371949588E+02 -0.19729403029E+03  0.22189717071E+03  0.41800000000E+01 0. -1.
        -11    1    1    2    0    0  0.88840173586E+01 -0.36800616291E+02 -0.24886653631E+02  0.45305150400E+02  0.00000000000E+00 0.  1.
         11    1    1    2    0    0 -0.44289054924E+02 -0.37121962517E+02 -0.25388533374E+03  0.26037919113E+03  0.00000000000E+00 0. -1.
</event>
<event>
 7    1  0.2499014E-009  0.9703876E+02  0.7561462E-02  0.1286649E+00
         -3   -1    0    0    0  501 -0.00000000000E+00  0.00000000000E+00  0.52860005072E+02  0.52860005072E+02  0.00000000000E+00 0.  1.
          3   -1    0    0  501    0  0.00000000000E+00 -0.00000000000E+00 -0.29523819034E+03  0.29523819034E+03  0.00000000000E+00 0. -1.
         25    2    1    2    0    0 -0.11054566277E+01  0.53935876484E+02 -0.92278777409E+02  0.16453931463E+03  0.12509001756E+03 0.  0.
          5    1    3    3  502    0 -0.31926417063E+02 -0.11035779504E+02  0.13454992623E+02  0.36600461230E+02  0.41800000000E+01 0. -1.
         -5    1    3    3    0  502  0.30820960435E+02  0.64971655988E+02 -0.10573377003E+03  0.12793885340E+03  0.41800000000E+01 0. -1.
        -11    1    1    2    0    0 -0.17174260474E+02  0.11101386803E+02 -0.92641626591E+02  0.94871845081E+02  0.00000000000E+00 0. -1.
         11    1    1    2    0    0  0.18279717102E+02 -0.65037263287E+02 -0.57457781268E+02  0.88687035701E+02  0.00000000000E+00 0.  1.
</event>
<event>
 7    1  0.2499014E-009  0.1165036E+03  0.7561462E-02  0.1248979E+00
          1   -1    0    0  501    0  0.00000000000E+00  0.00000000000E+00  0.24339435612E+03  0.24339435612E+03  0.00000000000E+00 0. -1.
         -1   -1    0    0    0  501 -0.00000000000E+00 -0.00000000000E+00 -0.84716838738E+02  0.84716838738E+02  0.00000000000E+00 0.  1.
         25    2    1    2    0    0 -0.31883280923E+02  0.37497249312E+02  0.18187099849E+03  0.22615717071E+03  0.12508964171E+03 0.  0.
          5    1    3    3  502    0 -0.61840863348E+02  0.67619509565E+02  0.12297378032E+03  0.15341679667E+03  0.41800000000E+01 0. -1.
         -5    1    3    3    0  502  0.29957582425E+02 -0.30122260253E+02  0.58897218167E+02  0.72740374039E+02  0.41800000000E+01 0. -1.
        -11    1    1    2    0    0  0.55654858991E+02 -0.47141461259E+02 -0.22359096256E+02  0.76287023040E+02  0.00000000000E+00 0.  1.
         11    1    1    2    0    0 -0.23771578068E+02  0.96442119470E+01 -0.83438485108E+00  0.25667001111E+02  0.00000000000E+00 0. -1.
</event>
<event>
 7    1  0.2499014E-009  0.1146168E+03  0.7561462E-02  0.1252251E+00
          1   -1    0    0  501    0  0.00000000000E+00  0.00000000000E+00  0.58842095850E+03  0.58842095850E+03  0.00000000000E+00 0. -1.
         -1   -1    0    0    0  501 -0.00000000000E+00 -0.00000000000E+00 -0.25743109070E+02  0.25743109070E+02  0.00000000000E+00 0.  1.
         25    2    1    2    0    0 -0.14464542517E+02  0.56037348295E+02  0.35100950730E+03  0.37710100015E+03  0.12509229677E+03 0.  0.
          5    1    3    3  502    0 -0.52284322817E+02 -0.64107619705E+01  0.22759051120E+03  0.23364430545E+03  0.41800000000E+01 0.  1.
         -5    1    3    3    0  502  0.37819780300E+02  0.62448110266E+02  0.12341899610E+03  0.14345669470E+03  0.41800000000E+01 0.  1.
        -11    1    1    2    0    0  0.28480878681E+02 -0.74688338994E+02  0.18558725726E+03  0.20206963772E+03  0.00000000000E+00 0. -1.
         11    1    1    2    0    0 -0.14016336165E+02  0.18650990699E+02  0.26081084882E+02  0.34993429700E+02  0.00000000000E+00 0.  1.
</event>
<event>
 7    1  0.2499014E-009  0.1216657E+03  0.7561462E-02  0.1240374E+00
          1   -1    0    0  501    0  0.00000000000E+00  0.00000000000E+00  0.49005918594E+03  0.49005918594E+03  0.00000000000E+00 0. -1.
         -1   -1    0    0    0  501 -0.00000000000E+00 -0.00000000000E+00 -0.32130022559E+02  0.32130022559E+02  0.00000000000E+00 0.  1.
         25    2    1    2    0    0 -0.58235986680E+02 -0.30068596793E+02  0.26205208507E+03  0.29767970612E+03  0.12508541677E+03 0.  0.
          5    1    3    3  502    0 -0.92762862212E+00  0.43661800371E+02  0.53868610202E+02  0.69473108982E+02  0.41800000000E+01 0.  1.
         -5    1    3    3    0  502 -0.57308358058E+02 -0.73730397165E+02  0.20818347486E+03  0.22820659713E+03  0.41800000000E+01 0.  1.
        -11    1    1    2    0    0 -0.17748520510E+02  0.23871659163E+02  0.84129368344E+02  0.89233495445E+02  0.00000000000E+00 0. -1.
         11    1    1    2    0    0  0.75984507190E+02  0.61969376298E+01  0.11174770997E+03  0.13527600694E+03  0.00000000000E+00 0.  1.
</event>
<event>
 7    1  0.2499014E-009  0.6817611E+02  0.7561462E-02  0.1366407E+00
          1   -1    0    0  501    0  0.00000000000E+00  0.00000000000E+00  0.42373644167E+02  0.42373644167E+02  0.00000000000E+00 0. -1.
         -1   -1    0    0    0  501 -0.00000000000E+00 -0.00000000000E+00 -0.31132994489E+03  0.31132994489E+03  0.00000000000E+00 0.  1.
         25    2    1    2    0    0  0.10936670644E+02  0.54266890906E+01 -0.16350149504E+03  0.20622581457E+03  0.12508912021E+03 0.  0.
          5    1    3    3  502    0 -0.11324719902E+02  0.29125345217E+02 -0.16992090617E+03  0.17282106865E+03  0.41800000000E+01 0.  1.
         -5    1    3    3    0  502  0.22261390546E+02 -0.23698656126E+02  0.64194111265E+01  0.33404745927E+02  0.41800000000E+01 0.  1.
        -11    1    1    2    0    0  0.73593045850E+01  0.30687677075E+02 -0.10208710968E+03  0.10685350182E+03  0.00000000000E+00 0.  1.
         11    1    1    2    0    0 -0.18295975229E+02 -0.36114366166E+02 -0.33676960013E+01  0.40624272664E+02  0.00000000000E+00 0. -1.
</event>
<event>
 7    1  0.2499014E-009  0.1263558E+03  0.7561462E-02  0.1232965E+00
          3   -1    0    0  501    0  0.00000000000E+00  0.00000000000E+00  0.75955345613E+02  0.75955345613E+02  0.00000000000E+00 0. -1.
         -3   -1    0    0    0  501 -0.00000000000E+00 -0.00000000000E+00 -0.25097617863E+03  0.25097617863E+03  0.00000000000E+00 0.  1.
         25    2    1    2    0    0  0.23884066442E+02 -0.80409106440E+02 -0.71131924992E+02  0.16656377670E+03  0.12509063885E+03 0.  0.
          5    1    3    3  502    0  0.58551539571E+02 -0.21905449614E+02  0.68303627868E+01  0.63025849972E+02  0.41800000000E+01 0. -1.
         -5    1    3    3    0  502 -0.34667473129E+02 -0.58503656827E+02 -0.77962287779E+02  0.10353792673E+03  0.41800000000E+01 0. -1.
        -11    1    1    2    0    0  0.31675663676E+02  0.12182253139E+02 -0.24479034203E+02  0.41844689943E+02  0.00000000000E+00 0. -1.
         11    1    1    2    0    0 -0.55559730119E+02  0.68226853302E+02 -0.79409873817E+02  0.11852305760E+03  0.00000000000E+00 0.  1.
</event>
<event>
 7    1  0.2499014E-009  0.1172817E+03  0.7561462E-02  0.1247650E+00
          1   -1    0    0  501    0  0.00000000000E+00  0.00000000000E+00  0.75792901719E+02  0.75792901719E+02  0.00000000000E+00 0. -1.
         -1   -1    0    0    0  501 -0.00000000000E+00 -0.00000000000E+00 -0.22911798578E+03  0.22911798578E+03  0.00000000000E+00 0.  1.
         25    2    1    2    0    0 -0.18296266928E+02 -0.50845389131E+02 -0.10348690365E+03  0.17110660843E+03  0.12509166736E+03 0.  0.
          5    1    3    3  502    0  0.31632337478E+02  0.83100844839E+01  0.92896326965E+01  0.34255393066E+02  0.41800000000E+01 0. -1.
         -5    1    3    3    0  502 -0.49928604406E+02 -0.59155473615E+02 -0.11277653635E+03  0.13685121537E+03  0.41800000000E+01 0. -1.
        -11    1    1    2    0    0  0.65357742191E+02  0.22455190784E+02 -0.24997986192E+02  0.73489927005E+02  0.00000000000E+00 0.  1.
         11    1    1    2    0    0 -0.47061475263E+02  0.28390198347E+02 -0.24840194220E+02  0.60314352065E+02  0.00000000000E+00 0. -1.
</event>
<event>
 7    1  0.2499014E-009  0.2663454E+03  0.7561462E-02  0.1103390E+00
         -2   -1    0    0    0  501 -0.00000000000E+00  0.00000000000E+00  0.19228802593E+03  0.19228802593E+03  0.00000000000E+00 0.  1.
          2   -1    0    0  501    0  0.00000000000E+00 -0.00000000000E+00 -0.40578547515E+03  0.40578547515E+03  0.00000000000E+00 0. -1.
         25    2    1    2    0    0 -0.11167024326E+03  0.23167049240E+03 -0.11315269421E+03  0.30755925147E+03  0.12509076976E+03 0.  0.
          5    1    3    3  502    0  0.10159995627E+02  0.34412996862E+02  0.18837764947E+02  0.40740810649E+02  0.41800000000E+01 0. -1.
         -5    1    3    3    0  502 -0.12183023889E+03  0.19725749554E+03 -0.13199045916E+03  0.26681844082E+03  0.41800000000E+01 0. -1.
        -11    1    1    2    0    0 -0.78383772242E+01 -0.21850583232E+02  0.96925241363E+01  0.25156175569E+02  0.00000000000E+00 0.  1.
         11    1    1    2    0    0  0.11950862049E+03 -0.20981990917E+03 -0.11003727915E+03  0.26535807404E+03  0.00000000000E+00 0. -1.
</event>
<event>
 7    1  0.2499014E-009  0.2561913E+03  0.7561462E-02  0.1109453E+00
          2   -1    0    0  501    0  0.00000000000E+00  0.00000000000E+00  0.13403190948E+03  0.13403190948E+03  0.00000000000E+00 0. -1.
         -2   -1    0    0    0  501 -0.00000000000E+00 -0.00000000000E+00 -0.52141679271E+03  0.52141679271E+03  0.00000000000E+00 0.  1.
         25    2    1    2    0    0 -0.18420230801E+03 -0.15621754960E+03 -0.19886135637E+03  0.33693904622E+03  0.12509064206E+03 0.  0.
          5    1    3    3  502    0 -0.14109663060E+03 -0.16894063928E+03 -0.19029273721E+03  0.29099484016E+03  0.41800000000E+01 0. -1.
         -5    1    3    3    0  502 -0.43105677407E+02  0.12723089676E+02 -0.85686191541E+01  0.45944206053E+02  0.41800000000E+01 0. -1.
        -11    1    1    2    0    0  0.96288805076E+02  0.47768600798E+02 -0.12578271769E+03  0.16545290954E+03  0.00000000000E+00 0.  1.
         11    1    1    2    0    0  0.87913502933E+02  0.10844894880E+03 -0.62740809174E+02  0.15305674644E+03  0.00000000000E+00 0. -1.
</event>
<event>
 7    1  0.2499014E-009  0.9202656E+02  0.7561462E-02  0.1298017E+00
         -1   -1    0    0    0  501 -0.00000000000E+00  0.00000000000E+00  0.30453291706E+03  0.30453291706E+03  0.00000000000E+00 0.  1.
          1   -1    0    0  501    0  0.00000000000E+00 -0.00000000000E+00 -0.47609438811E+02  0.47609438811E+02  0.00000000000E+00 0. -1.
         25    2    1    2    0    0 -0.27100141791E+02  0.20405847833E+02  0.20042305734E+03  0.23867950025E+03  0.12509070955E+03 0.  0.
          5    1    3    3  502    0 -0.59100548039E+02 -0.83432193943E+01  0.38645414360E+02  0.71227975820E+02  0.41800000000E+01 0. -1.
         -5    1    3    3    0  502  0.32000406249E+02  0.28749067227E+02  0.16177764298E+03  0.16745152443E+03  0.41800000000E+01 0. -1.
        -11    1    1    2    0    0  0.42548125928E+02 -0.38379178815E+02  0.66463839994E+02  0.87753896855E+02  0.00000000000E+00 0.  1.
         11    1    1    2    0    0 -0.15447984138E+02  0.17973330982E+02 -0.99634190893E+01  0.25708958759E+02  0.00000000000E+00 0. -1.
</event>
<event>
 7    1  0.2499014E-009  0.2433970E+03  0.7561462E-02  0.1117550E+00
          1   -1    0    0  501    0  0.00000000000E+00  0.00000000000E+00  0.17863072898E+04  0.17863072898E+04  0.00000000000E+00 0. -1.
         -1   -1    0    0    0  501 -0.00000000000E+00 -0.00000000000E+00 -0.46931769253E+02  0.46931769253E+02  0.00000000000E+00 0.  1.
         25    2    1    2    0    0 -0.13437738843E+03 -0.19173144855E+03  0.13020141770E+04  0.13287990200E+04  0.12509071787E+03 0.  0.
          5    1    3    3  502    0 -0.11672600013E+02 -0.33945634448E+02  0.53293124303E+03  0.53415516275E+03  0.41800000000E+01 0. -1.
         -5    1    3    3    0  502 -0.12270478841E+03 -0.15778581410E+03  0.76908293395E+03  0.79464385728E+03  0.41800000000E+01 0. -1.
        -11    1    1    2    0    0  0.11350257669E+03  0.19860619734E+03  0.40817960039E+03  0.46790794256E+03  0.00000000000E+00 0. -1.
         11    1    1    2    0    0  0.20874811738E+02 -0.68747487959E+01  0.29181743130E+02  0.36532096411E+02  0.00000000000E+00 0.  1.
</event>
<event>
 7    1  0.2499014E-009  0.1359732E+03  0.7561462E-02  0.1218852E+00
          1   -1    0    0  501    0  0.00000000000E+00  0.00000000000E+00  0.37994709378E+03  0.37994709378E+03  0.00000000000E+00 0. -1.
         -1   -1    0    0    0  501 -0.00000000000E+00 -0.00000000000E+00 -0.56723796938E+02  0.56723796938E+02  0.00000000000E+00 0.  1.
         25    2    1    2    0    0 -0.22003545956E+02  0.84720405125E+02  0.24449098938E+03  0.28824391888E+03  0.12508800823E+03 0.  0.
          5    1    3    3  502    0 -0.46790545805E+02 -0.12397157413E+02  0.51902772816E+02  0.71094408462E+02  0.41800000000E+01 0.  1.
         -5    1    3    3    0  502  0.24786999849E+02  0.97117562538E+02  0.19258821656E+03  0.21714951041E+03  0.41800000000E+01 0.  1.
        -11    1    1    2    0    0  0.13845714923E+00  0.18010662087E+02  0.23949631410E+02  0.29966447301E+02  0.00000000000E+00 0. -1.
         11    1    1    2    0    0  0.21865088807E+02 -0.10273106721E+03  0.54782676057E+02  0.11846052454E+03  0.00000000000E+00 0.  1.
</event>
<event>
 7    1  0.2499014E-009  0.9717723E+02  0.7561462E-02  0.1286346E+00
          1   -1    0    0  501    0  0.00000000000E+00  0.00000000000E+00  0.17957160911E+03  0.17957160911E+03  0.00000000000E+00 0. -1.
         -1   -1    0    0    0  501 -0.00000000000E+00 -0.00000000000E+00 -0.79725982203E+02  0.79725982203E+02  0.00000000000E+00 0.  1.
         25    2    1    2    0    0  0.30618851993E+02 -0.22317662586E+02  0.97221751451E+02  0.16289614484E+03  0.12508993920E+03 0.  0.
          5    1    3    3  502    0 -0.37140448801E+02 -0.30135494986E+02  0.78539708680E+02  0.92051720433E+02  0.41800000000E+01 0. -1.
         -5    1    3    3    0  502  0.67759300794E+02  0.78178323992E+01  0.18682042771E+02  0.70844424407E+02  0.41800000000E+01 0. -1.
        -11    1    1    2    0    0 -0.44507348094E+02 -0.74800094755E+01 -0.26623560418E+02  0.52399127334E+02  0.00000000000E+00 0.  1.
         11    1    1    2    0    0  0.13888496101E+02  0.29797672062E+02  0.29247435869E+02  0.44002319134E+02  0.00000000000E+00 0. -1.
</event>
<event>
 7    1  0.2499014E-009  0.2075314E+03  0.7561462E-02  0.1143536E+00
          2   -1    0    0  501    0  0.00000000000E+00  0.00000000000E+00  0.13566361049E+04  0.13566361049E+04  0.00000000000E+00 0. -1.
         -2   -1    0    0    0  501 -0.00000000000E+00 -0.00000000000E+00 -0.40731888968E+02  0.40731888968E+02  0.00000000000E+00 0.  1.
         25    2    1    2    0    0  0.10942547256E+03 -0.16537104338E+03  0.86648867348E+03  0.89764808474E+03  0.12509175329E+03 0.  0.
          5    1    3    3  502    0  0.15634494150E+02 -0.52639327333E+02  0.77132682633E+02  0.94774782087E+02  0.41800000000E+01 0. -1.
         -5    1    3    3    0  502  0.93790978405E+02 -0.11273171604E+03  0.78935599085E+03  0.80287330265E+03  0.41800000000E+01 0. -1.
        -11    1    1    2    0    0 -0.97487595618E+02  0.77315731796E+02  0.31398142496E+03  0.33773641927E+03  0.00000000000E+00 0. -1.
         11    1    1    2    0    0 -0.11937876937E+02  0.88055311580E+02  0.13543411748E+03  0.16198348984E+03  0.00000000000E+00 0.  1.
</event>
<event>
 7    1  0.2499014E-009  0.7199319E+02  0.7561462E-02  0.1353443E+00
         -2   -1    0    0    0  501 -0.00000000000E+00  0.00000000000E+00  0.31444035447E+02  0.31444035447E+02  0.00000000000E+00 0.  1.
          2   -1    0    0  501    0  0.00000000000E+00 -0.00000000000E+00 -0.47116768191E+03  0.47116768191E+03  0.00000000000E+00 0. -1.
         25    2    1    2    0    0  0.24395131484E+02  0.12207901158E+02 -0.14577047289E+03  0.19400924195E+03  0.12508557032E+03 0.  0.
          5    1    3    3  502    0  0.21797302683E+02 -0.13020451955E+02  0.15939815567E+02  0.30268873347E+02  0.41800000000E+01 0.  1.
         -5    1    3    3    0  502  0.25978288008E+01  0.25228353113E+02 -0.16171028846E+03  0.16374036860E+03  0.41800000000E+01 0.  1.
        -11    1    1    2    0    0 -0.55491948120E+02  0.71045036383E+01 -0.15079449965E+03  0.16083784195E+03  0.00000000000E+00 0.  1.
         11    1    1    2    0    0  0.31096816637E+02 -0.19312404796E+02 -0.14315867392E+03  0.14776463347E+03  0.00000000000E+00 0. -1.
</event>
<event>
 7    1  0.2499014E-009  0.1699162E+03  0.7561462E-02  0.1177935E+00
          1   -1    0    0  501    0  0.00000000000E+00  0.00000000000E+00  0.15617310864E+03  0.15617310864E+03  0.00000000000E+00 0. -1.
         -1   -1    0    0    0  501 -0.00000000000E+00 -0.00000000000E+00 -0.22995088128E+03  0.22995088128E+03  0.00000000000E+00 0.  1.
         25    2    1    2    0    0 -0.15137934474E+03 -0.52800549992E+02 -0.42350622867E+02  0.20771029404E+03  0.12508551835E+03 0.  0.
          5    1    3    3  502    0 -0.91830003606E+02 -0.69335980018E+02 -0.75270677571E+02  0.13756225859E+03  0.41800000000E+01 0.  1.
         -5    1    3    3    0  502 -0.59549341133E+02  0.16535430026E+02  0.32920054704E+02  0.70148035448E+02  0.41800000000E+01 0.  1.
        -11    1    1    2    0    0  0.15198061606E+02  0.15143545284E+02 -0.30288303985E+02  0.37117238565E+02  0.00000000000E+00 0.  1.
         11    1    1    2    0    0  0.13618128313E+03  0.37657004708E+02 -0.11388457803E+01  0.14129645731E+03  0.00000000000E+00 0. -1.
</event>
<event>
 7    1  0.2499014E-009  0.1096250E+03  0.7561462E-02  0.1261266E+00
          4   -1    0    0  501    0  0.00000000000E+00  0.00000000000E+00  0.28711725784E+02  0.28711725784E+02  0.00000000000E+00 0. -1.
         -4   -1    0    0    0  501 -0.00000000000E+00 -0.00000000000E+00 -0.53251102142E+03  0.53251102142E+03  0.00000000000E+00 0.  1.
         25    2    1    2    0    0  0.42936817770E+02 -0.92520793362E+01 -0.20527313685E+03  0.24435853451E+03  0.12507942030E+03 0.  0.
          5    1    3    3  502    0 -0.14927523391E+02 -0.55406581132E+02 -0.10395505910E+03  0.11881433794E+03  0.41800000000E+01 0.  1.
         -5    1    3    3    0  502  0.57864341161E+02  0.46154501795E+02 -0.10131807775E+03  0.12554419657E+03  0.41800000000E+01 0.  1.
        -11    1    1    2    0    0 -0.18559373664E+02  0.42487178313E+02 -0.24478557476E+03  0.24913768941E+03  0.00000000000E+00 0.  1.
         11    1    1    2    0    0 -0.24377444106E+02 -0.33235098976E+02 -0.53740584025E+02  0.67726523287E+02  0.00000000000E+00 0. -1.
</event>
<event>
 7    1  0.2499014E-009  0.1002922E+03  0.7561462E-02  0.1279683E+00
          2   -1    0    0  501    0  0.00000000000E+00  0.00000000000E+00  0.18466978129E+04  0.18466978129E+04  0.00000000000E+00 0.  1.
         -2   -1    0    0    0  501 -0.00000000000E+00 -0.00000000000E+00 -0.17066387922E+02  0.17066387922E+02  0.00000000000E+00 0. -1.
         25    2    1    2    0    0  0.22937594004E+02  0.41386322626E+02  0.16688895020E+04  0.16742399874E+04  0.12509358408E+03 0.  0.
          5    1    3    3  502    0  0.66934854123E+02  0.28491137254E+02  0.60780060446E+03  0.61215281326E+03  0.41800000000E+01 0.  1.
         -5    1    3    3    0  502 -0.43997260118E+02  0.12895185372E+02  0.10610888975E+04  0.10620871742E+04  0.41800000000E+01 0.  1.
        -11    1    1    2    0    0 -0.22323113952E+02  0.13960978767E+02  0.11423212963E+03  0.11722717170E+03  0.00000000000E+00 0.  1.
         11    1    1    2    0    0 -0.61448005242E+00 -0.55347301393E+02  0.46509793346E+02  0.72297041671E+02  0.00000000000E+00 0. -1.
</event>
<event>
 7    1  0.2499014E-009  0.2424554E+03  0.7561462E-02  0.1118168E+00
          2   -1    0    0  501    0  0.00000000000E+00  0.00000000000E+00  0.20528364112E+04  0.20528364112E+04  0.00000000000E+00 0. -1.
         -2   -1    0    0    0  501 -0.00000000000E+00 -0.00000000000E+00 -0.58899269800E+02  0.58899269800E+02  0.00000000000E+00 0.  1.
         25    2    1    2    0    0 -0.55908676393E+02 -0.22486963190E+03  0.17259766380E+04  0.17459482408E+04  0.12509105908E+03 0.  0.
          5    1    3    3  502    0 -0.55255263647E+02 -0.13285410244E+03  0.63600786726E+03  0.65209419282E+03  0.41800000000E+01 0.  1.
         -5    1    3    3    0  502 -0.65341274567E+00 -0.92015529455E+02  0.10899687708E+04  0.10938540480E+04  0.41800000000E+01 0.  1.
        -11    1    1    2    0    0  0.76201170674E+02  0.12083613554E+03  0.14768431941E+03  0.20547176999E+03  0.00000000000E+00 0. -1.
         11    1    1    2    0    0 -0.20292494281E+02  0.10403349636E+03  0.12027618398E+03  0.16031567023E+03  0.00000000000E+00 0.  1.
</event>
<event>
 7    1  0.2499014E-009  0.1599610E+03  0.7561462E-02  0.1188741E+00
          2   -1    0    0  501    0  0.00000000000E+00  0.00000000000E+00  0.66295897385E+02  0.66295897385E+02  0.00000000000E+00 0. -1.
         -2   -1    0    0    0  501 -0.00000000000E+00 -0.00000000000E+00 -0.70256906662E+03  0.70256906662E+03  0.00000000000E+00 0.  1.
         25    2    1    2    0    0 -0.11210663252E+03 -0.10186346331E+03 -0.52245992183E+03  0.55817269554E+03  0.12509326882E+03 0.  0.
          5    1    3    3  502    0 -0.57924133383E+02 -0.43955212145E+02 -0.43072254616E+03  0.43683709787E+03  0.41800000000E+01 0. -1.
         -5    1    3    3    0  502 -0.54182499139E+02 -0.57908251163E+02 -0.91737375676E+02  0.12133559767E+03  0.41800000000E+01 0. -1.
        -11    1    1    2    0    0  0.11687930079E+03  0.71664423204E+02 -0.11661835681E+03  0.17999000431E+03  0.00000000000E+00 0.  1.
         11    1    1    2    0    0 -0.47726682679E+01  0.30199040104E+02  0.28051094124E+01  0.30702264158E+02  0.00000000000E+00 0. -1.
</event>
<event>
 7    1  0.2499014E-009  0.2939279E+03  0.7561462E-02  0.1088316E+00
         -1   -1    0    0    0  501 -0.00000000000E+00  0.00000000000E+00  0.28610600581E+03  0.28610600581E+03  0.00000000000E+00 0.  1.
          1   -1    0    0  501    0  0.00000000000E+00 -0.00000000000E+00 -0.51122279219E+03  0.51122279219E+03  0.00000000000E+00 0. -1.
         25    2    1    2    0    0 -0.16332535313E+03 -0.23916268062E+03  0.12231254502E+03  0.33835210218E+03  0.12509127707E+03 0.  0.
          5    1    3    3  502    0 -0.99932893985E+02 -0.19149483270E+03  0.32525449167E+02  0.21847707315E+03  0.41800000000E+01 0. -1.
         -5    1    3    3    0  502 -0.63392459142E+02 -0.47667847929E+02  0.89787095850E+02  0.11987502902E+03  0.41800000000E+01 0. -1.
        -11    1    1    2    0    0  0.41712302144E+02  0.33667950174E+02 -0.28949035061E+02  0.60922029267E+02  0.00000000000E+00 0.  1.
         11    1    1    2    0    0  0.12161305098E+03  0.20549473045E+03 -0.31848029634E+03  0.39805466656E+03  0.00000000000E+00 0. -1.
</event>
<event>
 7    1  0.2499014E-009  0.1946045E+03  0.7561462E-02  0.1154373E+00
         -2   -1    0    0    0  501 -0.00000000000E+00  0.00000000000E+00  0.99763373772E+02  0.99763373772E+02  0.00000000000E+00 0.  1.
          2   -1    0    0  501    0  0.00000000000E+00 -0.00000000000E+00 -0.45620456280E+03  0.45620456280E+03  0.00000000000E+00 0. -1.
         25    2    1    2    0    0 -0.17578882980E+03  0.33452149250E+02 -0.23741872740E+03  0.32254370166E+03  0.12508408526E+03 0.  0.
          5    1    3    3  502    0 -0.63628854273E+02 -0.30780828443E+02 -0.15165658634E+03  0.16737169138E+03  0.41800000000E+01 0. -1.
         -5    1    3    3    0  502 -0.11215997553E+03  0.64232977693E+02 -0.85762141066E+02  0.15517201028E+03  0.41800000000E+01 0. -1.
        -11    1    1    2    0    0  0.57850979151E+02  0.17747982698E+02 -0.77474313276E+02  0.98305624946E+02  0.00000000000E+00 0. -1.
         11    1    1    2    0    0  0.11793785065E+03 -0.51200131948E+02 -0.41548148352E+02  0.13511860997E+03  0.00000000000E+00 0.  1.
</event>
<event>
 7    1  0.2499014E-009  0.1131546E+03  0.7561462E-02  0.1254837E+00
          3   -1    0    0  501    0  0.00000000000E+00  0.00000000000E+00  0.42651868467E+03  0.42651868467E+03  0.00000000000E+00 0. -1.
         -3   -1    0    0    0  501 -0.00000000000E+00 -0.00000000000E+00 -0.42016939834E+02  0.42016939834E+02  0.00000000000E+00 0.  1.
         25    2    1    2    0    0  0.39290502321E+02 -0.68518720071E+02  0.17395612374E+03  0.22835540679E+03  0.12508757032E+03 0.  0.
          5    1    3    3  502    0 -0.24940490247E+02 -0.16657499937E+02  0.13243537861E+03  0.13585323797E+03  0.41800000000E+01 0.  1.
         -5    1    3    3    0  502  0.64230992568E+02 -0.51861220134E+02  0.41520745126E+02  0.92502168817E+02  0.41800000000E+01 0.  1.
        -11    1    1    2    0    0  0.20971561677E+02 -0.14542515197E+01  0.23174146465E+02  0.31288373416E+02  0.00000000000E+00 0.  1.
         11    1    1    2    0    0 -0.60262063998E+02  0.69972971591E+02  0.18737147463E+03  0.20889184430E+03  0.00000000000E+00 0. -1.
</event>
<event>
 7    1  0.2499014E-009  0.9343820E+02  0.7561462E-02  0.1294733E+00
          2   -1    0    0  501    0  0.00000000000E+00  0.00000000000E+00  0.36938394703E+03  0.36938394703E+03  0.00000000000E+00 0. -1.
         -2   -1    0    0    0  501 -0.00000000000E+00 -0.00000000000E+00 -0.32597715071E+02  0.32597715071E+02  0.00000000000E+00 0.  1.
         25    2    1    2    0    0 -0.92596273508E+01  0.75601296857E+01  0.20207603895E+03  0.23796347658E+03  0.12509594081E+03 0.  0.
          5    1    3    3  502    0  0.28127660798E+02  0.56032796441E+02  0.12036560173E+03  0.13577993246E+03  0.41800000000E+01 0.  1.
         -5    1    3    3    0  502 -0.37387288149E+02 -0.48472666755E+02  0.81710437222E+02  0.10218354412E+03  0.41800000000E+01 0.  1.
        -11    1    1    2    0    0 -0.88572082009E+01  0.24392524972E+02  0.12263840066E+03  0.12535398967E+03  0.00000000000E+00 0. -1.
         11    1    1    2    0    0  0.18116835552E+02 -0.31952654658E+02  0.12071792351E+02  0.38664195849E+02  0.00000000000E+00 0.  1.
</event>
<event>
 7    1  0.2499014E-009  0.1333488E+03  0.7561462E-02  0.1222570E+00
          2   -1    0    0  501    0  0.00000000000E+00  0.00000000000E+00  0.36437037321E+02  0.36437037321E+02  0.00000000000E+00 0. -1.
         -2   -1    0    0    0  501 -0.00000000000E+00 -0.00000000000E+00 -0.63918766346E+03  0.63918766346E+03  0.00000000000E+00 0.  1.
         25    2    1    2    0    0  0.10559804169E+03  0.74807867774E+00 -0.35220424332E+03  0.38839004371E+03  0.12508993170E+03 0.  0.
          5    1    3    3  502    0  0.24980368875E+02 -0.40302057032E+02 -0.36586346764E+02  0.60035887598E+02  0.41800000000E+01 0. -1.
         -5    1    3    3    0  502  0.80617672813E+02  0.41050135709E+02 -0.31561789655E+03  0.32835415611E+03  0.41800000000E+01 0. -1.
        -11    1    1    2    0    0 -0.79671369031E+02  0.32779643707E+02 -0.21603089979E+03  0.23257553988E+03  0.00000000000E+00 0. -1.
         11    1    1    2    0    0 -0.25926672657E+02 -0.33527722385E+02 -0.34515483028E+02  0.54659117190E+02  0.00000000000E+00 0.  1.
</event>
<event>
 7    1  0.2499014E-009  0.7251157E+02  0.7561462E-02  0.1351755E+00
          2   -1    0    0  501    0  0.00000000000E+00  0.00000000000E+00  0.17477438034E+03  0.17477438034E+03  0.00000000000E+00 0. -1.
         -2   -1    0    0    0  501 -0.00000000000E+00 -0.00000000000E+00 -0.84776978465E+02  0.84776978465E+02  0.00000000000E+00 0.  1.
         25    2    1    2    0    0 -0.12184608265E+02 -0.92133396564E+01 -0.75950697180E+01  0.12623708341E+03  0.12507903836E+03 0.  0.
          5    1    3    3  502    0 -0.58559988875E+01 -0.52341808677E+02 -0.44416350167E+02  0.69023490354E+02  0.41800000000E+01 0.  1.
         -5    1    3    3    0  502 -0.63286093770E+01  0.43128469020E+02  0.36821280449E+02  0.57213593058E+02  0.41800000000E+01 0.  1.
        -11    1    1    2    0    0  0.17007445355E+02 -0.15625800701E+02 -0.82226407826E+01  0.24515926792E+02  0.00000000000E+00 0.  1.
         11    1    1    2    0    0 -0.48228370901E+01  0.24839140358E+02  0.10581511238E+03  0.10879834860E+03  0.00000000000E+00 0. -1.
</event>
<event>
 7    1  0.2499014E-009  0.7992827E+02  0.7561462E-02  0.1329255E+00
         -2   -1    0    0    0  501 -0.00000000000E+00  0.00000000000E+00  0.35779461046E+02  0.35779461046E+02  0.00000000000E+00 0. -1.
          2   -1    0    0  501    0  0.00000000000E+00 -0.00000000000E+00 -0.32983348790E+03  0.32983348790E+03  0.00000000000E+00 0.  1.
         25    2    1    2    0    0  0.58348249361E+01 -0.26581723520E+02 -0.20379920190E+03  0.24066783773E+03  0.12508501196E+03 0.  0.
          5    1    3    3  502    0  0.23419232933E+02  0.22117094392E+02 -0.22807827280E+01  0.32562258911E+02  0.41800000000E+01 0. -1.
         -5    1    3    3    0  502 -0.17584407997E+02 -0.48698817912E+02 -0.20151841917E+03  0.20810557882E+03  0.41800000000E+01 0. -1.
        -11    1    1    2    0    0  0.31023870902E+02  0.22544884150E+02 -0.15241675234E+02  0.41268160015E+02  0.00000000000E+00 0. -1.
         11    1    1    2    0    0 -0.36858695838E+02  0.40368393695E+01 -0.75013149720E+02  0.83676951199E+02  0.00000000000E+00 0.  1.
</event>
<event>
 7    1  0.2499014E-009  0.9707513E+02  0.7561462E-02  0.1286570E+00
         -3   -1    0    0    0  501 -0.00000000000E+00  0.00000000000E+00  0.95519828450E+02  0.95519828450E+02  0.00000000000E+00 0.  1.
          3   -1    0    0  501    0  0.00000000000E+00 -0.00000000000E+00 -0.15859425571E+03  0.15859425571E+03  0.00000000000E+00 0. -1.
         25    2    1    2    0    0  0.78942120887E+01 -0.53375224575E+02 -0.52089914052E+01  0.13632991505E+03  0.12508988353E+03 0.  0.
          5    1    3    3  502    0  0.37170279098E+02  0.23595309807E+02  0.22139001183E+02  0.49456810112E+02  0.41800000000E+01 0. -1.
         -5    1    3    3    0  502 -0.29276067009E+02 -0.76970534382E+02 -0.27347992588E+02  0.86873104936E+02  0.41800000000E+01 0. -1.
        -11    1    1    2    0    0  0.13731235935E+02  0.52360053070E+01 -0.63065496517E+02  0.64755072719E+02  0.00000000000E+00 0. -1.
         11    1    1    2    0    0 -0.21625448023E+02  0.48139219268E+02  0.52000606571E+01  0.53029096398E+02  0.00000000000E+00 0.  1.
</event>
<event>
 7    1  0.2682758E-009  0.1439320E+03  0.7561462E-02  0.1208134E+00
          2   -1    0    0  501    0  0.00000000000E+00  0.00000000000E+00  0.10864251113E+04  0.10864251113E+04  0.00000000000E+00 0. -1.
         -2   -1    0    0    0  501 -0.00000000000E+00 -0.00000000000E+00 -0.19361477840E+02  0.19361477840E+02  0.00000000000E+00 0.  1.
         25    2    1    2    0    0 -0.13825728603E+02  0.95410075992E+02  0.60109464952E+03  0.62149705136E+03  0.12509825657E+03 0.  0.
          5    1    3    3  502    0  0.10063593036E+02  0.12167497216E+03  0.46035699590E+03  0.47628994408E+03  0.41800000000E+01 0. -1.
         -5    1    3    3    0  502 -0.23889321639E+02 -0.26264896172E+02  0.14073765362E+03  0.14520710728E+03  0.41800000000E+01 0. -1.
        -11    1    1    2    0    0 -0.37099504616E+02 -0.35868706226E+02  0.14542809964E+03  0.15431224674E+03  0.00000000000E+00 0.  1.
         11    1    1    2    0    0  0.50925233219E+02 -0.59541369766E+02  0.32054088429E+03  0.32997729102E+03  0.00000000000E+00 0. -1.
</event>
<event>
 7    1  0.2499014E-009  0.8880199E+02  0.7561462E-02  0.1305779E+00
          1   -1    0    0  501    0  0.00000000000E+00  0.00000000000E+00  0.55581375293E+03  0.55581375293E+03  0.00000000000E+00 0.  1.
         -1   -1    0    0    0  501 -0.00000000000E+00 -0.00000000000E+00 -0.19943863628E+02  0.19943863628E+02  0.00000000000E+00 0. -1.
         25    2    1    2    0    0  0.89077004830E+01  0.30217336290E+02  0.42237429811E+03  0.44163311382E+03  0.12508926806E+03 0.  0.
          5    1    3    3  502    0 -0.41242926642E+01  0.72278484064E+02  0.34472241250E+03  0.35226723255E+03  0.41800000000E+01 0.  1.
         -5    1    3    3    0  502  0.13031993147E+02 -0.42061147773E+02  0.77651885605E+02  0.89365881272E+02  0.41800000000E+01 0.  1.
        -11    1    1    2    0    0  0.11671157155E+02 -0.37306810828E+02  0.34341069111E+02  0.52031942797E+02  0.00000000000E+00 0. -1.
         11    1    1    2    0    0 -0.20578857638E+02  0.70894745376E+01  0.79154522084E+02  0.82092559939E+02  0.00000000000E+00 0.  1.
</event>
<event>
 7    1  0.2499014E-009  0.8642390E+02  0.7561462E-02  0.1311750E+00
          2   -1    0    0  501    0  0.00000000000E+00  0.00000000000E+00  0.79493947128E+02  0.79493947128E+02  0.00000000000E+00 0.  1.
         -2   -1    0    0    0  501 -0.00000000000E+00 -0.00000000000E+00 -0.21473061311E+03  0.21473061311E+03  0.00000000000E+00 0. -1.
         25    2    1    2    0    0 -0.42436388542E+02  0.53976080233E+02 -0.14412999595E+02  0.14342373612E+03  0.12509344194E+03 0.  0.
          5    1    3    3  502    0 -0.31030764123E+02  0.62627545729E+02 -0.62019409043E+02  0.93536074881E+02  0.41800000000E+01 0. -1.
         -5    1    3    3    0  502 -0.11405624419E+02 -0.86514654961E+01  0.47606409448E+02  0.49887661242E+02  0.41800000000E+01 0. -1.
        -11    1    1    2    0    0  0.34386305621E+02 -0.10721204214E+01 -0.31344482061E+02  0.46540777949E+02  0.00000000000E+00 0.  1.
         11    1    1    2    0    0  0.80500829203E+01 -0.52903959811E+02 -0.89479184322E+02  0.10426004616E+03  0.00000000000E+00 0. -1.
</event>
<event>
 7    1  0.2499014E-009  0.1031527E+03  0.7561462E-02  0.1273803E+00
         -2   -1    0    0    0  501 -0.00000000000E+00  0.00000000000E+00  0.10263639310E+03  0.10263639310E+03  0.00000000000E+00 0.  1.
          2   -1    0    0  501    0  0.00000000000E+00 -0.00000000000E+00 -0.12033296259E+03  0.12033296259E+03  0.00000000000E+00 0. -1.
         25    2    1    2    0    0 -0.65604249988E+00  0.20650678541E+02 -0.28606138889E+02  0.12997535885E+03  0.12509357222E+03 0.  0.
          5    1    3    3  502    0 -0.32861955945E+02  0.63835632215E+02 -0.89334255268E+01  0.72471888208E+02  0.41800000000E+01 0. -1.
         -5    1    3    3    0  502  0.32205913445E+02 -0.43184953675E+02 -0.19672713362E+02  0.57503470641E+02  0.41800000000E+01 0. -1.
        -11    1    1    2    0    0  0.26206219360E+02  0.19566910620E+02 -0.17930863795E+02  0.37298066985E+02  0.00000000000E+00 0.  1.
         11    1    1    2    0    0 -0.25550176860E+02 -0.40217589161E+02  0.28840433195E+02  0.55695929855E+02  0.00000000000E+00 0. -1.
</event>
<event>
 7    1  0.2499014E-009  0.1172816E+03  0.7561462E-02  0.1247650E+00
         -1   -1    0    0    0  501 -0.00000000000E+00  0.00000000000E+00  0.33752698134E+02  0.33752698134E+02  0.00000000000E+00 0.  1.
          1   -1    0    0  501    0  0.00000000000E+00 -0.00000000000E+00 -0.54582980028E+03  0.54582980028E+03  0.00000000000E+00 0. -1.
         25    2    1    2    0    0 -0.48075847602E+02 -0.13453192422E+02 -0.42410234902E+03  0.44497562736E+03  0.12509288944E+03 0.  0.
          5    1    3    3  502    0  0.11672261692E+02  0.46715370386E+02 -0.18651444961E+03  0.19267506283E+03  0.41800000000E+01 0. -1.
         -5    1    3    3    0  502 -0.59748109294E+02 -0.60168562807E+02 -0.23758789941E+03  0.25230056453E+03  0.41800000000E+01 0. -1.
        -11    1    1    2    0    0 -0.13820491607E+02  0.33526385523E+02 -0.38293958182E+02  0.52739470492E+02  0.00000000000E+00 0.  1.
         11    1    1    2    0    0  0.61896339208E+02 -0.20073193102E+02 -0.49680794941E+02  0.81867400561E+02  0.00000000000E+00 0. -1.
</event>
<event>
 7    1  0.2499014E-009  0.2639492E+03  0.7561462E-02  0.1104793E+00
         -1   -1    0    0    0  501 -0.00000000000E+00  0.00000000000E+00  0.12349247267E+03  0.12349247267E+03  0.00000000000E+00 0.  1.
          1   -1    0    0  501    0  0.00000000000E+00 -0.00000000000E+00 -0.62746396745E+03  0.62746396745E+03  0.00000000000E+00 0. -1.
         25    2    1    2    0    0 -0.47441864961E+02  0.25059931514E+03 -0.28181334234E+03  0.40014640994E+03  0.12509053590E+03 0.  0.
          5    1    3    3  502    0 -0.54813740524E+01  0.21672195570E+03 -0.26721188674E+03  0.34411933448E+03  0.41800000000E+01 0. -1.
         -5    1    3    3    0  502 -0.41960490908E+02  0.33877359443E+02 -0.14601455597E+02  0.56027075469E+02  0.41800000000E+01 0. -1.
        -11    1    1    2    0    0  0.26097069186E+02 -0.20469344244E+03 -0.12501271103E+03  0.24126466860E+03  0.00000000000E+00 0.  1.
         11    1    1    2    0    0  0.21344795774E+02 -0.45905872707E+02 -0.97145441416E+02  0.10954536158E+03  0.00000000000E+00 0. -1.
</event>
<event>
 7    1  0.2499014E-009  0.1343887E+03  0.7561462E-02  0.1221085E+00
          1   -1    0    0  501    0  0.00000000000E+00  0.00000000000E+00  0.58793697995E+03  0.58793697995E+03  0.00000000000E+00 0. -1.
         -1   -1    0    0    0  501 -0.00000000000E+00 -0.00000000000E+00 -0.33849538675E+02  0.33849538675E+02  0.00000000000E+00 0.  1.
         25    2    1    2    0    0 -0.14487604133E+02 -0.85653114191E+02  0.25618595777E+03  0.29803587134E+03  0.12509112281E+03 0.  0.
          5    1    3    3  502    0  0.40576237969E+02 -0.76121056164E+02  0.20372142198E+03  0.22127073112E+03  0.41800000000E+01 0.  1.
         -5    1    3    3    0  502 -0.55063842102E+02 -0.95320580274E+01  0.52464535792E+02  0.76765140221E+02  0.41800000000E+01 0.  1.
        -11    1    1    2    0    0  0.53549928313E+02  0.54580527982E+02  0.16768623234E+03  0.18429677526E+03  0.00000000000E+00 0.  1.
         11    1    1    2    0    0 -0.39062324180E+02  0.31072586209E+02  0.13021525117E+03  0.13945387202E+03  0.00000000000E+00 0. -1.
</event>
<event>
 7    1  0.2499014E-009  0.1233313E+03  0.7561462E-02  0.1237700E+00
          4   -1    0    0  501    0  0.00000000000E+00  0.00000000000E+00  0.23972944703E+03  0.23972944703E+03  0.00000000000E+00 0. -1.
         -4   -1    0    0    0  501 -0.00000000000E+00 -0.00000000000E+00 -0.84778616491E+02  0.84778616491E+02  0.00000000000E+00 0.  1.
         25    2    1    2    0    0 -0.72233981502E+02 -0.54906402130E+02  0.56704067374E+02  0.16460835163E+03  0.12509235425E+03 0.  0.
          5    1    3    3  502    0 -0.51770471641E+02  0.27278998992E+02  0.54048995585E+02  0.79768990489E+02  0.41800000000E+01 0.  1.
         -5    1    3    3    0  502 -0.20463509861E+02 -0.82185401122E+02  0.26550717895E+01  0.84839361145E+02  0.41800000000E+01 0.  1.
        -11    1    1    2    0    0 -0.16468954327E+01  0.22436504588E+02 -0.10216007005E+02  0.24707808519E+02  0.00000000000E+00 0.  1.
         11    1    1    2    0    0  0.73880876934E+02  0.32469897542E+02  0.10846277017E+03  0.13519190336E+03  0.00000000000E+00 0. -1.
</event>
<event>
 7    1  0.2499014E-009  0.9577702E+02  0.7561462E-02  0.1289436E+00
          3   -1    0    0  501    0  0.00000000000E+00  0.00000000000E+00  0.29320983284E+02  0.29320983284E+02  0.00000000000E+00 0. -1.
         -3   -1    0    0    0  501 -0.00000000000E+00 -0.00000000000E+00 -0.50494383265E+03  0.50494383265E+03  0.00000000000E+00 0.  1.
         25    2    1    2    0    0 -0.35030239654E+02  0.42271971471E+02 -0.26712896047E+03  0.30003258186E+03  0.12509049281E+03 0.  0.
          5    1    3    3  502    0 -0.66632935409E+02  0.23592328608E+02 -0.24900824238E+03  0.25888051920E+03  0.41800000000E+01 0.  1.
         -5    1    3    3    0  502  0.31602695755E+02  0.18679642863E+02 -0.18120718095E+02  0.41152062655E+02  0.41800000000E+01 0.  1.
        -11    1    1    2    0    0 -0.72487303104E+01 -0.40855880588E+02 -0.17617809481E+03  0.18099853083E+03  0.00000000000E+00 0.  1.
         11    1    1    2    0    0  0.42278969964E+02 -0.14160908829E+01 -0.32315794082E+02  0.53233703251E+02  0.00000000000E+00 0. -1.
</event>
<event>
 7    1  0.2499014E-009  0.5847677E+02  0.7561462E-02  0.1404338E+00
         -1   -1    0    0    0  501 -0.00000000000E+00  0.00000000000E+00  0.50269314321E+02  0.50269314321E+02  0.00000000000E+00 0.  1.
          1   -1    0    0  501    0  0.00000000000E+00 -0.00000000000E+00 -0.24443025597E+03  0.24443025597E+03  0.00000000000E+00 0. -1.
         25    2    1    2    0    0  0.31360990410E+01 -0.22138755020E+02 -0.11884433087E+03  0.17398048736E+03  0.12508107535E+03 0.  0.
          5    1    3    3  502    0  0.13268768181E+02  0.13694557515E+02 -0.13262547943E+03  0.13405443413E+03  0.41800000000E+01 0.  1.
         -5    1    3    3    0  502 -0.10132669140E+02 -0.35833312535E+02  0.13781148562E+02  0.39926053233E+02  0.41800000000E+01 0.  1.
        -11    1    1    2    0    0  0.14906561631E+02  0.34840192533E+02 -0.87614352936E+02  0.95458469691E+02  0.00000000000E+00 0. -1.
         11    1    1    2    0    0 -0.18042660672E+02 -0.12701437514E+02  0.12297742157E+02  0.25260613239E+02  0.00000000000E+00 0.  1.
</event>
<event>
 7    1  0.2499014E-009  0.8091544E+02  0.7561462E-02  0.1326473E+00
         -1   -1    0    0    0  501 -0.00000000000E+00  0.00000000000E+00  0.36376251764E+03  0.36376251764E+03  0.00000000000E+00 0.  1.
          1   -1    0    0  501    0  0.00000000000E+00 -0.00000000000E+00 -0.42204776903E+02  0.42204776903E+02  0.00000000000E+00 0. -1.
         25    2    1    2    0    0  0.16566520813E+02 -0.36719774425E+02  0.23771137172E+03  0.27161905673E+03  0.12508966498E+03 0.  0.
          5    1    3    3  502    0  0.26034139129E+02 -0.41381839631E+02  0.19008089363E+02  0.52621411162E+02  0.41800000000E+01 0. -1.
         -5    1    3    3    0  502 -0.94676183167E+01  0.46620652052E+01  0.21870328236E+03  0.21899764557E+03  0.41800000000E+01 0. -1.
        -11    1    1    2    0    0 -0.22694415179E+01  0.67465824078E+02  0.71320944631E+02  0.98201145240E+02  0.00000000000E+00 0.  1.
         11    1    1    2    0    0 -0.14297079295E+02 -0.30746049653E+02  0.12525424383E+02  0.36147092574E+02  0.00000000000E+00 0. -1.
</event>
<event>
 7    1  0.2499014E-009  0.9939364E+02  0.7561462E-02  0.1281576E+00
         -1   -1    0    0    0  501 -0.00000000000E+00  0.00000000000E+00  0.38202140127E+02  0.38202140127E+02  0.00000000000E+00 0.  1.
          1   -1    0    0  501    0  0.00000000000E+00 -0.00000000000E+00 -0.29221539657E+03  0.29221539657E+03  0.00000000000E+00 0. -1.
         25    2    1    2    0    0 -0.31487137001E+01 -0.47649384121E+02 -0.12813683639E+03  0.18532844583E+03  0.12508879161E+03 0.  0.
          5    1    3    3  502    0 -0.16971720840E+02 -0.87720352461E+02 -0.10057689779E+03  0.13459600408E+03  0.41800000000E+01 0.  1.
         -5    1    3    3    0  502  0.13823007140E+02  0.40070968340E+02 -0.27559938596E+02  0.50732441746E+02  0.41800000000E+01 0.  1.
        -11    1    1    2    0    0 -0.18306330618E+02  0.49525884687E+01 -0.64934451961E+02  0.67647120594E+02  0.00000000000E+00 0. -1.
         11    1    1    2    0    0  0.21455044318E+02  0.42696795652E+02 -0.60941968094E+02  0.77441970280E+02  0.00000000000E+00 0.  1.
</event>
<event>
 7    1  0.2499014E-009  0.1055777E+03  0.7561462E-02  0.1268986E+00
         -3   -1    0    0    0  501 -0.00000000000E+00  0.00000000000E+00  0.19233905641E+03  0.19233905641E+03  0.00000000000E+00 0.  1.
          3   -1    0    0  501    0  0.00000000000E+00 -0.00000000000E+00 -0.71120317608E+02  0.71120317608E+02  0.00000000000E+00 0. -1.
         25    2    1    2    0    0 -0.78187555543E+01  0.44334279927E+02  0.42194850489E+02  0.13947921045E+03  0.12508950166E+03 0.  0.
          5    1    3    3  502    0  0.28921920477E+02 -0.24271915144E+02  0.48131506603E+02  0.61316536732E+02  0.41800000000E+01 0.  1.
         -5    1    3    3    0  502 -0.36740676032E+02  0.68606195071E+02 -0.59366561148E+01  0.78162673721E+02  0.41800000000E+01 0.  1.
        -11    1    1    2    0    0 -0.28907884290E+01  0.24953344093E+02  0.25300722309E+02  0.35653226902E+02  0.00000000000E+00 0.  1.
         11    1    1    2    0    0  0.10709543983E+02 -0.69287624020E+02  0.53723166000E+02  0.88326936660E+02  0.00000000000E+00 0. -1.
</event>
<event>
 7    1  0.2499014E-009  0.1007374E+03  0.7561462E-02  0.1278753E+00
         -2   -1    0    0    0  501 -0.00000000000E+00  0.00000000000E+00  0.18984452342E+02  0.18984452342E+02  0.00000000000E+00 0.  1.
          2   -1    0    0  501    0  0.00000000000E+00 -0.00000000000E+00 -0.59438754939E+03  0.59438754939E+03  0.00000000000E+00 0. -1.
         25    2    1    2    0    0 -0.17556867014E+02 -0.16517509689E+02 -0.36850016906E+03  0.38989858064E+03  0.12508979527E+03 0.  0.
          5    1    3    3  502    0  0.41704222864E+02 -0.35234060420E+02 -0.97408539725E+02  0.11174335430E+03  0.41800000000E+01 0. -1.
         -5    1    3    3    0  502 -0.59261089878E+02  0.18716550731E+02 -0.27109162934E+03  0.27815522634E+03  0.41800000000E+01 0. -1.
        -11    1    1    2    0    0  0.35579555935E+02 -0.22052487125E+02 -0.10040367529E+03  0.10878012227E+03  0.00000000000E+00 0. -1.
         11    1    1    2    0    0 -0.18022688921E+02  0.38569996814E+02 -0.10649925269E+03  0.11469329882E+03  0.00000000000E+00 0.  1.
</event>
<event>
 7    1  0.2499014E-009  0.1160407E+03  0.7561462E-02  0.1249775E+00
         -1   -1    0    0    0  501 -0.00000000000E+00  0.00000000000E+00  0.52838384266E+03  0.52838384266E+03  0.00000000000E+00 0.  1.
          1   -1    0    0  501    0  0.00000000000E+00 -0.00000000000E+00 -0.65473426459E+02  0.65473426459E+02  0.00000000000E+00 0. -1.
         25    2    1    2    0    0 -0.31005023251E+02 -0.92182256389E+02  0.60021489153E+02  0.16943801501E+03  0.12509109445E+03 0.  0.
          5    1    3    3  502    0  0.31710521018E+02 -0.46242438308E+02  0.71266926955E+02  0.90776470087E+02  0.41800000000E+01 0.  1.
         -5    1    3    3    0  502 -0.62715544269E+02 -0.45939818082E+02 -0.11245437802E+02  0.78661544923E+02  0.41800000000E+01 0.  1.
        -11    1    1    2    0    0  0.34915750150E+01  0.27362392450E+02  0.17538511620E+02  0.32687780691E+02  0.00000000000E+00 0. -1.
         11    1    1    2    0    0  0.27513448236E+02  0.64819863939E+02  0.38535041543E+03  0.39173147342E+03  0.00000000000E+00 0.  1.
</event>
<event>
 7    1  0.2499014E-009  0.8198139E+02  0.7561462E-02  0.1323521E+00
          3   -1    0    0  501    0  0.00000000000E+00  0.00000000000E+00  0.74382836940E+02  0.74382836940E+02  0.00000000000E+00 0. -1.
         -3   -1    0    0    0  501 -0.00000000000E+00 -0.00000000000E+00 -0.17957761576E+03  0.17957761576E+03  0.00000000000E+00 0.  1.
         25    2    1    2    0    0  0.42469485446E+02 -0.12708053372E+01 -0.55363403627E+02  0.14324135505E+03  0.12509079580E+03 0.  0.
          5    1    3    3  502    0 -0.32348227287E+02 -0.95414083263E+01  0.17647509323E+02  0.38292992398E+02  0.41800000000E+01 0.  1.
         -5    1    3    3    0  502  0.74817712733E+02  0.82706029891E+01 -0.73010912950E+02  0.10494836265E+03  0.41800000000E+01 0.  1.
        -11    1    1    2    0    0 -0.19514319978E+02  0.17711834965E+02  0.21494473785E+02  0.34007795949E+02  0.00000000000E+00 0. -1.
         11    1    1    2    0    0 -0.22955165468E+02 -0.16441029628E+02 -0.71325848976E+02  0.76711301704E+02  0.00000000000E+00 0.  1.
</event>
<event>
 7    1  0.2499014E-009  0.1104582E+03  0.7561462E-02  0.1259724E+00
          1   -1    0    0  501    0  0.00000000000E+00  0.00000000000E+00  0.14685478402E+04  0.14685478402E+04  0.00000000000E+00 0. -1.
         -1   -1    0    0    0  501 -0.00000000000E+00 -0.00000000000E+00 -0.15921973006E+02  0.15921973006E+02  0.00000000000E+00 0.  1.
         25    2    1    2    0    0  0.55478908707E+02  0.45692692565E+02  0.11674332598E+04  0.11763130498E+04  0.12508494626E+03 0.  0.
          5    1    3    3  502    0  0.23256897026E+01  0.71841654002E+02  0.87218723651E+03  0.87515408930E+03  0.41800000000E+01 0. -1.
         -5    1    3    3    0  502  0.53153219005E+02 -0.26148961436E+02  0.29524602325E+03  0.30115896055E+03  0.41800000000E+01 0. -1.
        -11    1    1    2    0    0 -0.16099259097E+02 -0.47455672122E+02  0.25106395557E+03  0.25601628219E+03  0.00000000000E+00 0. -1.
         11    1    1    2    0    0 -0.39379649611E+02  0.17629795565E+01  0.34128651918E+02  0.52140481223E+02  0.00000000000E+00 0.  1.
</event>
<event>
 7    1  0.2499014E-009  0.1129529E+03  0.7561462E-02  0.1255197E+00
         -2   -1    0    0    0  501 -0.00000000000E+00  0.00000000000E+00  0.51950950662E+02  0.51950950662E+02  0.00000000000E+00 0.  1.
          2   -1    0    0  501    0  0.00000000000E+00 -0.00000000000E+00 -0.25262615506E+03  0.25262615506E+03  0.00000000000E+00 0. -1.
         25    2    1    2    0    0  0.36243815271E+02 -0.64661247875E+02 -0.12253547651E+03  0.19014964759E+03  0.12508898574E+03 0.  0.
          5    1    3    3  502    0  0.80343627272E+02 -0.53626962973E+02 -0.64138505802E+02  0.11602659147E+03  0.41800000000E+01 0. -1.
         -5    1    3    3    0  502 -0.44099812002E+02 -0.11034284902E+02 -0.58396970703E+02  0.74123056124E+02  0.41800000000E+01 0. -1.
        -11    1    1    2    0    0 -0.36762653953E+00  0.40071314492E+02 -0.38890973496E+02  0.55842217129E+02  0.00000000000E+00 0. -1.
         11    1    1    2    0    0 -0.35876188731E+02  0.24589933383E+02 -0.39248754398E+02  0.58585241004E+02  0.00000000000E+00 0.  1.
</event>
<event>
 7    1  0.2499014E-009  0.1161904E+03  0.7561462E-02  0.1249517E+00
          2   -1    0    0  501    0  0.00000000000E+00  0.00000000000E+00  0.33863927044E+03  0.33863927044E+03  0.00000000000E+00 0.  1.
         -2   -1    0    0    0  501 -0.00000000000E+00 -0.00000000000E+00 -0.47733953290E+02  0.47733953290E+02  0.00000000000E+00 0. -1.
         25    2    1    2    0    0  0.43087756925E+02 -0.43597338343E+02  0.12828236533E+03  0.18937177267E+03  0.12509204740E+03 0.  0.
          5    1    3    3  502    0  0.47818995004E+02  0.28124728491E+02  0.94910861933E+02  0.11001454790E+03  0.41800000000E+01 0. -1.
         -5    1    3    3    0  502 -0.47312380794E+01 -0.71722066834E+02  0.33371503394E+02  0.79357224772E+02  0.41800000000E+01 0. -1.
        -11    1    1    2    0    0  0.18149927325E+02 -0.12226618304E+02  0.11671654655E+02  0.24801967250E+02  0.00000000000E+00 0. -1.
         11    1    1    2    0    0 -0.61237684250E+02  0.55823956647E+02  0.15095129716E+03  0.17219948381E+03  0.00000000000E+00 0.  1.
</event>
<event>
 7    1  0.2499014E-009  0.1176922E+03  0.7561462E-02  0.1246953E+00
         -4   -1    0    0    0  501 -0.00000000000E+00  0.00000000000E+00  0.20352532000E+03  0.20352532000E+03  0.00000000000E+00 0.  1.
          4   -1    0    0  501    0  0.00000000000E+00 -0.00000000000E+00 -0.10345031090E+03  0.10345031090E+03  0.00000000000E+00 0. -1.
         25    2    1    2    0    0 -0.27887275680E+02 -0.85445671050E+02  0.86262719561E+02  0.17654894695E+03  0.12509840541E+03 0.  0.
          5    1    3    3  502    0  0.38827857994E+02 -0.63636335922E+02  0.14458248639E+02  0.76050635499E+02  0.41800000000E+01 0. -1.
         -5    1    3    3    0  502 -0.66715133674E+02 -0.21809335128E+02  0.71804470921E+02  0.10049831145E+03  0.41800000000E+01 0. -1.
        -11    1    1    2    0    0  0.80791287458E+01  0.13032741106E+02  0.46190269980E+02  0.48668939817E+02  0.00000000000E+00 0.  1.
         11    1    1    2    0    0  0.19808146934E+02  0.72412929945E+02 -0.32377980437E+02  0.81757744130E+02  0.00000000000E+00 0. -1.
</event>
<event>
 7    1  0.2499014E-009  0.1045158E+03  0.7561462E-02  0.1271077E+00
          2   -1    0    0  501    0  0.00000000000E+00  0.00000000000E+00  0.26075525736E+03  0.26075525736E+03  0.00000000000E+00 0. -1.
         -2   -1    0    0    0  501 -0.00000000000E+00 -0.00000000000E+00 -0.61438681355E+02  0.61438681355E+02  0.00000000000E+00 0.  1.
         25    2    1    2    0    0  0.67171047597E+01 -0.58631883513E+02  0.83646804548E+02  0.16163712089E+03  0.12508778389E+03 0.  0.
          5    1    3    3  502    0 -0.31210465508E+02 -0.58148539672E+02 -0.37900485204E+01  0.66235811243E+02  0.41800000000E+01 0. -1.
         -5    1    3    3    0  502  0.37927570268E+02 -0.48334384111E+00  0.87436853068E+02  0.95401309646E+02  0.41800000000E+01 0. -1.
        -11    1    1    2    0    0 -0.12340221230E+02 -0.21298961927E+02  0.70983102968E+01  0.25618603558E+02  0.00000000000E+00 0.  1.
         11    1    1    2    0    0  0.56231164704E+01  0.79930845440E+02  0.10857146116E+03  0.13493821427E+03  0.00000000000E+00 0. -1.
</event>
<event>
 7    1  0.2499014E-009  0.1196430E+03  0.7561462E-02  0.1243687E+00
          3   -1    0    0  501    0  0.00000000000E+00  0.00000000000E+00  0.27848501858E+03  0.27848501858E+03  0.00000000000E+00 0. -1.
         -3   -1    0    0    0  501 -0.00000000000E+00 -0.00000000000E+00 -0.75829497790E+02  0.75829497790E+02  0.00000000000E+00 0.  1.
         25    2    1    2    0    0  0.58196825450E+02 -0.23230262189E+02  0.21414757270E+02  0.14153662551E+03  0.12509000343E+03 0.  0.
          5    1    3    3  502    0  0.31898778840E+02  0.49577939833E+02  0.24433940822E+02  0.63953061487E+02  0.41800000000E+01 0. -1.
         -5    1    3    3    0  502  0.26298046610E+02 -0.72808202022E+02 -0.30191835517E+01  0.77583564023E+02  0.41800000000E+01 0. -1.
        -11    1    1    2    0    0 -0.72278363296E+02  0.38496290033E+02  0.10170794169E+03  0.13057806688E+03  0.00000000000E+00 0. -1.
         11    1    1    2    0    0  0.14081537846E+02 -0.15266027844E+02  0.79532821831E+02  0.82199823981E+02  0.00000000000E+00 0.  1.
</event>
<event>
 7    1  0.2499014E-009  0.7320074E+02  0.7561462E-02  0.1349535E+00
          1   -1    0    0  501    0  0.00000000000E+00  0.00000000000E+00  0.12668347906E+03  0.12668347906E+03  0.00000000000E+00 0. -1.
         -1   -1    0    0    0  501 -0.00000000000E+00 -0.00000000000E+00 -0.11636581369E+03  0.11636581369E+03  0.00000000000E+00 0.  1.
         25    2    1    2    0    0  0.34470801693E+02  0.77649390853E+00  0.46095005036E+02  0.13769787000E+03  0.12508842793E+03 0.  0.
          5    1    3    3  502    0  0.14297579046E+02 -0.35852394745E+02  0.76526665444E+02  0.85811525447E+02  0.41800000000E+01 0. -1.
         -5    1    3    3    0  502  0.20173222647E+02  0.36628888654E+02 -0.30431660408E+02  0.51886344554E+02  0.41800000000E+01 0. -1.
        -11    1    1    2    0    0 -0.32525459698E+02 -0.25141775368E+02 -0.58818254633E+02  0.71760723765E+02  0.00000000000E+00 0.  1.
         11    1    1    2    0    0 -0.19453419948E+01  0.24365281460E+02  0.23040914963E+02  0.33590698987E+02  0.00000000000E+00 0. -1.
</event>
<event>
 7    1  0.2499014E-009  0.1861311E+03  0.7561462E-02  0.1161998E+00
          1   -1    0    0  501    0  0.00000000000E+00  0.00000000000E+00  0.11635293478E+04  0.11635293478E+04  0.00000000000E+00 0. -1.
         -1   -1    0    0    0  501 -0.00000000000E+00 -0.00000000000E+00 -0.46838972062E+02  0.46838972062E+02  0.00000000000E+00 0.  1.
         25    2    1    2    0    0 -0.23012055999E+01  0.16482436811E+03  0.89855834803E+03  0.92207739276E+03  0.12508895053E+03 0.  0.
          5    1    3    3  502    0  0.33527322581E+02  0.16702335983E+03  0.71889397093E+03  0.73881452201E+03  0.41800000000E+01 0. -1.
         -5    1    3    3    0  502 -0.35828528181E+02 -0.21989917212E+01  0.17966437710E+03  0.18326287075E+03  0.41800000000E+01 0. -1.
        -11    1    1    2    0    0 -0.62939072797E+01 -0.11380372243E+03  0.20556245870E+03  0.23504643144E+03  0.00000000000E+00 0.  1.
         11    1    1    2    0    0  0.85951128796E+01 -0.51020645678E+02  0.12569568979E+02  0.53244495632E+02  0.00000000000E+00 0. -1.
</event>
<event>
 7    1  0.2499014E-009  0.5397995E+03  0.7561462E-02  0.1003883E+00
         -4   -1    0    0    0  501 -0.00000000000E+00  0.00000000000E+00  0.10558392568E+04  0.10558392568E+04  0.00000000000E+00 0. -1.
          4   -1    0    0  501    0  0.00000000000E+00 -0.00000000000E+00 -0.31553828303E+03  0.31553828303E+03  0.00000000000E+00 0.  1.
         25    2    1    2    0    0  0.16906326953E+01 -0.53256835030E+03  0.14199929117E+03  0.56519196691E+03  0.12508499029E+03 0.  0.
          5    1    3    3  502    0  0.62685780036E+02 -0.23584961630E+03  0.66646447073E+02  0.25300942637E+03  0.41800000000E+01 0. -1.
         -5    1    3    3    0  502 -0.60995147340E+02 -0.29671873400E+03  0.75352844097E+02  0.31218254054E+03  0.41800000000E+01 0. -1.
        -11    1    1    2    0    0  0.25934029930E+00  0.29049491156E+02  0.76551943677E+01  0.30042340033E+02  0.00000000000E+00 0.  1.
         11    1    1    2    0    0 -0.19499729946E+01  0.50351885914E+03  0.59064648825E+03  0.77614323291E+03  0.00000000000E+00 0. -1.
</event>
<event>
 7    1  0.2499014E-009  0.9115672E+02  0.7561462E-02  0.1300074E+00
         -2   -1    0    0    0  501 -0.00000000000E+00  0.00000000000E+00  0.34560396460E+02  0.34560396460E+02  0.00000000000E+00 0.  1.
          2   -1    0    0  501    0  0.00000000000E+00 -0.00000000000E+00 -0.52473577920E+03  0.52473577920E+03  0.00000000000E+00 0. -1.
         25    2    1    2    0    0  0.39190723537E+02  0.57154147107E+02 -0.37178102224E+03  0.39833247255E+03  0.12508045749E+03 0.  0.
          5    1    3    3  502    0 -0.12412361829E+02 -0.14140971527E+02 -0.34140275575E+01  0.19574518795E+02  0.41800000000E+01 0. -1.
         -5    1    3    3    0  502  0.51603085367E+02  0.71295118634E+02 -0.36836699469E+03  0.37875795376E+03  0.41800000000E+01 0. -1.
        -11    1    1    2    0    0 -0.10185345021E+02  0.70183574676E+00  0.11779896832E+02  0.15588450724E+02  0.00000000000E+00 0.  1.
         11    1    1    2    0    0 -0.29005378516E+02 -0.57855982854E+02 -0.13017425733E+03  0.14537525239E+03  0.00000000000E+00 0. -1.
</event>
<event>
 7    1  0.2499014E-009  0.1691823E+03  0.7561462E-02  0.1178703E+00
         -2   -1    0    0    0  501 -0.00000000000E+00  0.00000000000E+00  0.63539514076E+03  0.63539514076E+03  0.00000000000E+00 0.  1.
          2   -1    0    0  501    0  0.00000000000E+00 -0.00000000000E+00 -0.53115806457E+02  0.53115806457E+02  0.00000000000E+00 0. -1.
         25    2    1    2    0    0  0.79014583585E+02  0.10509589286E+03  0.43055893245E+03  0.46724361810E+03  0.12508858154E+03 0.  0.
          5    1    3    3  502    0  0.33083551306E+02  0.12600534697E+03  0.32512402691E+03  0.35027842370E+03  0.41800000000E+01 0.  1.
         -5    1    3    3    0  502  0.45931032279E+02 -0.20909454108E+02  0.10543490553E+03  0.11696519440E+03  0.41800000000E+01 0.  1.
        -11    1    1    2    0    0 -0.87295432925E+01 -0.83355792018E+02  0.57115170600E+02  0.10142256012E+03  0.00000000000E+00 0.  1.
         11    1    1    2    0    0 -0.70285040293E+02 -0.21740100842E+02  0.94605231258E+02  0.11984476899E+03  0.00000000000E+00 0. -1.
</event>
<event>
 7    1  0.2499014E-009  0.1153521E+03  0.7561462E-02  0.1250968E+00
         -2   -1    0    0    0  501 -0.00000000000E+00  0.00000000000E+00  0.44807412647E+02  0.44807412647E+02  0.00000000000E+00 0.  1.
          2   -1    0    0  501    0  0.00000000000E+00 -0.00000000000E+00 -0.34101819102E+03  0.34101819102E+03  0.00000000000E+00 0. -1.
         25    2    1    2    0    0  0.83031847710E+01  0.53743838631E+02 -0.13993344028E+03  0.19541424129E+03  0.12509202581E+03 0.  0.
          5    1    3    3  502    0  0.41616804444E+02  0.81808730282E+02 -0.84869331758E+02  0.12507958521E+03  0.41800000000E+01 0. -1.
         -5    1    3    3    0  502 -0.33313619673E+02 -0.28064891650E+02 -0.55064108517E+02  0.70334656080E+02  0.41800000000E+01 0. -1.
        -11    1    1    2    0    0  0.53166564594E+01  0.19680856470E+02 -0.39524190565E+01  0.20765947214E+02  0.00000000000E+00 0.  1.
         11    1    1    2    0    0 -0.13619841230E+02 -0.73424695101E+02 -0.15232491905E+03  0.16964541517E+03  0.00000000000E+00 0. -1.
</event>
<event>
 7    1  0.2499014E-009  0.9222984E+02  0.7561462E-02  0.1297540E+00
          2   -1    0    0  501    0  0.00000000000E+00  0.00000000000E+00  0.70511023451E+03  0.70511023451E+03  0.00000000000E+00 0. -1.
         -2   -1    0    0    0  501 -0.00000000000E+00 -0.00000000000E+00 -0.25128273884E+02  0.25128273884E+02  0.00000000000E+00 0.  1.
         25    2    1    2    0    0  0.14311091484E+02  0.74287465168E+02  0.41437741751E+03  0.43940662246E+03  0.12508437514E+03 0.  0.
          5    1    3    3  502    0 -0.98289637239E+01  0.64864439172E+01  0.32193275044E+03  0.32217518634E+03  0.41800000000E+01 0.  1.
         -5    1    3    3    0  502  0.24140055208E+02  0.67801021251E+02  0.92444667061E+02  0.11723143613E+03  0.41800000000E+01 0.  1.
        -11    1    1    2    0    0 -0.39721064915E+02 -0.55595888077E+02  0.24192457184E+03  0.25138847275E+03  0.00000000000E+00 0.  1.
         11    1    1    2    0    0  0.25409973431E+02 -0.18691577091E+02  0.23679971281E+02  0.39443413186E+02  0.00000000000E+00 0. -1.
</event>
<event>
 7    1  0.2499014E-009  0.1444451E+03  0.7561462E-02  0.1207470E+00
         -2   -1    0    0    0  501 -0.00000000000E+00  0.00000000000E+00  0.30562048966E+03  0.30562048966E+03  0.00000000000E+00 0.  1.
          2   -1    0    0  501    0  0.00000000000E+00 -0.00000000000E+00 -0.88832978367E+02  0.88832978367E+02  0.00000000000E+00 0. -1.
         25    2    1    2    0    0  0.80742417020E+02  0.67243534466E+02  0.19657325390E+03  0.25559902665E+03  0.12509511358E+03 0.  0.
          5    1    3    3  502    0  0.10216752510E+03  0.18427708085E+02  0.16014045647E+03  0.19089322096E+03  0.41800000000E+01 0.  1.
         -5    1    3    3    0  502 -0.21425108081E+02  0.48815826381E+02  0.36432797435E+02  0.64705805694E+02  0.41800000000E+01 0.  1.
        -11    1    1    2    0    0  0.15913933501E+02 -0.13824191057E+02  0.19050098481E+02  0.28412458359E+02  0.00000000000E+00 0.  1.
         11    1    1    2    0    0 -0.96656350521E+02 -0.53419343409E+02  0.11641589103E+01  0.11044198302E+03  0.00000000000E+00 0. -1.
</event>
<event>
 7    1  0.2499014E-009  0.1380033E+03  0.7561462E-02  0.1216041E+00
          1   -1    0    0  501    0  0.00000000000E+00  0.00000000000E+00  0.15734393744E+03  0.15734393744E+03  0.00000000000E+00 0. -1.
         -1   -1    0    0    0  501 -0.00000000000E+00 -0.00000000000E+00 -0.14461486905E+03  0.14461486905E+03  0.00000000000E+00 0.  1.
         25    2    1    2    0    0 -0.50075167968E+02 -0.76382856859E+02  0.58649041589E+02  0.16561415544E+03  0.12508587104E+03 0.  0.
          5    1    3    3  502    0 -0.16903490513E+02 -0.10738508835E+03  0.35191012038E+02  0.11433794173E+03  0.41800000000E+01 0.  1.
         -5    1    3    3    0  502 -0.33171677456E+02  0.31002231487E+02  0.23458029551E+02  0.51276213713E+02  0.41800000000E+01 0.  1.
        -11    1    1    2    0    0 -0.56537872759E+01 -0.14192148697E+02  0.78522137024E+01  0.17176718407E+02  0.00000000000E+00 0. -1.
         11    1    1    2    0    0  0.55728955244E+02  0.90575005557E+02 -0.53772186909E+02  0.11916793264E+03  0.00000000000E+00 0.  1.
</event>
<event>
 7    1  0.2499014E-009  0.1427361E+03  0.7561462E-02  0.1209694E+00
          3   -1    0    0  501    0  0.00000000000E+00  0.00000000000E+00  0.99335615984E+03  0.99335615984E+03  0.00000000000E+00 0. -1.
         -3   -1    0    0    0  501 -0.00000000000E+00 -0.00000000000E+00 -0.31176209697E+02  0.31176209697E+02  0.00000000000E+00 0.  1.
         25    2    1    2    0    0  0.13618677070E+03  0.90466736282E+01  0.53038126191E+03  0.56176562174E+03  0.12509057504E+03 0.  0.
          5    1    3    3  502    0  0.96452677944E+02  0.64869513018E+00  0.14483481169E+03  0.17406359460E+03  0.41800000000E+01 0. -1.
         -5    1    3    3    0  502  0.39734092760E+02  0.83979784980E+01  0.38554645022E+03  0.38770202714E+03  0.41800000000E+01 0. -1.
        -11    1    1    2    0    0 -0.79136681148E+02  0.23329251722E+02  0.13036836742E+03  0.15428149440E+03  0.00000000000E+00 0.  1.
         11    1    1    2    0    0 -0.57050089556E+02 -0.32375925351E+02  0.30143032082E+03  0.30848525341E+03  0.00000000000E+00 0. -1.
</event>
<event>
 7    1  0.2499014E-009  0.1973390E+03  0.7561462E-02  0.1152004E+00
         -2   -1    0    0    0  501 -0.00000000000E+00  0.00000000000E+00  0.31850473427E+03  0.31850473427E+03  0.00000000000E+00 0.  1.
          2   -1    0    0  501    0  0.00000000000E+00 -0.00000000000E+00 -0.16723285310E+03  0.16723285310E+03  0.00000000000E+00 0. -1.
         25    2    1    2    0    0  0.26211775728E+02 -0.17406782507E+03  0.18492155624E+03  0.28430690663E+03  0.12509104797E+03 0.  0.
          5    1    3    3  502    0 -0.33809599671E+02 -0.13770989254E+03  0.97545442893E+02  0.17216181156E+03  0.41800000000E+01 0. -1.
         -5    1    3    3    0  502  0.60021375400E+02 -0.36357932537E+02  0.87376113348E+02  0.11214509506E+03  0.41800000000E+01 0. -1.
        -11    1    1    2    0    0  0.20344325473E+01  0.13098779099E+03  0.13370006506E+02  0.13168408172E+03  0.00000000000E+00 0.  1.
         11    1    1    2    0    0 -0.28246208276E+02  0.43080034082E+02 -0.47019681577E+02  0.69746599014E+02  0.00000000000E+00 0. -1.
</event>
<event>
 7    1  0.2499014E-009  0.9670918E+02  0.7561462E-02  0.1287372E+00
         -3   -1    0    0    0  501 -0.00000000000E+00  0.00000000000E+00  0.45921857516E+03  0.45921857516E+03  0.00000000000E+00 0.  1.
          3   -1    0    0  501    0  0.00000000000E+00 -0.00000000000E+00 -0.10180851296E+03  0.10180851296E+03  0.00000000000E+00 0. -1.
         25    2    1    2    0    0 -0.20296132692E+02 -0.27203623440E+00  0.42653496134E+03  0.44496145588E+03  0.12508643797E+03 0.  0.
          5    1    3    3  502    0  0.33063720868E+02  0.44955808948E+02  0.16664882359E+03  0.17579401924E+03  0.41800000000E+01 0.  1.
         -5    1    3    3    0  502 -0.53359853560E+02 -0.45227845182E+02  0.25988613775E+03  0.26916743664E+03  0.41800000000E+01 0.  1.
        -11    1    1    2    0    0 -0.11573576844E+02 -0.24448639075E+02  0.86964037986E+01  0.28413220033E+02  0.00000000000E+00 0.  1.
         11    1    1    2    0    0  0.31869709536E+02  0.24720675310E+02 -0.77821302944E+02  0.87652412206E+02  0.00000000000E+00 0. -1.
</event>
<event>
 7    1  0.2499014E-009  0.6715215E+02  0.7561462E-02  0.1370054E+00
          2   -1    0    0  501    0  0.00000000000E+00  0.00000000000E+00  0.26535647663E+04  0.26535647663E+04  0.00000000000E+00 0.  1.
         -2   -1    0    0    0  501 -0.00000000000E+00 -0.00000000000E+00 -0.90349380324E+01  0.90349380324E+01  0.00000000000E+00 0. -1.
         25    2    1    2    0    0 -0.32170347571E+02 -0.15368831854E+02  0.23217058283E+04  0.23253464715E+04  0.12508847583E+03 0.  0.
          5    1    3    3  502    0 -0.13699665025E+02 -0.80715111109E+01  0.36289802291E+02  0.39840334634E+02  0.41800000000E+01 0. -1.
         -5    1    3    3    0  502 -0.18470682546E+02 -0.72973207433E+01  0.22854160260E+04  0.22855061368E+04  0.41800000000E+01 0. -1.
        -11    1    1    2    0    0  0.41730326384E+02  0.47977832737E+02  0.21398093543E+03  0.22322888098E+03  0.00000000000E+00 0.  1.
         11    1    1    2    0    0 -0.95599788127E+01 -0.32609000883E+02  0.10884306450E+03  0.11402435189E+03  0.00000000000E+00 0. -1.
</event>
<event>
 7    1  0.2499014E-009  0.6245219E+03  0.7561462E-02  0.9855798E-01
         -2   -1    0    0    0  501 -0.00000000000E+00  0.00000000000E+00  0.16542294741E+03  0.16542294741E+03  0.00000000000E+00 0.  1.
          2   -1    0    0  501    0  0.00000000000E+00 -0.00000000000E+00 -0.24171884621E+04  0.24171884621E+04  0.00000000000E+00 0. -1.
         25    2    1    2    0    0  0.49820668169E+03 -0.37291487414E+03 -0.10411650997E+04  0.12194063806E+04  0.12510697571E+03 0.  0.
          5    1    3    3  502    0  0.94021173926E+02 -0.83983117250E+02 -0.12731151712E+03  0.17921729805E+03  0.41800000000E+01 0. -1.
         -5    1    3    3    0  502  0.40418550776E+03 -0.28893175689E+03 -0.91385358254E+03  0.10401890826E+04  0.41800000000E+01 0. -1.
        -11    1    1    2    0    0 -0.45137261146E+03  0.36032039015E+03 -0.10988939902E+04  0.12414249956E+04  0.00000000000E+00 0.  1.
         11    1    1    2    0    0 -0.46834070223E+02  0.12594483985E+02 -0.11170642481E+03  0.12178003327E+03  0.00000000000E+00 0. -1.
</event>
<event>
 7    1  0.2499014E-009  0.1331682E+03  0.7561462E-02  0.1222829E+00
          2   -1    0    0  501    0  0.00000000000E+00  0.00000000000E+00  0.80436169157E+03  0.80436169157E+03  0.00000000000E+00 0.  1.
         -2   -1    0    0    0  501 -0.00000000000E+00 -0.00000000000E+00 -0.25128090600E+02  0.25128090600E+02  0.00000000000E+00 0. -1.
         25    2    1    2    0    0 -0.73982979642E+02  0.52357554921E+02  0.41502230949E+03  0.44284015715E+03  0.12509633319E+03 0.  0.
          5    1    3    3  502    0  0.21154681645E+02 -0.10427920413E+02  0.18578274765E+02  0.30313145216E+02  0.41800000000E+01 0.  1.
         -5    1    3    3    0  502 -0.95137661287E+02  0.62785475334E+02  0.39644403472E+03  0.41252701193E+03  0.41800000000E+01 0.  1.
        -11    1    1    2    0    0  0.25219098673E+02  0.25875924413E+02  0.13062358313E+03  0.13552891526E+03  0.00000000000E+00 0.  1.
         11    1    1    2    0    0  0.48763880969E+02 -0.78233479333E+02  0.23358770835E+03  0.25112070975E+03  0.00000000000E+00 0. -1.
</event>
<event>
 7    1  0.2499014E-009  0.1367346E+03  0.7561462E-02  0.1217792E+00
          3   -1    0    0  501    0  0.00000000000E+00  0.00000000000E+00  0.47062259553E+03  0.47062259553E+03  0.00000000000E+00 0. -1.
         -3   -1    0    0    0  501 -0.00000000000E+00 -0.00000000000E+00 -0.91728867605E+02  0.91728867605E+02  0.00000000000E+00 0.  1.
         25    2    1    2    0    0 -0.30364873793E+01  0.11612846143E+03  0.37674638740E+03  0.41361709976E+03  0.12508487113E+03 0.  0.
          5    1    3    3  502    0  0.46709917276E+02  0.42483944679E+02  0.25556275839E+03  0.26328026474E+03  0.41800000000E+01 0. -1.
         -5    1    3    3    0  502 -0.49746404656E+02  0.73644516747E+02  0.12118362901E+03  0.15033683502E+03  0.41800000000E+01 0. -1.
        -11    1    1    2    0    0 -0.14704980956E+02 -0.75009509550E+02  0.43355371296E+02  0.87876909413E+02  0.00000000000E+00 0. -1.
         11    1    1    2    0    0  0.17741468335E+02 -0.41118951875E+02 -0.41208030775E+02  0.60857453959E+02  0.00000000000E+00 0.  1.
</event>
<event>
 7    1  0.2499014E-009  0.1061366E+03  0.7561462E-02  0.1267896E+00
          2   -1    0    0  501    0  0.00000000000E+00  0.00000000000E+00  0.32405879955E+03  0.32405879955E+03  0.00000000000E+00 0. -1.
         -2   -1    0    0    0  501 -0.00000000000E+00 -0.00000000000E+00 -0.36964525919E+02  0.36964525919E+02  0.00000000000E+00 0.  1.
         25    2    1    2    0    0 -0.90967159856E+00  0.12324717962E+02  0.14545852042E+03  0.19224683257E+03  0.12509171554E+03 0.  0.
          5    1    3    3  502    0  0.60192487149E+02  0.19500940850E+01  0.93339817636E+02  0.11116083992E+03  0.41800000000E+01 0.  1.
         -5    1    3    3    0  502 -0.61102158748E+02  0.10374623877E+02  0.52118702779E+02  0.81085992648E+02  0.41800000000E+01 0.  1.
        -11    1    1    2    0    0  0.24094670186E+02 -0.44218124080E+02  0.61668715801E+02  0.79616745331E+02  0.00000000000E+00 0. -1.
         11    1    1    2    0    0 -0.23184998587E+02  0.31893406118E+02  0.79967037413E+02  0.89159747566E+02  0.00000000000E+00 0.  1.
</event>
<event>
 7    1  0.2499014E-009  0.1003528E+03  0.7561462E-02  0.1279556E+00
         -4   -1    0    0    0  501 -0.00000000000E+00  0.00000000000E+00  0.29393258557E+02  0.29393258557E+02  0.00000000000E+00 0.  1.
          4   -1    0    0  501    0  0.00000000000E+00 -0.00000000000E+00 -0.53048424323E+03  0.53048424323E+03  0.00000000000E+00 0. -1.
         25    2    1    2    0    0 -0.24085453661E+02 -0.56233229895E+02 -0.27397068841E+03  0.30732703739E+03  0.12509070541E+03 0.  0.
          5    1    3    3  502    0  0.16102525153E+02 -0.72287593106E+02 -0.82334286931E+02  0.11082055151E+03  0.41800000000E+01 0.  1.
         -5    1    3    3    0  502 -0.40187978814E+02  0.16054363211E+02 -0.19163640148E+03  0.19650648588E+03  0.41800000000E+01 0.  1.
        -11    1    1    2    0    0  0.35054129071E+02  0.11348519833E+02 -0.23381663995E+02  0.43638092059E+02  0.00000000000E+00 0.  1.
         11    1    1    2    0    0 -0.10968675410E+02  0.44884710062E+02 -0.20373863227E+03  0.20891237234E+03  0.00000000000E+00 0. -1.
</event>
<event>
 7    1  0.2499014E-009  0.1102368E+03  0.7561462E-02  0.1260132E+00
         -3   -1    0    0    0  501 -0.00000000000E+00  0.00000000000E+00  0.57819327175E+03  0.57819327175E+03  0.00000000000E+00 0.  1.
          3   -1    0    0  501    0  0.00000000000E+00 -0.00000000000E+00 -0.68475426189E+02  0.68475426189E+02  0.00000000000E+00 0. -1.
         25    2    1    2    0    0 -0.53094856466E+02  0.78837164746E+02  0.42988771995E+03  0.45769611015E+03  0.12509162702E+03 0.  0.
          5    1    3    3  502    0 -0.18270625462E+02  0.23867142515E+02  0.88104106936E+01  0.31599873152E+02  0.41800000000E+01 0.  1.
         -5    1    3    3    0  502 -0.34824231004E+02  0.54970022231E+02  0.42107730926E+03  0.42609623700E+03  0.41800000000E+01 0.  1.
        -11    1    1    2    0    0 -0.73777749554E+01 -0.61598011845E+02  0.10441575351E+03  0.12145532598E+03  0.00000000000E+00 0.  1.
         11    1    1    2    0    0  0.60472631421E+02 -0.17239152901E+02 -0.24585627903E+02  0.67517261816E+02  0.00000000000E+00 0. -1.
</event>
<event>
 7    1  0.2499014E-009  0.9778179E+02  0.7561462E-02  0.1285031E+00
         -1   -1    0    0    0  501 -0.00000000000E+00  0.00000000000E+00  0.40715793344E+03  0.40715793344E+03  0.00000000000E+00 0.  1.
          1   -1    0    0  501    0  0.00000000000E+00 -0.00000000000E+00 -0.36498614768E+02  0.36498614768E+02  0.00000000000E+00 0. -1.
         25    2    1    2    0    0 -0.44772674724E+02  0.15664983043E+02  0.25621615740E+03  0.28904009765E+03  0.12508986626E+03 0.  0.
          5    1    3    3  502    0  0.25646145522E+02  0.27754581067E+02  0.21550678304E+02  0.43702925368E+02  0.41800000000E+01 0.  1.
         -5    1    3    3    0  502 -0.70418820245E+02 -0.12089598024E+02  0.23466547909E+03  0.24533717228E+03  0.41800000000E+01 0.  1.
        -11    1    1    2    0    0  0.11484683805E+02  0.28465527131E+02  0.88272146115E+02  0.93456706430E+02  0.00000000000E+00 0.  1.
         11    1    1    2    0    0  0.33287990918E+02 -0.44130510174E+02  0.26171015162E+02  0.61159744131E+02  0.00000000000E+00 0. -1.
</event>
<event>
 7    1  0.2499014E-009  0.1276007E+03  0.7561462E-02  0.1231060E+00
          3   -1    0    0  501    0  0.00000000000E+00  0.00000000000E+00  0.11999395329E+03  0.11999395329E+03  0.00000000000E+00 0.  1.
         -3   -1    0    0    0  501 -0.00000000000E+00 -0.00000000000E+00 -0.16708538237E+03  0.16708538237E+03  0.00000000000E+00 0. -1.
         25    2    1    2    0    0 -0.48631298858E+02  0.76537330577E+02 -0.40420744883E+02  0.15969992964E+03  0.12508902713E+03 0.  0.
          5    1    3    3  502    0 -0.25024093094E+02  0.10685640533E+03 -0.48749504343E+02  0.12016023955E+03  0.41800000000E+01 0. -1.
         -5    1    3    3    0  502 -0.23607205764E+02 -0.30319074755E+02  0.83287594593E+01  0.39539690086E+02  0.41800000000E+01 0. -1.
        -11    1    1    2    0    0  0.43070805406E+02 -0.85751212610E+02 -0.30945098282E+02  0.10082640453E+03  0.00000000000E+00 0. -1.
         11    1    1    2    0    0  0.55604934528E+01  0.92138820332E+01  0.24274414078E+02  0.26553001495E+02  0.00000000000E+00 0.  1.
</event>
<event>
 7    1  0.2499014E-009  0.1122334E+03  0.7561462E-02  0.1256489E+00
          3   -1    0    0  501    0  0.00000000000E+00  0.00000000000E+00  0.81191815139E+03  0.81191815139E+03  0.00000000000E+00 0. -1.
         -3   -1    0    0    0  501 -0.00000000000E+00 -0.00000000000E+00 -0.19793377988E+02  0.19793377988E+02  0.00000000000E+00 0.  1.
         25    2    1    2    0    0  0.14913148885E+02  0.21956346959E+01  0.61543729888E+03  0.62820083361E+03  0.12508395451E+03 0.  0.
          5    1    3    3  502    0 -0.39263268626E+02 -0.40242145798E+02  0.24511839868E+03  0.25151846122E+03  0.41800000000E+01 0.  1.
         -5    1    3    3    0  502  0.54176417511E+02  0.42437780494E+02  0.37031890020E+03  0.37668237239E+03  0.41800000000E+01 0.  1.
        -11    1    1    2    0    0  0.40854697808E+02  0.99917071047E+01  0.56302987616E+02  0.70277784245E+02  0.00000000000E+00 0.  1.
         11    1    1    2    0    0 -0.55767846692E+02 -0.12187341801E+02  0.12038448691E+03  0.13323291153E+03  0.00000000000E+00 0. -1.
</event>
<event>
 7    1  0.2499014E-009  0.2332001E+03  0.7561462E-02  0.1124407E+00
         -2   -1    0    0    0  501 -0.00000000000E+00  0.00000000000E+00  0.95580128435E+02  0.95580128435E+02  0.00000000000E+00 0.  1.
          2   -1    0    0  501    0  0.00000000000E+00 -0.00000000000E+00 -0.64924848694E+03  0.64924848694E+03  0.00000000000E+00 0. -1.
         25    2    1    2    0    0  0.12898204178E+03 -0.18136921981E+03 -0.33523352322E+03  0.42137935690E+03  0.12509151186E+03 0.  0.
          5    1    3    3  502    0  0.15165521986E+02 -0.58150723871E+02 -0.19047035591E+03  0.19976968896E+03  0.41800000000E+01 0.  1.
         -5    1    3    3    0  502  0.11381651980E+03 -0.12321849594E+03 -0.14476316730E+03  0.22160966795E+03  0.41800000000E+01 0.  1.
        -11    1    1    2    0    0 -0.59765151652E+02  0.15171936245E+03 -0.15525356247E+03  0.22515396277E+03  0.00000000000E+00 0. -1.
         11    1    1    2    0    0 -0.69216890130E+02  0.29649857365E+02 -0.63181272823E+02  0.98295295699E+02  0.00000000000E+00 0.  1.
</event>
<event>
 7    1  0.2499014E-009  0.2515289E+03  0.7561462E-02  0.1112342E+00
         -2   -1    0    0    0  501 -0.00000000000E+00  0.00000000000E+00  0.65612878224E+03  0.65612878224E+03  0.00000000000E+00 0.  1.
          2   -1    0    0  501    0  0.00000000000E+00 -0.00000000000E+00 -0.11849233152E+03  0.11849233152E+03  0.00000000000E+00 0. -1.
         25    2    1    2    0    0 -0.10269651145E+03  0.22327319125E+03  0.17606018477E+03  0.32717122326E+03  0.12508528799E+03 0.  0.
          5    1    3    3  502    0 -0.55972639900E+02  0.14328434597E+03  0.34116195096E+02  0.15762210310E+03  0.41800000000E+01 0. -1.
         -5    1    3    3    0  502 -0.46723871553E+02  0.79988845273E+02  0.14194398967E+03  0.16954912015E+03  0.41800000000E+01 0. -1.
        -11    1    1    2    0    0 -0.11527804555E+02 -0.15181691528E+02  0.64072632505E+02  0.66848158327E+02  0.00000000000E+00 0.  1.
         11    1    1    2    0    0  0.11422431601E+03 -0.20809149972E+03  0.29750363344E+03  0.38060173217E+03  0.00000000000E+00 0. -1.
</event>
<event>
 7    1  0.2747153E-009  0.9067776E+02  0.7561462E-02  0.1301219E+00
         -1   -1    0    0    0  501 -0.00000000000E+00  0.00000000000E+00  0.81921707264E+02  0.81921707264E+02  0.00000000000E+00 0.  1.
          1   -1    0    0  501    0  0.00000000000E+00 -0.00000000000E+00 -0.17727881786E+03  0.17727881786E+03  0.00000000000E+00 0. -1.
         25    2    1    2    0    0  0.11658067175E+02 -0.71486428694E+01  0.21611285302E+00  0.12583624110E+03  0.12509076402E+03 0.  0.
          5    1    3    3  502    0  0.18656732909E+02 -0.61054458843E+02  0.21229070283E+02  0.67408207605E+02  0.41800000000E+01 0.  1.
         -5    1    3    3    0  502 -0.69986657336E+01  0.53905815974E+02 -0.21012957430E+02  0.58428033493E+02  0.41800000000E+01 0.  1.
        -11    1    1    2    0    0 -0.14238857128E+02 -0.25981932851E+02  0.25784130687E+01  0.29739773048E+02  0.00000000000E+00 0.  1.
         11    1    1    2    0    0  0.25807899530E+01  0.33130575721E+02 -0.98151636513E+02  0.10362451097E+03  0.00000000000E+00 0. -1.
</event>
<event>
 7    1  0.2499014E-009  0.2251211E+03  0.7561462E-02  0.1130122E+00
          1   -1    0    0  501    0  0.00000000000E+00  0.00000000000E+00  0.15159819670E+03  0.15159819670E+03  0.00000000000E+00 0. -1.
         -1   -1    0    0    0  501 -0.00000000000E+00 -0.00000000000E+00 -0.70717805414E+03  0.70717805414E+03  0.00000000000E+00 0.  1.
         25    2    1    2    0    0 -0.17709616816E+03  0.12697182327E+03 -0.57144109731E+03  0.62424149565E+03  0.12509044931E+03 0.  0.
          5    1    3    3  502    0 -0.64596328177E+02  0.29818111714E+01 -0.69151052805E+02  0.94767701861E+02  0.41800000000E+01 0. -1.
         -5    1    3    3    0  502 -0.11249983998E+03  0.12399001210E+03 -0.50229004450E+03  0.52947379378E+03  0.41800000000E+01 0. -1.
        -11    1    1    2    0    0  0.44660456865E+02 -0.29341594212E+02 -0.33117630912E+02  0.62867026616E+02  0.00000000000E+00 0.  1.
         11    1    1    2    0    0  0.13243571129E+03 -0.97630229060E+02  0.48978870783E+02  0.17166772858E+03  0.00000000000E+00 0. -1.
</event>
<event>
 7    1  0.2499014E-009  0.9663647E+02  0.7561462E-02  0.1287532E+00
         -3   -1    0    0    0  501 -0.00000000000E+00  0.00000000000E+00  0.26351723309E+03  0.26351723309E+03  0.00000000000E+00 0. -1.
          3   -1    0    0  501    0  0.00000000000E+00 -0.00000000000E+00 -0.59356561055E+02  0.59356561055E+02  0.00000000000E+00 0.  1.
         25    2    1    2    0    0  0.71051188874E+01  0.90288746489E+01  0.34223282848E+02  0.13019540444E+03  0.12509039514E+03 0.  0.
          5    1    3    3  502    0  0.23190377824E+02 -0.42589857414E+02 -0.20807979250E+02  0.52935186584E+02  0.41800000000E+01 0.  1.
         -5    1    3    3    0  502 -0.16085258936E+02  0.51618732063E+02  0.55031262098E+02  0.77260217855E+02  0.41800000000E+01 0.  1.
        -11    1    1    2    0    0 -0.39921894282E+02  0.21677999514E+02  0.94872946817E+02  0.10518825668E+03  0.00000000000E+00 0. -1.
         11    1    1    2    0    0  0.32816775395E+02 -0.30706874163E+02  0.75064442370E+02  0.87490133023E+02  0.00000000000E+00 0.  1.
</event>
<event>
 7    1  0.2499014E-009  0.1048733E+03  0.7561462E-02  0.1270369E+00
          2   -1    0    0  501    0  0.00000000000E+00  0.00000000000E+00  0.31339586885E+03  0.31339586885E+03  0.00000000000E+00 0. -1.
         -2   -1    0    0    0  501 -0.00000000000E+00 -0.00000000000E+00 -0.41970368515E+02  0.41970368515E+02  0.00000000000E+00 0.  1.
         25    2    1    2    0    0 -0.24571368083E+02  0.68762479661E+01  0.20536267461E+03  0.24181177911E+03  0.12509225987E+03 0.  0.
          5    1    3    3  502    0  0.18644327847E+02 -0.45834855984E+02  0.13461410029E+03  0.14348126491E+03  0.41800000000E+01 0. -1.
         -5    1    3    3    0  502 -0.43215695931E+02  0.52711103950E+02  0.70748574323E+02  0.98330514202E+02  0.41800000000E+01 0. -1.
        -11    1    1    2    0    0  0.25387289578E+01  0.39959094849E+02  0.35064243803E+02  0.53222886048E+02  0.00000000000E+00 0.  1.
         11    1    1    2    0    0  0.22032639125E+02 -0.46835342815E+02  0.30998581919E+02  0.60331572203E+02  0.00000000000E+00 0. -1.
</event>
<event>
 7    1  0.2499014E-009  0.1304848E+03  0.7561462E-02  0.1226738E+00
         -3   -1    0    0    0  501 -0.00000000000E+00  0.00000000000E+00  0.19758022710E+03  0.19758022710E+03  0.00000000000E+00 0.  1.
          3   -1    0    0  501    0  0.00000000000E+00 -0.00000000000E+00 -0.12427116976E+03  0.12427116976E+03  0.00000000000E+00 0. -1.
         25    2    1    2    0    0 -0.56698070091E+02  0.77208953183E+02 -0.21135726096E+02  0.15896702878E+03  0.12509158132E+03 0.  0.
          5    1    3    3  502    0  0.22856945501E+02  0.35985637796E+02 -0.48958593065E+02  0.65052458217E+02  0.41800000000E+01 0. -1.
         -5    1    3    3    0  502 -0.79555015592E+02  0.41223315388E+02  0.27822866970E+02  0.93914570562E+02  0.41800000000E+01 0. -1.
        -11    1    1    2    0    0  0.46734673357E+02  0.37321336324E+01  0.15495286973E+02  0.49377752415E+02  0.00000000000E+00 0. -1.
         11    1    1    2    0    0  0.99633967346E+01 -0.80941086816E+02  0.78949496456E+02  0.11350661567E+03  0.00000000000E+00 0.  1.
</event>
<event>
 7    1  0.2499014E-009  0.1037585E+03  0.7561462E-02  0.1272585E+00
         -4   -1    0    0    0  501 -0.00000000000E+00  0.00000000000E+00  0.22775942767E+03  0.22775942767E+03  0.00000000000E+00 0. -1.
          4   -1    0    0  501    0  0.00000000000E+00 -0.00000000000E+00 -0.10261393546E+03  0.10261393546E+03  0.00000000000E+00 0.  1.
         25    2    1    2    0    0 -0.80866587869E+01  0.25069921544E+02 -0.44827484886E+02  0.13546374105E+03  0.12508807585E+03 0.  0.
          5    1    3    3  502    0  0.42691514581E+02  0.54087097097E+02 -0.20797264156E+02  0.72097004695E+02  0.41800000000E+01 0.  1.
         -5    1    3    3    0  502 -0.50778173368E+02 -0.29017175553E+02 -0.24030220730E+02  0.63366736352E+02  0.41800000000E+01 0.  1.
        -11    1    1    2    0    0 -0.22057580754E+02 -0.40402620638E+02  0.41223090626E+02  0.61792004530E+02  0.00000000000E+00 0.  1.
         11    1    1    2    0    0  0.30144239541E+02  0.15332699094E+02  0.12874988647E+03  0.13311761756E+03  0.00000000000E+00 0. -1.
</event>
<event>
 7    1  0.2499014E-009  0.1443686E+03  0.7561462E-02  0.1207569E+00
          2   -1    0    0  501    0  0.00000000000E+00  0.00000000000E+00  0.67116092972E+03  0.67116092972E+03  0.00000000000E+00 0. -1.
         -2   -1    0    0    0  501 -0.00000000000E+00 -0.00000000000E+00 -0.40929479870E+02  0.40929479870E+02  0.00000000000E+00 0.  1.
         25    2    1    2    0    0  0.11640911224E+03  0.37388490677E+02  0.27431802010E+03  0.32534249804E+03  0.12509350197E+03 0.  0.
          5    1    3    3  502    0  0.10697405194E+03  0.55146665020E+02  0.27934548584E+03  0.30419726381E+03  0.41800000000E+01 0. -1.
         -5    1    3    3    0  502  0.94350602996E+01 -0.17758174343E+02 -0.50274657423E+01  0.21145234230E+02  0.41800000000E+01 0. -1.
        -11    1    1    2    0    0 -0.81789071047E+02  0.16774655643E+02  0.24133281404E+03  0.25536712464E+03  0.00000000000E+00 0.  1.
         11    1    1    2    0    0 -0.34620041192E+02 -0.54163146320E+02  0.11458061571E+03  0.13138078691E+03  0.00000000000E+00 0. -1.
</event>
<event>
 7    1  0.2499014E-009  0.1345128E+03  0.7561462E-02  0.1220909E+00
          1   -1    0    0  501    0  0.00000000000E+00  0.00000000000E+00  0.52041456465E+03  0.52041456465E+03  0.00000000000E+00 0. -1.
         -1   -1    0    0    0  501 -0.00000000000E+00 -0.00000000000E+00 -0.37930447644E+02  0.37930447644E+02  0.00000000000E+00 0.  1.
         25    2    1    2    0    0  0.67431055895E+02  0.49714120012E+02  0.31422566719E+03  0.34842946128E+03  0.12508748355E+03 0.  0.
          5    1    3    3  502    0  0.88338961471E+02  0.72162967521E+02  0.27948359213E+03  0.30189371750E+03  0.41800000000E+01 0.  1.
         -5    1    3    3    0  502 -0.20907905576E+02 -0.22448847510E+02  0.34742075054E+02  0.46535743779E+02  0.41800000000E+01 0.  1.
        -11    1    1    2    0    0 -0.48567257846E+01 -0.60268021500E+02  0.65488465625E+02  0.89132268740E+02  0.00000000000E+00 0. -1.
         11    1    1    2    0    0 -0.62574330111E+02  0.10553901488E+02  0.10276998419E+03  0.12078328227E+03  0.00000000000E+00 0.  1.
</event>
<event>
 7    1  0.2624386E-009  0.1020592E+03  0.7561462E-02  0.1276024E+00
          1   -1    0    0  501    0  0.00000000000E+00  0.00000000000E+00  0.16821495542E+03  0.16821495542E+03  0.00000000000E+00 0. -1.
         -1   -1    0    0    0  501 -0.00000000000E+00 -0.00000000000E+00 -0.11516706522E+03  0.11516706522E+03  0.00000000000E+00 0.  1.
         25    2    1    2    0    0 -0.54783322445E+02 -0.67803448040E+02  0.30421560976E+02  0.15547315860E+03  0.12509161318E+03 0.  0.
          5    1    3    3  502    0 -0.26008073623E+02 -0.18846911028E+02  0.75950312521E+02  0.82568446279E+02  0.41800000000E+01 0.  1.
         -5    1    3    3    0  502 -0.28775248823E+02 -0.48956537011E+02 -0.45528751545E+02  0.72904712318E+02  0.41800000000E+01 0.  1.
        -11    1    1    2    0    0  0.36041923466E+02  0.83111108577E+02  0.39066259668E+02  0.98654190284E+02  0.00000000000E+00 0. -1.
         11    1    1    2    0    0  0.18741398979E+02 -0.15307660537E+02 -0.16439930448E+02  0.29254671763E+02  0.00000000000E+00 0.  1.
</event>
<event>
 7    1  0.2499014E-009  0.1326103E+03  0.7561462E-02  0.1223633E+00
          2   -1    0    0  501    0  0.00000000000E+00  0.00000000000E+00  0.77467830988E+02  0.77467830988E+02  0.00000000000E+00 0. -1.
         -2   -1    0    0    0  501 -0.00000000000E+00 -0.00000000000E+00 -0.46938142116E+03  0.46938142116E+03  0.00000000000E+00 0.  1.
         25    2    1    2    0    0  0.66250613211E+02  0.10341297781E+03 -0.34269983426E+03  0.38492964930E+03  0.12507705937E+03 0.  0.
          5    1    3    3  502    0 -0.15970992423E+01  0.46309750063E+02 -0.20712658948E+02  0.50927696959E+02  0.41800000000E+01 0.  1.
         -5    1    3    3    0  502  0.67847712453E+02  0.57103227746E+02 -0.32198717531E+03  0.33400195234E+03  0.41800000000E+01 0.  1.
        -11    1    1    2    0    0 -0.61566886801E+02 -0.59050580385E+02  0.12029768769E+02  0.86152004799E+02  0.00000000000E+00 0. -1.
         11    1    1    2    0    0 -0.46837264097E+01 -0.44362397424E+02 -0.61243524684E+02  0.75767598049E+02  0.00000000000E+00 0.  1.
</event>
<event>
 7    1  0.2499014E-009  0.1290486E+03  0.7561462E-02  0.1228874E+00
          1   -1    0    0  501    0  0.00000000000E+00  0.00000000000E+00  0.68997556996E+02  0.68997556996E+02  0.00000000000E+00 0. -1.
         -1   -1    0    0    0  501 -0.00000000000E+00 -0.00000000000E+00 -0.32326283601E+03  0.32326283601E+03  0.00000000000E+00 0.  1.
         25    2    1    2    0    0  0.96906537280E+02  0.32416313248E+02 -0.12897197407E+03  0.20669960283E+03  0.12509700789E+03 0.  0.
          5    1    3    3  502    0 -0.50886264712E+01  0.39881205146E+02  0.20078366233E+01  0.40471081665E+02  0.41800000000E+01 0. -1.
         -5    1    3    3    0  502  0.10199516375E+03 -0.74648918973E+01 -0.13097981069E+03  0.16622852117E+03  0.41800000000E+01 0. -1.
        -11    1    1    2    0    0 -0.43430806239E+02  0.12816208689E+02 -0.10224844426E+03  0.11182680578E+03  0.00000000000E+00 0.  1.
         11    1    1    2    0    0 -0.53475731040E+02 -0.45232521937E+02 -0.23044860675E+02  0.73733984394E+02  0.00000000000E+00 0. -1.
</event>
<event>
 7    1  0.2499014E-009  0.1387662E+03  0.7561462E-02  0.1214999E+00
          3   -1    0    0  501    0  0.00000000000E+00  0.00000000000E+00  0.72227311652E+02  0.72227311652E+02  0.00000000000E+00 0. -1.
         -3   -1    0    0    0  501 -0.00000000000E+00 -0.00000000000E+00 -0.39234649346E+03  0.39234649346E+03  0.00000000000E+00 0.  1.
         25    2    1    2    0    0 -0.52935223152E+02 -0.10407535683E+03 -0.23805074758E+03  0.29317048725E+03  0.12508780284E+03 0.  0.
          5    1    3    3  502    0 -0.10110793411E+02  0.19640290987E+02 -0.10147424245E+03  0.10393490008E+03  0.41800000000E+01 0. -1.
         -5    1    3    3    0  502 -0.42824429741E+02 -0.12371564781E+03 -0.13657650513E+03  0.18923558717E+03  0.41800000000E+01 0. -1.
        -11    1    1    2    0    0  0.60015221435E+02  0.88185896757E+02 -0.10014701821E+03  0.14631474446E+03  0.00000000000E+00 0. -1.
         11    1    1    2    0    0 -0.70799982822E+01  0.15889460069E+02  0.18078583980E+02  0.25088573409E+02  0.00000000000E+00 0.  1.
</event>
<event>
 7    1  0.2499014E-009  0.1968650E+03  0.7561462E-02  0.1152411E+00
          1   -1    0    0  501    0  0.00000000000E+00  0.00000000000E+00  0.25335256566E+03  0.25335256566E+03  0.00000000000E+00 0. -1.
         -1   -1    0    0    0  501 -0.00000000000E+00 -0.00000000000E+00 -0.16935660934E+03  0.16935660934E+03  0.00000000000E+00 0.  1.
         25    2    1    2    0    0  0.90688639188E+02  0.14194190793E+03 -0.99504125825E+01  0.21004435631E+03  0.12509071270E+03 0.  0.
          5    1    3    3  502    0  0.10983090026E+03  0.61954980384E+02 -0.17368191887E+02  0.12735922714E+03  0.41800000000E+01 0. -1.
         -5    1    3    3    0  502 -0.19142261077E+02  0.79986927542E+02  0.74177793045E+01  0.82685129174E+02  0.41800000000E+01 0. -1.
        -11    1    1    2    0    0 -0.56358082090E+02 -0.22082767094E+02  0.75990745438E+01  0.61005146941E+02  0.00000000000E+00 0.  1.
         11    1    1    2    0    0 -0.34330557098E+02 -0.11985914083E+03  0.86347294364E+02  0.15165967175E+03  0.00000000000E+00 0. -1.
</event>
<event>
 7    1  0.2499014E-009  0.2128952E+03  0.7561462E-02  0.1139294E+00
          2   -1    0    0  501    0  0.00000000000E+00  0.00000000000E+00  0.17247413564E+04  0.17247413564E+04  0.00000000000E+00 0. -1.
         -2   -1    0    0    0  501 -0.00000000000E+00 -0.00000000000E+00 -0.33468624217E+02  0.33468624217E+02  0.00000000000E+00 0.  1.
         25    2    1    2    0    0 -0.15143482548E+03 -0.14121391120E+03  0.69020278199E+03  0.73136969850E+03  0.12509148865E+03 0.  0.
          5    1    3    3  502    0 -0.52381188742E+02 -0.35765959683E+02  0.70221287021E+02  0.94717972724E+02  0.41800000000E+01 0. -1.
         -5    1    3    3    0  502 -0.99053636736E+02 -0.10544795152E+03  0.61998149497E+03  0.63665172578E+03  0.41800000000E+01 0. -1.
        -11    1    1    2    0    0  0.10541445053E+03  0.52987391353E+02  0.69664060321E+03  0.70656068392E+03  0.00000000000E+00 0.  1.
         11    1    1    2    0    0  0.46020374951E+02  0.88226519851E+02  0.30442934697E+03  0.32027959818E+03  0.00000000000E+00 0. -1.
</event>
<event>
 7    1  0.2499014E-009  0.1053586E+03  0.7561462E-02  0.1269415E+00
         -1   -1    0    0    0  501 -0.00000000000E+00  0.00000000000E+00  0.31750503231E+02  0.31750503231E+02  0.00000000000E+00 0.  1.
          1   -1    0    0  501    0  0.00000000000E+00 -0.00000000000E+00 -0.46291297516E+03  0.46291297516E+03  0.00000000000E+00 0. -1.
         25    2    1    2    0    0 -0.65353305507E+01 -0.17979361899E+02 -0.14778847395E+03  0.19456418420E+03  0.12509124966E+03 0.  0.
          5    1    3    3  502    0  0.57831094271E+02 -0.36352931024E+01 -0.88030990126E+02  0.10547311716E+03  0.41800000000E+01 0. -1.
         -5    1    3    3    0  502 -0.64366424821E+02 -0.14344068796E+02 -0.59757483822E+02  0.89091067042E+02  0.41800000000E+01 0. -1.
        -11    1    1    2    0    0 -0.31337194397E+02  0.33266675431E+02 -0.75530330769E+02  0.88280928365E+02  0.00000000000E+00 0.  1.
         11    1    1    2    0    0  0.37872524947E+02 -0.15287313532E+02 -0.20784366721E+03  0.21181836582E+03  0.00000000000E+00 0. -1.
</event>
<event>
 7    1  0.2499014E-009  0.1140260E+03  0.7561462E-02  0.1253291E+00
          1   -1    0    0  501    0  0.00000000000E+00  0.00000000000E+00  0.59651100946E+02  0.59651100946E+02  0.00000000000E+00 0. -1.
         -1   -1    0    0    0  501 -0.00000000000E+00 -0.00000000000E+00 -0.37959704815E+03  0.37959704815E+03  0.00000000000E+00 0.  1.
         25    2    1    2    0    0 -0.22965285689E+02  0.97853241954E+02 -0.20606757776E+03  0.26117660592E+03  0.12508681613E+03 0.  0.
          5    1    3    3  502    0 -0.49848547979E+01  0.69036376402E+02 -0.20256605506E+02  0.72240380057E+02  0.41800000000E+01 0. -1.
         -5    1    3    3    0  502 -0.17980430891E+02  0.28816865552E+02 -0.18581097225E+03  0.18893622587E+03  0.41800000000E+01 0. -1.
        -11    1    1    2    0    0 -0.24389161439E+02 -0.56800846656E+02 -0.93658275304E+02  0.11221871461E+03  0.00000000000E+00 0.  1.
         11    1    1    2    0    0  0.47354447129E+02 -0.41052395298E+02 -0.20220094147E+02  0.65852828564E+02  0.00000000000E+00 0. -1.
</event>
<event>
 7    1  0.2499014E-009  0.9911923E+02  0.7561462E-02  0.1282159E+00
          2   -1    0    0  501    0  0.00000000000E+00  0.00000000000E+00  0.86145539150E+03  0.86145539150E+03  0.00000000000E+00 0. -1.
         -2   -1    0    0    0  501 -0.00000000000E+00 -0.00000000000E+00 -0.22919951429E+02  0.22919951429E+02  0.00000000000E+00 0.  1.
         25    2    1    2    0    0 -0.70083232375E+02 -0.30675060032E+02  0.59300825788E+03  0.61086551289E+03  0.12508102238E+03 0.  0.
          5    1    3    3  502    0 -0.67777604242E+02 -0.23304153345E+02  0.59694142100E+03  0.60124322841E+03  0.41800000000E+01 0. -1.
         -5    1    3    3    0  502 -0.23056281332E+01 -0.73709066870E+01 -0.39331631248E+01  0.96222844815E+01  0.41800000000E+01 0. -1.
        -11    1    1    2    0    0  0.25195878396E+02 -0.31901758502E+02  0.58401583465E+02  0.71156864988E+02  0.00000000000E+00 0.  1.
         11    1    1    2    0    0  0.44887353980E+02  0.62576818534E+02  0.18712559873E+03  0.20235296505E+03  0.00000000000E+00 0. -1.
</event>
<event>
 7    1  0.2499014E-009  0.2311758E+03  0.7561462E-02  0.1125815E+00
         -2   -1    0    0    0  501 -0.00000000000E+00  0.00000000000E+00  0.76028743458E+02  0.76028743458E+02  0.00000000000E+00 0.  1.
          2   -1    0    0  501    0  0.00000000000E+00 -0.00000000000E+00 -0.81672374745E+03  0.81672374745E+03  0.00000000000E+00 0. -1.
         25    2    1    2    0    0  0.12156380580E+03  0.18807939050E+03 -0.37002336855E+03  0.45023992554E+03  0.12508829391E+03 0.  0.
          5    1    3    3  502    0  0.67717204652E+02  0.15647271288E+03 -0.17059797836E+03  0.24122701404E+03  0.41800000000E+01 0.  1.
         -5    1    3    3    0  502  0.53846601147E+02  0.31606677618E+02 -0.19942539018E+03  0.20901291150E+03  0.41800000000E+01 0.  1.
        -11    1    1    2    0    0 -0.87920141268E+02 -0.91232908747E+02 -0.27273388025E+03  0.30072772455E+03  0.00000000000E+00 0. -1.
         11    1    1    2    0    0 -0.33643664531E+02 -0.96846481752E+02 -0.97937755200E+02  0.14178484081E+03  0.00000000000E+00 0.  1.
</event>
<event>
 7    1  0.2499014E-009  0.3653699E+03  0.7561462E-02  0.1056478E+00
          1   -1    0    0  501    0  0.00000000000E+00  0.00000000000E+00  0.35012680774E+03  0.35012680774E+03  0.00000000000E+00 0. -1.
         -1   -1    0    0    0  501 -0.00000000000E+00 -0.00000000000E+00 -0.46556607524E+03  0.46556607524E+03  0.00000000000E+00 0.  1.
         25    2    1    2    0    0 -0.10013994848E+03  0.34482433397E+03  0.91286238135E+02  0.39103949847E+03  0.12508749544E+03 0.  0.
          5    1    3    3  502    0 -0.26581782677E+02  0.22200924565E+03  0.47056069923E+01  0.22368350736E+03  0.41800000000E+01 0.  1.
         -5    1    3    3    0  502 -0.73558165805E+02  0.12281508831E+03  0.86580631143E+02  0.16735599112E+03  0.41800000000E+01 0.  1.
        -11    1    1    2    0    0 -0.78601231579E+01 -0.31700168413E+02 -0.46199832392E+02  0.56578323822E+02  0.00000000000E+00 0.  1.
         11    1    1    2    0    0  0.10800007164E+03 -0.31312416555E+03 -0.16052567324E+03  0.36807506069E+03  0.00000000000E+00 0. -1.
</event>
<event>
 7    1  0.2499014E-009  0.9501109E+02  0.7561462E-02  0.1291151E+00
          1   -1    0    0  501    0  0.00000000000E+00  0.00000000000E+00  0.37788039405E+03  0.37788039405E+03  0.00000000000E+00 0. -1.
         -1   -1    0    0    0  501 -0.00000000000E+00 -0.00000000000E+00 -0.46596928864E+02  0.46596928864E+02  0.00000000000E+00 0.  1.
         25    2    1    2    0    0  0.29675955159E+02 -0.72145117491E+02  0.16892726320E+03  0.22420911390E+03  0.12509087181E+03 0.  0.
          5    1    3    3  502    0  0.35878999025E+02 -0.17058976291E+02 -0.62403433266E+01  0.40431739116E+02  0.41800000000E+01 0. -1.
         -5    1    3    3    0  502 -0.62030438658E+01 -0.55086141200E+02  0.17516760653E+03  0.18377737478E+03  0.41800000000E+01 0. -1.
        -11    1    1    2    0    0  0.14659259501E+02  0.85850909213E+01 -0.33692023576E+01  0.17319041538E+02  0.00000000000E+00 0.  1.
         11    1    1    2    0    0 -0.44335214660E+02  0.63560026569E+02  0.16572540434E+03  0.18294916748E+03  0.00000000000E+00 0. -1.
</event>
<event>
 7    1  0.2499014E-009  0.1141557E+03  0.7561462E-02  0.1253062E+00
          2   -1    0    0  501    0  0.00000000000E+00  0.00000000000E+00  0.55530733262E+03  0.55530733262E+03  0.00000000000E+00 0. -1.
         -2   -1    0    0    0  501 -0.00000000000E+00 -0.00000000000E+00 -0.25050123755E+02  0.25050123755E+02  0.00000000000E+00 0.  1.
         25    2    1    2    0    0  0.17471939724E+02 -0.34702917093E+02  0.23359092590E+03  0.26780946367E+03  0.12509047540E+03 0.  0.
          5    1    3    3  502    0  0.24482911732E+02 -0.80170442796E+02  0.13553980625E+03  0.15942153037E+03  0.41800000000E+01 0. -1.
         -5    1    3    3    0  502 -0.70109720072E+01  0.45467525703E+02  0.98051119648E+02  0.10838793331E+03  0.41800000000E+01 0. -1.
        -11    1    1    2    0    0 -0.39159729489E+02  0.55642209905E+02  0.19674863715E+03  0.20818157017E+03  0.00000000000E+00 0.  1.
         11    1    1    2    0    0  0.21687789765E+02 -0.20939292812E+02  0.99917645814E+02  0.10436642254E+03  0.00000000000E+00 0. -1.
</event>
<event>
 7    1  0.2499014E-009  0.6894363E+02  0.7561462E-02  0.1363723E+00
          2   -1    0    0  501    0  0.00000000000E+00  0.00000000000E+00  0.62475427291E+03  0.62475427291E+03  0.00000000000E+00 0. -1.
         -2   -1    0    0    0  501 -0.00000000000E+00 -0.00000000000E+00 -0.22841721958E+02  0.22841721958E+02  0.00000000000E+00 0.  1.
         25    2    1    2    0    0  0.96561043013E+01 -0.33507349565E+02  0.44998802159E+03  0.46835145131E+03  0.12509148471E+03 0.  0.
          5    1    3    3  502    0 -0.22654620130E+02 -0.29888585943E+02  0.33157517896E+02  0.50233980292E+02  0.41800000000E+01 0.  1.
         -5    1    3    3    0  502  0.32310724432E+02 -0.36187636219E+01  0.41683050369E+03  0.41811747102E+03  0.41800000000E+01 0.  1.
        -11    1    1    2    0    0 -0.13368963046E+02  0.49334472389E+02  0.15454464475E+03  0.16277796706E+03  0.00000000000E+00 0. -1.
         11    1    1    2    0    0  0.37128587443E+01 -0.15827122825E+02 -0.26201153866E+01  0.16466576499E+02  0.00000000000E+00 0.  1.
</event>
<event>
 7    1  0.2499014E-009  0.1276190E+03  0.7561462E-02  0.1231032E+00
         -1   -1    0    0    0  501 -0.00000000000E+00  0.00000000000E+00  0.12403370906E+03  0.12403370906E+03  0.00000000000E+00 0.  1.
          1   -1    0    0  501    0  0.00000000000E+00 -0.00000000000E+00 -0.18050011004E+03  0.18050011004E+03  0.00000000000E+00 0. -1.
         25    2    1    2    0    0 -0.94529419314E+02  0.32584517377E+02 -0.59702728666E+02  0.17090395279E+03  0.12508470483E+03 0.  0.
          5    1    3    3  502    0 -0.10246554518E+03 -0.14342820542E+02 -0.65879709839E+02  0.12272943013E+03  0.41800000000E+01 0. -1.
         -5    1    3    3    0  502  0.79361258668E+01  0.46927337919E+02  0.61769811733E+01  0.48174522669E+02  0.41800000000E+01 0. -1.
        -11    1    1    2    0    0  0.60335107564E+02 -0.60645508977E+01 -0.39852556925E+02  0.72562595570E+02  0.00000000000E+00 0. -1.
         11    1    1    2    0    0  0.34194311750E+02 -0.26519966479E+02  0.43088884610E+02  0.61067270735E+02  0.00000000000E+00 0.  1.
</event>
<event>
 7    1  0.2499014E-009  0.1681255E+03  0.7561462E-02  0.1179817E+00
         -2   -1    0    0    0  501 -0.00000000000E+00  0.00000000000E+00  0.30072049528E+03  0.30072049528E+03  0.00000000000E+00 0.  1.
          2   -1    0    0  501    0  0.00000000000E+00 -0.00000000000E+00 -0.13266418280E+03  0.13266418280E+03  0.00000000000E+00 0. -1.
         25    2    1    2    0    0  0.78552401183E+02  0.10557623292E+03 -0.24261935549E+02  0.18317518844E+03  0.12509071691E+03 0.  0.
          5    1    3    3  502    0 -0.15186375170E+02 -0.18592987219E+02 -0.11706420204E+02  0.27034012623E+02  0.41800000000E+01 0.  1.
         -5    1    3    3    0  502  0.93738776352E+02  0.12416922014E+03 -0.12555515345E+02  0.15614117582E+03  0.41800000000E+01 0.  1.
        -11    1    1    2    0    0 -0.50847792972E+01 -0.77392426733E+02  0.12263158712E+03  0.14509978930E+03  0.00000000000E+00 0.  1.
         11    1    1    2    0    0 -0.73467621885E+02 -0.28183806183E+02  0.69686660910E+02  0.10510970034E+03  0.00000000000E+00 0. -1.
</event>
<event>
 7    1  0.2515337E-009  0.1723581E+03  0.7561462E-02  0.1175411E+00
          1   -1    0    0  501    0  0.00000000000E+00  0.00000000000E+00  0.46520900722E+03  0.46520900722E+03  0.00000000000E+00 0. -1.
         -1   -1    0    0    0  501 -0.00000000000E+00 -0.00000000000E+00 -0.85849182539E+02  0.85849182539E+02  0.00000000000E+00 0.  1.
         25    2    1    2    0    0  0.39506390024E+02 -0.14836366265E+03  0.10642442814E+03  0.22482544977E+03  0.12509113763E+03 0.  0.
          5    1    3    3  502    0 -0.21570403487E+02 -0.27513778688E+02 -0.19171130982E+02  0.40091083640E+02  0.41800000000E+01 0.  1.
         -5    1    3    3    0  502  0.61076793511E+02 -0.12084988396E+03  0.12559555912E+03  0.18473436613E+03  0.41800000000E+01 0.  1.
        -11    1    1    2    0    0 -0.51416820318E+02  0.40331556875E+02  0.14016375638E+03  0.15464864207E+03  0.00000000000E+00 0.  1.
         11    1    1    2    0    0  0.11910430295E+02  0.10803210577E+03  0.13277164016E+03  0.17158409791E+03  0.00000000000E+00 0. -1.
</event>
<event>
 7    1  0.2499014E-009  0.6073389E+02  0.7561462E-02  0.1394777E+00
         -3   -1    0    0    0  501 -0.00000000000E+00  0.00000000000E+00  0.71126623789E+02  0.71126623789E+02  0.00000000000E+00 0.  1.
          3   -1    0    0  501    0  0.00000000000E+00 -0.00000000000E+00 -0.22229609047E+03  0.22229609047E+03  0.00000000000E+00 0. -1.
         25    2    1    2    0    0 -0.14623776790E+01  0.12155504001E+02 -0.15160617072E+03  0.19693176117E+03  0.12509113770E+03 0.  0.
          5    1    3    3  502    0  0.63888363362E+01 -0.24453101895E+02  0.12537127857E+02  0.28520578482E+02  0.41800000000E+01 0.  1.
         -5    1    3    3    0  502 -0.78512140153E+01  0.36608605897E+02 -0.16414329858E+03  0.16841118269E+03  0.41800000000E+01 0.  1.
        -11    1    1    2    0    0 -0.23914049066E+02  0.85794240677E+01 -0.38169326262E+02  0.45851779980E+02  0.00000000000E+00 0. -1.
         11    1    1    2    0    0  0.25376426745E+02 -0.20734928069E+02  0.38606030306E+02  0.50639173101E+02  0.00000000000E+00 0.  1.
</event>
<event>
 7    1  0.2499014E-009  0.9918546E+02  0.7561462E-02  0.1282018E+00
          3   -1    0    0  501    0  0.00000000000E+00  0.00000000000E+00  0.22238556357E+02  0.22238556357E+02  0.00000000000E+00 0. -1.
         -3   -1    0    0    0  501 -0.00000000000E+00 -0.00000000000E+00 -0.53999184445E+03  0.53999184445E+03  0.00000000000E+00 0.  1.
         25    2    1    2    0    0  0.92321711602E+01 -0.96954766997E+00 -0.32751033914E+03  0.35070801384E+03  0.12508763217E+03 0.  0.
          5    1    3    3  502    0  0.61962512377E+02  0.16080011870E+02 -0.22660097111E+03  0.23550667131E+03  0.41800000000E+01 0. -1.
         -5    1    3    3    0  502 -0.52730341217E+02 -0.17049559540E+02 -0.10090936802E+03  0.11520134253E+03  0.41800000000E+01 0. -1.
        -11    1    1    2    0    0  0.71031570211E+01 -0.36807375546E+02 -0.14748488672E+03  0.15217433931E+03  0.00000000000E+00 0.  1.
         11    1    1    2    0    0 -0.16335328181E+02  0.37776923216E+02 -0.42758062229E+02  0.59348047651E+02  0.00000000000E+00 0. -1.
</event>
<event>
 7    1  0.2499014E-009  0.1046984E+03  0.7561462E-02  0.1270715E+00
          1   -1    0    0  501    0  0.00000000000E+00  0.00000000000E+00  0.13385350251E+02  0.13385350251E+02  0.00000000000E+00 0. -1.
         -1   -1    0    0    0  501 -0.00000000000E+00 -0.00000000000E+00 -0.10434089446E+04  0.10434089446E+04  0.00000000000E+00 0.  1.
         25    2    1    2    0    0 -0.25794526105E+02 -0.22389373682E+02 -0.76125930488E+03  0.77222366722E+03  0.12508805423E+03 0.  0.
          5    1    3    3  502    0 -0.44801867972E+02 -0.64066175394E+02 -0.57810155897E+03  0.58337857956E+03  0.41800000000E+01 0.  1.
         -5    1    3    3    0  502  0.19007341867E+02  0.41676801712E+02 -0.18315774591E+03  0.18884508766E+03  0.41800000000E+01 0.  1.
        -11    1    1    2    0    0  0.38028445601E+02  0.45295494303E+02 -0.23289920305E+03  0.24029124674E+03  0.00000000000E+00 0.  1.
         11    1    1    2    0    0 -0.12233919496E+02 -0.22906120621E+02 -0.35865086395E+02  0.44279380870E+02  0.00000000000E+00 0. -1.
</event>
<event>
 7    1  0.2499014E-009  0.1066150E+03  0.7561462E-02  0.1266970E+00
         -3   -1    0    0    0  501 -0.00000000000E+00  0.00000000000E+00  0.55939112133E+02  0.55939112133E+02  0.00000000000E+00 0.  1.
          3   -1    0    0  501    0  0.00000000000E+00 -0.00000000000E+00 -0.27826935663E+03  0.27826935663E+03  0.00000000000E+00 0. -1.
         25    2    1    2    0    0  0.23895533441E+01  0.64367908935E+02 -0.12498768074E+03  0.18819854338E+03  0.12509130156E+03 0.  0.
          5    1    3    3  502    0  0.34333115902E+02  0.91954140676E+02 -0.85113646428E+02  0.12998512239E+03  0.41800000000E+01 0. -1.
         -5    1    3    3    0  502 -0.31943562557E+02 -0.27586231740E+02 -0.39874034317E+02  0.58213420989E+02  0.41800000000E+01 0. -1.
        -11    1    1    2    0    0  0.14491750541E+02 -0.42784894087E+02 -0.10764284741E+03  0.11673705750E+03  0.00000000000E+00 0. -1.
         11    1    1    2    0    0 -0.16881303885E+02 -0.21583014848E+02  0.10300283655E+02  0.29272867884E+02  0.00000000000E+00 0.  1.
</event>
<event>
 7    1  0.2499014E-009  0.1619877E+03  0.7561462E-02  0.1186471E+00
         -2   -1    0    0    0  501 -0.00000000000E+00  0.00000000000E+00  0.25584883672E+02  0.25584883672E+02  0.00000000000E+00 0.  1.
          2   -1    0    0  501    0  0.00000000000E+00 -0.00000000000E+00 -0.12606267846E+04  0.12606267846E+04  0.00000000000E+00 0. -1.
         25    2    1    2    0    0  0.12330569163E+03 -0.19339672902E+02 -0.90616555745E+03  0.92323649078E+03  0.12510509128E+03 0.  0.
          5    1    3    3  502    0  0.14494399577E+03 -0.26478752612E+02 -0.67465867289E+03  0.69057344545E+03  0.41800000000E+01 0.  1.
         -5    1    3    3    0  502 -0.21638304141E+02  0.71390797100E+01 -0.23150688456E+03  0.23266304533E+03  0.41800000000E+01 0.  1.
        -11    1    1    2    0    0 -0.24343896994E+02  0.45009078133E+02 -0.10138517534E+03  0.11356670381E+03  0.00000000000E+00 0.  1.
         11    1    1    2    0    0 -0.98961794638E+02 -0.25669405231E+02 -0.22749116812E+03  0.24940847367E+03  0.00000000000E+00 0. -1.
</event>
<event>
 7    1  0.2499014E-009  0.4362313E+03  0.7561462E-02  0.1031909E+00
          2   -1    0    0  501    0  0.00000000000E+00  0.00000000000E+00  0.19141269747E+03  0.19141269747E+03  0.00000000000E+00 0. -1.
         -2   -1    0    0    0  501 -0.00000000000E+00 -0.00000000000E+00 -0.10197215367E+04  0.10197215367E+04  0.00000000000E+00 0.  1.
         25    2    1    2    0    0  0.18251120696E+03  0.38673694695E+03 -0.39011039201E+03  0.59220775986E+03  0.12509239015E+03 0.  0.
          5    1    3    3  502    0  0.40335752774E+02  0.22810709993E+03 -0.22109136488E+03  0.32024785091E+03  0.41800000000E+01 0. -1.
         -5    1    3    3    0  502  0.14217545419E+03  0.15862984702E+03 -0.16901902713E+03  0.27195990895E+03  0.41800000000E+01 0. -1.
        -11    1    1    2    0    0 -0.55825466887E+02 -0.12729426276E+03 -0.85760149288E+02  0.16332518266E+03  0.00000000000E+00 0.  1.
         11    1    1    2    0    0 -0.12668574008E+03 -0.25944268420E+03 -0.35243829798E+03  0.45560129170E+03  0.00000000000E+00 0. -1.
</event>
<event>
 7    1  0.2499014E-009  0.1231964E+03  0.7561462E-02  0.1237915E+00
          2   -1    0    0  501    0  0.00000000000E+00  0.00000000000E+00  0.69519240715E+03  0.69519240715E+03  0.00000000000E+00 0. -1.
         -2   -1    0    0    0  501 -0.00000000000E+00 -0.00000000000E+00 -0.28086755283E+02  0.28086755283E+02  0.00000000000E+00 0.  1.
         25    2    1    2    0    0  0.35338947709E+02 -0.65069820771E+02  0.24270646321E+03  0.28290752182E+03  0.12508923142E+03 0.  0.
          5    1    3    3  502    0 -0.41216550777E+02 -0.14729208145E+02  0.36215541470E+02  0.56963071147E+02  0.41800000000E+01 0. -1.
         -5    1    3    3    0  502  0.76555498486E+02 -0.50340612627E+02  0.20649092174E+03  0.22594445067E+03  0.41800000000E+01 0. -1.
        -11    1    1    2    0    0 -0.12959506180E+02  0.81764236866E+02  0.37088411156E+03  0.38001100436E+03  0.00000000000E+00 0. -1.
         11    1    1    2    0    0 -0.22379441528E+02 -0.16694416095E+02  0.53515077098E+02  0.60360636252E+02  0.00000000000E+00 0.  1.
</event>
<event>
 7    1  0.2499014E-009  0.2392831E+03  0.7561462E-02  0.1120271E+00
          1   -1    0    0  501    0  0.00000000000E+00  0.00000000000E+00  0.23336200134E+03  0.23336200134E+03  0.00000000000E+00 0. -1.
         -1   -1    0    0    0  501 -0.00000000000E+00 -0.00000000000E+00 -0.37878040036E+03  0.37878040036E+03  0.00000000000E+00 0.  1.
         25    2    1    2    0    0  0.13558477685E+03  0.17259750020E+03 -0.24720007180E+03  0.35345207444E+03  0.12508942657E+03 0.  0.
          5    1    3    3  502    0  0.81360631476E+02  0.13682853894E+02 -0.61006260772E+02  0.10269376368E+03  0.41800000000E+01 0.  1.
         -5    1    3    3    0  502  0.54224145379E+02  0.15891464631E+03 -0.18619381103E+03  0.25075831076E+03  0.41800000000E+01 0.  1.
        -11    1    1    2    0    0 -0.83612198845E+02 -0.14912774476E+03  0.10657123484E+03  0.20146342633E+03  0.00000000000E+00 0. -1.
         11    1    1    2    0    0 -0.51972578009E+02 -0.23469755440E+02 -0.47895620652E+01  0.57226900931E+02  0.00000000000E+00 0.  1.
</event>
<event>
 7    1  0.2499014E-009  0.1524408E+03  0.7561462E-02  0.1197506E+00
          1   -1    0    0  501    0  0.00000000000E+00  0.00000000000E+00  0.43074083552E+02  0.43074083552E+02  0.00000000000E+00 0. -1.
         -1   -1    0    0    0  501 -0.00000000000E+00 -0.00000000000E+00 -0.56678409914E+03  0.56678409914E+03  0.00000000000E+00 0.  1.
         25    2    1    2    0    0 -0.61698249741E+02 -0.93909954859E+02 -0.29549403756E+03  0.33998724464E+03  0.12509535020E+03 0.  0.
          5    1    3    3  502    0 -0.87481159047E+02 -0.22213293185E+02 -0.18248385236E+03  0.20362763161E+03  0.41800000000E+01 0. -1.
         -5    1    3    3    0  502  0.25782909306E+02 -0.71696661674E+02 -0.11301018520E+03  0.13635961303E+03  0.41800000000E+01 0. -1.
        -11    1    1    2    0    0  0.67339131661E+02  0.10559880183E+03 -0.17566046899E+03  0.21573656614E+03  0.00000000000E+00 0.  1.
         11    1    1    2    0    0 -0.56408819201E+01 -0.11688846976E+02 -0.52555509039E+02  0.54134371916E+02  0.00000000000E+00 0. -1.
</event>
<event>
 7    1  0.2499014E-009  0.1062657E+03  0.7561462E-02  0.1267646E+00
         -1   -1    0    0    0  501 -0.00000000000E+00  0.00000000000E+00  0.40534667629E+03  0.40534667629E+03  0.00000000000E+00 0.  1.
          1   -1    0    0  501    0  0.00000000000E+00 -0.00000000000E+00 -0.47527243502E+02  0.47527243502E+02  0.00000000000E+00 0. -1.
         25    2    1    2    0    0 -0.73918989912E+02 -0.17818467212E+02  0.26092983733E+03  0.29918838009E+03  0.12509113449E+03 0.  0.
          5    1    3    3  502    0 -0.41076782386E+02  0.24813441940E+02  0.19784834717E+02  0.52076108119E+02  0.41800000000E+01 0.  1.
         -5    1    3    3    0  502 -0.32842207526E+02 -0.42631909152E+02  0.24114500262E+03  0.24711227197E+03  0.41800000000E+01 0.  1.
        -11    1    1    2    0    0  0.42359808690E+02  0.49849341235E+02  0.84842756402E+02  0.10713357797E+03  0.00000000000E+00 0.  1.
         11    1    1    2    0    0  0.31559181221E+02 -0.32030874023E+02  0.12046839051E+02  0.46551961732E+02  0.00000000000E+00 0. -1.
</event>
<event>
 7    1  0.2499014E-009  0.1805974E+03  0.7561462E-02  0.1167226E+00
          1   -1    0    0  501    0  0.00000000000E+00  0.00000000000E+00  0.10401236741E+04  0.10401236741E+04  0.00000000000E+00 0. -1.
         -1   -1    0    0    0  501 -0.00000000000E+00 -0.00000000000E+00 -0.83263460645E+02  0.83263460645E+02  0.00000000000E+00 0.  1.
         25    2    1    2    0    0  0.14430607892E+03 -0.46476036433E+02  0.54763096461E+02  0.20403613394E+03  0.12508989104E+03 0.  0.
          5    1    3    3  502    0  0.63112401327E+02 -0.74758001095E+02  0.64723250916E+02  0.11738187909E+03  0.41800000000E+01 0.  1.
         -5    1    3    3    0  502  0.81193677594E+02  0.28281964662E+02 -0.99601544558E+01  0.86654254848E+02  0.41800000000E+01 0.  1.
        -11    1    1    2    0    0 -0.15360237224E+03  0.56364410935E+02  0.84030788928E+03  0.85608877131E+03  0.00000000000E+00 0.  1.
         11    1    1    2    0    0  0.92962933136E+01 -0.98883745023E+01  0.61789227688E+02  0.63262229473E+02  0.00000000000E+00 0. -1.
</event>
<event>
 7    1  0.4646801E-009  0.2296448E+03  0.7561462E-02  0.1126890E+00
         -1   -1    0    0    0  501 -0.00000000000E+00  0.00000000000E+00  0.24114968200E+03  0.24114968200E+03  0.00000000000E+00 0.  1.
          1   -1    0    0  501    0  0.00000000000E+00 -0.00000000000E+00 -0.23707005063E+03  0.23707005063E+03  0.00000000000E+00 0. -1.
         25    2    1    2    0    0 -0.19979595122E+03 -0.73250000144E+02 -0.67838962229E+00  0.24685118475E+03  0.12510420679E+03 0.  0.
          5    1    3    3  502    0 -0.48466407880E+02 -0.65225574239E+02 -0.39368721799E+02  0.90392128438E+02  0.41800000000E+01 0.  1.
         -5    1    3    3    0  502 -0.15132954334E+03 -0.80244259058E+01  0.38690332177E+02  0.15645905631E+03  0.41800000000E+01 0.  1.
        -11    1    1    2    0    0  0.59272491071E+02  0.61333132072E+02  0.25032058108E+02  0.88890861288E+02  0.00000000000E+00 0.  1.
         11    1    1    2    0    0  0.14052346015E+03  0.11916868073E+02 -0.20274037109E+02  0.14247768659E+03  0.00000000000E+00 0. -1.
</event>
<event>
 7    1  0.2499014E-009  0.1285742E+03  0.7561462E-02  0.1229587E+00
         -2   -1    0    0    0  501 -0.00000000000E+00  0.00000000000E+00  0.28173495739E+03  0.28173495739E+03  0.00000000000E+00 0.  1.
          2   -1    0    0  501    0  0.00000000000E+00 -0.00000000000E+00 -0.94905487703E+02  0.94905487703E+02  0.00000000000E+00 0. -1.
         25    2    1    2    0    0  0.54192402167E+02 -0.85932978858E+02  0.17863594437E+03  0.24058777993E+03  0.12510150248E+03 0.  0.
          5    1    3    3  502    0 -0.85696153894E+01 -0.83512478660E+02  0.14886242996E+03  0.17095399338E+03  0.41800000000E+01 0. -1.
         -5    1    3    3    0  502  0.62762017556E+02 -0.24205001979E+01  0.29773514414E+02  0.69633786552E+02  0.41800000000E+01 0. -1.
        -11    1    1    2    0    0 -0.60405087138E+02  0.66952599248E+02  0.39878536934E+02  0.98598797184E+02  0.00000000000E+00 0.  1.
         11    1    1    2    0    0  0.62126849705E+01  0.18980379610E+02 -0.31685011621E+02  0.37453867973E+02  0.00000000000E+00 0. -1.
</event>
<event>
 7    1  0.2499014E-009  0.1947498E+03  0.7561462E-02  0.1154246E+00
         -2   -1    0    0    0  501 -0.00000000000E+00  0.00000000000E+00  0.88758288977E+02  0.88758288977E+02  0.00000000000E+00 0.  1.
          2   -1    0    0  501    0  0.00000000000E+00 -0.00000000000E+00 -0.56246622339E+03  0.56246622339E+03  0.00000000000E+00 0. -1.
         25    2    1    2    0    0  0.15399190283E+03  0.65064907891E+02 -0.95596790868E+02  0.22963600034E+03  0.12508796046E+03 0.  0.
          5    1    3    3  502    0  0.34660983751E+02 -0.37483254198E+02 -0.19497984246E+02  0.54808958479E+02  0.41800000000E+01 0.  1.
         -5    1    3    3    0  502  0.11933091908E+03  0.10254816209E+03 -0.76098806623E+02  0.17482704186E+03  0.41800000000E+01 0.  1.
        -11    1    1    2    0    0 -0.12062147301E+03 -0.79560755571E+02 -0.33710497209E+03  0.36676861341E+03  0.00000000000E+00 0. -1.
         11    1    1    2    0    0 -0.33370429821E+02  0.14495847680E+02 -0.41006171454E+02  0.54819898611E+02  0.00000000000E+00 0.  1.
</event>
<event>
 7    1  0.2499014E-009  0.1918841E+03  0.7561462E-02  0.1156773E+00
          1   -1    0    0  501    0  0.00000000000E+00  0.00000000000E+00  0.48172784778E+03  0.48172784778E+03  0.00000000000E+00 0. -1.
         -1   -1    0    0    0  501 -0.00000000000E+00 -0.00000000000E+00 -0.10223967354E+03  0.10223967354E+03  0.00000000000E+00 0.  1.
         25    2    1    2    0    0  0.10501102426E+03  0.15729360531E+03  0.14541212199E+03  0.26937640560E+03  0.12510143558E+03 0.  0.
          5    1    3    3  502    0  0.63771470151E+02  0.12891092845E+03  0.35008882147E+02  0.14808079588E+03  0.41800000000E+01 0.  1.
         -5    1    3    3    0  502  0.41239554104E+02  0.28382676856E+02  0.11040323984E+03  0.12129560971E+03  0.41800000000E+01 0.  1.
        -11    1    1    2    0    0 -0.86419684327E+02 -0.11887896125E+03  0.11056926404E+03  0.18391881747E+03  0.00000000000E+00 0.  1.
         11    1    1    2    0    0 -0.18591339928E+02 -0.38414644054E+02  0.12350678820E+03  0.13067229825E+03  0.00000000000E+00 0. -1.
</event>
<event>
 7    1  0.2499014E-009  0.2162633E+03  0.7561462E-02  0.1136700E+00
         -3   -1    0    0    0  501 -0.00000000000E+00  0.00000000000E+00  0.11072187483E+03  0.11072187483E+03  0.00000000000E+00 0.  1.
          3   -1    0    0  501    0  0.00000000000E+00 -0.00000000000E+00 -0.54027056026E+03  0.54027056026E+03  0.00000000000E+00 0. -1.
         25    2    1    2    0    0  0.14275389065E+03 -0.24742853559E+02 -0.13527680913E+03  0.23438843957E+03  0.12508894203E+03 0.  0.
          5    1    3    3  502    0 -0.10686628965E+01 -0.45635119602E+02 -0.28151529194E+02  0.53793003053E+02  0.41800000000E+01 0. -1.
         -5    1    3    3    0  502  0.14382255355E+03  0.20892266043E+02 -0.10712527994E+03  0.18059543652E+03  0.41800000000E+01 0. -1.
        -11    1    1    2    0    0 -0.80568086118E+01  0.90880913530E+02 -0.24046233414E+03  0.25718939860E+03  0.00000000000E+00 0.  1.
         11    1    1    2    0    0 -0.13469708204E+03 -0.66138059970E+02 -0.53809542155E+02  0.15941459693E+03  0.00000000000E+00 0. -1.
</event>
<event>
 7    1  0.3315229E-009  0.1175381E+03  0.7561462E-02  0.1247215E+00
         -1   -1    0    0    0  501 -0.00000000000E+00  0.00000000000E+00  0.13912163531E+03  0.13912163531E+03  0.00000000000E+00 0.  1.
          1   -1    0    0  501    0  0.00000000000E+00 -0.00000000000E+00 -0.14446051634E+03  0.14446051634E+03  0.00000000000E+00 0. -1.
         25    2    1    2    0    0  0.25200581886E+02  0.82418380831E+02  0.25640867061E+02  0.15405548173E+03  0.12509108106E+03 0.  0.
          5    1    3    3  502    0  0.11582632597E+02 -0.11398543500E+02  0.52760090675E+02  0.55364101545E+02  0.41800000000E+01 0.  1.
         -5    1    3    3    0  502  0.13617949290E+02  0.93816924330E+02 -0.27119223614E+02  0.98691380186E+02  0.41800000000E+01 0.  1.
        -11    1    1    2    0    0  0.72402698076E+01 -0.89835152070E+02 -0.11214186031E+02  0.90821440325E+02  0.00000000000E+00 0.  1.
         11    1    1    2    0    0 -0.32440851694E+02  0.74167712394E+01 -0.19765562063E+02  0.38705229594E+02  0.00000000000E+00 0. -1.
</event>
<event>
 7    1  0.2499014E-009  0.1165525E+03  0.7561462E-02  0.1248895E+00
          2   -1    0    0  501    0  0.00000000000E+00  0.00000000000E+00  0.11935614940E+04  0.11935614940E+04  0.00000000000E+00 0. -1.
         -2   -1    0    0    0  501 -0.00000000000E+00 -0.00000000000E+00 -0.23037551535E+02  0.23037551535E+02  0.00000000000E+00 0.  1.
         25    2    1    2    0    0  0.15699666501E+02 -0.44530398286E+02  0.10494649381E+04  0.10579477678E+04  0.12508951720E+03 0.  0.
          5    1    3    3  502    0  0.15959979600E+01  0.42678276658E+02  0.25632714940E+03  0.25989432934E+03  0.41800000000E+01 0. -1.
         -5    1    3    3    0  502  0.14103668541E+02 -0.87208674944E+02  0.79313778867E+03  0.79805343848E+03  0.41800000000E+01 0. -1.
        -11    1    1    2    0    0  0.14026149650E+02 -0.23580787738E+02  0.24329380202E+02  0.36670221779E+02  0.00000000000E+00 0. -1.
         11    1    1    2    0    0 -0.29725816152E+02  0.68111186024E+02  0.96729624167E+02  0.12198105590E+03  0.00000000000E+00 0.  1.
</event>
<event>
 7    1  0.2499014E-009  0.1302890E+03  0.7561462E-02  0.1227028E+00
          2   -1    0    0  501    0  0.00000000000E+00  0.00000000000E+00  0.86694498311E+03  0.86694498311E+03  0.00000000000E+00 0. -1.
         -2   -1    0    0    0  501 -0.00000000000E+00 -0.00000000000E+00 -0.31905769343E+02  0.31905769343E+02  0.00000000000E+00 0.  1.
         25    2    1    2    0    0 -0.48501461295E+02  0.11472828006E+03  0.37909288237E+03  0.41817894405E+03  0.12508895152E+03 0.  0.
          5    1    3    3  502    0 -0.75028028026E+01  0.46384757354E+02  0.30708719649E+03  0.31068932459E+03  0.41800000000E+01 0. -1.
         -5    1    3    3    0  502 -0.40998658492E+02  0.68343522702E+02  0.72005685875E+02  0.10748961946E+03  0.41800000000E+01 0. -1.
        -11    1    1    2    0    0  0.41657897839E+02 -0.37450213459E+02  0.85691275831E+02  0.10237623598E+03  0.00000000000E+00 0.  1.
         11    1    1    2    0    0  0.68435634554E+01 -0.77278066598E+02  0.37025505556E+03  0.37829557241E+03  0.00000000000E+00 0. -1.
</event>
<event>
 7    1  0.2499014E-009  0.1968758E+03  0.7561462E-02  0.1152402E+00
          1   -1    0    0  501    0  0.00000000000E+00  0.00000000000E+00  0.17744591614E+03  0.17744591614E+03  0.00000000000E+00 0. -1.
         -1   -1    0    0    0  501 -0.00000000000E+00 -0.00000000000E+00 -0.24206569100E+03  0.24206569100E+03  0.00000000000E+00 0.  1.
         25    2    1    2    0    0 -0.15684950716E+03 -0.80078375590E+02 -0.21874461348E+02  0.21711776149E+03  0.12508923279E+03 0.  0.
          5    1    3    3  502    0 -0.12963327139E+03 -0.14073559355E+01  0.42230775846E+01  0.12977701063E+03  0.41800000000E+01 0. -1.
         -5    1    3    3    0  502 -0.27216235766E+02 -0.78671019654E+02 -0.26097538932E+02  0.87340750862E+02  0.41800000000E+01 0. -1.
        -11    1    1    2    0    0  0.52595436797E+02  0.49053529578E+02  0.22740584514E+02  0.75429854301E+02  0.00000000000E+00 0. -1.
         11    1    1    2    0    0  0.10425407036E+03  0.31024846012E+02 -0.65485898028E+02  0.12696399134E+03  0.00000000000E+00 0.  1.
</event>
<event>
 7    1  0.2499014E-009  0.1093634E+03  0.7561462E-02  0.1261753E+00
          4   -1    0    0  501    0  0.00000000000E+00  0.00000000000E+00  0.32346024473E+03  0.32346024473E+03  0.00000000000E+00 0. -1.
         -4   -1    0    0    0  501 -0.00000000000E+00 -0.00000000000E+00 -0.50312033762E+02  0.50312033762E+02  0.00000000000E+00 0.  1.
         25    2    1    2    0    0 -0.25280725874E+02  0.54261069212E+02  0.19671832297E+03  0.24068450312E+03  0.12509017833E+03 0.  0.
          5    1    3    3  502    0 -0.12433777476E+02 -0.25636143546E+02  0.95465822196E+00  0.28813095123E+02  0.41800000000E+01 0.  1.
         -5    1    3    3    0  502 -0.12846948398E+02  0.79897212759E+02  0.19576366475E+03  0.21187140800E+03  0.41800000000E+01 0.  1.
        -11    1    1    2    0    0  0.39198876003E+02  0.12154394812E+02  0.30865835112E+02  0.51351543018E+02  0.00000000000E+00 0.  1.
         11    1    1    2    0    0 -0.13918150129E+02 -0.66415464024E+02  0.45564052884E+02  0.81736232356E+02  0.00000000000E+00 0. -1.
</event>
<event>
 7    1  0.2499014E-009  0.1854479E+03  0.7561462E-02  0.1162632E+00
          3   -1    0    0  501    0  0.00000000000E+00  0.00000000000E+00  0.51262127833E+03  0.51262127833E+03  0.00000000000E+00 0.  1.
         -3   -1    0    0    0  501 -0.00000000000E+00 -0.00000000000E+00 -0.73980461998E+02  0.73980461998E+02  0.00000000000E+00 0. -1.
         25    2    1    2    0    0  0.15586757901E+03 -0.31784596447E+02  0.26699655004E+03  0.33501882936E+03  0.12508195527E+03 0.  0.
          5    1    3    3  502    0  0.83668907173E+02 -0.73510771366E+02  0.10676753346E+03  0.15434085051E+03  0.41800000000E+01 0.  1.
         -5    1    3    3    0  502  0.72198671840E+02  0.41726174919E+02  0.16022901658E+03  0.18067797885E+03  0.41800000000E+01 0.  1.
        -11    1    1    2    0    0 -0.23542017703E+02 -0.22831877220E+02  0.65897552957E+02  0.73607123980E+02  0.00000000000E+00 0.  1.
         11    1    1    2    0    0 -0.13232556131E+03  0.54616473667E+02  0.10574671334E+03  0.17797578699E+03  0.00000000000E+00 0. -1.
</event>
<event>
 7    1  0.2499014E-009  0.1108732E+03  0.7561462E-02  0.1258961E+00
         -2   -1    0    0    0  501 -0.00000000000E+00  0.00000000000E+00  0.21231020398E+02  0.21231020398E+02  0.00000000000E+00 0.  1.
          2   -1    0    0  501    0  0.00000000000E+00 -0.00000000000E+00 -0.70778253945E+03  0.70778253945E+03  0.00000000000E+00 0. -1.
         25    2    1    2    0    0  0.50168907421E+01  0.28572673827E+02 -0.52958511628E+03  0.54492971136E+03  0.12508568283E+03 0.  0.
          5    1    3    3  502    0  0.52264119978E+02 -0.21688292369E+02 -0.18593521586E+03  0.19439983837E+03  0.41800000000E+01 0.  1.
         -5    1    3    3    0  502 -0.47247229236E+02  0.50260966196E+02 -0.34364990042E+03  0.35052987298E+03  0.41800000000E+01 0.  1.
        -11    1    1    2    0    0  0.21874856738E+02  0.26648944263E+02 -0.63172541276E+02  0.71968364987E+02  0.00000000000E+00 0.  1.
         11    1    1    2    0    0 -0.26891747480E+02 -0.55221618090E+02 -0.93793861490E+02  0.11211548350E+03  0.00000000000E+00 0. -1.
</event>
<event>
 7    1  0.2499014E-009  0.1168599E+03  0.7561462E-02  0.1248369E+00
         -1   -1    0    0    0  501 -0.00000000000E+00  0.00000000000E+00  0.30874080471E+02  0.30874080471E+02  0.00000000000E+00 0.  1.
          1   -1    0    0  501    0  0.00000000000E+00 -0.00000000000E+00 -0.76687471721E+03  0.76687471721E+03  0.00000000000E+00 0. -1.
         25    2    1    2    0    0  0.44049382315E+02  0.14491139716E+02 -0.14016815470E+03  0.19350650879E+03  0.12508923271E+03 0.  0.
          5    1    3    3  502    0  0.79419897965E+02  0.40412793508E+02 -0.89488678734E+02  0.12635826088E+03  0.41800000000E+01 0.  1.
         -5    1    3    3    0  502 -0.35370515649E+02 -0.25921653792E+02 -0.50679475963E+02  0.67148247904E+02  0.41800000000E+01 0.  1.
        -11    1    1    2    0    0  0.17710335500E+02  0.22373611951E+02 -0.17023186554E+03  0.17260684384E+03  0.00000000000E+00 0.  1.
         11    1    1    2    0    0 -0.61759717815E+02 -0.36864751667E+02 -0.42560061650E+03  0.43163544506E+03  0.00000000000E+00 0. -1.
</event>
<event>
 7    1  0.2499014E-009  0.1110127E+03  0.7561462E-02  0.1258706E+00
          1   -1    0    0  501    0  0.00000000000E+00  0.00000000000E+00  0.13986376871E+03  0.13986376871E+03  0.00000000000E+00 0. -1.
         -1   -1    0    0    0  501 -0.00000000000E+00 -0.00000000000E+00 -0.17612098146E+03  0.17612098146E+03  0.00000000000E+00 0.  1.
         25    2    1    2    0    0  0.75381970973E+02 -0.61707257761E+02 -0.73231962792E+02  0.17464627450E+03  0.12509266011E+03 0.  0.
          5    1    3    3  502    0  0.30266221583E+02 -0.71817996421E+02 -0.95353305376E+02  0.12322172708E+03  0.41800000000E+01 0.  1.
         -5    1    3    3    0  502  0.45115749390E+02  0.10110738661E+02  0.22121342583E+02  0.51424547417E+02  0.41800000000E+01 0.  1.
        -11    1    1    2    0    0 -0.50325796443E+02  0.44295298576E+02  0.69621055318E+02  0.96653249336E+02  0.00000000000E+00 0. -1.
         11    1    1    2    0    0 -0.25056174530E+02  0.17411959185E+02 -0.32646305275E+02  0.44685226337E+02  0.00000000000E+00 0.  1.
</event>
<event>
 7    1  0.2499014E-009  0.1046434E+03  0.7561462E-02  0.1270824E+00
          2   -1    0    0  501    0  0.00000000000E+00  0.00000000000E+00  0.37619539679E+03  0.37619539679E+03  0.00000000000E+00 0. -1.
         -2   -1    0    0    0  501 -0.00000000000E+00 -0.00000000000E+00 -0.68568597480E+02  0.68568597480E+02  0.00000000000E+00 0.  1.
         25    2    1    2    0    0  0.74981108318E+02 -0.51410631487E+02  0.60412426055E+02  0.16602311846E+03  0.12509514382E+03 0.  0.
          5    1    3    3  502    0  0.48724398797E+02 -0.25895894035E+02  0.98530022343E+02  0.11300576122E+03  0.41800000000E+01 0. -1.
         -5    1    3    3    0  502  0.26256709521E+02 -0.25514737452E+02 -0.38117596288E+02  0.53017357241E+02  0.41800000000E+01 0. -1.
        -11    1    1    2    0    0 -0.27308158584E+02  0.62455839645E+02  0.19771509853E+03  0.20913566797E+03  0.00000000000E+00 0. -1.
         11    1    1    2    0    0 -0.47672949734E+02 -0.11045208158E+02  0.49499274719E+02  0.69605207832E+02  0.00000000000E+00 0.  1.
</event>
<event>
 7    1  0.2499014E-009  0.1887757E+03  0.7561462E-02  0.1159570E+00
          2   -1    0    0  501    0  0.00000000000E+00  0.00000000000E+00  0.15565901094E+04  0.15565901094E+04  0.00000000000E+00 0.  1.
         -2   -1    0    0    0  501 -0.00000000000E+00 -0.00000000000E+00 -0.28750982868E+02  0.28750982868E+02  0.00000000000E+00 0. -1.
         25    2    1    2    0    0  0.13871451310E+03  0.81461622975E+02  0.11043556788E+04  0.11229989292E+04  0.12508963776E+03 0.  0.
          5    1    3    3  502    0 -0.15250949090E+02 -0.14371363071E+02  0.15518184626E+03  0.15664611496E+03  0.41800000000E+01 0. -1.
         -5    1    3    3    0  502  0.15396546219E+03  0.95832986046E+02  0.94917383254E+03  0.96635281421E+03  0.41800000000E+01 0. -1.
        -11    1    1    2    0    0 -0.13238426621E+01 -0.26931941120E+02  0.14065005815E+03  0.14321145509E+03  0.00000000000E+00 0.  1.
         11    1    1    2    0    0 -0.13739067044E+03 -0.54529681855E+02  0.28283338961E+03  0.31913070803E+03  0.00000000000E+00 0. -1.
</event>
<event>
 7    1  0.2499014E-009  0.8674658E+02  0.7561462E-02  0.1310927E+00
         -2   -1    0    0    0  501 -0.00000000000E+00  0.00000000000E+00  0.24875238213E+02  0.24875238213E+02  0.00000000000E+00 0.  1.
          2   -1    0    0  501    0  0.00000000000E+00 -0.00000000000E+00 -0.54032288763E+03  0.54032288763E+03  0.00000000000E+00 0. -1.
         25    2    1    2    0    0  0.25268944155E+02 -0.28656874603E+02 -0.26069039499E+03  0.29166490970E+03  0.12509676858E+03 0.  0.
          5    1    3    3  502    0  0.19546370172E+02 -0.57810581993E+02 -0.25355028118E+03  0.26082434983E+03  0.41800000000E+01 0.  1.
         -5    1    3    3    0  502  0.57225739825E+01  0.29153707390E+02 -0.71401138052E+01  0.30840559864E+02  0.41800000000E+01 0.  1.
        -11    1    1    2    0    0 -0.50789040156E+02  0.13164386838E+02 -0.22625098441E+03  0.23225489366E+03  0.00000000000E+00 0. -1.
         11    1    1    2    0    0  0.25520096001E+02  0.15492487764E+02 -0.28506270012E+02  0.41278322483E+02  0.00000000000E+00 0.  1.
</event>
<event>
 7    1  0.2499014E-009  0.1146767E+03  0.7561462E-02  0.1252147E+00
         -1   -1    0    0    0  501 -0.00000000000E+00  0.00000000000E+00  0.90825666128E+02  0.90825666128E+02  0.00000000000E+00 0.  1.
          1   -1    0    0  501    0  0.00000000000E+00 -0.00000000000E+00 -0.38749882284E+03  0.38749882284E+03  0.00000000000E+00 0. -1.
         25    2    1    2    0    0 -0.21302733070E+01 -0.98679277557E+02 -0.83401875321E+01  0.15955922372E+03  0.12508976482E+03 0.  0.
          5    1    3    3  502    0 -0.10289547478E+02 -0.75155319673E+01  0.49447934356E+02  0.51234057229E+02  0.41800000000E+01 0. -1.
         -5    1    3    3    0  502  0.81592741712E+01 -0.91163745590E+02 -0.57788121888E+02  0.10832516650E+03  0.41800000000E+01 0. -1.
        -11    1    1    2    0    0  0.16283021058E+02 -0.69805538274E+01 -0.10668875390E+03  0.10814968847E+03  0.00000000000E+00 0. -1.
         11    1    1    2    0    0 -0.14152747751E+02  0.10565983138E+03 -0.18164421528E+03  0.21061557678E+03  0.00000000000E+00 0.  1.
</event>
<event>
 7    1  0.2499014E-009  0.1103110E+03  0.7561462E-02  0.1259995E+00
         -1   -1    0    0    0  501 -0.00000000000E+00  0.00000000000E+00  0.89316603151E+03  0.89316603151E+03  0.00000000000E+00 0.  1.
          1   -1    0    0  501    0  0.00000000000E+00 -0.00000000000E+00 -0.19537404878E+02  0.19537404878E+02  0.00000000000E+00 0. -1.
         25    2    1    2    0    0  0.30430561560E+02 -0.38035107047E+02  0.34012747686E+03  0.36565937452E+03  0.12508952479E+03 0.  0.
          5    1    3    3  502    0  0.37499048201E+02 -0.62989253153E+02  0.99801032406E+02  0.12390134421E+03  0.41800000000E+01 0. -1.
         -5    1    3    3    0  502 -0.70684866412E+01  0.24954146106E+02  0.24032644445E+03  0.24175803030E+03  0.41800000000E+01 0. -1.
        -11    1    1    2    0    0 -0.50962611620E+02 -0.23453170284E+02  0.25487251307E+03  0.26097363257E+03  0.00000000000E+00 0.  1.
         11    1    1    2    0    0  0.20532050060E+02  0.61488277332E+02  0.27862863670E+03  0.28607042930E+03  0.00000000000E+00 0. -1.
</event>
<event>
 7    1  0.2499014E-009  0.1000940E+03  0.7561462E-02  0.1280098E+00
         -2   -1    0    0    0  501 -0.00000000000E+00  0.00000000000E+00  0.11182631462E+03  0.11182631462E+03  0.00000000000E+00 0. -1.
          2   -1    0    0  501    0  0.00000000000E+00 -0.00000000000E+00 -0.15805094560E+03  0.15805094560E+03  0.00000000000E+00 0.  1.
         25    2    1    2    0    0 -0.16356029160E+02 -0.83743083945E+01  0.51272663961E+02  0.13644478842E+03  0.12510253988E+03 0.  0.
          5    1    3    3  502    0  0.44201952277E+02 -0.26976641165E+02  0.51221034091E+02  0.72956277914E+02  0.41800000000E+01 0. -1.
         -5    1    3    3    0  502 -0.60557981437E+02  0.18602332770E+02  0.51629869463E-01  0.63488510503E+02  0.41800000000E+01 0. -1.
        -11    1    1    2    0    0 -0.31741704400E+02  0.16805916055E+02 -0.66542124851E+02  0.75616327552E+02  0.00000000000E+00 0.  1.
         11    1    1    2    0    0  0.48097733561E+02 -0.84316076608E+01 -0.30955170091E+02  0.57816144257E+02  0.00000000000E+00 0. -1.
</event>
<event>
 7    1  0.2499014E-009  0.1042643E+03  0.7561462E-02  0.1271576E+00
         -2   -1    0    0    0  501 -0.00000000000E+00  0.00000000000E+00  0.17950470676E+02  0.17950470676E+02  0.00000000000E+00 0.  1.
          2   -1    0    0  501    0  0.00000000000E+00 -0.00000000000E+00 -0.10828083676E+04  0.10828083676E+04  0.00000000000E+00 0. -1.
         25    2    1    2    0    0  0.77745212349E+02  0.14159598606E+02 -0.74109889818E+03  0.75572344848E+03  0.12508213873E+03 0.  0.
          5    1    3    3  502    0  0.74642835459E+02 -0.83950264094E+00 -0.73487815577E+03  0.73867153314E+03  0.41800000000E+01 0. -1.
         -5    1    3    3    0  502  0.31023768904E+01  0.14999101247E+02 -0.62207424080E+01  0.17051915338E+02  0.41800000000E+01 0. -1.
        -11    1    1    2    0    0 -0.33415389479E+02  0.37225450624E+02 -0.11189427536E+03  0.12256692575E+03  0.00000000000E+00 0. -1.
         11    1    1    2    0    0 -0.44329822870E+02 -0.51385049230E+02 -0.21186472334E+03  0.22246846400E+03  0.00000000000E+00 0.  1.
</event>
<event>
 7    1  0.2499014E-009  0.8391100E+02  0.7561462E-02  0.1318305E+00
          1   -1    0    0  501    0  0.00000000000E+00  0.00000000000E+00  0.17043691001E+02  0.17043691001E+02  0.00000000000E+00 0. -1.
         -1   -1    0    0    0  501 -0.00000000000E+00 -0.00000000000E+00 -0.80955240084E+03  0.80955240084E+03  0.00000000000E+00 0.  1.
         25    2    1    2    0    0  0.24860011433E+02 -0.27071304750E+02 -0.54100104479E+03  0.55649004205E+03  0.12509260859E+03 0.  0.
          5    1    3    3  502    0  0.28483719888E+01 -0.43183369860E+02 -0.56934405392E+02  0.71637389489E+02  0.41800000000E+01 0.  1.
         -5    1    3    3    0  502  0.22011639444E+02  0.16112065110E+02 -0.48406663940E+03  0.48485265256E+03  0.41800000000E+01 0.  1.
        -11    1    1    2    0    0  0.33705571777E+02  0.46004921245E+01 -0.65517705022E+02  0.73822759146E+02  0.00000000000E+00 0. -1.
         11    1    1    2    0    0 -0.58565583210E+02  0.22470812626E+02 -0.18598996002E+03  0.19628329065E+03  0.00000000000E+00 0.  1.
</event>
<event>
 7    1  0.2499014E-009  0.7230577E+02  0.7561462E-02  0.1352423E+00
          1   -1    0    0  501    0  0.00000000000E+00  0.00000000000E+00  0.53426404996E+03  0.53426404996E+03  0.00000000000E+00 0. -1.
         -1   -1    0    0    0  501 -0.00000000000E+00 -0.00000000000E+00 -0.24596855974E+02  0.24596855974E+02  0.00000000000E+00 0.  1.
         25    2    1    2    0    0  0.26933478443E+02  0.14216114655E+02  0.23607021842E+03  0.26889717268E+03  0.12509608817E+03 0.  0.
          5    1    3    3  502    0  0.44289301106E+02  0.19514199323E+01  0.15325468455E+02  0.47092383838E+02  0.41800000000E+01 0. -1.
         -5    1    3    3    0  502 -0.17355822663E+02  0.12264694723E+02  0.22074474996E+03  0.22180478884E+03  0.41800000000E+01 0. -1.
        -11    1    1    2    0    0  0.72734030970E+01  0.25203117103E+02  0.26029245246E+02  0.36954311148E+02  0.00000000000E+00 0.  1.
         11    1    1    2    0    0 -0.34206881540E+02 -0.39419231759E+02  0.24756773033E+03  0.25300942211E+03  0.00000000000E+00 0. -1.
</event>
<event>
 7    1  0.2499014E-009  0.1043577E+03  0.7561462E-02  0.1271390E+00
         -1   -1    0    0    0  501 -0.00000000000E+00  0.00000000000E+00  0.17261521918E+03  0.17261521918E+03  0.00000000000E+00 0.  1.
          1   -1    0    0  501    0  0.00000000000E+00 -0.00000000000E+00 -0.11092011776E+03  0.11092011776E+03  0.00000000000E+00 0. -1.
         25    2    1    2    0    0 -0.21900006166E+02  0.75907693301E+02 -0.30915779437E+00  0.14795407520E+03  0.12509486247E+03 0.  0.
          5    1    3    3  502    0 -0.45247992949E+02  0.68355725313E+02  0.46935277664E+02  0.94553047219E+02  0.41800000000E+01 0. -1.
         -5    1    3    3    0  502  0.23347986783E+02  0.75519679878E+01 -0.47244435459E+02  0.53401027978E+02  0.41800000000E+01 0. -1.
        -11    1    1    2    0    0  0.44167417281E+01  0.11648066296E+02  0.42370395908E+02  0.44163735183E+02  0.00000000000E+00 0.  1.
         11    1    1    2    0    0  0.17483264438E+02 -0.87555759597E+02  0.19633863313E+02  0.91417526562E+02  0.00000000000E+00 0. -1.
</event>
<event>
 7    1  0.2499014E-009  0.1247782E+03  0.7561462E-02  0.1235416E+00
          1   -1    0    0  501    0  0.00000000000E+00  0.00000000000E+00  0.20903848229E+03  0.20903848229E+03  0.00000000000E+00 0. -1.
         -1   -1    0    0    0  501 -0.00000000000E+00 -0.00000000000E+00 -0.13142944135E+03  0.13142944135E+03  0.00000000000E+00 0.  1.
         25    2    1    2    0    0  0.87341360130E+02 -0.62152308651E+02  0.10287232127E+03  0.19421863934E+03  0.12508694066E+03 0.  0.
          5    1    3    3  502    0 -0.73268311477E+01 -0.22888691571E+02  0.87086345007E+02  0.90438258183E+02  0.41800000000E+01 0.  1.
         -5    1    3    3    0  502  0.94668191277E+02 -0.39263617080E+02  0.15785976258E+02  0.10378038115E+03  0.41800000000E+01 0.  1.
        -11    1    1    2    0    0 -0.64061022871E+02  0.72815333491E+02  0.15396383241E+02  0.98198452430E+02  0.00000000000E+00 0. -1.
         11    1    1    2    0    0 -0.23280337259E+02 -0.10663024840E+02 -0.40659663571E+02  0.48050831869E+02  0.00000000000E+00 0.  1.
</event>
<event>
 7    1  0.2499014E-009  0.1135564E+03  0.7561462E-02  0.1254122E+00
         -1   -1    0    0    0  501 -0.00000000000E+00  0.00000000000E+00  0.19257743619E+02  0.19257743619E+02  0.00000000000E+00 0.  1.
          1   -1    0    0  501    0  0.00000000000E+00 -0.00000000000E+00 -0.75746587617E+03  0.75746587617E+03  0.00000000000E+00 0. -1.
         25    2    1    2    0    0  0.23089618956E+02  0.32552701692E+02 -0.52268875351E+03  0.53892954821E+03  0.12509482805E+03 0.  0.
          5    1    3    3  502    0 -0.37976289845E+02 -0.22752633449E+02 -0.25397132154E+03  0.25783480271E+03  0.41800000000E+01 0. -1.
         -5    1    3    3    0  502  0.61065908801E+02  0.55305335141E+02 -0.26871743196E+03  0.28109474551E+03  0.41800000000E+01 0. -1.
        -11    1    1    2    0    0  0.35068870778E+02 -0.20940712583E+02 -0.97552238324E+02  0.10575811242E+03  0.00000000000E+00 0. -1.
         11    1    1    2    0    0 -0.58158489734E+02 -0.11611989109E+02 -0.11796714072E+03  0.13203595915E+03  0.00000000000E+00 0.  1.
</event>
<event>
 7    1  0.2499014E-009  0.1216703E+03  0.7561462E-02  0.1240367E+00
         -1   -1    0    0    0  501 -0.00000000000E+00  0.00000000000E+00  0.70492828159E+02  0.70492828159E+02  0.00000000000E+00 0.  1.
          1   -1    0    0  501    0  0.00000000000E+00 -0.00000000000E+00 -0.26960632069E+03  0.26960632069E+03  0.00000000000E+00 0. -1.
         25    2    1    2    0    0 -0.59119706485E+02 -0.56879930602E+02 -0.77450520491E+02  0.16845381582E+03  0.12509052218E+03 0.  0.
          5    1    3    3  502    0  0.19407034440E+02 -0.61853407683E+02 -0.12085292621E+02  0.66075742338E+02  0.41800000000E+01 0.  1.
         -5    1    3    3    0  502 -0.78526740925E+02  0.49734770811E+01 -0.65365227870E+02  0.10237807348E+03  0.41800000000E+01 0.  1.
        -11    1    1    2    0    0  0.32181642320E+02  0.64074550562E+02 -0.12444594182E+03  0.14362450545E+03  0.00000000000E+00 0. -1.
         11    1    1    2    0    0  0.26938064165E+02 -0.71946199602E+01  0.27829697797E+01  0.28020827577E+02  0.00000000000E+00 0.  1.
</event>
<event>
 7    1  0.2499014E-009  0.9515001E+02  0.7561462E-02  0.1290839E+00
         -1   -1    0    0    0  501 -0.00000000000E+00  0.00000000000E+00  0.16451281595E+02  0.16451281595E+02  0.00000000000E+00 0.  1.
          1   -1    0    0  501    0  0.00000000000E+00 -0.00000000000E+00 -0.77846350668E+03  0.77846350668E+03  0.00000000000E+00 0. -1.
         25    2    1    2    0    0  0.11972509768E+02  0.16731214906E+01 -0.33522572025E+03  0.35800961215E+03  0.12509379902E+03 0.  0.
          5    1    3    3  502    0  0.42125957912E+02 -0.30905681232E+02 -0.62075128185E+02  0.81243777617E+02  0.41800000000E+01 0. -1.
         -5    1    3    3    0  502 -0.30153448144E+02  0.32578802722E+02 -0.27315059206E+03  0.27676583453E+03  0.41800000000E+01 0. -1.
        -11    1    1    2    0    0  0.22607329056E+02 -0.37320746385E+02 -0.21342791060E+03  0.21784260938E+03  0.00000000000E+00 0. -1.
         11    1    1    2    0    0 -0.34579838824E+02  0.35647624895E+02 -0.21335859424E+03  0.21906256674E+03  0.00000000000E+00 0.  1.
</event>
<event>
 7    1  0.2499014E-009  0.9638386E+02  0.7561462E-02  0.1288089E+00
          4   -1    0    0  501    0  0.00000000000E+00  0.00000000000E+00  0.96705909648E+02  0.96705909648E+02  0.00000000000E+00 0. -1.
         -4   -1    0    0    0  501 -0.00000000000E+00 -0.00000000000E+00 -0.17386783441E+03  0.17386783441E+03  0.00000000000E+00 0.  1.
         25    2    1    2    0    0  0.39590770508E+02  0.54134884986E+02 -0.67061630724E+02  0.15698581996E+03  0.12509704421E+03 0.  0.
          5    1    3    3  502    0  0.40930328644E+02  0.76699818914E+02 -0.89513314162E+02  0.12485295285E+03  0.41800000000E+01 0. -1.
         -5    1    3    3    0  502 -0.13395581353E+01 -0.22564933929E+02  0.22451683437E+02  0.32132867105E+02  0.41800000000E+01 0. -1.
        -11    1    1    2    0    0 -0.32207143480E+02 -0.63270021135E+02 -0.39982518625E+02  0.81480043331E+02  0.00000000000E+00 0.  1.
         11    1    1    2    0    0 -0.73836270282E+01  0.91351361494E+01  0.29882224592E+02  0.32107880764E+02  0.00000000000E+00 0. -1.
</event>
<event>
 7    1  0.2499014E-009  0.9212273E+02  0.7561462E-02  0.1297791E+00
          1   -1    0    0  501    0  0.00000000000E+00  0.00000000000E+00  0.15719544113E+03  0.15719544113E+03  0.00000000000E+00 0. -1.
         -1   -1    0    0    0  501 -0.00000000000E+00 -0.00000000000E+00 -0.11047492837E+03  0.11047492837E+03  0.00000000000E+00 0.  1.
         25    2    1    2    0    0  0.61747685136E+02  0.40799714665E+02  0.16780824771E+02  0.14631647277E+03  0.12509804470E+03 0.  0.
          5    1    3    3  502    0  0.64914217542E+02  0.55173537559E+02  0.57466660605E+02  0.10284874509E+03  0.41800000000E+01 0.  1.
         -5    1    3    3    0  502 -0.31665324060E+01 -0.14373822894E+02 -0.40685835834E+02  0.43467727679E+02  0.41800000000E+01 0.  1.
        -11    1    1    2    0    0 -0.55767054079E+02 -0.15826480103E+02 -0.23117678145E+02  0.62408884270E+02  0.00000000000E+00 0.  1.
         11    1    1    2    0    0 -0.59806310574E+01 -0.24973234562E+02  0.53057366141E+02  0.58945012462E+02  0.00000000000E+00 0. -1.
</event>
<event>
 7    1  0.2499014E-009  0.1290668E+03  0.7561462E-02  0.1228847E+00
         -1   -1    0    0    0  501 -0.00000000000E+00  0.00000000000E+00  0.12701631270E+02  0.12701631270E+02  0.00000000000E+00 0.  1.
          1   -1    0    0  501    0  0.00000000000E+00 -0.00000000000E+00 -0.15234803123E+04  0.15234803123E+04  0.00000000000E+00 0. -1.
         25    2    1    2    0    0 -0.34435300853E+02  0.74019830845E+02 -0.98421938129E+03  0.99549003481E+03  0.12509154086E+03 0.  0.
          5    1    3    3  502    0 -0.65308833150E+02  0.82490519063E+02 -0.88275229322E+03  0.88901013099E+03  0.41800000000E+01 0.  1.
         -5    1    3    3    0  502  0.30873532297E+02 -0.84706882174E+01 -0.10146708807E+03  0.10647990382E+03  0.41800000000E+01 0.  1.
        -11    1    1    2    0    0 -0.16742112603E+02 -0.66800408851E+02 -0.24829110731E+03  0.25766464042E+03  0.00000000000E+00 0. -1.
         11    1    1    2    0    0  0.51177413456E+02 -0.72194219947E+01 -0.27826819244E+03  0.28302726835E+03  0.00000000000E+00 0.  1.
</event>
<event>
 7    1  0.2499014E-009  0.1578235E+03  0.7561462E-02  0.1191176E+00
          1   -1    0    0  501    0  0.00000000000E+00  0.00000000000E+00  0.67397488028E+03  0.67397488028E+03  0.00000000000E+00 0. -1.
         -1   -1    0    0    0  501 -0.00000000000E+00 -0.00000000000E+00 -0.16311851194E+03  0.16311851194E+03  0.00000000000E+00 0.  1.
         25    2    1    2    0    0 -0.11784375320E+03 -0.19427434989E+02 -0.10576693717E+03  0.20272777299E+03  0.12508928628E+03 0.  0.
          5    1    3    3  502    0  0.12801581625E+02 -0.37930914379E+02 -0.32573014791E+02  0.51779421108E+02  0.41800000000E+01 0. -1.
         -5    1    3    3    0  502 -0.13064533483E+03  0.18503479391E+02 -0.73193922382E+02  0.15094835188E+03  0.41800000000E+01 0. -1.
        -11    1    1    2    0    0  0.29329181444E+02 -0.30038483667E+02  0.11097332253E+03  0.11864901895E+03  0.00000000000E+00 0. -1.
         11    1    1    2    0    0  0.88514571756E+02  0.49465918655E+02  0.50564998298E+03  0.51571660028E+03  0.00000000000E+00 0.  1.
</event>
<event>
 7    1  0.2499014E-009  0.1434239E+03  0.7561462E-02  0.1208795E+00
         -3   -1    0    0    0  501 -0.00000000000E+00  0.00000000000E+00  0.13451579862E+03  0.13451579862E+03  0.00000000000E+00 0.  1.
          3   -1    0    0  501    0  0.00000000000E+00 -0.00000000000E+00 -0.16261889436E+03  0.16261889436E+03  0.00000000000E+00 0. -1.
         25    2    1    2    0    0  0.59521539317E+02 -0.80492156508E+02 -0.57315957841E+01  0.16031958115E+03  0.12509083103E+03 0.  0.
          5    1    3    3  502    0  0.69636222274E+02  0.56976677158E+01 -0.18764801269E+02  0.72465557589E+02  0.41800000000E+01 0.  1.
         -5    1    3    3    0  502 -0.10114682957E+02 -0.86189824224E+02  0.13033205485E+02  0.87854023564E+02  0.41800000000E+01 0.  1.
        -11    1    1    2    0    0 -0.35315864836E+02 -0.96710995074E+01 -0.23398087552E+02  0.43453549635E+02  0.00000000000E+00 0. -1.
         11    1    1    2    0    0 -0.24205674481E+02  0.90163256016E+02  0.10265875953E+01  0.93361562190E+02  0.00000000000E+00 0.  1.
</event>
<event>
 7    1  0.2499014E-009  0.2137928E+03  0.7561462E-02  0.1138597E+00
         -2   -1    0    0    0  501 -0.00000000000E+00  0.00000000000E+00  0.13809176708E+03  0.13809176708E+03  0.00000000000E+00 0.  1.
          2   -1    0    0  501    0  0.00000000000E+00 -0.00000000000E+00 -0.36208260282E+03  0.36208260282E+03  0.00000000000E+00 0. -1.
         25    2    1    2    0    0  0.19503053524E+03  0.25780975977E+02 -0.11587530797E+03  0.26034082897E+03  0.12509473145E+03 0.  0.
          5    1    3    3  502    0 -0.16140363943E+02 -0.36596174649E+01 -0.20649605597E+02  0.26791468036E+02  0.41800000000E+01 0. -1.
         -5    1    3    3    0  502  0.21117089918E+03  0.29440593442E+02 -0.95225702371E+02  0.23354936094E+03  0.41800000000E+01 0. -1.
        -11    1    1    2    0    0 -0.42886022774E+02  0.36121525859E+00  0.11658264071E+02  0.44443858372E+02  0.00000000000E+00 0.  1.
         11    1    1    2    0    0 -0.15214451246E+03 -0.26142191236E+02 -0.11977379184E+03  0.19538968255E+03  0.00000000000E+00 0. -1.
</event>
<event>
 7    1  0.2499014E-009  0.1706711E+03  0.7561462E-02  0.1177150E+00
         -2   -1    0    0    0  501 -0.00000000000E+00  0.00000000000E+00  0.79890183805E+02  0.79890183805E+02  0.00000000000E+00 0. -1.
          2   -1    0    0  501    0  0.00000000000E+00 -0.00000000000E+00 -0.52570721650E+03  0.52570721650E+03  0.00000000000E+00 0.  1.
         25    2    1    2    0    0  0.86701462783E+02  0.12729894630E+03 -0.11390965195E+03  0.22879038362E+03  0.12508982953E+03 0.  0.
          5    1    3    3  502    0  0.35763239606E+01  0.92203010484E+02 -0.10212205386E+03  0.13769739111E+03  0.41800000000E+01 0.  1.
         -5    1    3    3    0  502  0.83125138822E+02  0.35095935811E+02 -0.11787598093E+02  0.91092992505E+02  0.41800000000E+01 0.  1.
        -11    1    1    2    0    0 -0.36599053537E+02 -0.86881258086E+02 -0.10577413489E+03  0.14168984204E+03  0.00000000000E+00 0. -1.
         11    1    1    2    0    0 -0.50102409246E+02 -0.40417688210E+02 -0.22613324585E+03  0.23511717464E+03  0.00000000000E+00 0.  1.
</event>
<event>
 7    1  0.2499014E-009  0.1199385E+03  0.7561462E-02  0.1243199E+00
          1   -1    0    0  501    0  0.00000000000E+00  0.00000000000E+00  0.16326214572E+04  0.16326214572E+04  0.00000000000E+00 0. -1.
         -1   -1    0    0    0  501 -0.00000000000E+00 -0.00000000000E+00 -0.13650057516E+02  0.13650057516E+02  0.00000000000E+00 0.  1.
         25    2    1    2    0    0 -0.39083130459E+02 -0.81365273527E+02  0.11477618993E+04  0.11580818903E+04  0.12509391864E+03 0.  0.
          5    1    3    3  502    0 -0.64474001982E+02 -0.59205018447E+02  0.10653383446E+04  0.10689365706E+04  0.41800000000E+01 0.  1.
         -5    1    3    3    0  502  0.25390871523E+02 -0.22160255080E+02  0.82423554673E+02  0.89145319714E+02  0.41800000000E+01 0.  1.
        -11    1    1    2    0    0  0.23877810646E+01  0.81553349316E+02  0.39825094018E+03  0.40652239992E+03  0.00000000000E+00 0.  1.
         11    1    1    2    0    0  0.36695349395E+02 -0.18807578863E+00  0.72958560220E+02  0.81667224448E+02  0.00000000000E+00 0. -1.
</event>
<event>
 7    1  0.2499014E-009  0.1695038E+03  0.7561462E-02  0.1178366E+00
          1   -1    0    0  501    0  0.00000000000E+00  0.00000000000E+00  0.14569757802E+03  0.14569757802E+03  0.00000000000E+00 0. -1.
         -1   -1    0    0    0  501 -0.00000000000E+00 -0.00000000000E+00 -0.21747597366E+03  0.21747597366E+03  0.00000000000E+00 0.  1.
         25    2    1    2    0    0 -0.10833982810E+03 -0.79213260406E+02 -0.80193953828E+02  0.20022675391E+03  0.12508966293E+03 0.  0.
          5    1    3    3  502    0 -0.13096846641E+03 -0.85050644943E+02 -0.55017095134E+02  0.16562217410E+03  0.41800000000E+01 0. -1.
         -5    1    3    3    0  502  0.22628638304E+02  0.58373845369E+01 -0.25176858694E+02  0.34604579804E+02  0.41800000000E+01 0. -1.
        -11    1    1    2    0    0  0.49492990109E+02 -0.11602861084E+02 -0.13363041341E+02  0.52561899976E+02  0.00000000000E+00 0.  1.
         11    1    1    2    0    0  0.58846837993E+02  0.90816121490E+02  0.21778599520E+02  0.11038489780E+03  0.00000000000E+00 0. -1.
</event>
<event>
 7    1  0.2499014E-009  0.1067184E+03  0.7561462E-02  0.1266770E+00
         -1   -1    0    0    0  501 -0.00000000000E+00  0.00000000000E+00  0.39212559892E+02  0.39212559892E+02  0.00000000000E+00 0.  1.
          1   -1    0    0  501    0  0.00000000000E+00 -0.00000000000E+00 -0.50946169202E+03  0.50946169202E+03  0.00000000000E+00 0. -1.
         25    2    1    2    0    0 -0.59428763780E+02  0.17319699449E+02 -0.16394181146E+03  0.21530571885E+03  0.12509150680E+03 0.  0.
          5    1    3    3  502    0  0.11085991378E+02  0.58946194418E+01 -0.13884732097E+03  0.13947650944E+03  0.41800000000E+01 0. -1.
         -5    1    3    3    0  502 -0.70514755158E+02  0.11425080007E+02 -0.25094490485E+02  0.75829209417E+02  0.41800000000E+01 0. -1.
        -11    1    1    2    0    0  0.22826767910E+02 -0.64796221955E+02 -0.12825900218E+03  0.14549908369E+03  0.00000000000E+00 0.  1.
         11    1    1    2    0    0  0.36601995870E+02  0.47476522506E+02 -0.17804831849E+03  0.18786944937E+03  0.00000000000E+00 0. -1.
</event>
<event>
 7    1  0.2499014E-009  0.9340642E+02  0.7561462E-02  0.1294806E+00
          1   -1    0    0  501    0  0.00000000000E+00  0.00000000000E+00  0.39007915815E+03  0.39007915815E+03  0.00000000000E+00 0. -1.
         -1   -1    0    0    0  501 -0.00000000000E+00 -0.00000000000E+00 -0.29850026558E+02  0.29850026558E+02  0.00000000000E+00 0.  1.
         25    2    1    2    0    0  0.59387918329E+01  0.52340310069E+02  0.15901029755E+03  0.20906280679E+03  0.12509278616E+03 0.  0.
          5    1    3    3  502    0 -0.28910393813E+02  0.78620835884E+02  0.13537434900E+03  0.15925053680E+03  0.41800000000E+01 0. -1.
         -5    1    3    3    0  502  0.34849185646E+02 -0.26280525815E+02  0.23635948547E+02  0.49812269985E+02  0.41800000000E+01 0. -1.
        -11    1    1    2    0    0 -0.14390106979E+02 -0.14913263315E+02  0.10952403264E+03  0.11146745861E+03  0.00000000000E+00 0.  1.
         11    1    1    2    0    0  0.84513151457E+01 -0.37427046753E+02  0.91694801398E+02  0.99398919309E+02  0.00000000000E+00 0. -1.
</event>
<event>
 7    1  0.2499014E-009  0.1311767E+03  0.7561462E-02  0.1225720E+00
         -1   -1    0    0    0  501 -0.00000000000E+00  0.00000000000E+00  0.35128881437E+03  0.35128881437E+03  0.00000000000E+00 0.  1.
          1   -1    0    0  501    0  0.00000000000E+00 -0.00000000000E+00 -0.65548765010E+02  0.65548765010E+02  0.00000000000E+00 0. -1.
         25    2    1    2    0    0 -0.83018468488E+02  0.25044311671E+02  0.23790668978E+03  0.28242874223E+03  0.12508843966E+03 0.  0.
          5    1    3    3  502    0  0.18933631599E+02 -0.22016157711E+02  0.15341398968E+02  0.33106261163E+02  0.41800000000E+01 0. -1.
         -5    1    3    3    0  502 -0.10195210009E+03  0.47060469382E+02  0.22256529081E+03  0.24932248106E+03  0.41800000000E+01 0. -1.
        -11    1    1    2    0    0  0.52781421520E+02 -0.56292246269E+02  0.48091538938E+02  0.90925747537E+02  0.00000000000E+00 0.  1.
         11    1    1    2    0    0  0.30237046968E+02  0.31247934598E+02 -0.25817935592E+00  0.43483089616E+02  0.00000000000E+00 0. -1.
</event>
<event>
 7    1  0.2499014E-009  0.2093395E+03  0.7561462E-02  0.1142090E+00
         -2   -1    0    0    0  501 -0.00000000000E+00  0.00000000000E+00  0.86689279496E+02  0.86689279496E+02  0.00000000000E+00 0.  1.
          2   -1    0    0  501    0  0.00000000000E+00 -0.00000000000E+00 -0.57060087558E+03  0.57060087558E+03  0.00000000000E+00 0. -1.
         25    2    1    2    0    0  0.18809199258E+03 -0.42896461864E+02 -0.27498472599E+03  0.35844308230E+03  0.12508452984E+03 0.  0.
          5    1    3    3  502    0  0.27722840624E+02  0.33498756667E+02 -0.99700851913E+02  0.10885060800E+03  0.41800000000E+01 0.  1.
         -5    1    3    3    0  502  0.16036915195E+03 -0.76395218531E+02 -0.17528387408E+03  0.24959247429E+03  0.41800000000E+01 0.  1.
        -11    1    1    2    0    0 -0.12128758876E+03  0.47709092048E+02 -0.18784124002E+03  0.22862888729E+03  0.00000000000E+00 0. -1.
         11    1    1    2    0    0 -0.66804403811E+02 -0.48126301834E+01 -0.21085630078E+02  0.70218185491E+02  0.00000000000E+00 0.  1.
</event>
<event>
 7    1  0.2499014E-009  0.2830405E+03  0.7561462E-02  0.1094040E+00
         -2   -1    0    0    0  501 -0.00000000000E+00  0.00000000000E+00  0.62753961472E+02  0.62753961472E+02  0.00000000000E+00 0.  1.
          2   -1    0    0  501    0  0.00000000000E+00 -0.00000000000E+00 -0.15529274842E+04  0.15529274842E+04  0.00000000000E+00 0. -1.
         25    2    1    2    0    0  0.26170122045E+03 -0.69824116435E+02 -0.47375359569E+03  0.55986898652E+03  0.12509147301E+03 0.  0.
          5    1    3    3  502    0  0.26579441420E+03 -0.71276234038E+02 -0.47863032873E+03  0.55211541922E+03  0.41800000000E+01 0. -1.
         -5    1    3    3    0  502 -0.40931937544E+01  0.14521176030E+01  0.48767330460E+01  0.77535672981E+01  0.41800000000E+01 0. -1.
        -11    1    1    2    0    0 -0.53912338764E+02 -0.21269822667E+02 -0.24194264289E+03  0.24878743553E+03  0.00000000000E+00 0. -1.
         11    1    1    2    0    0 -0.20778888168E+03  0.91093939102E+02 -0.77447728414E+03  0.80702502362E+03  0.00000000000E+00 0.  1.
</event>
<event>
 7    1  0.5723502E-009  0.1132842E+03  0.7561462E-02  0.1254606E+00
          1   -1    0    0  501    0  0.00000000000E+00  0.00000000000E+00  0.87574915622E+03  0.87574915622E+03  0.00000000000E+00 0. -1.
         -1   -1    0    0    0  501 -0.00000000000E+00 -0.00000000000E+00 -0.23493935713E+02  0.23493935713E+02  0.00000000000E+00 0.  1.
         25    2    1    2    0    0 -0.73713956361E+02 -0.28993792112E+02  0.30752087014E+03  0.34130702327E+03  0.12508801389E+03 0.  0.
          5    1    3    3  502    0  0.75626417075E+01  0.24766942346E+02  0.17393701796E+03  0.17590381917E+03  0.41800000000E+01 0.  1.
         -5    1    3    3    0  502 -0.81276598068E+02 -0.53760734458E+02  0.13358385218E+03  0.16540320410E+03  0.41800000000E+01 0.  1.
        -11    1    1    2    0    0 -0.11579326765E+02  0.10265678341E+02  0.16850284705E+02  0.22877872601E+02  0.00000000000E+00 0.  1.
         11    1    1    2    0    0  0.85293283126E+02  0.18728113771E+02  0.52788406566E+03  0.53505819606E+03  0.00000000000E+00 0. -1.
</event>
<event>
 7    1  0.2499014E-009  0.9608141E+02  0.7561462E-02  0.1288759E+00
         -1   -1    0    0    0  501 -0.00000000000E+00  0.00000000000E+00  0.61626207898E+02  0.61626207898E+02  0.00000000000E+00 0.  1.
          1   -1    0    0  501    0  0.00000000000E+00 -0.00000000000E+00 -0.26120906719E+03  0.26120906719E+03  0.00000000000E+00 0. -1.
         25    2    1    2    0    0 -0.20659593194E+02  0.33422314992E+02 -0.42599685859E+02  0.13786187574E+03  0.12508914268E+03 0.  0.
          5    1    3    3  502    0 -0.37731724025E+02 -0.22054352397E+02 -0.62482138200E+02  0.76364700298E+02  0.41800000000E+01 0.  1.
         -5    1    3    3    0  502  0.17072130831E+02  0.55476667390E+02  0.19882452341E+02  0.61497175438E+02  0.41800000000E+01 0.  1.
        -11    1    1    2    0    0 -0.14513499647E+02  0.20842319372E+02 -0.16405996680E+02  0.30235751617E+02  0.00000000000E+00 0.  1.
         11    1    1    2    0    0  0.35173092841E+02 -0.54264634364E+02 -0.14057717676E+03  0.15473764774E+03  0.00000000000E+00 0. -1.
</event>
<event>
 7    1  0.2499014E-009  0.3931977E+03  0.7561462E-02  0.1046161E+00
          2   -1    0    0  501    0  0.00000000000E+00  0.00000000000E+00  0.17448753624E+04  0.17448753624E+04  0.00000000000E+00 0. -1.
         -2   -1    0    0    0  501 -0.00000000000E+00 -0.00000000000E+00 -0.89927296030E+02  0.89927296030E+02  0.00000000000E+00 0.  1.
         25    2    1    2    0    0  0.10694384819E+03 -0.36498339498E+03  0.80248164856E+03  0.89681348241E+03  0.12509100957E+03 0.  0.
          5    1    3    3  502    0  0.13175322345E+03 -0.31130706970E+03  0.63902586868E+03  0.72294020277E+03  0.41800000000E+01 0. -1.
         -5    1    3    3    0  502 -0.24809375263E+02 -0.53676325276E+02  0.16345577988E+03  0.17387327964E+03  0.41800000000E+01 0. -1.
        -11    1    1    2    0    0 -0.10999120234E+03  0.23972351511E+03  0.52907616290E+03  0.59117426740E+03  0.00000000000E+00 0.  1.
         11    1    1    2    0    0  0.30473541534E+01  0.12525987987E+03  0.32339025493E+03  0.34681490864E+03  0.00000000000E+00 0. -1.
</event>
<event>
 7    1  0.2499014E-009  0.9785085E+02  0.7561462E-02  0.1284881E+00
          2   -1    0    0  501    0  0.00000000000E+00  0.00000000000E+00  0.55458156428E+03  0.55458156428E+03  0.00000000000E+00 0. -1.
         -2   -1    0    0    0  501 -0.00000000000E+00 -0.00000000000E+00 -0.24940167549E+02  0.24940167549E+02  0.00000000000E+00 0.  1.
         25    2    1    2    0    0  0.24159958974E+02 -0.16133045208E+02  0.38021418081E+03  0.40131499851E+03  0.12508767316E+03 0.  0.
          5    1    3    3  502    0  0.73832154192E+02 -0.13768020756E+02  0.18236930902E+03  0.19727337038E+03  0.41800000000E+01 0. -1.
         -5    1    3    3    0  502 -0.49672195218E+02 -0.23650244519E+01  0.19784487179E+03  0.20404162813E+03  0.41800000000E+01 0. -1.
        -11    1    1    2    0    0  0.19578647115E+02  0.18279478435E+02  0.49504019177E+01  0.27239112207E+02  0.00000000000E+00 0.  1.
         11    1    1    2    0    0 -0.43738606089E+02 -0.21464332267E+01  0.14447681400E+03  0.15096762111E+03  0.00000000000E+00 0. -1.
</event>
<event>
 7    1  0.2499014E-009  0.1334396E+03  0.7561462E-02  0.1222439E+00
          2   -1    0    0  501    0  0.00000000000E+00  0.00000000000E+00  0.14784375651E+03  0.14784375651E+03  0.00000000000E+00 0.  1.
         -2   -1    0    0    0  501 -0.00000000000E+00 -0.00000000000E+00 -0.14810456489E+03  0.14810456489E+03  0.00000000000E+00 0. -1.
         25    2    1    2    0    0  0.64294736684E+02  0.73624511892E+02  0.14633904014E+02  0.15942465277E+03  0.12509071447E+03 0.  0.
          5    1    3    3  502    0  0.29350785833E+02  0.88295840319E+02 -0.32637138871E+02  0.98692853238E+02  0.41800000000E+01 0. -1.
         -5    1    3    3    0  502  0.34943950851E+02 -0.14671328427E+02  0.47271042884E+02  0.60731799531E+02  0.41800000000E+01 0. -1.
        -11    1    1    2    0    0  0.15459664116E+02  0.11268326272E+02 -0.29852909457E+00  0.19132838555E+02  0.00000000000E+00 0. -1.
         11    1    1    2    0    0 -0.79754400800E+02 -0.84892838164E+02 -0.14596183294E+02  0.11739083007E+03  0.00000000000E+00 0.  1.
</event>
<event>
 7    1  0.2499014E-009  0.1804996E+03  0.7561462E-02  0.1167320E+00
          1   -1    0    0  501    0  0.00000000000E+00  0.00000000000E+00  0.24476356976E+03  0.24476356976E+03  0.00000000000E+00 0. -1.
         -1   -1    0    0    0  501 -0.00000000000E+00 -0.00000000000E+00 -0.17225786967E+03  0.17225786967E+03  0.00000000000E+00 0.  1.
         25    2    1    2    0    0  0.16323759774E+03  0.27459625603E+02  0.87185817452E+02  0.22505582084E+03  0.12509281103E+03 0.  0.
          5    1    3    3  502    0  0.39435471592E+02  0.23009777927E+02  0.90072166054E+02  0.10106964825E+03  0.41800000000E+01 0.  1.
         -5    1    3    3    0  502  0.12380212615E+03  0.44498476759E+01 -0.28863486021E+01  0.12398617259E+03  0.41800000000E+01 0.  1.
        -11    1    1    2    0    0 -0.10593179714E+03  0.29947746032E+02 -0.40563552956E+01  0.11015837306E+03  0.00000000000E+00 0.  1.
         11    1    1    2    0    0 -0.57305800605E+02 -0.57407371635E+02 -0.10623762063E+02  0.81807245531E+02  0.00000000000E+00 0. -1.
</event>
<event>
 7    1  0.2499014E-009  0.2161922E+03  0.7561462E-02  0.1136754E+00
         -2   -1    0    0    0  501 -0.00000000000E+00  0.00000000000E+00  0.87828733099E+02  0.87828733099E+02  0.00000000000E+00 0.  1.
          2   -1    0    0  501    0  0.00000000000E+00 -0.00000000000E+00 -0.66463931753E+03  0.66463931753E+03  0.00000000000E+00 0. -1.
         25    2    1    2    0    0  0.12678802944E+03  0.16398146809E+03 -0.20625964402E+03  0.31804969186E+03  0.12508972562E+03 0.  0.
          5    1    3    3  502    0  0.11738472087E+03  0.16355425130E+03 -0.22169619433E+03  0.29949263897E+03  0.41800000000E+01 0. -1.
         -5    1    3    3    0  502  0.94033085735E+01  0.42721678798E+00  0.15436550320E+02  0.18557052893E+02  0.41800000000E+01 0. -1.
        -11    1    1    2    0    0 -0.11106684901E+03 -0.84115025431E+02 -0.27941112874E+03  0.31222069328E+03  0.00000000000E+00 0. -1.
         11    1    1    2    0    0 -0.15721180433E+02 -0.79866442659E+02 -0.91139811674E+02  0.12219766548E+03  0.00000000000E+00 0.  1.
</event>
<event>
 7    1  0.2982064E-009  0.1515330E+03  0.7561462E-02  0.1198602E+00
         -1   -1    0    0    0  501 -0.00000000000E+00  0.00000000000E+00  0.48561752793E+02  0.48561752793E+02  0.00000000000E+00 0.  1.
          1   -1    0    0  501    0  0.00000000000E+00 -0.00000000000E+00 -0.80106383544E+03  0.80106383544E+03  0.00000000000E+00 0. -1.
         25    2    1    2    0    0 -0.14806044042E+03 -0.23314079341E+02 -0.53813772872E+03  0.57245285626E+03  0.12507844440E+03 0.  0.
          5    1    3    3  502    0 -0.13275552939E+03 -0.11703121656E+02 -0.53639124271E+03  0.55271514481E+03  0.41800000000E+01 0.  1.
         -5    1    3    3    0  502 -0.15304911035E+02 -0.11610957684E+02 -0.17464860111E+01  0.19737711456E+02  0.41800000000E+01 0.  1.
        -11    1    1    2    0    0  0.10794605739E+03  0.20337280009E+02 -0.77273608737E+02  0.13430251997E+03  0.00000000000E+00 0.  1.
         11    1    1    2    0    0  0.40114383035E+02  0.29767993319E+01 -0.13709074518E+03  0.14287021200E+03  0.00000000000E+00 0. -1.
</event>
<event>
 7    1  0.2499014E-009  0.1418312E+03  0.7561462E-02  0.1210886E+00
         -1   -1    0    0    0  501 -0.00000000000E+00  0.00000000000E+00  0.62958864217E+02  0.62958864217E+02  0.00000000000E+00 0.  1.
          1   -1    0    0  501    0  0.00000000000E+00 -0.00000000000E+00 -0.34181174258E+03  0.34181174258E+03  0.00000000000E+00 0. -1.
         25    2    1    2    0    0  0.32632634359E+02  0.22770072240E+02 -0.15381222405E+03  0.20221154469E+03  0.12509174044E+03 0.  0.
          5    1    3    3  502    0  0.52624628593E+01  0.73322443144E+02 -0.86478271840E+02  0.11357745412E+03  0.41800000000E+01 0.  1.
         -5    1    3    3    0  502  0.27370171500E+02 -0.50552370904E+02 -0.67333952208E+02  0.88634090574E+02  0.41800000000E+01 0.  1.
        -11    1    1    2    0    0  0.32148955609E+02 -0.66754131633E+02 -0.31339232941E+02  0.80447603806E+02  0.00000000000E+00 0. -1.
         11    1    1    2    0    0 -0.64781589968E+02  0.43984059393E+02 -0.93701421371E+02  0.12211145829E+03  0.00000000000E+00 0.  1.
</event>
<event>
 7    1  0.2499014E-009  0.8768201E+02  0.7561462E-02  0.1308564E+00
         -2   -1    0    0    0  501 -0.00000000000E+00  0.00000000000E+00  0.47140167939E+02  0.47140167939E+02  0.00000000000E+00 0.  1.
          2   -1    0    0  501    0  0.00000000000E+00 -0.00000000000E+00 -0.25237150413E+03  0.25237150413E+03  0.00000000000E+00 0. -1.
         25    2    1    2    0    0 -0.81620790770E+01  0.11149192528E+02 -0.13793275693E+03  0.18671824122E+03  0.12508929666E+03 0.  0.
          5    1    3    3  502    0 -0.26245349179E+02 -0.30977910615E+02  0.51375619282E+00  0.40818937333E+02  0.41800000000E+01 0. -1.
         -5    1    3    3    0  502  0.18083270102E+02  0.42127103143E+02 -0.13844651313E+03  0.14589930388E+03  0.41800000000E+01 0. -1.
        -11    1    1    2    0    0  0.34158405496E+02 -0.38030409608E+02 -0.26976558597E+02  0.57800029712E+02  0.00000000000E+00 0.  1.
         11    1    1    2    0    0 -0.25996326419E+02  0.26881217079E+02 -0.40322020662E+02  0.54993401143E+02  0.00000000000E+00 0. -1.
</event>
<event>
 7    1  0.2499014E-009  0.1727357E+03  0.7561462E-02  0.1175025E+00
          2   -1    0    0  501    0  0.00000000000E+00  0.00000000000E+00  0.11268335979E+04  0.11268335979E+04  0.00000000000E+00 0. -1.
         -2   -1    0    0    0  501 -0.00000000000E+00 -0.00000000000E+00 -0.30193028735E+02  0.30193028735E+02  0.00000000000E+00 0.  1.
         25    2    1    2    0    0 -0.11841222628E+02 -0.14304752904E+03  0.54351576983E+03  0.57590119579E+03  0.12509990062E+03 0.  0.
          5    1    3    3  502    0  0.48907119353E+02 -0.27392488877E+02  0.11691224988E+03  0.12972355739E+03  0.41800000000E+01 0. -1.
         -5    1    3    3    0  502 -0.60748341981E+02 -0.11565504016E+03  0.42660351996E+03  0.44617763840E+03  0.41800000000E+01 0. -1.
        -11    1    1    2    0    0 -0.27527145364E+02  0.75633316072E+02  0.14725584036E+03  0.16781664027E+03  0.00000000000E+00 0.  1.
         11    1    1    2    0    0  0.39368367992E+02  0.67414212969E+02  0.40586895897E+03  0.41330879057E+03  0.00000000000E+00 0. -1.
</event>
<event>
 7    1  0.2499014E-009  0.1217517E+03  0.7561462E-02  0.1240235E+00
         -2   -1    0    0    0  501 -0.00000000000E+00  0.00000000000E+00  0.35587255135E+02  0.35587255135E+02  0.00000000000E+00 0.  1.
          2   -1    0    0  501    0  0.00000000000E+00 -0.00000000000E+00 -0.48073187213E+03  0.48073187213E+03  0.00000000000E+00 0. -1.
         25    2    1    2    0    0  0.14925447998E+02 -0.74070001167E+02 -0.24040109776E+03  0.28133507471E+03  0.12509037687E+03 0.  0.
          5    1    3    3  502    0 -0.52155597953E+02 -0.55774234446E+02 -0.12723093889E+03  0.14844580100E+03  0.41800000000E+01 0.  1.
         -5    1    3    3    0  502  0.67081045952E+02 -0.18295766722E+02 -0.11317015887E+03  0.13288927370E+03  0.41800000000E+01 0.  1.
        -11    1    1    2    0    0  0.23903410783E+02  0.34127621477E+02 -0.29372781331E+02  0.50978700237E+02  0.00000000000E+00 0.  1.
         11    1    1    2    0    0 -0.38828858781E+02  0.39942379690E+02 -0.17537073791E+03  0.18400535232E+03  0.00000000000E+00 0. -1.
</event>
<event>
 7    1  0.2499014E-009  0.1051346E+03  0.7561462E-02  0.1269855E+00
         -1   -1    0    0    0  501 -0.00000000000E+00  0.00000000000E+00  0.12969970475E+03  0.12969970475E+03  0.00000000000E+00 0.  1.
          1   -1    0    0  501    0  0.00000000000E+00 -0.00000000000E+00 -0.16945153891E+03  0.16945153891E+03  0.00000000000E+00 0. -1.
         25    2    1    2    0    0 -0.76173117498E+02 -0.13475282477E+02 -0.40231896993E+01  0.14713230787E+03  0.12509117834E+03 0.  0.
          5    1    3    3  502    0  0.26631618130E+02 -0.10037197993E+02 -0.29370476740E+02  0.41110652290E+02  0.41800000000E+01 0.  1.
         -5    1    3    3    0  502 -0.10280473563E+03 -0.34380844842E+01  0.25347287041E+02  0.10602165558E+03  0.41800000000E+01 0.  1.
        -11    1    1    2    0    0  0.12386969846E+02  0.75247375588E+01 -0.75324926503E+02  0.76706604996E+02  0.00000000000E+00 0. -1.
         11    1    1    2    0    0  0.63786147652E+02  0.59505449183E+01  0.39596282051E+02  0.75312330792E+02  0.00000000000E+00 0.  1.
</event>
<event>
 7    1  0.2499014E-009  0.9682063E+02  0.7561462E-02  0.1287127E+00
         -3   -1    0    0    0  501 -0.00000000000E+00  0.00000000000E+00  0.34972931706E+02  0.34972931706E+02  0.00000000000E+00 0.  1.
          3   -1    0    0  501    0  0.00000000000E+00 -0.00000000000E+00 -0.51745041078E+03  0.51745041078E+03  0.00000000000E+00 0. -1.
         25    2    1    2    0    0 -0.19345427826E+02 -0.50353207720E+02 -0.21571573100E+03  0.25512804145E+03  0.12508936737E+03 0.  0.
          5    1    3    3  502    0 -0.43809008310E+02 -0.18386586688E+02 -0.20866782634E+03  0.21404912971E+03  0.41800000000E+01 0. -1.
         -5    1    3    3    0  502  0.24463580483E+02 -0.31966621031E+02 -0.70479046654E+01  0.41078911748E+02  0.41800000000E+01 0. -1.
        -11    1    1    2    0    0  0.16097392752E+02 -0.25173582108E+02 -0.17894241665E+03  0.18142002030E+03  0.00000000000E+00 0. -1.
         11    1    1    2    0    0  0.32480350737E+01  0.75526789828E+02 -0.87819331422E+02  0.11587528073E+03  0.00000000000E+00 0.  1.
</event>
<event>
 7    1  0.2499014E-009  0.1849718E+03  0.7561462E-02  0.1163076E+00
         -2   -1    0    0    0  501 -0.00000000000E+00  0.00000000000E+00  0.93738778859E+02  0.93738778859E+02  0.00000000000E+00 0.  1.
          2   -1    0    0  501    0  0.00000000000E+00 -0.00000000000E+00 -0.47411151593E+03  0.47411151593E+03  0.00000000000E+00 0. -1.
         25    2    1    2    0    0  0.10987889746E+03  0.11370788338E+03 -0.31863497566E+03  0.37706496006E+03  0.12508749555E+03 0.  0.
          5    1    3    3  502    0  0.12986174147E+03  0.10854443520E+03 -0.22781984094E+03  0.28384030481E+03  0.41800000000E+01 0.  1.
         -5    1    3    3    0  502 -0.19982844011E+02  0.51634481794E+01 -0.90815134722E+02  0.93224655250E+02  0.41800000000E+01 0.  1.
        -11    1    1    2    0    0 -0.72295696261E+02 -0.14827522392E+02 -0.15872547096E+02  0.75488150523E+02  0.00000000000E+00 0.  1.
         11    1    1    2    0    0 -0.37583201201E+02 -0.98880360987E+02 -0.45865214319E+02  0.11529718421E+03  0.00000000000E+00 0. -1.
</event>
<event>
 7    1  0.2499014E-009  0.1086470E+03  0.7561462E-02  0.1263096E+00
         -1   -1    0    0    0  501 -0.00000000000E+00  0.00000000000E+00  0.49971018101E+02  0.49971018101E+02  0.00000000000E+00 0.  1.
          1   -1    0    0  501    0  0.00000000000E+00 -0.00000000000E+00 -0.24921503614E+03  0.24921503614E+03  0.00000000000E+00 0. -1.
         25    2    1    2    0    0 -0.18158332755E+02  0.23942050579E+01 -0.14393211379E+03  0.19156891562E+03  0.12508692492E+03 0.  0.
          5    1    3    3  502    0 -0.70552742195E+02  0.15264308097E+02 -0.81936332272E+02  0.10927819306E+03  0.41800000000E+01 0.  1.
         -5    1    3    3    0  502  0.52394409439E+02 -0.12870103039E+02 -0.61995781521E+02  0.82290722558E+02  0.41800000000E+01 0.  1.
        -11    1    1    2    0    0 -0.14009594564E+02 -0.39414736389E+02 -0.34968683716E+02  0.54521546432E+02  0.00000000000E+00 0.  1.
         11    1    1    2    0    0  0.32167927320E+02  0.37020531331E+02 -0.20343220527E+02  0.53095592185E+02  0.00000000000E+00 0. -1.
</event>
<event>
 7    1  0.2499014E-009  0.1016463E+03  0.7561462E-02  0.1276872E+00
         -4   -1    0    0    0  501 -0.00000000000E+00  0.00000000000E+00  0.41849052569E+02  0.41849052569E+02  0.00000000000E+00 0. -1.
          4   -1    0    0  501    0  0.00000000000E+00 -0.00000000000E+00 -0.29225453834E+03  0.29225453834E+03  0.00000000000E+00 0.  1.
         25    2    1    2    0    0  0.10717728520E+02 -0.36264927909E+00 -0.10968599529E+03  0.16671560786E+03  0.12509226643E+03 0.  0.
          5    1    3    3  502    0  0.60727529798E+02  0.25534829051E+02 -0.40643490061E+02  0.77519197973E+02  0.41800000000E+01 0.  1.
         -5    1    3    3    0  502 -0.50009801278E+02 -0.25897478330E+02 -0.69042505228E+02  0.89196409882E+02  0.41800000000E+01 0.  1.
        -11    1    1    2    0    0  0.26920184982E+02  0.24249939245E+02 -0.10234035407E+03  0.10856474558E+03  0.00000000000E+00 0.  1.
         11    1    1    2    0    0 -0.37637913502E+02 -0.23887289966E+02 -0.38379136420E+02  0.58823237476E+02  0.00000000000E+00 0. -1.
</event>
<event>
 7    1  0.2499014E-009  0.7064455E+02  0.7561462E-02  0.1357915E+00
          1   -1    0    0  501    0  0.00000000000E+00  0.00000000000E+00  0.39326608797E+02  0.39326608797E+02  0.00000000000E+00 0. -1.
         -1   -1    0    0    0  501 -0.00000000000E+00 -0.00000000000E+00 -0.30705017996E+03  0.30705017996E+03  0.00000000000E+00 0.  1.
         25    2    1    2    0    0 -0.44512114203E+02  0.10123969723E+02 -0.16943948342E+03  0.21550046175E+03  0.12508751896E+03 0.  0.
          5    1    3    3  502    0 -0.27283233824E+02  0.21993910047E+02  0.84873915627E+01  0.36298968891E+02  0.41800000000E+01 0. -1.
         -5    1    3    3    0  502 -0.17228880379E+02 -0.11869940323E+02 -0.17792687498E+03  0.17920149286E+03  0.41800000000E+01 0. -1.
        -11    1    1    2    0    0  0.54554195386E+02  0.15852619694E+02 -0.52888984882E+02  0.77619008672E+02  0.00000000000E+00 0. -1.
         11    1    1    2    0    0 -0.10042081183E+02 -0.25976589418E+02 -0.45395102857E+02  0.53257318330E+02  0.00000000000E+00 0.  1.
</event>
<event>
 7    1  0.2499014E-009  0.2034338E+03  0.7561462E-02  0.1146874E+00
         -2   -1    0    0    0  501 -0.00000000000E+00  0.00000000000E+00  0.10652637253E+03  0.10652637253E+03  0.00000000000E+00 0.  1.
          2   -1    0    0  501    0  0.00000000000E+00 -0.00000000000E+00 -0.45084654344E+03  0.45084654344E+03  0.00000000000E+00 0. -1.
         25    2    1    2    0    0 -0.15338874193E+03 -0.81374242388E+02 -0.80628653181E+02  0.22869087093E+03  0.12509460922E+03 0.  0.
          5    1    3    3  502    0 -0.17080133133E+03 -0.87244327143E+02 -0.84211796658E+02  0.20950839243E+03  0.41800000000E+01 0. -1.
         -5    1    3    3    0  502  0.17412589391E+02  0.58700847545E+01  0.35831434771E+01  0.19182478503E+02  0.41800000000E+01 0. -1.
        -11    1    1    2    0    0  0.15016846558E+03  0.40977391928E+02 -0.21140036033E+03  0.26252585978E+03  0.00000000000E+00 0. -1.
         11    1    1    2    0    0  0.32202763524E+01  0.40396850460E+02 -0.52291157393E+02  0.66156185262E+02  0.00000000000E+00 0.  1.
</event>
<event>
 7    1  0.2499014E-009  0.1005611E+03  0.7561462E-02  0.1279121E+00
          1   -1    0    0  501    0  0.00000000000E+00  0.00000000000E+00  0.67948838277E+03  0.67948838277E+03  0.00000000000E+00 0. -1.
         -1   -1    0    0    0  501 -0.00000000000E+00 -0.00000000000E+00 -0.26225784821E+02  0.26225784821E+02  0.00000000000E+00 0.  1.
         25    2    1    2    0    0 -0.14174222862E+02 -0.28855110962E+02  0.50624849650E+03  0.52246340708E+03  0.12508775120E+03 0.  0.
          5    1    3    3  502    0  0.33520807576E+02 -0.43508506856E+02  0.41268562259E+03  0.41634544576E+03  0.41800000000E+01 0.  1.
         -5    1    3    3    0  502 -0.47695030438E+02  0.14653395894E+02  0.93562873912E+02  0.10611796132E+03  0.41800000000E+01 0.  1.
        -11    1    1    2    0    0  0.26774015199E+02 -0.27406573916E+02  0.18817168751E+02  0.42685524754E+02  0.00000000000E+00 0.  1.
         11    1    1    2    0    0 -0.12599792337E+02  0.56261684879E+02  0.12819693269E+03  0.14056523576E+03  0.00000000000E+00 0. -1.
</event>
<event>
 7    1  0.2499014E-009  0.1254449E+03  0.7561462E-02  0.1234376E+00
         -1   -1    0    0    0  501 -0.00000000000E+00  0.00000000000E+00  0.45692494429E+02  0.45692494429E+02  0.00000000000E+00 0.  1.
          1   -1    0    0  501    0  0.00000000000E+00 -0.00000000000E+00 -0.56854264111E+03  0.56854264111E+03  0.00000000000E+00 0. -1.
         25    2    1    2    0    0  0.38755695125E+02 -0.11187491157E+03 -0.31677845624E+03  0.36057441065E+03  0.12508923030E+03 0.  0.
          5    1    3    3  502    0  0.22264234862E+02 -0.12783831366E+02  0.22208907911E+01  0.26106076961E+02  0.41800000000E+01 0. -1.
         -5    1    3    3    0  502  0.16491460263E+02 -0.99091080202E+02 -0.31899934703E+03  0.33446833369E+03  0.41800000000E+01 0. -1.
        -11    1    1    2    0    0  0.15967891578E+01  0.52638259312E+02 -0.23776605682E+02  0.57781165243E+02  0.00000000000E+00 0.  1.
         11    1    1    2    0    0 -0.40352484283E+02  0.59236652256E+02 -0.18229508476E+03  0.19587955964E+03  0.00000000000E+00 0. -1.
</event>
<event>
 7    1  0.2499014E-009  0.1605671E+03  0.7561462E-02  0.1188058E+00
         -2   -1    0    0    0  501 -0.00000000000E+00  0.00000000000E+00  0.37487720735E+02  0.37487720735E+02  0.00000000000E+00 0.  1.
          2   -1    0    0  501    0  0.00000000000E+00 -0.00000000000E+00 -0.79704447582E+03  0.79704447582E+03  0.00000000000E+00 0. -1.
         25    2    1    2    0    0  0.11926578183E+03 -0.63778066874E+02 -0.40004602280E+03  0.44042801522E+03  0.12509215683E+03 0.  0.
          5    1    3    3  502    0  0.32392663971E+02  0.28152536454E+02 -0.40104972443E+02  0.58887445203E+02  0.41800000000E+01 0.  1.
         -5    1    3    3    0  502  0.86873117859E+02 -0.91930603328E+02 -0.35994105036E+03  0.38154057001E+03  0.41800000000E+01 0.  1.
        -11    1    1    2    0    0  0.18284928448E+01  0.23899973403E+02 -0.12403830556E+03  0.12633310477E+03  0.00000000000E+00 0. -1.
         11    1    1    2    0    0 -0.12109427468E+03  0.39878093471E+02 -0.23547242673E+03  0.26777107657E+03  0.00000000000E+00 0.  1.
</event>
<event>
 7    1  0.2499014E-009  0.2183818E+03  0.7561462E-02  0.1135095E+00
         -1   -1    0    0    0  501 -0.00000000000E+00  0.00000000000E+00  0.53343933486E+02  0.53343933486E+02  0.00000000000E+00 0.  1.
          1   -1    0    0  501    0  0.00000000000E+00 -0.00000000000E+00 -0.10127667383E+04  0.10127667383E+04  0.00000000000E+00 0. -1.
         25    2    1    2    0    0  0.12396807465E+03 -0.16030627992E+03 -0.57498696447E+03  0.62235284645E+03  0.12508744643E+03 0.  0.
          5    1    3    3  502    0  0.12176537586E+03 -0.16778773578E+03 -0.43299112313E+03  0.48008157239E+03  0.41800000000E+01 0. -1.
         -5    1    3    3    0  502  0.22026987875E+01  0.74814558616E+01 -0.14199584134E+03  0.14227127406E+03  0.41800000000E+01 0. -1.
        -11    1    1    2    0    0 -0.12120634613E+02  0.84678465751E+02 -0.12805149166E+03  0.15399524948E+03  0.00000000000E+00 0.  1.
         11    1    1    2    0    0 -0.11184744003E+03  0.75627814170E+02 -0.25638434865E+03  0.28976257583E+03  0.00000000000E+00 0. -1.
</event>
<event>
 7    1  0.2499014E-009  0.1749806E+03  0.7561462E-02  0.1172751E+00
          1   -1    0    0  501    0  0.00000000000E+00  0.00000000000E+00  0.55368134790E+03  0.55368134790E+03  0.00000000000E+00 0. -1.
         -1   -1    0    0    0  501 -0.00000000000E+00 -0.00000000000E+00 -0.60717774316E+02  0.60717774316E+02  0.00000000000E+00 0.  1.
         25    2    1    2    0    0 -0.14370977737E+03  0.17910846033E+02  0.21216122927E+03  0.28571462480E+03  0.12508861298E+03 0.  0.
          5    1    3    3  502    0 -0.14137088782E+02  0.47090761966E+02  0.22742976360E+02  0.54333346257E+02  0.41800000000E+01 0. -1.
         -5    1    3    3    0  502 -0.12957268859E+03 -0.29179915933E+02  0.18941825292E+03  0.23138127854E+03  0.41800000000E+01 0. -1.
        -11    1    1    2    0    0  0.59612430376E+02  0.34271607484E+02  0.85355398742E+02  0.10960715775E+03  0.00000000000E+00 0.  1.
         11    1    1    2    0    0  0.84097346993E+02 -0.52182453517E+02  0.19544694557E+03  0.21907733967E+03  0.00000000000E+00 0. -1.
</event>
<event>
 7    1  0.2499014E-009  0.1693942E+03  0.7561462E-02  0.1178481E+00
          1   -1    0    0  501    0  0.00000000000E+00  0.00000000000E+00  0.97964153478E+02  0.97964153478E+02  0.00000000000E+00 0. -1.
         -1   -1    0    0    0  501 -0.00000000000E+00 -0.00000000000E+00 -0.37180846364E+03  0.37180846364E+03  0.00000000000E+00 0.  1.
         25    2    1    2    0    0  0.23607794660E+02 -0.14201809508E+03 -0.21755186750E+03  0.28931362182E+03  0.12508832646E+03 0.  0.
          5    1    3    3  502    0 -0.30003463982E+02 -0.12001029783E+03 -0.10362533896E+03  0.16142602860E+03  0.41800000000E+01 0. -1.
         -5    1    3    3    0  502  0.53611258642E+02 -0.22007797255E+02 -0.11392652854E+03  0.12788759321E+03  0.41800000000E+01 0. -1.
        -11    1    1    2    0    0 -0.44386446918E+02  0.11130639666E+03 -0.72429942329E+02  0.14001916709E+03  0.00000000000E+00 0.  1.
         11    1    1    2    0    0  0.20778652258E+02  0.30711698420E+02  0.16137499672E+02  0.40439828204E+02  0.00000000000E+00 0. -1.
</event>
<event>
 7    1  0.2499014E-009  0.1298372E+03  0.7561462E-02  0.1227698E+00
         -2   -1    0    0    0  501 -0.00000000000E+00  0.00000000000E+00  0.11272087201E+03  0.11272087201E+03  0.00000000000E+00 0.  1.
          2   -1    0    0  501    0  0.00000000000E+00 -0.00000000000E+00 -0.16560958059E+03  0.16560958059E+03  0.00000000000E+00 0. -1.
         25    2    1    2    0    0  0.72175960431E+02  0.34517073911E+02 -0.52716998886E+02  0.15756842871E+03  0.12509168677E+03 0.  0.
          5    1    3    3  502    0  0.26011395749E+02  0.77845757214E+02 -0.44870203680E+02  0.93634193558E+02  0.41800000000E+01 0.  1.
         -5    1    3    3    0  502  0.46164564683E+02 -0.43328683303E+02 -0.78467952052E+01  0.63934235149E+02  0.41800000000E+01 0.  1.
        -11    1    1    2    0    0 -0.65350638277E+02  0.12496003056E+02 -0.19713708813E+02  0.69393705268E+02  0.00000000000E+00 0.  1.
         11    1    1    2    0    0 -0.68253221539E+01 -0.47013076966E+02  0.19541999123E+02  0.51368318622E+02  0.00000000000E+00 0. -1.
</event>
<event>
 7    1  0.2499014E-009  0.1059109E+03  0.7561462E-02  0.1268335E+00
         -2   -1    0    0    0  501 -0.00000000000E+00  0.00000000000E+00  0.62162688018E+02  0.62162688018E+02  0.00000000000E+00 0. -1.
          2   -1    0    0  501    0  0.00000000000E+00 -0.00000000000E+00 -0.25056843224E+03  0.25056843224E+03  0.00000000000E+00 0.  1.
         25    2    1    2    0    0 -0.10258940599E+02  0.23576164350E+02 -0.37753662226E+02  0.13317309750E+03  0.12509457822E+03 0.  0.
          5    1    3    3  502    0 -0.32926483073E+02  0.64740492893E+02 -0.67270244770E-02  0.72752712340E+02  0.41800000000E+01 0.  1.
         -5    1    3    3    0  502  0.22667542474E+02 -0.41164328544E+02 -0.37746935201E+02  0.60420385164E+02  0.41800000000E+01 0.  1.
        -11    1    1    2    0    0 -0.38376620495E+02 -0.13056382502E+01 -0.94507938179E+02  0.10201088212E+03  0.00000000000E+00 0.  1.
         11    1    1    2    0    0  0.48635561094E+02 -0.22270526100E+02 -0.56144143820E+02  0.77547140637E+02  0.00000000000E+00 0. -1.
</event>
<event>
 7    1  0.2499014E-009  0.1080583E+03  0.7561462E-02  0.1264208E+00
         -2   -1    0    0    0  501 -0.00000000000E+00  0.00000000000E+00  0.41669607713E+02  0.41669607713E+02  0.00000000000E+00 0.  1.
          2   -1    0    0  501    0  0.00000000000E+00 -0.00000000000E+00 -0.43645591170E+03  0.43645591170E+03  0.00000000000E+00 0. -1.
         25    2    1    2    0    0  0.77498273906E+02  0.17707467998E+02 -0.24870632863E+03  0.28951993294E+03  0.12508963502E+03 0.  0.
          5    1    3    3  502    0  0.30278189047E+02 -0.37684997556E+02 -0.25720348038E+02  0.54917542515E+02  0.41800000000E+01 0.  1.
         -5    1    3    3    0  502  0.47220084859E+02  0.55392465554E+02 -0.22298598059E+03  0.23460239042E+03  0.41800000000E+01 0.  1.
        -11    1    1    2    0    0 -0.75857254289E+02  0.10431455167E+01 -0.50372458767E+02  0.91064788931E+02  0.00000000000E+00 0.  1.
         11    1    1    2    0    0 -0.16410196168E+01 -0.18750613515E+02 -0.95707516597E+02  0.97540797545E+02  0.00000000000E+00 0. -1.
</event>
<event>
 7    1  0.2499014E-009  0.1884600E+03  0.7561462E-02  0.1159858E+00
         -1   -1    0    0    0  501 -0.00000000000E+00  0.00000000000E+00  0.24369961409E+03  0.24369961409E+03  0.00000000000E+00 0.  1.
          1   -1    0    0  501    0  0.00000000000E+00 -0.00000000000E+00 -0.18562579732E+03  0.18562579732E+03  0.00000000000E+00 0. -1.
         25    2    1    2    0    0 -0.15585466390E+03 -0.43070797855E+02  0.11566482364E+03  0.23488699682E+03  0.12509108665E+03 0.  0.
          5    1    3    3  502    0 -0.14459946976E+03 -0.70753845803E+02  0.60532023581E+02  0.17203694844E+03  0.41800000000E+01 0.  1.
         -5    1    3    3    0  502 -0.11255194142E+02  0.27683047948E+02  0.55132800058E+02  0.62850048378E+02  0.41800000000E+01 0.  1.
        -11    1    1    2    0    0  0.10955879559E+03  0.72017221144E+02 -0.41249728380E+02  0.13744507967E+03  0.00000000000E+00 0.  1.
         11    1    1    2    0    0  0.46295868305E+02 -0.28946423289E+02 -0.16341278491E+02  0.56993334927E+02  0.00000000000E+00 0. -1.
</event>
<event>
 7    1  0.2499014E-009  0.9644434E+02  0.7561462E-02  0.1287956E+00
         -1   -1    0    0    0  501 -0.00000000000E+00  0.00000000000E+00  0.11902495503E+04  0.11902495503E+04  0.00000000000E+00 0.  1.
          1   -1    0    0  501    0  0.00000000000E+00 -0.00000000000E+00 -0.15428760226E+02  0.15428760226E+02  0.00000000000E+00 0. -1.
         25    2    1    2    0    0  0.69409359236E+02 -0.11746466213E+02  0.81023391280E+03  0.82284989330E+03  0.12508922749E+03 0.  0.
          5    1    3    3  502    0  0.29369448448E+02 -0.19750644072E+02  0.49422009871E+02  0.60931600202E+02  0.41800000000E+01 0. -1.
         -5    1    3    3    0  502  0.40039910788E+02  0.80041778595E+01  0.76081190293E+03  0.76191829310E+03  0.41800000000E+01 0. -1.
        -11    1    1    2    0    0 -0.61683953161E+02  0.48612766147E+02  0.22824819782E+03  0.24138216777E+03  0.00000000000E+00 0.  1.
         11    1    1    2    0    0 -0.77254060749E+01 -0.36866299935E+02  0.13633867951E+03  0.14144624951E+03  0.00000000000E+00 0. -1.
</event>
<event>
 7    1  0.2499014E-009  0.1250192E+03  0.7561462E-02  0.1235039E+00
         -2   -1    0    0    0  501 -0.00000000000E+00  0.00000000000E+00  0.50817495122E+02  0.50817495122E+02  0.00000000000E+00 0.  1.
          2   -1    0    0  501    0  0.00000000000E+00 -0.00000000000E+00 -0.52322276913E+03  0.52322276913E+03  0.00000000000E+00 0. -1.
         25    2    1    2    0    0  0.25181779434E+02 -0.92971880981E+02 -0.12180486607E+03  0.19940373200E+03  0.12509008860E+03 0.  0.
          5    1    3    3  502    0  0.50889417214E+02 -0.40883490997E+02 -0.12499865731E+03  0.14107915987E+03  0.41800000000E+01 0.  1.
         -5    1    3    3    0  502 -0.25707637780E+02 -0.52088389984E+02  0.31937912359E+01  0.58324572127E+02  0.41800000000E+01 0.  1.
        -11    1    1    2    0    0 -0.28712559535E+02  0.10758790247E+03 -0.33476712708E+03  0.35280107314E+03  0.00000000000E+00 0. -1.
         11    1    1    2    0    0  0.35307801010E+01 -0.14616021490E+02 -0.15833280855E+02  0.21835459119E+02  0.00000000000E+00 0.  1.
</event>
<event>
 7    1  0.2499014E-009  0.1556266E+03  0.7561462E-02  0.1193725E+00
         -1   -1    0    0    0  501 -0.00000000000E+00  0.00000000000E+00  0.83652996320E+02  0.83652996320E+02  0.00000000000E+00 0.  1.
          1   -1    0    0  501    0  0.00000000000E+00 -0.00000000000E+00 -0.30824579107E+03  0.30824579107E+03  0.00000000000E+00 0. -1.
         25    2    1    2    0    0 -0.11125003724E+03 -0.42834292170E+02 -0.13218313351E+03  0.21755758950E+03  0.12509027377E+03 0.  0.
          5    1    3    3  502    0 -0.14057532058E+02 -0.69683971341E+02 -0.64180194853E+02  0.95864695695E+02  0.41800000000E+01 0. -1.
         -5    1    3    3    0  502 -0.97192505187E+02  0.26849679171E+02 -0.68002938653E+02  0.12169289380E+03  0.41800000000E+01 0. -1.
        -11    1    1    2    0    0  0.32006889053E+02  0.50202901626E+02 -0.11097961258E+02  0.60563495793E+02  0.00000000000E+00 0.  1.
         11    1    1    2    0    0  0.79243148191E+02 -0.73686094563E+01 -0.81311699985E+02  0.11377770210E+03  0.00000000000E+00 0. -1.
</event>
<event>
 7    1  0.2499014E-009  0.1759973E+03  0.7561462E-02  0.1171734E+00
         -1   -1    0    0    0  501 -0.00000000000E+00  0.00000000000E+00  0.23302863515E+03  0.23302863515E+03  0.00000000000E+00 0.  1.
          1   -1    0    0  501    0  0.00000000000E+00 -0.00000000000E+00 -0.21124923455E+03  0.21124923455E+03  0.00000000000E+00 0. -1.
         25    2    1    2    0    0 -0.50328774772E+02 -0.14178443637E+03 -0.10984591930E+03  0.22438760205E+03  0.12509139859E+03 0.  0.
          5    1    3    3  502    0 -0.23058704952E+02  0.17728172618E+02 -0.35969029077E+02  0.46446048607E+02  0.41800000000E+01 0.  1.
         -5    1    3    3    0  502 -0.27270069820E+02 -0.15951260899E+03 -0.73876890221E+02  0.17794155344E+03  0.41800000000E+01 0.  1.
        -11    1    1    2    0    0  0.94988703660E+01  0.10603697521E+03  0.40648931699E+02  0.11395790581E+03  0.00000000000E+00 0. -1.
         11    1    1    2    0    0  0.40829904406E+02  0.35747461160E+02  0.90976388203E+02  0.10593236183E+03  0.00000000000E+00 0.  1.
</event>
<event>
 7    1  0.2499014E-009  0.1164164E+03  0.7561462E-02  0.1249129E+00
         -2   -1    0    0    0  501 -0.00000000000E+00  0.00000000000E+00  0.17732771501E+02  0.17732771501E+02  0.00000000000E+00 0.  1.
          2   -1    0    0  501    0  0.00000000000E+00 -0.00000000000E+00 -0.12199871125E+04  0.12199871125E+04  0.00000000000E+00 0. -1.
         25    2    1    2    0    0  0.75469902571E+02 -0.25831980398E+02 -0.89141526996E+03  0.90367688914E+03  0.12509092311E+03 0.  0.
          5    1    3    3  502    0  0.35401568408E+02 -0.74512352530E+02 -0.41997163947E+03  0.42801753712E+03  0.41800000000E+01 0. -1.
         -5    1    3    3    0  502  0.40068334163E+02  0.48680372132E+02 -0.47144363049E+03  0.47565935202E+03  0.41800000000E+01 0. -1.
        -11    1    1    2    0    0 -0.27297768484E+02 -0.76854606603E+01 -0.14314468309E+02  0.31766939934E+02  0.00000000000E+00 0.  1.
         11    1    1    2    0    0 -0.48172134087E+02  0.33517441058E+02 -0.29652460271E+03  0.30227605490E+03  0.00000000000E+00 0. -1.
</event>
<event>
 7    1  0.2499014E-009  0.8739090E+02  0.7561462E-02  0.1309296E+00
         -1   -1    0    0    0  501 -0.00000000000E+00  0.00000000000E+00  0.21327501063E+02  0.21327501063E+02  0.00000000000E+00 0.  1.
          1   -1    0    0  501    0  0.00000000000E+00 -0.00000000000E+00 -0.62430271769E+03  0.62430271769E+03  0.00000000000E+00 0. -1.
         25    2    1    2    0    0 -0.46223173203E+02 -0.18589645691E+02 -0.42654881552E+03  0.44729574219E+03  0.12508969700E+03 0.  0.
          5    1    3    3  502    0 -0.52062877935E+02 -0.38621308765E+02 -0.42005335957E+03  0.42504640456E+03  0.41800000000E+01 0.  1.
         -5    1    3    3    0  502  0.58397047319E+01  0.20031663075E+02 -0.64954559539E+01  0.22249337629E+02  0.41800000000E+01 0.  1.
        -11    1    1    2    0    0 -0.19236123568E+02 -0.33075557354E+01 -0.58758246672E+02  0.61915264086E+02  0.00000000000E+00 0.  1.
         11    1    1    2    0    0  0.65459296771E+02  0.21897201426E+02 -0.11766815444E+03  0.13641921248E+03  0.00000000000E+00 0. -1.
</event>
<event>
 7    1  0.2499014E-009  0.2507630E+03  0.7561462E-02  0.1112824E+00
         -2   -1    0    0    0  501 -0.00000000000E+00  0.00000000000E+00  0.59730747927E+02  0.59730747927E+02  0.00000000000E+00 0.  1.
          2   -1    0    0  501    0  0.00000000000E+00 -0.00000000000E+00 -0.12003130133E+04  0.12003130133E+04  0.00000000000E+00 0. -1.
         25    2    1    2    0    0 -0.26526826555E+02  0.22728039807E+03 -0.78854582014E+03  0.83054765395E+03  0.12507934738E+03 0.  0.
          5    1    3    3  502    0  0.31357198816E+02  0.11028590885E+02 -0.15560795278E+03  0.15917352513E+03  0.41800000000E+01 0. -1.
         -5    1    3    3    0  502 -0.57884025371E+02  0.21625180718E+03 -0.63293786736E+03  0.67137412881E+03  0.41800000000E+01 0. -1.
        -11    1    1    2    0    0  0.57733947914E+02 -0.15431560266E+03 -0.21150868283E+03  0.26810900186E+03  0.00000000000E+00 0.  1.
         11    1    1    2    0    0 -0.31207121360E+02 -0.72964795408E+02 -0.14052776245E+03  0.16138710547E+03  0.00000000000E+00 0. -1.
</event>
<event>
 7    1  0.2499014E-009  0.2054349E+03  0.7561462E-02  0.1145233E+00
         -2   -1    0    0    0  501 -0.00000000000E+00  0.00000000000E+00  0.13431540813E+03  0.13431540813E+03  0.00000000000E+00 0.  1.
          2   -1    0    0  501    0  0.00000000000E+00 -0.00000000000E+00 -0.36815326599E+03  0.36815326599E+03  0.00000000000E+00 0. -1.
         25    2    1    2    0    0 -0.16518304078E+03  0.82903155887E+02 -0.56965479122E+02  0.23032699946E+03  0.12508833140E+03 0.  0.
          5    1    3    3  502    0 -0.17860852904E+03  0.57561654416E+02 -0.67531025359E+02  0.19947998017E+03  0.41800000000E+01 0.  1.
         -5    1    3    3    0  502  0.13425488255E+02  0.25341501471E+02  0.10565546237E+02  0.30847019289E+02  0.41800000000E+01 0.  1.
        -11    1    1    2    0    0  0.39350084890E+02  0.64248642106E+01 -0.81506116741E+02  0.90735633173E+02  0.00000000000E+00 0.  1.
         11    1    1    2    0    0  0.12583295589E+03 -0.89328020097E+02 -0.95366261992E+02  0.18140604149E+03  0.00000000000E+00 0. -1.
</event>
<event>
 7    1  0.2499014E-009  0.1079380E+03  0.7561462E-02  0.1264437E+00
          2   -1    0    0  501    0  0.00000000000E+00  0.00000000000E+00  0.76830697235E+03  0.76830697235E+03  0.00000000000E+00 0. -1.
         -2   -1    0    0    0  501 -0.00000000000E+00 -0.00000000000E+00 -0.22089028173E+02  0.22089028173E+02  0.00000000000E+00 0.  1.
         25    2    1    2    0    0 -0.17468868917E+02 -0.44554827579E+02  0.55206735962E+03  0.56808095274E+03  0.12508918928E+03 0.  0.
          5    1    3    3  502    0 -0.53503074280E+02 -0.69534551884E+02  0.31810750386E+03  0.33001134719E+03  0.41800000000E+01 0. -1.
         -5    1    3    3    0  502  0.36034205363E+02  0.24979724305E+02  0.23395985576E+03  0.23806960555E+03  0.41800000000E+01 0. -1.
        -11    1    1    2    0    0  0.44090180513E+02  0.32490576092E+02  0.18302160516E+03  0.19104054414E+03  0.00000000000E+00 0. -1.
         11    1    1    2    0    0 -0.26621311595E+02  0.12064251487E+02  0.11128979401E+02  0.31274503633E+02  0.00000000000E+00 0.  1.
</event>
<event>
 7    1  0.2499014E-009  0.1033130E+03  0.7561462E-02  0.1273479E+00
          2   -1    0    0  501    0  0.00000000000E+00  0.00000000000E+00  0.18289951036E+03  0.18289951036E+03  0.00000000000E+00 0. -1.
         -2   -1    0    0    0  501 -0.00000000000E+00 -0.00000000000E+00 -0.83612233494E+02  0.83612233494E+02  0.00000000000E+00 0.  1.
         25    2    1    2    0    0 -0.80179191564E+01 -0.60131202549E+02  0.46473564548E+02  0.14658501427E+03  0.12508927076E+03 0.  0.
          5    1    3    3  502    0  0.29661842475E+02 -0.22997023442E+01 -0.30706072517E+02  0.42958687356E+02  0.41800000000E+01 0.  1.
         -5    1    3    3    0  502 -0.37679761632E+02 -0.57831500205E+02  0.77179637064E+02  0.10362632692E+03  0.41800000000E+01 0.  1.
        -11    1    1    2    0    0 -0.41698408205E+01 -0.23019367643E+02  0.82711266437E+01  0.24813109340E+02  0.00000000000E+00 0. -1.
         11    1    1    2    0    0  0.12187759977E+02  0.83150570192E+02  0.44542585670E+02  0.95113620238E+02  0.00000000000E+00 0.  1.
</event>
<event>
 7    1  0.2499014E-009  0.1135997E+03  0.7561462E-02  0.1254045E+00
          1   -1    0    0  501    0  0.00000000000E+00  0.00000000000E+00  0.39396624007E+03  0.39396624007E+03  0.00000000000E+00 0. -1.
         -1   -1    0    0    0  501 -0.00000000000E+00 -0.00000000000E+00 -0.43195490695E+02  0.43195490695E+02  0.00000000000E+00 0.  1.
         25    2    1    2    0    0 -0.49691166548E+02  0.45779106438E+02  0.22381410619E+03  0.26514958276E+03  0.12508640410E+03 0.  0.
          5    1    3    3  502    0  0.27138818069E+02  0.22442023181E+02  0.10194811253E+02  0.36899409577E+02  0.41800000000E+01 0.  1.
         -5    1    3    3    0  502 -0.76829984617E+02  0.23337083257E+02  0.21361929493E+03  0.22825017318E+03  0.41800000000E+01 0.  1.
        -11    1    1    2    0    0  0.33244438374E+02  0.23121927147E+02  0.24102143257E+02  0.47124616788E+02  0.00000000000E+00 0.  1.
         11    1    1    2    0    0  0.16446728173E+02 -0.68901033585E+02  0.10285449993E+03  0.12488753121E+03  0.00000000000E+00 0. -1.
</event>
<event>
 7    1  0.2499014E-009  0.1463734E+03  0.7561462E-02  0.1205001E+00
          1   -1    0    0  501    0  0.00000000000E+00  0.00000000000E+00  0.30728933253E+03  0.30728933253E+03  0.00000000000E+00 0. -1.
         -1   -1    0    0    0  501 -0.00000000000E+00 -0.00000000000E+00 -0.10094267574E+03  0.10094267574E+03  0.00000000000E+00 0.  1.
         25    2    1    2    0    0 -0.71783002457E+02  0.10423070351E+03  0.17389387710E+03  0.24880333207E+03  0.12508868278E+03 0.  0.
          5    1    3    3  502    0  0.75433257748E+01  0.49425662781E+01  0.10249214184E+03  0.10297301717E+03  0.41800000000E+01 0.  1.
         -5    1    3    3    0  502 -0.79326328232E+02  0.99288137237E+02  0.71401735253E+02  0.14583031490E+03  0.41800000000E+01 0.  1.
        -11    1    1    2    0    0 -0.20894388641E+02 -0.89418429367E+01  0.57485691704E+00  0.22734610009E+02  0.00000000000E+00 0.  1.
         11    1    1    2    0    0  0.92677391098E+02 -0.95288860578E+02  0.31877922784E+02  0.13669406619E+03  0.00000000000E+00 0. -1.
</event>
<event>
 7    1  0.2499014E-009  0.7526434E+02  0.7561462E-02  0.1343054E+00
         -2   -1    0    0    0  501 -0.00000000000E+00  0.00000000000E+00  0.15375740466E+03  0.15375740466E+03  0.00000000000E+00 0.  1.
          2   -1    0    0  501    0  0.00000000000E+00 -0.00000000000E+00 -0.10194977606E+03  0.10194977606E+03  0.00000000000E+00 0. -1.
         25    2    1    2    0    0 -0.26229554719E+02 -0.28763840373E+02  0.74456890808E+02  0.15068685556E+03  0.12508937524E+03 0.  0.
          5    1    3    3  502    0 -0.37514760864E+02 -0.14428691014E+02 -0.26294132012E+02  0.48212012873E+02  0.41800000000E+01 0. -1.
         -5    1    3    3    0  502  0.11285206145E+02 -0.14335149359E+02  0.10075102282E+03  0.10247484269E+03  0.41800000000E+01 0. -1.
        -11    1    1    2    0    0  0.55137349132E+02  0.29400867003E+02 -0.37126544423E+02  0.72683688339E+02  0.00000000000E+00 0.  1.
         11    1    1    2    0    0 -0.28907794412E+02 -0.63702663010E+00  0.14477282207E+02  0.32336636820E+02  0.00000000000E+00 0. -1.
</event>
<event>
 7    1  0.2499014E-009  0.1089822E+03  0.7561462E-02  0.1262466E+00
          1   -1    0    0  501    0  0.00000000000E+00  0.00000000000E+00  0.45876659072E+03  0.45876659072E+03  0.00000000000E+00 0. -1.
         -1   -1    0    0    0  501 -0.00000000000E+00 -0.00000000000E+00 -0.27471816985E+02  0.27471816985E+02  0.00000000000E+00 0.  1.
         25    2    1    2    0    0  0.21048430077E+02 -0.20950954764E+02  0.23514057929E+03  0.26799453566E+03  0.12509196698E+03 0.  0.
          5    1    3    3  502    0  0.69986786330E+02 -0.28955406525E+02  0.11294041114E+03  0.13604989782E+03  0.41800000000E+01 0.  1.
         -5    1    3    3    0  502 -0.48938356253E+02  0.80044517601E+01  0.12220016814E+03  0.13194463784E+03  0.41800000000E+01 0.  1.
        -11    1    1    2    0    0 -0.54867844519E+02  0.54371644721E+01  0.87775863935E+02  0.10365638142E+03  0.00000000000E+00 0.  1.
         11    1    1    2    0    0  0.33819414442E+02  0.15513790292E+02  0.10837833052E+03  0.11458749063E+03  0.00000000000E+00 0. -1.
</event>
<event>
 7    1  0.2499014E-009  0.1159816E+03  0.7561462E-02  0.1249877E+00
          2   -1    0    0  501    0  0.00000000000E+00  0.00000000000E+00  0.25683403933E+02  0.25683403933E+02  0.00000000000E+00 0. -1.
         -2   -1    0    0    0  501 -0.00000000000E+00 -0.00000000000E+00 -0.67960872308E+03  0.67960872308E+03  0.00000000000E+00 0.  1.
         25    2    1    2    0    0  0.60955636885E+02 -0.41722317702E+02 -0.39748527115E+03  0.42320083090E+03  0.12509221012E+03 0.  0.
          5    1    3    3  502    0  0.71634826296E+02 -0.60270306939E+02 -0.38845454413E+03  0.39959787724E+03  0.41800000000E+01 0.  1.
         -5    1    3    3    0  502 -0.10679189411E+02  0.18547989237E+02 -0.90307270172E+01  0.23602953664E+02  0.41800000000E+01 0.  1.
        -11    1    1    2    0    0 -0.84477858548E+02  0.26959813815E+02 -0.17768338534E+03  0.19858178560E+03  0.00000000000E+00 0. -1.
         11    1    1    2    0    0  0.23522221662E+02  0.14762503887E+02 -0.78756662659E+02  0.83509510513E+02  0.00000000000E+00 0.  1.
</event>
<event>
 7    1  0.2499014E-009  0.7952181E+02  0.7561462E-02  0.1330414E+00
          1   -1    0    0  501    0  0.00000000000E+00  0.00000000000E+00  0.11293402324E+04  0.11293402324E+04  0.00000000000E+00 0. -1.
         -1   -1    0    0    0  501 -0.00000000000E+00 -0.00000000000E+00 -0.13150770356E+02  0.13150770356E+02  0.00000000000E+00 0.  1.
         25    2    1    2    0    0 -0.30478378910E+02  0.43626675648E+02  0.70466471000E+03  0.71765704974E+03  0.12508824531E+03 0.  0.
          5    1    3    3  502    0 -0.28224750766E+02  0.34882866721E+02  0.72175106637E+02  0.85089184768E+02  0.41800000000E+01 0. -1.
         -5    1    3    3    0  502 -0.22536281432E+01  0.87438089273E+01  0.63248960337E+03  0.63256786498E+03  0.41800000000E+01 0. -1.
        -11    1    1    2    0    0  0.83180916741E+01 -0.69480299284E+02  0.24154164796E+03  0.25147379652E+03  0.00000000000E+00 0.  1.
         11    1    1    2    0    0  0.22160287236E+02  0.25853623636E+02  0.16998310411E+03  0.17336015652E+03  0.00000000000E+00 0. -1.
</event>
<event>
 7    1  0.2499014E-009  0.8546507E+02  0.7561462E-02  0.1314221E+00
          2   -1    0    0  501    0  0.00000000000E+00  0.00000000000E+00  0.83181678214E+03  0.83181678214E+03  0.00000000000E+00 0. -1.
         -2   -1    0    0    0  501 -0.00000000000E+00 -0.00000000000E+00 -0.23099484179E+02  0.23099484179E+02  0.00000000000E+00 0.  1.
         25    2    1    2    0    0  0.36550633247E+02  0.56058387467E+02  0.60284848024E+03  0.61931593286E+03  0.12508973964E+03 0.  0.
          5    1    3    3  502    0 -0.11552481875E+02  0.52690368924E+02  0.52407692178E+03  0.52686224685E+03  0.41800000000E+01 0.  1.
         -5    1    3    3    0  502  0.48103115122E+02  0.33680185433E+01  0.78771558465E+02  0.92453686008E+02  0.41800000000E+01 0.  1.
        -11    1    1    2    0    0 -0.12010038785E+02 -0.31476420721E+02  0.78951354097E+01  0.34602590310E+02  0.00000000000E+00 0.  1.
         11    1    1    2    0    0 -0.24540594461E+02 -0.24581966746E+02  0.19797368231E+03  0.20099774315E+03  0.00000000000E+00 0. -1.
</event>
<event>
 7    1  0.2499014E-009  0.1292767E+03  0.7561462E-02  0.1228533E+00
          2   -1    0    0  501    0  0.00000000000E+00  0.00000000000E+00  0.12805449346E+03  0.12805449346E+03  0.00000000000E+00 0. -1.
         -2   -1    0    0    0  501 -0.00000000000E+00 -0.00000000000E+00 -0.16584277912E+03  0.16584277912E+03  0.00000000000E+00 0.  1.
         25    2    1    2    0    0  0.61730333458E+02 -0.61794120010E+02 -0.62536210361E+02  0.16488732565E+03  0.12509158731E+03 0.  0.
          5    1    3    3  502    0  0.74738152427E+02 -0.85108396997E+02 -0.20905371395E+02  0.11525509803E+03  0.41800000000E+01 0. -1.
         -5    1    3    3    0  502 -0.13007818969E+02  0.23314276987E+02 -0.41630838965E+02  0.49632227622E+02  0.41800000000E+01 0. -1.
        -11    1    1    2    0    0  0.19427303779E+02  0.14633258076E+02 -0.13306572573E+02  0.27723947188E+02  0.00000000000E+00 0.  1.
         11    1    1    2    0    0 -0.81157637237E+02  0.47160861934E+02  0.38054497272E+02  0.10128599974E+03  0.00000000000E+00 0. -1.
</event>
<event>
 7    1  0.2499014E-009  0.1329754E+03  0.7561462E-02  0.1223106E+00
         -1   -1    0    0    0  501 -0.00000000000E+00  0.00000000000E+00  0.47717938977E+02  0.47717938977E+02  0.00000000000E+00 0.  1.
          1   -1    0    0  501    0  0.00000000000E+00 -0.00000000000E+00 -0.51578484892E+03  0.51578484892E+03  0.00000000000E+00 0. -1.
         25    2    1    2    0    0  0.22526272998E+02 -0.10271101134E+03 -0.33439148726E+03  0.37218653342E+03  0.12509262201E+03 0.  0.
          5    1    3    3  502    0 -0.31106925432E+02 -0.43192483107E+02 -0.39066056759E+02  0.66157846077E+02  0.41800000000E+01 0. -1.
         -5    1    3    3    0  502  0.53633198430E+02 -0.59518528235E+02 -0.29532543050E+03  0.30602868734E+03  0.41800000000E+01 0. -1.
        -11    1    1    2    0    0  0.28198687284E+02  0.58914321622E+02 -0.90456639295E+02  0.11157269760E+03  0.00000000000E+00 0. -1.
         11    1    1    2    0    0 -0.50724960282E+02  0.43796689720E+02 -0.43218783388E+02  0.79743556878E+02  0.00000000000E+00 0.  1.
</event>
<event>
 7    1  0.2499014E-009  0.8480988E+02  0.7561462E-02  0.1315930E+00
         -1   -1    0    0    0  501 -0.00000000000E+00  0.00000000000E+00  0.30381546942E+02  0.30381546942E+02  0.00000000000E+00 0. -1.
          1   -1    0    0  501    0  0.00000000000E+00 -0.00000000000E+00 -0.43843242648E+03  0.43843242648E+03  0.00000000000E+00 0.  1.
         25    2    1    2    0    0  0.38519822888E+02 -0.98630146470E+00 -0.21467121392E+03  0.25142178304E+03  0.12507770927E+03 0.  0.
          5    1    3    3  502    0  0.31089079507E+02 -0.39493238379E+02 -0.22467359947E+02  0.55213235780E+02  0.41800000000E+01 0. -1.
         -5    1    3    3    0  502  0.74307433811E+01  0.38506936914E+02 -0.19220385397E+03  0.19620854726E+03  0.41800000000E+01 0. -1.
        -11    1    1    2    0    0 -0.17936579221E+02  0.35377533680E+02 -0.31576478691E+02  0.50698764974E+02  0.00000000000E+00 0. -1.
         11    1    1    2    0    0 -0.20583243667E+02 -0.34391232215E+02 -0.16180318694E+03  0.16669342541E+03  0.00000000000E+00 0.  1.
</event>
<event>
 7    1  0.2499014E-009  0.1404076E+03  0.7561462E-02  0.1212782E+00
         -4   -1    0    0    0  501 -0.00000000000E+00  0.00000000000E+00  0.33872698198E+03  0.33872698198E+03  0.00000000000E+00 0.  1.
          4   -1    0    0  501    0  0.00000000000E+00 -0.00000000000E+00 -0.94803636170E+02  0.94803636170E+02  0.00000000000E+00 0. -1.
         25    2    1    2    0    0  0.93728480219E+02  0.63987360119E+02  0.23354778095E+03  0.28821926024E+03  0.12508543371E+03 0.  0.
          5    1    3    3  502    0  0.72208035153E+02 -0.24051421619E+02  0.12859112833E+03  0.14948452063E+03  0.41800000000E+01 0.  1.
         -5    1    3    3    0  502  0.21520445066E+02  0.88038781737E+02  0.10495665262E+03  0.13873473961E+03  0.41800000000E+01 0.  1.
        -11    1    1    2    0    0 -0.16367711522E+02 -0.15642305745E+02 -0.36344093530E+02  0.42819117739E+02  0.00000000000E+00 0. -1.
         11    1    1    2    0    0 -0.77360768697E+02 -0.48345054373E+02  0.46719658395E+02  0.10249224018E+03  0.00000000000E+00 0.  1.
</event>
<event>
 7    1  0.2499014E-009  0.1136766E+03  0.7561462E-02  0.1253909E+00
         -2   -1    0    0    0  501 -0.00000000000E+00  0.00000000000E+00  0.17564403792E+03  0.17564403792E+03  0.00000000000E+00 0.  1.
          2   -1    0    0  501    0  0.00000000000E+00 -0.00000000000E+00 -0.86845283217E+02  0.86845283217E+02  0.00000000000E+00 0. -1.
         25    2    1    2    0    0  0.12992427928E+02 -0.56550872201E+02  0.77078043414E+02  0.15797211233E+03  0.12508940470E+03 0.  0.
          5    1    3    3  502    0  0.67253074198E+02 -0.14498734035E+02  0.42739756909E+02  0.81100853870E+02  0.41800000000E+01 0. -1.
         -5    1    3    3    0  502 -0.54260646270E+02 -0.42052138166E+02  0.34338286504E+02  0.76871258465E+02  0.41800000000E+01 0. -1.
        -11    1    1    2    0    0 -0.35615473143E+02  0.86091466156E+01  0.31114467834E+02  0.48069631175E+02  0.00000000000E+00 0.  1.
         11    1    1    2    0    0  0.22623045216E+02  0.47941725586E+02 -0.19393756546E+02  0.56447577627E+02  0.00000000000E+00 0. -1.
</event>
<event>
 7    1  0.2499014E-009  0.2432050E+03  0.7561462E-02  0.1117676E+00
         -1   -1    0    0    0  501 -0.00000000000E+00  0.00000000000E+00  0.78242591460E+03  0.78242591460E+03  0.00000000000E+00 0.  1.
          1   -1    0    0  501    0  0.00000000000E+00 -0.00000000000E+00 -0.89989096442E+02  0.89989096442E+02  0.00000000000E+00 0. -1.
         25    2    1    2    0    0 -0.22113031948E+03 -0.94020869905E+02  0.40563830295E+03  0.48778076002E+03  0.12509634229E+03 0.  0.
          5    1    3    3  502    0 -0.24960688587E+02 -0.22915266392E+02  0.16832672655E+03  0.17175419843E+03  0.41800000000E+01 0.  1.
         -5    1    3    3    0  502 -0.19616963089E+03 -0.71105603513E+02  0.23731157640E+03  0.31602656159E+03  0.41800000000E+01 0.  1.
        -11    1    1    2    0    0  0.68077579396E+02  0.95254705967E+01  0.32498956207E+02  0.76036001743E+02  0.00000000000E+00 0. -1.
         11    1    1    2    0    0  0.15305274008E+03  0.84495399309E+02  0.25429955901E+03  0.30859824928E+03  0.00000000000E+00 0.  1.
</event>
<event>
 7    1  0.2499014E-009  0.1051591E+03  0.7561462E-02  0.1269806E+00
          1   -1    0    0  501    0  0.00000000000E+00  0.00000000000E+00  0.29134533835E+03  0.29134533835E+03  0.00000000000E+00 0. -1.
         -1   -1    0    0    0  501 -0.00000000000E+00 -0.00000000000E+00 -0.46015329530E+02  0.46015329530E+02  0.00000000000E+00 0.  1.
         25    2    1    2    0    0  0.11796285493E+02 -0.35393021542E+02  0.14262782337E+03  0.19334487032E+03  0.12509086519E+03 0.  0.
          5    1    3    3  502    0  0.20941604146E+02 -0.76968879842E+02  0.58634429815E+02  0.99086971939E+02  0.41800000000E+01 0.  1.
         -5    1    3    3    0  502 -0.91453186527E+01  0.41575858299E+02  0.83993393552E+02  0.94257898380E+02  0.41800000000E+01 0.  1.
        -11    1    1    2    0    0 -0.33487665574E+01  0.60800317115E+02  0.32807197144E+02  0.69167947657E+02  0.00000000000E+00 0.  1.
         11    1    1    2    0    0 -0.84475189358E+01 -0.25407295572E+02  0.69894988314E+02  0.74847849908E+02  0.00000000000E+00 0. -1.
</event>
<event>
 7    1  0.2499014E-009  0.3893008E+03  0.7561462E-02  0.1047549E+00
         -2   -1    0    0    0  501 -0.00000000000E+00  0.00000000000E+00  0.44973379744E+03  0.44973379744E+03  0.00000000000E+00 0.  1.
          2   -1    0    0  501    0  0.00000000000E+00 -0.00000000000E+00 -0.34649617459E+03  0.34649617459E+03  0.00000000000E+00 0. -1.
         25    2    1    2    0    0 -0.37463692251E+03  0.50205018062E+02  0.21695727733E+02  0.39873735844E+03  0.12508960334E+03 0.  0.
          5    1    3    3  502    0 -0.38386706813E+03  0.47216520572E+02  0.16943314947E+02  0.38715355368E+03  0.41800000000E+01 0.  1.
         -5    1    3    3    0  502  0.92301456155E+01  0.29884974897E+01  0.47524127855E+01  0.11583804756E+02  0.41800000000E+01 0.  1.
        -11    1    1    2    0    0  0.29355911177E+03 -0.59873355714E+02  0.95922499711E+02  0.31458368804E+03  0.00000000000E+00 0.  1.
         11    1    1    2    0    0  0.81077810738E+02  0.96683376517E+01 -0.14380604594E+02  0.82908925548E+02  0.00000000000E+00 0. -1.
</event>
<event>
 7    1  0.2571456E-009  0.9317454E+02  0.7561462E-02  0.1295341E+00
          2   -1    0    0  501    0  0.00000000000E+00  0.00000000000E+00  0.14959890005E+03  0.14959890005E+03  0.00000000000E+00 0. -1.
         -2   -1    0    0    0  501 -0.00000000000E+00 -0.00000000000E+00 -0.93733955985E+02  0.93733955985E+02  0.00000000000E+00 0.  1.
         25    2    1    2    0    0 -0.10546619246E+02 -0.44069808550E+02  0.44638762279E+02  0.14033470185E+03  0.12509128764E+03 0.  0.
          5    1    3    3  502    0 -0.31767813584E+02  0.20593475416E+02  0.59407235629E+02  0.70568953901E+02  0.41800000000E+01 0.  1.
         -5    1    3    3    0  502  0.21221194337E+02 -0.64663283966E+02 -0.14768473350E+02  0.69765747953E+02  0.41800000000E+01 0.  1.
        -11    1    1    2    0    0  0.36934278518E+02  0.38014038191E+02 -0.24320446666E+02  0.58315453829E+02  0.00000000000E+00 0.  1.
         11    1    1    2    0    0 -0.26387659272E+02  0.60557703588E+01  0.35546628449E+02  0.44682700350E+02  0.00000000000E+00 0. -1.
</event>
<event>
 7    1  0.2499014E-009  0.2326300E+03  0.7561462E-02  0.1124802E+00
         -1   -1    0    0    0  501 -0.00000000000E+00  0.00000000000E+00  0.67635698683E+02  0.67635698683E+02  0.00000000000E+00 0.  1.
          1   -1    0    0  501    0  0.00000000000E+00 -0.00000000000E+00 -0.10275447522E+04  0.10275447522E+04  0.00000000000E+00 0. -1.
         25    2    1    2    0    0 -0.14743733437E+03  0.16464306993E+03 -0.68457619541E+03  0.73016328494E+03  0.12509495319E+03 0.  0.
          5    1    3    3  502    0 -0.12762761162E+03  0.10965905924E+03 -0.62227683336E+03  0.64463931486E+03  0.41800000000E+01 0. -1.
         -5    1    3    3    0  502 -0.19809722751E+02  0.54984010696E+02 -0.62299362047E+02  0.85523970085E+02  0.41800000000E+01 0. -1.
        -11    1    1    2    0    0  0.34604963799E+02 -0.10534332349E+03 -0.14710472882E+03  0.18421324753E+03  0.00000000000E+00 0. -1.
         11    1    1    2    0    0  0.11283237057E+03 -0.59299746444E+02 -0.12822812934E+03  0.18080391846E+03  0.00000000000E+00 0.  1.
</event>
<event>
 7    1  0.2499014E-009  0.1305860E+03  0.7561462E-02  0.1226589E+00
         -3   -1    0    0    0  501 -0.00000000000E+00  0.00000000000E+00  0.39525898210E+02  0.39525898210E+02  0.00000000000E+00 0.  1.
          3   -1    0    0  501    0  0.00000000000E+00 -0.00000000000E+00 -0.62645800755E+03  0.62645800755E+03  0.00000000000E+00 0. -1.
         25    2    1    2    0    0 -0.60547012779E+02  0.79178852422E+02 -0.15734851494E+03  0.22436937338E+03  0.12509128318E+03 0.  0.
          5    1    3    3  502    0 -0.98617005100E+02  0.44684049676E+02 -0.10385003509E+03  0.15008091211E+03  0.41800000000E+01 0.  1.
         -5    1    3    3    0  502  0.38069992322E+02  0.34494802745E+02 -0.53498479853E+02  0.74288461274E+02  0.41800000000E+01 0. -1.
        -11    1    1    2    0    0  0.39289901129E+02 -0.36627569151E+02 -0.25975022923E+03  0.26524603058E+03  0.00000000000E+00 0.  1.
         11    1    1    2    0    0  0.21257111650E+02 -0.42551283271E+02 -0.16983336516E+03  0.17636850180E+03  0.00000000000E+00 0. -1.
</event>
<event>
 7    1  0.2499014E-009  0.1095721E+03  0.7561462E-02  0.1261364E+00
         -3   -1    0    0    0  501 -0.00000000000E+00  0.00000000000E+00  0.65316319356E+03  0.65316319356E+03  0.00000000000E+00 0.  1.
          3   -1    0    0  501    0  0.00000000000E+00 -0.00000000000E+00 -0.21709659848E+02  0.21709659848E+02  0.00000000000E+00 0. -1.
         25    2    1    2    0    0 -0.70150557197E+01  0.41979307543E+02  0.42765363247E+03  0.44760007808E+03  0.12508687887E+03 0.  0.
          5    1    3    3  502    0 -0.24560396593E+02 -0.39735560545E+02  0.12219383764E+03  0.13088519477E+03  0.41800000000E+01 0.  1.
         -5    1    3    3    0  502  0.17545340873E+02  0.81714868088E+02  0.30545979483E+03  0.31671488332E+03  0.41800000000E+01 0.  1.
        -11    1    1    2    0    0  0.39794329001E+02 -0.38883657574E+02  0.69663289494E+02  0.89154368093E+02  0.00000000000E+00 0. -1.
         11    1    1    2    0    0 -0.32779273281E+02 -0.30956499692E+01  0.13413661174E+03  0.13811840723E+03  0.00000000000E+00 0.  1.
</event>
<event>
 7    1  0.2499014E-009  0.1136909E+03  0.7561462E-02  0.1253884E+00
          1   -1    0    0  501    0  0.00000000000E+00  0.00000000000E+00  0.12459922550E+03  0.12459922550E+03  0.00000000000E+00 0. -1.
         -1   -1    0    0    0  501 -0.00000000000E+00 -0.00000000000E+00 -0.18657365046E+03  0.18657365046E+03  0.00000000000E+00 0.  1.
         25    2    1    2    0    0  0.25898111973E+01 -0.89835146666E+02  0.22925053624E+02  0.15572286073E+03  0.12508793136E+03 0.  0.
          5    1    3    3  502    0 -0.19106972662E+02 -0.81333360776E+02 -0.36865898312E+02  0.91415309647E+02  0.41800000000E+01 0.  1.
         -5    1    3    3    0  502  0.21696783859E+02 -0.85017858896E+01  0.59790951936E+02  0.64307551085E+02  0.41800000000E+01 0.  1.
        -11    1    1    2    0    0 -0.88439812343E+01  0.10410216650E+03 -0.47171488616E+02  0.11463257134E+03  0.00000000000E+00 0. -1.
         11    1    1    2    0    0  0.62541700370E+01 -0.14267019836E+02 -0.37727989969E+02  0.40817443881E+02  0.00000000000E+00 0.  1.
</event>
<event>
 7    1  0.2499014E-009  0.8297075E+02  0.7561462E-02  0.1320826E+00
          2   -1    0    0  501    0  0.00000000000E+00  0.00000000000E+00  0.45298240855E+03  0.45298240855E+03  0.00000000000E+00 0. -1.
         -2   -1    0    0    0  501 -0.00000000000E+00 -0.00000000000E+00 -0.33292768192E+02  0.33292768192E+02  0.00000000000E+00 0.  1.
         25    2    1    2    0    0 -0.15948571524E+02 -0.38085684330E+02  0.30962071456E+03  0.33647658658E+03  0.12508649068E+03 0.  0.
          5    1    3    3  502    0 -0.15420463022E+01  0.31657808173E+02  0.18916232663E+02  0.37146883897E+02  0.41800000000E+01 0.  1.
         -5    1    3    3    0  502 -0.14406525222E+02 -0.69743492502E+02  0.29070448189E+03  0.29932970268E+03  0.41800000000E+01 0.  1.
        -11    1    1    2    0    0  0.17060059728E+02 -0.63352885490E+01 -0.10702476516E+02  0.21112188955E+02  0.00000000000E+00 0.  1.
         11    1    1    2    0    0 -0.11114882039E+01  0.44420972879E+02  0.12077140231E+03  0.12868640120E+03  0.00000000000E+00 0. -1.
</event>
<event>
 7    1  0.2499014E-009  0.2347072E+03  0.7561462E-02  0.1123370E+00
         -1   -1    0    0    0  501 -0.00000000000E+00  0.00000000000E+00  0.17137056742E+03  0.17137056742E+03  0.00000000000E+00 0. -1.
          1   -1    0    0  501    0  0.00000000000E+00 -0.00000000000E+00 -0.48601691424E+03  0.48601691424E+03  0.00000000000E+00 0.  1.
         25    2    1    2    0    0 -0.10960665659E+03 -0.20587331021E+03 -0.31231206367E+03  0.40936989092E+03  0.12508974159E+03 0.  0.
          5    1    3    3  502    0 -0.64892339615E+02 -0.14438323531E+03 -0.10892548188E+03  0.19219720961E+03  0.41800000000E+01 0. -1.
         -5    1    3    3    0  502 -0.44714316975E+02 -0.61490074899E+02 -0.20338658180E+03  0.21717268131E+03  0.41800000000E+01 0. -1.
        -11    1    1    2    0    0  0.45407412463E+02  0.57608672119E+02 -0.37925315896E+02  0.82576763050E+02  0.00000000000E+00 0.  1.
         11    1    1    2    0    0  0.64199244127E+02  0.14826463809E+03  0.35591032751E+02  0.16544082769E+03  0.00000000000E+00 0. -1.
</event>
<event>
 7    1  0.2499014E-009  0.1895398E+03  0.7561462E-02  0.1158877E+00
         -2   -1    0    0    0  501 -0.00000000000E+00  0.00000000000E+00  0.99557061281E+02  0.99557061281E+02  0.00000000000E+00 0.  1.
          2   -1    0    0  501    0  0.00000000000E+00 -0.00000000000E+00 -0.53747591674E+03  0.53747591674E+03  0.00000000000E+00 0. -1.
         25    2    1    2    0    0 -0.27844093801E+02 -0.16544637714E+03 -0.66031181819E+02  0.21944451406E+03  0.12509188826E+03 0.  0.
          5    1    3    3  502    0 -0.44160702430E+02 -0.23891516473E+02 -0.57767156639E+02  0.76651738302E+02  0.41800000000E+01 0. -1.
         -5    1    3    3    0  502  0.16316608629E+02 -0.14155486067E+03 -0.82640251804E+01  0.14279277575E+03  0.41800000000E+01 0. -1.
        -11    1    1    2    0    0  0.54776633889E+02  0.83316548486E+02 -0.15720963835E+03  0.18616389893E+03  0.00000000000E+00 0.  1.
         11    1    1    2    0    0 -0.26932540088E+02  0.82129828653E+02 -0.21467803529E+03  0.23142456505E+03  0.00000000000E+00 0. -1.
</event>
<event>
 7    1  0.2499014E-009  0.9274051E+02  0.7561462E-02  0.1296348E+00
          2   -1    0    0  501    0  0.00000000000E+00  0.00000000000E+00  0.88854222569E+02  0.88854222569E+02  0.00000000000E+00 0. -1.
         -2   -1    0    0    0  501 -0.00000000000E+00 -0.00000000000E+00 -0.21601868642E+03  0.21601868642E+03  0.00000000000E+00 0.  1.
         25    2    1    2    0    0  0.27875982329E+02  0.77885283454E+02 -0.36458134912E+02  0.15433730696E+03  0.12509045107E+03 0.  0.
          5    1    3    3  502    0  0.20936152149E+02  0.61585951651E+02  0.39508599850E+02  0.76220428821E+02  0.41800000000E+01 0. -1.
         -5    1    3    3    0  502  0.69398301798E+01  0.16299331803E+02 -0.75966734762E+02  0.78116878142E+02  0.41800000000E+01 0. -1.
        -11    1    1    2    0    0 -0.46072723483E+02 -0.44384507582E+02 -0.14905475201E+02  0.65687544888E+02  0.00000000000E+00 0. -1.
         11    1    1    2    0    0  0.18196741154E+02 -0.33500775873E+02 -0.75800853736E+02  0.84848057136E+02  0.00000000000E+00 0.  1.
</event>
<event>
 7    1  0.2499014E-009  0.1467596E+03  0.7561462E-02  0.1204512E+00
         -2   -1    0    0    0  501 -0.00000000000E+00  0.00000000000E+00  0.29908105704E+02  0.29908105704E+02  0.00000000000E+00 0.  1.
          2   -1    0    0  501    0  0.00000000000E+00 -0.00000000000E+00 -0.94300544865E+03  0.94300544865E+03  0.00000000000E+00 0. -1.
         25    2    1    2    0    0  0.46736207589E+02 -0.11281287739E+03 -0.37001609239E+03  0.40923070866E+03  0.12508735300E+03 0.  0.
          5    1    3    3  502    0 -0.22756823584E+02  0.12045294107E+02 -0.10416199759E+03  0.10737856523E+03  0.41800000000E+01 0.  1.
         -5    1    3    3    0  502  0.69493031173E+02 -0.12485817150E+03 -0.26585409480E+03  0.30185214343E+03  0.41800000000E+01 0.  1.
        -11    1    1    2    0    0 -0.25777664867E+02  0.32532393346E+02 -0.56664495977E+02  0.70240371063E+02  0.00000000000E+00 0.  1.
         11    1    1    2    0    0 -0.20958542721E+02  0.80280484042E+02 -0.48641675458E+03  0.49344247463E+03  0.00000000000E+00 0. -1.
</event>
<event>
 7    1  0.2499014E-009  0.1076947E+03  0.7561462E-02  0.1264900E+00
         -2   -1    0    0    0  501 -0.00000000000E+00  0.00000000000E+00  0.65706775433E+02  0.65706775433E+02  0.00000000000E+00 0.  1.
          2   -1    0    0  501    0  0.00000000000E+00 -0.00000000000E+00 -0.27213708066E+03  0.27213708066E+03  0.00000000000E+00 0. -1.
         25    2    1    2    0    0 -0.67226472622E+02 -0.66769745718E+01 -0.16213067156E+03  0.21563358974E+03  0.12509000660E+03 0.  0.
          5    1    3    3  502    0 -0.22177630005E+02 -0.45714719249E+02 -0.14465234907E+03  0.15337358743E+03  0.41800000000E+01 0. -1.
         -5    1    3    3    0  502 -0.45048842617E+02  0.39037744677E+02 -0.17478322487E+02  0.62260002309E+02  0.41800000000E+01 0. -1.
        -11    1    1    2    0    0  0.80902704500E+02 -0.11699257685E+02 -0.53313960700E+02  0.97593537856E+02  0.00000000000E+00 0. -1.
         11    1    1    2    0    0 -0.13676231877E+02  0.18376232256E+02  0.90143270304E+01  0.24616728501E+02  0.00000000000E+00 0.  1.
</event>
<event>
 7    1  0.2499014E-009  0.1316313E+03  0.7561462E-02  0.1225055E+00
         -1   -1    0    0    0  501 -0.00000000000E+00  0.00000000000E+00  0.33979117827E+02  0.33979117827E+02  0.00000000000E+00 0.  1.
          1   -1    0    0  501    0  0.00000000000E+00 -0.00000000000E+00 -0.92496787102E+03  0.92496787102E+03  0.00000000000E+00 0. -1.
         25    2    1    2    0    0  0.72061970169E+02  0.10627196458E+03 -0.29697458530E+03  0.34688607920E+03  0.12509752047E+03 0.  0.
          5    1    3    3  502    0  0.46712422150E+02  0.67231843847E+02 -0.51071644807E+02  0.96581346613E+02  0.41800000000E+01 0.  1.
         -5    1    3    3    0  502  0.25349548019E+02  0.39040120732E+02 -0.24590294049E+03  0.25030473259E+03  0.41800000000E+01 0.  1.
        -11    1    1    2    0    0 -0.34572092029E+02 -0.18724955769E+02 -0.78190558831E+02  0.87519237921E+02  0.00000000000E+00 0.  1.
         11    1    1    2    0    0 -0.37489878140E+02 -0.87547008809E+02 -0.51582360906E+03  0.52454167173E+03  0.00000000000E+00 0. -1.
</event>
<event>
 7    1  0.2499014E-009  0.1113319E+03  0.7561462E-02  0.1258123E+00
          2   -1    0    0  501    0  0.00000000000E+00  0.00000000000E+00  0.32599420931E+03  0.32599420931E+03  0.00000000000E+00 0. -1.
         -2   -1    0    0    0  501 -0.00000000000E+00 -0.00000000000E+00 -0.58262562072E+02  0.58262562072E+02  0.00000000000E+00 0.  1.
         25    2    1    2    0    0  0.54323194654E+02  0.37055761614E+02  0.74490419961E+02  0.15975180933E+03  0.12509068299E+03 0.  0.
          5    1    3    3  502    0  0.85645088645E+02  0.57899272397E+02  0.54115274868E+02  0.11676190443E+03  0.41800000000E+01 0.  1.
         -5    1    3    3    0  502 -0.31321893991E+02 -0.20843510783E+02  0.20375145093E+02  0.42989904891E+02  0.41800000000E+01 0.  1.
        -11    1    1    2    0    0 -0.46220153346E+02 -0.29771596312E+01  0.24953460998E+02  0.52610277233E+02  0.00000000000E+00 0.  1.
         11    1    1    2    0    0 -0.81030413090E+01 -0.34078601983E+02  0.16828776628E+03  0.17189468483E+03  0.00000000000E+00 0. -1.
</event>
<event>
 7    1  0.2499014E-009  0.1533000E+03  0.7561462E-02  0.1196476E+00
          2   -1    0    0  501    0  0.00000000000E+00  0.00000000000E+00  0.15268371794E+04  0.15268371794E+04  0.00000000000E+00 0. -1.
         -2   -1    0    0    0  501 -0.00000000000E+00 -0.00000000000E+00 -0.24855163798E+02  0.24855163798E+02  0.00000000000E+00 0.  1.
         25    2    1    2    0    0  0.51426597425E+02 -0.12109962150E+03  0.11612851814E+04  0.11753887785E+04  0.12508275201E+03 0.  0.
          5    1    3    3  502    0  0.48381568173E+02 -0.24409858910E+02  0.15118033364E+03  0.16065361194E+03  0.41800000000E+01 0. -1.
         -5    1    3    3    0  502  0.30450292518E+01 -0.96689762592E+02  0.10101048477E+04  0.10147351666E+04  0.41800000000E+01 0. -1.
        -11    1    1    2    0    0 -0.39685657612E+02  0.64921657597E+01  0.54026731462E+02  0.67349739040E+02  0.00000000000E+00 0.  1.
         11    1    1    2    0    0 -0.11740939813E+02  0.11460745574E+03  0.28667010276E+03  0.30895382567E+03  0.00000000000E+00 0. -1.
</event>
<event>
 7    1  0.2499014E-009  0.1484941E+03  0.7561462E-02  0.1202336E+00
         -1   -1    0    0    0  501 -0.00000000000E+00  0.00000000000E+00  0.21172726892E+02  0.21172726892E+02  0.00000000000E+00 0.  1.
          1   -1    0    0  501    0  0.00000000000E+00 -0.00000000000E+00 -0.11427004520E+04  0.11427004520E+04  0.00000000000E+00 0. -1.
         25    2    1    2    0    0 -0.96825537828E+02  0.64600141749E+02 -0.51748556614E+03  0.54496534549E+03  0.12509018160E+03 0.  0.
          5    1    3    3  502    0  0.28201080575E+02  0.19377862567E+02 -0.15650087479E+03  0.16025229706E+03  0.41800000000E+01 0. -1.
         -5    1    3    3    0  502 -0.12502661840E+03  0.45222279182E+02 -0.36098469134E+03  0.38471304842E+03  0.41800000000E+01 0. -1.
        -11    1    1    2    0    0  0.59182865561E+02 -0.69782315303E+02 -0.49623789056E+03  0.50460303917E+03  0.00000000000E+00 0. -1.
         11    1    1    2    0    0  0.37642672267E+02  0.51821735536E+01 -0.10780426836E+03  0.11430479419E+03  0.00000000000E+00 0.  1.
</event>
<event>
 7    1  0.3066884E-009  0.1156236E+03  0.7561462E-02  0.1250496E+00
         -2   -1    0    0    0  501 -0.00000000000E+00  0.00000000000E+00  0.21339449064E+02  0.21339449064E+02  0.00000000000E+00 0.  1.
          2   -1    0    0  501    0  0.00000000000E+00 -0.00000000000E+00 -0.67296409554E+03  0.67296409554E+03  0.00000000000E+00 0. -1.
         25    2    1    2    0    0  0.42181059091E+01  0.48667756965E+02 -0.40923921407E+03  0.43070886750E+03  0.12508817380E+03 0.  0.
          5    1    3    3  502    0  0.45994735841E+02 -0.21383469128E+02 -0.19181392031E+03  0.19845105417E+03  0.41800000000E+01 0.  1.
         -5    1    3    3    0  502 -0.41776629932E+02  0.70051226092E+02 -0.21742529376E+03  0.23225781333E+03  0.41800000000E+01 0.  1.
        -11    1    1    2    0    0  0.27280636711E+02 -0.59433456211E+02 -0.11885644717E+03  0.13565921970E+03  0.00000000000E+00 0.  1.
         11    1    1    2    0    0 -0.31498742620E+02  0.10765699246E+02 -0.12352898524E+03  0.12793545740E+03  0.00000000000E+00 0. -1.
</event>
<event>
 7    1  0.2499014E-009  0.1216329E+03  0.7561462E-02  0.1240427E+00
          2   -1    0    0  501    0  0.00000000000E+00  0.00000000000E+00  0.99744034084E+03  0.99744034084E+03  0.00000000000E+00 0. -1.
         -2   -1    0    0    0  501 -0.00000000000E+00 -0.00000000000E+00 -0.18870151662E+02  0.18870151662E+02  0.00000000000E+00 0.  1.
         25    2    1    2    0    0  0.23376883624E+02 -0.54381958613E+02  0.73528152922E+03  0.74819121159E+03  0.12508911133E+03 0.  0.
          5    1    3    3  502    0  0.47473401110E+02  0.25928122945E+02  0.30761942726E+03  0.31236705300E+03  0.41800000000E+01 0.  1.
         -5    1    3    3    0  502 -0.24096517486E+02 -0.80310081558E+02  0.42766210196E+03  0.43582415858E+03  0.41800000000E+01 0.  1.
        -11    1    1    2    0    0 -0.81365135902E+01 -0.23932201694E+02  0.10922207977E+03  0.11210894630E+03  0.00000000000E+00 0. -1.
         11    1    1    2    0    0 -0.15240370034E+02  0.78314160307E+02  0.13406658019E+03  0.15601033462E+03  0.00000000000E+00 0.  1.
</event>
<event>
 7    1  0.2499014E-009  0.9072377E+02  0.7561462E-02  0.1301108E+00
          2   -1    0    0  501    0  0.00000000000E+00  0.00000000000E+00  0.45169458549E+03  0.45169458549E+03  0.00000000000E+00 0. -1.
         -2   -1    0    0    0  501 -0.00000000000E+00 -0.00000000000E+00 -0.93949795042E+02  0.93949795042E+02  0.00000000000E+00 0.  1.
         25    2    1    2    0    0  0.57192315713E+01 -0.72565512802E+01 -0.44445850645E+02  0.13307709024E+03  0.12509480869E+03 0.  0.
          5    1    3    3  502    0 -0.14441966932E+02 -0.46256258942E+02  0.21955985201E+02  0.53364310042E+02  0.41800000000E+01 0. -1.
         -5    1    3    3    0  502  0.20161198503E+02  0.38999707661E+02 -0.66401835846E+02  0.79712780195E+02  0.41800000000E+01 0. -1.
        -11    1    1    2    0    0  0.35221599758E+02  0.25902808383E+02  0.14414978942E+03  0.15063425362E+03  0.00000000000E+00 0.  1.
         11    1    1    2    0    0 -0.40940831329E+02 -0.18646257102E+02  0.25804085167E+03  0.26193303668E+03  0.00000000000E+00 0. -1.
</event>
<event>
 7    1  0.2499014E-009  0.1041351E+03  0.7561462E-02  0.1271833E+00
         -1   -1    0    0    0  501 -0.00000000000E+00  0.00000000000E+00  0.48330853552E+02  0.48330853552E+02  0.00000000000E+00 0. -1.
          1   -1    0    0  501    0  0.00000000000E+00 -0.00000000000E+00 -0.31849892307E+03  0.31849892307E+03  0.00000000000E+00 0.  1.
         25    2    1    2    0    0 -0.54393235162E+02 -0.22859697214E+02 -0.13610057658E+03  0.19403889812E+03  0.12508611934E+03 0.  0.
          5    1    3    3  502    0  0.16222220889E+02 -0.40324678770E+02 -0.48692182179E+01  0.43936566258E+02  0.41800000000E+01 0.  1.
         -5    1    3    3    0  502 -0.70615456051E+02  0.17464981557E+02 -0.13123135836E+03  0.15010233187E+03  0.41800000000E+01 0.  1.
        -11    1    1    2    0    0  0.57445130144E+02  0.42757151445E+02 -0.52546997473E+02  0.88821753644E+02  0.00000000000E+00 0. -1.
         11    1    1    2    0    0 -0.30518949817E+01 -0.19897454231E+02 -0.81520495466E+02  0.83969124855E+02  0.00000000000E+00 0.  1.
</event>
<event>
 7    1  0.2499014E-009  0.1153688E+03  0.7561462E-02  0.1250939E+00
          2   -1    0    0  501    0  0.00000000000E+00  0.00000000000E+00  0.67687969132E+03  0.67687969132E+03  0.00000000000E+00 0.  1.
         -2   -1    0    0    0  501 -0.00000000000E+00 -0.00000000000E+00 -0.26610357931E+02  0.26610357931E+02  0.00000000000E+00 0. -1.
         25    2    1    2    0    0  0.66792638140E+02  0.42836156238E+02  0.33093339649E+03  0.36257283313E+03  0.12508378641E+03 0.  0.
          5    1    3    3  502    0  0.80988594589E+02  0.11392928751E+02  0.10100199881E+03  0.13003010206E+03  0.41800000000E+01 0. -1.
         -5    1    3    3    0  502 -0.14195956449E+02  0.31443227487E+02  0.22993139768E+03  0.23254273107E+03  0.41800000000E+01 0. -1.
        -11    1    1    2    0    0  0.15566988388E+02  0.78008201170E+01  0.20852229363E+02  0.27166144212E+02  0.00000000000E+00 0.  1.
         11    1    1    2    0    0 -0.82359626528E+02 -0.50636976355E+02  0.29848370754E+03  0.31375107190E+03  0.00000000000E+00 0. -1.
</event>
<event>
 7    1  0.2499014E-009  0.1207973E+03  0.7561462E-02  0.1241788E+00
         -1   -1    0    0    0  501 -0.00000000000E+00  0.00000000000E+00  0.18997428097E+02  0.18997428097E+02  0.00000000000E+00 0.  1.
          1   -1    0    0  501    0  0.00000000000E+00 -0.00000000000E+00 -0.11716822450E+04  0.11716822450E+04  0.00000000000E+00 0. -1.
         25    2    1    2    0    0 -0.88369415221E+02  0.25065734654E+02 -0.80622447639E+03  0.82102539334E+03  0.12508935041E+03 0.  0.
          5    1    3    3  502    0 -0.30336384265E+02 -0.27303625400E+02 -0.73866562080E+02  0.84495713287E+02  0.41800000000E+01 0. -1.
         -5    1    3    3    0  502 -0.58033030955E+02  0.52369360054E+02 -0.73235791431E+03  0.73652968006E+03  0.41800000000E+01 0. -1.
        -11    1    1    2    0    0  0.45616644483E+02  0.28472011631E+02 -0.21239975607E+03  0.21910086736E+03  0.00000000000E+00 0.  1.
         11    1    1    2    0    0  0.42752770738E+02 -0.53537746285E+02 -0.13406058449E+03  0.15055341244E+03  0.00000000000E+00 0. -1.
</event>
<event>
 7    1  0.2499014E-009  0.9828232E+02  0.7561462E-02  0.1283950E+00
          1   -1    0    0  501    0  0.00000000000E+00  0.00000000000E+00  0.13512156780E+03  0.13512156780E+03  0.00000000000E+00 0. -1.
         -1   -1    0    0    0  501 -0.00000000000E+00 -0.00000000000E+00 -0.12326503257E+03  0.12326503257E+03  0.00000000000E+00 0.  1.
         25    2    1    2    0    0 -0.68997929829E+02  0.18442035406E+01  0.18826299205E+02  0.14410370579E+03  0.12508930039E+03 0.  0.
          5    1    3    3  502    0 -0.60658133701E+01  0.21798999944E+02  0.61309164064E+02  0.65484933295E+02  0.41800000000E+01 0.  1.
         -5    1    3    3    0  502 -0.62932116458E+02 -0.19954796403E+02 -0.42482864859E+02  0.78618772491E+02  0.41800000000E+01 0.  1.
        -11    1    1    2    0    0  0.19449304788E+02 -0.40256137952E+02 -0.21976755113E+02  0.49817766558E+02  0.00000000000E+00 0.  1.
         11    1    1    2    0    0  0.49548625041E+02  0.38411934411E+02  0.15006991143E+02  0.64465128029E+02  0.00000000000E+00 0. -1.
</event>
<event>
 7    1  0.2499014E-009  0.1149153E+03  0.7561462E-02  0.1251729E+00
         -2   -1    0    0    0  501 -0.00000000000E+00  0.00000000000E+00  0.18601615821E+02  0.18601615821E+02  0.00000000000E+00 0.  1.
          2   -1    0    0  501    0  0.00000000000E+00 -0.00000000000E+00 -0.85899200509E+03  0.85899200509E+03  0.00000000000E+00 0. -1.
         25    2    1    2    0    0 -0.23848234132E+02  0.35152409250E+02 -0.64520905777E+03  0.65859484964E+03  0.12509203650E+03 0.  0.
          5    1    3    3  502    0 -0.75118342945E+02  0.18006657980E+02 -0.40777839596E+03  0.41505143993E+03  0.41800000000E+01 0.  1.
         -5    1    3    3    0  502  0.51270108814E+02  0.17145751269E+02 -0.23743066181E+03  0.24354340970E+03  0.41800000000E+01 0.  1.
        -11    1    1    2    0    0 -0.15537455042E+02 -0.52837622475E+02 -0.12509001068E+03  0.13667749496E+03  0.00000000000E+00 0. -1.
         11    1    1    2    0    0  0.39385689174E+02  0.17685213225E+02 -0.70091320828E+02  0.82321276314E+02  0.00000000000E+00 0.  1.
</event>
<event>
 7    1  0.2499014E-009  0.6666001E+02  0.7561462E-02  0.1371834E+00
          2   -1    0    0  501    0  0.00000000000E+00  0.00000000000E+00  0.59131096780E+03  0.59131096780E+03  0.00000000000E+00 0. -1.
         -2   -1    0    0    0  501 -0.00000000000E+00 -0.00000000000E+00 -0.24472226081E+02  0.24472226081E+02  0.00000000000E+00 0.  1.
         25    2    1    2    0    0  0.33631520194E+02 -0.37369652406E+02  0.29710235743E+03  0.32625878527E+03  0.12508962427E+03 0.  0.
          5    1    3    3  502    0  0.10165852216E+02 -0.91754529533E+01 -0.96669592056E+01  0.17275878804E+02  0.41800000000E+01 0.  1.
         -5    1    3    3    0  502  0.23465667979E+02 -0.28194199453E+02  0.30676931664E+03  0.30898290646E+03  0.41800000000E+01 0.  1.
        -11    1    1    2    0    0 -0.88410408037E+01  0.52367578419E+02  0.24713651434E+03  0.25277852756E+03  0.00000000000E+00 0. -1.
         11    1    1    2    0    0 -0.24790479391E+02 -0.14997926013E+02  0.22599869940E+02  0.36745881054E+02  0.00000000000E+00 0.  1.
</event>
<event>
 7    1  0.2499014E-009  0.1262711E+03  0.7561462E-02  0.1233096E+00
         -3   -1    0    0    0  501 -0.00000000000E+00  0.00000000000E+00  0.10490995148E+03  0.10490995148E+03  0.00000000000E+00 0.  1.
          3   -1    0    0  501    0  0.00000000000E+00 -0.00000000000E+00 -0.22709037836E+03  0.22709037836E+03  0.00000000000E+00 0. -1.
         25    2    1    2    0    0 -0.60886230074E+02  0.72276162928E+02 -0.12522175788E+03  0.20064599584E+03  0.12508936909E+03 0.  0.
          5    1    3    3  502    0 -0.98392723554E+02  0.49988088362E+02 -0.10495580546E+03  0.15235855908E+03  0.41800000000E+01 0. -1.
         -5    1    3    3    0  502  0.37506493480E+02  0.22288074566E+02 -0.20265952427E+02  0.48287436759E+02  0.41800000000E+01 0. -1.
        -11    1    1    2    0    0  0.22444868033E+02 -0.47504318904E+02  0.45085690463E+02  0.69232592759E+02  0.00000000000E+00 0.  1.
         11    1    1    2    0    0  0.38441362041E+02 -0.24771844024E+02 -0.42044359469E+02  0.62121741243E+02  0.00000000000E+00 0. -1.
</event>
<event>
 7    1  0.2499014E-009  0.1164457E+03  0.7561462E-02  0.1249078E+00
         -1   -1    0    0    0  501 -0.00000000000E+00  0.00000000000E+00  0.99586991367E+02  0.99586991367E+02  0.00000000000E+00 0.  1.
          1   -1    0    0  501    0  0.00000000000E+00 -0.00000000000E+00 -0.18742357114E+03  0.18742357114E+03  0.00000000000E+00 0. -1.
         25    2    1    2    0    0  0.53589281824E+02 -0.62101951383E+02 -0.44409474574E+02  0.15603901172E+03  0.12509000062E+03 0.  0.
          5    1    3    3  502    0  0.51597925247E+02 -0.97007987406E+02 -0.16668723260E+02  0.11121247343E+03  0.41800000000E+01 0. -1.
         -5    1    3    3    0  502  0.19913565771E+01  0.34906036023E+02 -0.27740751315E+02  0.44826538293E+02  0.41800000000E+01 0. -1.
        -11    1    1    2    0    0 -0.31901456284E+02  0.57190665346E+02 -0.70310268543E+02  0.96083343917E+02  0.00000000000E+00 0. -1.
         11    1    1    2    0    0 -0.21687825539E+02  0.49112860372E+01  0.26883163345E+02  0.34888206870E+02  0.00000000000E+00 0.  1.
</event>
<event>
 7    1  0.2499014E-009  0.1692158E+03  0.7561462E-02  0.1178668E+00
         -2   -1    0    0    0  501 -0.00000000000E+00  0.00000000000E+00  0.14286582443E+03  0.14286582443E+03  0.00000000000E+00 0.  1.
          2   -1    0    0  501    0  0.00000000000E+00 -0.00000000000E+00 -0.21862920224E+03  0.21862920224E+03  0.00000000000E+00 0. -1.
         25    2    1    2    0    0  0.11499314339E+03 -0.76511252217E+02 -0.63466728693E+02  0.19686387408E+03  0.12509981824E+03 0.  0.
          5    1    3    3  502    0 -0.13041251295E+02 -0.52595880839E+02 -0.68463186944E+01  0.54779059833E+02  0.41800000000E+01 0.  1.
         -5    1    3    3    0  502  0.12803439469E+03 -0.23915371378E+02 -0.56620409999E+02  0.14208481425E+03  0.41800000000E+01 0.  1.
        -11    1    1    2    0    0 -0.86293546615E+02  0.17363309847E+02  0.21642363634E+02  0.90644650255E+02  0.00000000000E+00 0. -1.
         11    1    1    2    0    0 -0.28699596778E+02  0.59147942371E+02 -0.33939012744E+02  0.73986502336E+02  0.00000000000E+00 0.  1.
</event>
<event>
 7    1  0.2499014E-009  0.7974094E+02  0.7561462E-02  0.1329788E+00
         -1   -1    0    0    0  501 -0.00000000000E+00  0.00000000000E+00  0.21030274126E+02  0.21030274126E+02  0.00000000000E+00 0.  1.
          1   -1    0    0  501    0  0.00000000000E+00 -0.00000000000E+00 -0.73047755003E+03  0.73047755003E+03  0.00000000000E+00 0. -1.
         25    2    1    2    0    0 -0.18937645313E+02 -0.18001803630E+01 -0.56688665565E+03  0.58083503427E+03  0.12508789560E+03 0.  0.
          5    1    3    3  502    0 -0.37957640424E+02  0.40895956110E+02 -0.46850514164E+03  0.47183450683E+03  0.41800000000E+01 0.  1.
         -5    1    3    3    0  502  0.19019995111E+02 -0.42696136473E+02 -0.98381514007E+02  0.10900052744E+03  0.41800000000E+01 0.  1.
        -11    1    1    2    0    0  0.31919169900E+02 -0.15083815214E+02 -0.14500000511E+03  0.14923590845E+03  0.00000000000E+00 0. -1.
         11    1    1    2    0    0 -0.12981524588E+02  0.16883995577E+02  0.24393848540E+01  0.21436881437E+02  0.00000000000E+00 0.  1.
</event>
<event>
 7    1  0.2499014E-009  0.2813917E+03  0.7561462E-02  0.1094931E+00
         -2   -1    0    0    0  501 -0.00000000000E+00  0.00000000000E+00  0.16520275386E+03  0.16520275386E+03  0.00000000000E+00 0.  1.
          2   -1    0    0  501    0  0.00000000000E+00 -0.00000000000E+00 -0.57971809785E+03  0.57971809785E+03  0.00000000000E+00 0. -1.
         25    2    1    2    0    0 -0.25699742094E+03  0.42928124592E+02 -0.60046251218E+02  0.29520059276E+03  0.12508932578E+03 0.  0.
          5    1    3    3  502    0  0.10422187340E+02 -0.86673024666E+01 -0.12067600385E+02  0.18623734858E+02  0.41800000000E+01 0. -1.
         -5    1    3    3    0  502 -0.26741960829E+03  0.51595427059E+02 -0.47978650833E+02  0.27657685790E+03  0.41800000000E+01 0. -1.
        -11    1    1    2    0    0  0.13016966587E+03  0.24685584874E+02 -0.15586803635E+03  0.20456872871E+03  0.00000000000E+00 0.  1.
         11    1    1    2    0    0  0.12682775508E+03 -0.67613709466E+02 -0.19860105642E+03  0.24515153024E+03  0.00000000000E+00 0. -1.
</event>
<event>
 7    1  0.2499014E-009  0.1068933E+03  0.7561462E-02  0.1266434E+00
         -4   -1    0    0    0  501 -0.00000000000E+00  0.00000000000E+00  0.25092447503E+02  0.25092447503E+02  0.00000000000E+00 0.  1.
          4   -1    0    0  501    0  0.00000000000E+00 -0.00000000000E+00 -0.56195685966E+03  0.56195685966E+03  0.00000000000E+00 0. -1.
         25    2    1    2    0    0 -0.98319662684E+01  0.49268644496E+02 -0.31667984826E+03  0.34417665476E+03  0.12508947397E+03 0.  0.
          5    1    3    3  502    0 -0.24067561209E+02  0.76554077804E+02 -0.29636166085E+03  0.30706266584E+03  0.41800000000E+01 0.  1.
         -5    1    3    3    0  502  0.14235594941E+02 -0.27285433308E+02 -0.20318187411E+02  0.37113988923E+02  0.41800000000E+01 0.  1.
        -11    1    1    2    0    0 -0.33719002413E+02  0.35591143208E+01 -0.78705632810E+02  0.85698395869E+02  0.00000000000E+00 0. -1.
         11    1    1    2    0    0  0.43550968682E+02 -0.52827758817E+02 -0.14147893109E+03  0.15717425654E+03  0.00000000000E+00 0.  1.
</event>
<event>
 7    1  0.2499014E-009  0.1993140E+03  0.7561462E-02  0.1150319E+00
          1   -1    0    0  501    0  0.00000000000E+00  0.00000000000E+00  0.13831976805E+04  0.13831976805E+04  0.00000000000E+00 0. -1.
         -1   -1    0    0    0  501 -0.00000000000E+00 -0.00000000000E+00 -0.36817311024E+02  0.36817311024E+02  0.00000000000E+00 0.  1.
         25    2    1    2    0    0 -0.92738462329E+02  0.16790106566E+03  0.82698145190E+03  0.85810106282E+03  0.12509165434E+03 0.  0.
          5    1    3    3  502    0 -0.10533005946E+03  0.13854060556E+03  0.49809129365E+03  0.52763655107E+03  0.41800000000E+01 0. -1.
         -5    1    3    3    0  502  0.12591597127E+02  0.29360460102E+02  0.32889015824E+03  0.33046451175E+03  0.41800000000E+01 0. -1.
        -11    1    1    2    0    0  0.32292162479E+02 -0.72782469203E+02  0.10105430260E+03  0.12865474595E+03  0.00000000000E+00 0.  1.
         11    1    1    2    0    0  0.60446299850E+02 -0.95118596460E+02  0.41834461494E+03  0.43325918272E+03  0.00000000000E+00 0. -1.
</event>
<event>
 7    1  0.2676597E-009  0.1869947E+03  0.7561462E-02  0.1161200E+00
          2   -1    0    0  501    0  0.00000000000E+00  0.00000000000E+00  0.21756849745E+03  0.21756849745E+03  0.00000000000E+00 0. -1.
         -2   -1    0    0    0  501 -0.00000000000E+00 -0.00000000000E+00 -0.18809720626E+03  0.18809720626E+03  0.00000000000E+00 0.  1.
         25    2    1    2    0    0 -0.16723914518E+03 -0.11388746764E+02 -0.15836563635E+02  0.20975468831E+03  0.12509035650E+03 0.  0.
          5    1    3    3  502    0 -0.40192366045E+02 -0.43307796952E+02  0.35433372963E+02  0.69021647942E+02  0.41800000000E+01 0. -1.
         -5    1    3    3    0  502 -0.12704677913E+03  0.31919050188E+02 -0.51269936599E+02  0.14073304037E+03  0.41800000000E+01 0. -1.
        -11    1    1    2    0    0  0.39751102899E+02 -0.29841734830E+02 -0.10434114328E+02  0.50789271123E+02  0.00000000000E+00 0.  1.
         11    1    1    2    0    0  0.12748804228E+03  0.41230481594E+02  0.55741969160E+02  0.14512174428E+03  0.00000000000E+00 0. -1.
</event>
<event>
 7    1  0.2499014E-009  0.2052139E+03  0.7561462E-02  0.1145413E+00
          2   -1    0    0  501    0  0.00000000000E+00  0.00000000000E+00  0.87522203169E+03  0.87522203169E+03  0.00000000000E+00 0. -1.
         -2   -1    0    0    0  501 -0.00000000000E+00 -0.00000000000E+00 -0.54228445967E+02  0.54228445967E+02  0.00000000000E+00 0.  1.
         25    2    1    2    0    0 -0.18193936593E+03  0.50260695181E+02  0.40709219445E+03  0.46583175632E+03  0.12508836898E+03 0.  0.
          5    1    3    3  502    0 -0.10319208146E+03  0.83488045963E+02  0.18423203640E+03  0.22710740880E+03  0.41800000000E+01 0.  1.
         -5    1    3    3    0  502 -0.78747284477E+02 -0.33227350783E+02  0.22286015805E+03  0.23872434752E+03  0.41800000000E+01 0.  1.
        -11    1    1    2    0    0  0.88076767527E+02 -0.42714535106E+02  0.11922045520E+03  0.15425811300E+03  0.00000000000E+00 0.  1.
         11    1    1    2    0    0  0.93862598406E+02 -0.75461600752E+01  0.29468093607E+03  0.30936060834E+03  0.00000000000E+00 0. -1.
</event>
<event>
 7    1  0.2499014E-009  0.1924161E+03  0.7561462E-02  0.1156300E+00
          1   -1    0    0  501    0  0.00000000000E+00  0.00000000000E+00  0.70976044306E+03  0.70976044306E+03  0.00000000000E+00 0. -1.
         -1   -1    0    0    0  501 -0.00000000000E+00 -0.00000000000E+00 -0.56233065618E+02  0.56233065618E+02  0.00000000000E+00 0.  1.
         25    2    1    2    0    0  0.55770163227E+02  0.15553891942E+03  0.40005532343E+03  0.45055256279E+03  0.12510269172E+03 0.  0.
          5    1    3    3  502    0  0.28733429500E+02  0.16983115878E+03  0.36638721955E+03  0.40487689427E+03  0.41800000000E+01 0.  1.
         -5    1    3    3    0  502  0.27036733727E+02 -0.14292239356E+02  0.33668103875E+02  0.45675668523E+02  0.41800000000E+01 0.  1.
        -11    1    1    2    0    0 -0.33286138312E+01 -0.11586407768E+03  0.19789284782E+03  0.22934067102E+03  0.00000000000E+00 0. -1.
         11    1    1    2    0    0 -0.52441549396E+02 -0.39674841741E+02  0.55579206193E+02  0.86100274862E+02  0.00000000000E+00 0.  1.
</event>
<event>
 7    1  0.2499014E-009  0.1172898E+03  0.7561462E-02  0.1247636E+00
          1   -1    0    0  501    0  0.00000000000E+00  0.00000000000E+00  0.94521705276E+03  0.94521705276E+03  0.00000000000E+00 0. -1.
         -1   -1    0    0    0  501 -0.00000000000E+00 -0.00000000000E+00 -0.19464950277E+02  0.19464950277E+02  0.00000000000E+00 0.  1.
         25    2    1    2    0    0  0.22549079488E+02 -0.44960901284E+02  0.73790420111E+03  0.75012005165E+03  0.12509012049E+03 0.  0.
          5    1    3    3  502    0 -0.64703042344E+01 -0.82793993120E+02  0.54822184291E+03  0.55449199415E+03  0.41800000000E+01 0. -1.
         -5    1    3    3    0  502  0.29019383723E+02  0.37833091836E+02  0.18968235820E+03  0.19562805750E+03  0.41800000000E+01 0. -1.
        -11    1    1    2    0    0 -0.12256418140E+02 -0.27640980017E+02  0.50280720184E+02  0.58671921599E+02  0.00000000000E+00 0.  1.
         11    1    1    2    0    0 -0.10292661348E+02  0.72601881300E+02  0.13756718119E+03  0.15589002978E+03  0.00000000000E+00 0. -1.
</event>
<event>
 7    1  0.2499014E-009  0.2066232E+03  0.7561462E-02  0.1144268E+00
          4   -1    0    0  501    0  0.00000000000E+00  0.00000000000E+00  0.17371974748E+03  0.17371974748E+03  0.00000000000E+00 0. -1.
         -4   -1    0    0    0  501 -0.00000000000E+00 -0.00000000000E+00 -0.28528589019E+03  0.28528589019E+03  0.00000000000E+00 0.  1.
         25    2    1    2    0    0  0.19308468894E+03  0.18321698209E+02 -0.66148004465E+02  0.24008519848E+03  0.12509181552E+03 0.  0.
          5    1    3    3  502    0  0.51122753845E+02  0.33681309699E+02  0.29584087687E+02  0.68122369513E+02  0.41800000000E+01 0. -1.
         -5    1    3    3    0  502  0.14196193509E+03 -0.15359611490E+02 -0.95732092153E+02  0.17196282897E+03  0.41800000000E+01 0. -1.
        -11    1    1    2    0    0 -0.84008706973E+01 -0.22794929187E+02 -0.21870131695E+02  0.32687705418E+02  0.00000000000E+00 0.  1.
         11    1    1    2    0    0 -0.18468381824E+03  0.44732309782E+01 -0.23548006541E+02  0.18623273377E+03  0.00000000000E+00 0. -1.
</event>
<event>
 7    1  0.2499014E-009  0.1999568E+03  0.7561462E-02  0.1149775E+00
         -1   -1    0    0    0  501 -0.00000000000E+00  0.00000000000E+00  0.30367178201E+03  0.30367178201E+03  0.00000000000E+00 0.  1.
          1   -1    0    0  501    0  0.00000000000E+00 -0.00000000000E+00 -0.18125972862E+03  0.18125972862E+03  0.00000000000E+00 0. -1.
         25    2    1    2    0    0  0.18345142972E+03  0.83203712353E+01  0.16444958272E+03  0.27643049407E+03  0.12508595906E+03 0.  0.
          5    1    3    3  502    0  0.10049099334E+03 -0.50988701204E+02  0.12129953066E+03  0.16561804229E+03  0.41800000000E+01 0.  1.
         -5    1    3    3    0  502  0.82960436382E+02  0.59309072439E+02  0.43150052058E+02  0.11081245179E+03  0.41800000000E+01 0.  1.
        -11    1    1    2    0    0 -0.32311003463E+02 -0.10353526735E+02 -0.46162968564E+02  0.57290628617E+02  0.00000000000E+00 0. -1.
         11    1    1    2    0    0 -0.15114042626E+03  0.20331554995E+01  0.41254392375E+01  0.15121038794E+03  0.00000000000E+00 0.  1.
</event>
<event>
 7    1  0.2499014E-009  0.7492232E+02  0.7561462E-02  0.1344112E+00
         -2   -1    0    0    0  501 -0.00000000000E+00  0.00000000000E+00  0.13739731828E+02  0.13739731828E+02  0.00000000000E+00 0. -1.
          2   -1    0    0  501    0  0.00000000000E+00 -0.00000000000E+00 -0.92650521471E+03  0.92650521471E+03  0.00000000000E+00 0.  1.
         25    2    1    2    0    0 -0.25748552617E+01 -0.16976177601E+02 -0.63147348736E+03  0.64397417569E+03  0.12509657563E+03 0.  0.
          5    1    3    3  502    0 -0.25866341530E+02 -0.29298455308E+02 -0.60538320484E+03  0.60665786421E+03  0.41800000000E+01 0.  1.
         -5    1    3    3    0  502  0.23291486268E+02  0.12322277707E+02 -0.26090282519E+02  0.37316311479E+02  0.41800000000E+01 0.  1.
        -11    1    1    2    0    0 -0.38916555473E+01  0.50028843973E+02 -0.22620496706E+03  0.23170394329E+03  0.00000000000E+00 0.  1.
         11    1    1    2    0    0  0.64665108090E+01 -0.33052666372E+02 -0.55087028467E+02  0.64566827564E+02  0.00000000000E+00 0. -1.
</event>
<event>
 7    1  0.2499014E-009  0.1234432E+03  0.7561462E-02  0.1237523E+00
          2   -1    0    0  501    0  0.00000000000E+00  0.00000000000E+00  0.56706906525E+02  0.56706906525E+02  0.00000000000E+00 0. -1.
         -2   -1    0    0    0  501 -0.00000000000E+00 -0.00000000000E+00 -0.41527696150E+03  0.41527696150E+03  0.00000000000E+00 0.  1.
         25    2    1    2    0    0  0.98640257019E+02 -0.35058083986E+02 -0.23334632184E+03  0.28470267193E+03  0.12508451516E+03 0.  0.
          5    1    3    3  502    0  0.16022939358E+01 -0.37604594210E+00  0.15071440354E+02  0.15726712013E+02  0.41800000000E+01 0. -1.
         -5    1    3    3    0  502  0.97037963083E+02 -0.34682038044E+02 -0.24841776219E+03  0.26897595992E+03  0.41800000000E+01 0. -1.
        -11    1    1    2    0    0 -0.90058920501E+02  0.63080058640E+02 -0.98829662705E+02  0.14784114850E+03  0.00000000000E+00 0. -1.
         11    1    1    2    0    0 -0.85813365187E+01 -0.28021974654E+02 -0.26394070428E+02  0.39440047588E+02  0.00000000000E+00 0.  1.
</event>
<event>
 7    1  0.2499014E-009  0.1230083E+03  0.7561462E-02  0.1238215E+00
         -1   -1    0    0    0  501 -0.00000000000E+00  0.00000000000E+00  0.17849020930E+03  0.17849020930E+03  0.00000000000E+00 0.  1.
          1   -1    0    0  501    0  0.00000000000E+00 -0.00000000000E+00 -0.89569159659E+02  0.89569159659E+02  0.00000000000E+00 0. -1.
         25    2    1    2    0    0  0.49862952690E+02  0.38718124919E+02  0.31305219900E+02  0.14357066054E+03  0.12508841084E+03 0.  0.
          5    1    3    3  502    0  0.31921491039E+02 -0.44455866249E+02  0.10644336826E+02  0.55911357885E+02  0.41800000000E+01 0.  1.
         -5    1    3    3    0  502  0.17941461651E+02  0.83173991168E+02  0.20660883074E+02  0.87659302657E+02  0.41800000000E+01 0.  1.
        -11    1    1    2    0    0 -0.51294648351E+02  0.14023520117E+02  0.46342486785E+02  0.70536700712E+02  0.00000000000E+00 0.  1.
         11    1    1    2    0    0  0.14316956600E+01 -0.52741645036E+02  0.11273342951E+02  0.53952007700E+02  0.00000000000E+00 0. -1.
</event>
<event>
 7    1  0.2499014E-009  0.1251993E+03  0.7561462E-02  0.1234758E+00
         -1   -1    0    0    0  501 -0.00000000000E+00  0.00000000000E+00  0.74438802139E+02  0.74438802139E+02  0.00000000000E+00 0.  1.
          1   -1    0    0  501    0  0.00000000000E+00 -0.00000000000E+00 -0.29170005607E+03  0.29170005607E+03  0.00000000000E+00 0. -1.
         25    2    1    2    0    0 -0.33509461438E+02  0.93787432964E+02 -0.10930011460E+03  0.19367691219E+03  0.12508103244E+03 0.  0.
          5    1    3    3  502    0 -0.72927483725E+02  0.67589140870E+02 -0.35022766026E+02  0.10550249469E+03  0.41800000000E+01 0. -1.
         -5    1    3    3    0  502  0.39418022287E+02  0.26198292094E+02 -0.74277348575E+02  0.88174417497E+02  0.41800000000E+01 0. -1.
        -11    1    1    2    0    0  0.25172313809E+02 -0.30571741139E+02  0.77431139870E+01  0.40351363707E+02  0.00000000000E+00 0.  1.
         11    1    1    2    0    0  0.83371476287E+01 -0.63215691825E+02 -0.11570425332E+03  0.13211058232E+03  0.00000000000E+00 0. -1.
</event>
<event>
 7    1  0.2499014E-009  0.1146473E+03  0.7561462E-02  0.1252198E+00
         -2   -1    0    0    0  501 -0.00000000000E+00  0.00000000000E+00  0.92175075714E+02  0.92175075714E+02  0.00000000000E+00 0.  1.
          2   -1    0    0  501    0  0.00000000000E+00 -0.00000000000E+00 -0.17798141325E+03  0.17798141325E+03  0.00000000000E+00 0. -1.
         25    2    1    2    0    0 -0.68545309970E+02  0.27453249655E+01 -0.42173593274E+02  0.14877090215E+03  0.12509265777E+03 0.  0.
          5    1    3    3  502    0  0.23109596541E+02  0.35341405323E+02  0.56285139321E+00  0.42436512394E+02  0.41800000000E+01 0. -1.
         -5    1    3    3    0  502 -0.91654906511E+02 -0.32596080358E+02 -0.42736444667E+02  0.10633438976E+03  0.41800000000E+01 0. -1.
        -11    1    1    2    0    0  0.35574950516E+02  0.27334239673E+02 -0.59057365332E+02  0.74165424307E+02  0.00000000000E+00 0. -1.
         11    1    1    2    0    0  0.32970359454E+02 -0.30079564638E+02  0.15424621074E+02  0.47220162501E+02  0.00000000000E+00 0.  1.
</event>
<event>
 7    1  0.2499014E-009  0.1094291E+03  0.7561462E-02  0.1261631E+00
         -2   -1    0    0    0  501 -0.00000000000E+00  0.00000000000E+00  0.34387525211E+02  0.34387525211E+02  0.00000000000E+00 0.  1.
          2   -1    0    0  501    0  0.00000000000E+00 -0.00000000000E+00 -0.65276374114E+03  0.65276374114E+03  0.00000000000E+00 0. -1.
         25    2    1    2    0    0 -0.57494490354E+02  0.22259359221E+02 -0.52208820813E+03  0.54039323996E+03  0.12509061207E+03 0.  0.
          5    1    3    3  502    0 -0.72813820833E+02 -0.21403515378E+02 -0.43592455590E+03  0.44250158623E+03  0.41800000000E+01 0. -1.
         -5    1    3    3    0  502  0.15319330479E+02  0.43662874599E+02 -0.86163652232E+02  0.97891653733E+02  0.41800000000E+01 0. -1.
        -11    1    1    2    0    0 -0.47565648872E+01  0.20384069942E+02  0.39423921190E+01  0.21299710621E+02  0.00000000000E+00 0.  1.
         11    1    1    2    0    0  0.62251055241E+02 -0.42643429163E+02 -0.10023039992E+03  0.12545831577E+03  0.00000000000E+00 0. -1.
</event>
<event>
 7    1  0.2499014E-009  0.9360091E+02  0.7561462E-02  0.1294359E+00
          1   -1    0    0  501    0  0.00000000000E+00  0.00000000000E+00  0.11578856088E+03  0.11578856088E+03  0.00000000000E+00 0. -1.
         -1   -1    0    0    0  501 -0.00000000000E+00 -0.00000000000E+00 -0.93448812630E+02  0.93448812630E+02  0.00000000000E+00 0.  1.
         25    2    1    2    0    0  0.44076326854E+01  0.14474153735E+01  0.11725747696E+02  0.12573394395E+03  0.12509999706E+03 0.  0.
          5    1    3    3  502    0  0.63932920377E+01  0.61939048216E+02  0.17433859122E+02  0.64797621260E+02  0.41800000000E+01 0.  1.
         -5    1    3    3    0  502 -0.19856593522E+01 -0.60491632843E+02 -0.57081114262E+01  0.60936322691E+02  0.41800000000E+01 0.  1.
        -11    1    1    2    0    0  0.86282201841E+01  0.29398125804E+02 -0.21244326995E+02  0.37282937301E+02  0.00000000000E+00 0.  1.
         11    1    1    2    0    0 -0.13035852870E+02 -0.30845541177E+02  0.31858327552E+02  0.46220492262E+02  0.00000000000E+00 0. -1.
</event>
<event>
 7    1  0.3218183E-009  0.1912405E+03  0.7561462E-02  0.1157347E+00
          1   -1    0    0  501    0  0.00000000000E+00  0.00000000000E+00  0.50760623010E+03  0.50760623010E+03  0.00000000000E+00 0. -1.
         -1   -1    0    0    0  501 -0.00000000000E+00 -0.00000000000E+00 -0.89547749358E+02  0.89547749358E+02  0.00000000000E+00 0.  1.
         25    2    1    2    0    0  0.45433382207E+01  0.17234559893E+03  0.13094036445E+03  0.25002834756E+03  0.12508056664E+03 0.  0.
          5    1    3    3  502    0  0.38951328743E+02  0.27698722402E+02  0.79096806350E+02  0.92510552956E+02  0.41800000000E+01 0.  1.
         -5    1    3    3    0  502 -0.34407990522E+02  0.14464687653E+03  0.51843558097E+02  0.15751779460E+03  0.41800000000E+01 0.  1.
        -11    1    1    2    0    0  0.31455516249E+02 -0.59359266076E+02  0.15869114424E+03  0.17232484218E+03  0.00000000000E+00 0.  1.
         11    1    1    2    0    0 -0.35998854469E+02 -0.11298633285E+03  0.12842697205E+03  0.17480078971E+03  0.00000000000E+00 0. -1.
</event>
<event>
 7    1  0.2499014E-009  0.1241905E+03  0.7561462E-02  0.1236340E+00
         -1   -1    0    0    0  501 -0.00000000000E+00  0.00000000000E+00  0.24770482630E+03  0.24770482630E+03  0.00000000000E+00 0.  1.
          1   -1    0    0  501    0  0.00000000000E+00 -0.00000000000E+00 -0.70838164099E+02  0.70838164099E+02  0.00000000000E+00 0. -1.
         25    2    1    2    0    0  0.72353700408E+02  0.21751127703E+02  0.75486330609E+02  0.16447989255E+03  0.12508908596E+03 0.  0.
          5    1    3    3  502    0 -0.21354238190E+02  0.41021612253E+02  0.74934829020E+01  0.47036165304E+02  0.41800000000E+01 0. -1.
         -5    1    3    3    0  502  0.93707938598E+02 -0.19270484550E+02  0.67992847707E+02  0.11744372725E+03  0.41800000000E+01 0. -1.
        -11    1    1    2    0    0 -0.88100411118E+02 -0.19997289341E+02  0.56709277219E+02  0.10666544025E+03  0.00000000000E+00 0. -1.
         11    1    1    2    0    0  0.15746710710E+02 -0.17538383622E+01  0.44671054376E+02  0.47397657602E+02  0.00000000000E+00 0.  1.
</event>
<event>
 7    1  0.2499014E-009  0.1295512E+03  0.7561462E-02  0.1228123E+00
         -1   -1    0    0    0  501 -0.00000000000E+00  0.00000000000E+00  0.19867045436E+02  0.19867045436E+02  0.00000000000E+00 0.  1.
          1   -1    0    0  501    0  0.00000000000E+00 -0.00000000000E+00 -0.95797717722E+03  0.95797717722E+03  0.00000000000E+00 0. -1.
         25    2    1    2    0    0  0.53262478078E+02 -0.53443332891E+02 -0.37531788981E+03  0.40274619764E+03  0.12509156605E+03 0.  0.
          5    1    3    3  502    0  0.64963470515E+02  0.18808606761E+02 -0.12851193152E+03  0.14528181280E+03  0.41800000000E+01 0. -1.
         -5    1    3    3    0  502 -0.11700992438E+02 -0.72251939652E+02 -0.24680595830E+03  0.25746438483E+03  0.41800000000E+01 0. -1.
        -11    1    1    2    0    0  0.77517168496E+01 -0.20644259803E+02 -0.89980653965E+02  0.92643362768E+02  0.00000000000E+00 0.  1.
         11    1    1    2    0    0 -0.61014194927E+02  0.74087592694E+02 -0.47281158801E+03  0.48245466225E+03  0.00000000000E+00 0. -1.
</event>
<event>
 7    1  0.2499014E-009  0.1187745E+03  0.7561462E-02  0.1245132E+00
         -2   -1    0    0    0  501 -0.00000000000E+00  0.00000000000E+00  0.30787448535E+02  0.30787448535E+02  0.00000000000E+00 0.  1.
          2   -1    0    0  501    0  0.00000000000E+00 -0.00000000000E+00 -0.58352278187E+03  0.58352278187E+03  0.00000000000E+00 0. -1.
         25    2    1    2    0    0  0.76114161654E+02 -0.16511878138E+02 -0.26569431672E+03  0.30382008528E+03  0.12508863482E+03 0.  0.
          5    1    3    3  502    0  0.24934644120E+02  0.38405667050E+02 -0.26461453857E+02  0.53051038436E+02  0.41800000000E+01 0. -1.
         -5    1    3    3    0  502  0.51179517534E+02 -0.54917545188E+02 -0.23923286286E+03  0.25076904685E+03  0.41800000000E+01 0. -1.
        -11    1    1    2    0    0 -0.20347714965E+02  0.48146397562E+02 -0.15758176802E+03  0.16602445216E+03  0.00000000000E+00 0. -1.
         11    1    1    2    0    0 -0.55766446689E+02 -0.31634519424E+02 -0.12945924861E+03  0.14446569297E+03  0.00000000000E+00 0.  1.
</event>
<event>
 7    1  0.2499014E-009  0.1026101E+03  0.7561462E-02  0.1274901E+00
          1   -1    0    0  501    0  0.00000000000E+00  0.00000000000E+00  0.14877508111E+02  0.14877508111E+02  0.00000000000E+00 0. -1.
         -1   -1    0    0    0  501 -0.00000000000E+00 -0.00000000000E+00 -0.91701845850E+03  0.91701845850E+03  0.00000000000E+00 0.  1.
         25    2    1    2    0    0  0.12359362550E+02  0.23766019614E+02 -0.60803979959E+03  0.62135019396E+03  0.12508432405E+03 0.  0.
          5    1    3    3  502    0 -0.30925099290E+02 -0.35444584909E+02 -0.34597780240E+03  0.34918589965E+03  0.41800000000E+01 0.  1.
         -5    1    3    3    0  502  0.43284461840E+02  0.59210604523E+02 -0.26206199719E+03  0.27216429431E+03  0.41800000000E+01 0.  1.
        -11    1    1    2    0    0 -0.46387613430E+02 -0.19178840242E+02 -0.24819009172E+03  0.25321524485E+03  0.00000000000E+00 0.  1.
         11    1    1    2    0    0  0.34028250879E+02 -0.45871793718E+01 -0.45911059073E+02  0.57330527799E+02  0.00000000000E+00 0. -1.
</event>
<event>
 7    1  0.2499014E-009  0.1256415E+03  0.7561462E-02  0.1234070E+00
          1   -1    0    0  501    0  0.00000000000E+00  0.00000000000E+00  0.85195647524E+03  0.85195647524E+03  0.00000000000E+00 0. -1.
         -1   -1    0    0    0  501 -0.00000000000E+00 -0.00000000000E+00 -0.34000940801E+02  0.34000940801E+02  0.00000000000E+00 0.  1.
         25    2    1    2    0    0 -0.92893223229E+02  0.27673747812E+02  0.66035744580E+03  0.67905469328E+03  0.12509329722E+03 0.  0.
          5    1    3    3  502    0 -0.32526517741E+02  0.53363961910E+02  0.12642154307E+03  0.14108708566E+03  0.41800000000E+01 0. -1.
         -5    1    3    3    0  502 -0.60366705488E+02 -0.25690214099E+02  0.53393590273E+03  0.53796760762E+03  0.41800000000E+01 0. -1.
        -11    1    1    2    0    0  0.10601637441E+03 -0.28436094477E+02  0.15950158270E+03  0.19362034499E+03  0.00000000000E+00 0. -1.
         11    1    1    2    0    0 -0.13123151180E+02  0.76234666538E+00 -0.19034940616E+01  0.13282377761E+02  0.00000000000E+00 0.  1.
</event>
<event>
 7    1  0.2499014E-009  0.1134199E+03  0.7561462E-02  0.1254365E+00
          2   -1    0    0  501    0  0.00000000000E+00  0.00000000000E+00  0.33150915377E+03  0.33150915377E+03  0.00000000000E+00 0. -1.
         -2   -1    0    0    0  501 -0.00000000000E+00 -0.00000000000E+00 -0.53327226853E+02  0.53327226853E+02  0.00000000000E+00 0.  1.
         25    2    1    2    0    0 -0.73642325943E+02  0.21689726551E+02  0.16742581620E+03  0.22264867398E+03  0.12508953468E+03 0.  0.
          5    1    3    3  502    0 -0.28612421222E+02  0.64982168635E+02  0.13393368580E+03  0.15164780737E+03  0.41800000000E+01 0. -1.
         -5    1    3    3    0  502 -0.45029904721E+02 -0.43292442084E+02  0.33492130407E+02  0.71000866614E+02  0.41800000000E+01 0. -1.
        -11    1    1    2    0    0  0.24555454980E+02  0.17619325483E+02  0.91586528793E+02  0.96444301315E+02  0.00000000000E+00 0. -1.
         11    1    1    2    0    0  0.49086870963E+02 -0.39309052034E+02  0.19169581920E+02  0.65743405325E+02  0.00000000000E+00 0.  1.
</event>
<event>
 7    1  0.2499014E-009  0.1305080E+03  0.7561462E-02  0.1226704E+00
          2   -1    0    0  501    0  0.00000000000E+00  0.00000000000E+00  0.33790379375E+03  0.33790379375E+03  0.00000000000E+00 0.  1.
         -2   -1    0    0    0  501 -0.00000000000E+00 -0.00000000000E+00 -0.57785742063E+02  0.57785742063E+02  0.00000000000E+00 0. -1.
         25    2    1    2    0    0  0.31682995571E+02  0.95360990948E+02  0.15322003592E+03  0.22186065612E+03  0.12509292755E+03 0.  0.
          5    1    3    3  502    0  0.24865113203E+02 -0.27471265779E+02  0.38513254801E+02  0.53606785890E+02  0.41800000000E+01 0. -1.
         -5    1    3    3    0  502  0.68178823677E+01  0.12283225673E+03  0.11470678112E+03  0.16825387023E+03  0.41800000000E+01 0. -1.
        -11    1    1    2    0    0 -0.21427611549E+02 -0.55972923033E+02  0.26570800692E+02  0.65560034312E+02  0.00000000000E+00 0. -1.
         11    1    1    2    0    0 -0.10255384022E+02 -0.39388067915E+02  0.10032721507E+03  0.10826884538E+03  0.00000000000E+00 0.  1.
</event>
<event>
 7    1  0.2499014E-009  0.1693298E+03  0.7561462E-02  0.1178549E+00
          1   -1    0    0  501    0  0.00000000000E+00  0.00000000000E+00  0.76284541377E+02  0.76284541377E+02  0.00000000000E+00 0.  1.
         -1   -1    0    0    0  501 -0.00000000000E+00 -0.00000000000E+00 -0.42359213118E+03  0.42359213118E+03  0.00000000000E+00 0. -1.
         25    2    1    2    0    0  0.13949907068E+03 -0.18057197588E+01 -0.14316420182E+03  0.23581325203E+03  0.12509456346E+03 0.  0.
          5    1    3    3  502    0 -0.11992938360E+02 -0.18297502721E+02  0.54340305138E+01  0.22926627836E+02  0.41800000000E+01 0.  1.
         -5    1    3    3    0  502  0.15149200904E+03  0.16491782962E+02 -0.14859823233E+03  0.21288662420E+03  0.41800000000E+01 0.  1.
        -11    1    1    2    0    0 -0.41395591401E+02 -0.39758944154E+02 -0.46892140592E+02  0.74116404911E+02  0.00000000000E+00 0.  1.
         11    1    1    2    0    0 -0.98103479284E+02  0.41564663913E+02 -0.15725124739E+03  0.18994701561E+03  0.00000000000E+00 0. -1.
</event>
<event>
 7    1  0.2499014E-009  0.9946372E+02  0.7561462E-02  0.1281428E+00
          4   -1    0    0  501    0  0.00000000000E+00  0.00000000000E+00  0.25041029912E+02  0.25041029912E+02  0.00000000000E+00 0. -1.
         -4   -1    0    0    0  501 -0.00000000000E+00 -0.00000000000E+00 -0.59270565066E+03  0.59270565066E+03  0.00000000000E+00 0.  1.
         25    2    1    2    0    0  0.25691722815E+02 -0.40538232900E+02 -0.38043754141E+03  0.40334050206E+03  0.12508966680E+03 0.  0.
          5    1    3    3  502    0 -0.38755621364E+02  0.20087350041E+02 -0.15627507187E+03  0.16231102953E+03  0.41800000000E+01 0. -1.
         -5    1    3    3    0  502  0.64447344179E+02 -0.60625582942E+02 -0.22416246954E+03  0.24102947253E+03  0.41800000000E+01 0. -1.
        -11    1    1    2    0    0 -0.31156921487E+02  0.62535484479E+01 -0.17459264008E+03  0.17746112418E+03  0.00000000000E+00 0.  1.
         11    1    1    2    0    0  0.54651986727E+01  0.34284684453E+02 -0.12634439264E+02  0.36945054338E+02  0.00000000000E+00 0. -1.
</event>
<event>
 7    1  0.2499014E-009  0.1116121E+03  0.7561462E-02  0.1257613E+00
         -1   -1    0    0    0  501 -0.00000000000E+00  0.00000000000E+00  0.22742205142E+03  0.22742205142E+03  0.00000000000E+00 0.  1.
          1   -1    0    0  501    0  0.00000000000E+00 -0.00000000000E+00 -0.11101065594E+03  0.11101065594E+03  0.00000000000E+00 0. -1.
         25    2    1    2    0    0  0.97036641854E+01 -0.58019943576E+02  0.16743042743E+03  0.21711951198E+03  0.12508980575E+03 0.  0.
          5    1    3    3  502    0 -0.57403778917E+02 -0.21962039978E+02  0.82316408842E+02  0.10281531306E+03  0.41800000000E+01 0.  1.
         -5    1    3    3    0  502  0.67107443102E+02 -0.36057903597E+02  0.85114018590E+02  0.11430419893E+03  0.41800000000E+01 0.  1.
        -11    1    1    2    0    0 -0.32662177411E+02  0.13715301845E+02  0.15073750801E+02  0.38498640251E+02  0.00000000000E+00 0.  1.
         11    1    1    2    0    0  0.22958513226E+02  0.44304641731E+02 -0.66092782751E+02  0.82814555123E+02  0.00000000000E+00 0. -1.
</event>
<event>
 7    1  0.2499014E-009  0.1368693E+03  0.7561462E-02  0.1217605E+00
          2   -1    0    0  501    0  0.00000000000E+00  0.00000000000E+00  0.46977291562E+03  0.46977291562E+03  0.00000000000E+00 0.  1.
         -2   -1    0    0    0  501 -0.00000000000E+00 -0.00000000000E+00 -0.43097336926E+02  0.43097336926E+02  0.00000000000E+00 0. -1.
         25    2    1    2    0    0 -0.84476073262E+02 -0.14382951251E+02  0.24870248710E+03  0.29128156451E+03  0.12509574930E+03 0.  0.
          5    1    3    3  502    0  0.31910072267E+02  0.21674675493E+01  0.36936931720E+02  0.49038351853E+02  0.41800000000E+01 0. -1.
         -5    1    3    3    0  502 -0.11638614553E+03 -0.16550418800E+02  0.21176555538E+03  0.24224321265E+03  0.41800000000E+01 0. -1.
        -11    1    1    2    0    0  0.88450757253E+01  0.42313454328E+02  0.10211582421E+03  0.11088870698E+03  0.00000000000E+00 0.  1.
         11    1    1    2    0    0  0.75630997536E+02 -0.27930503077E+02  0.75857267391E+02  0.11069998106E+03  0.00000000000E+00 0. -1.
</event>
<event>
 7    1  0.2499014E-009  0.1031082E+03  0.7561462E-02  0.1273892E+00
         -1   -1    0    0    0  501 -0.00000000000E+00  0.00000000000E+00  0.67615924065E+02  0.67615924065E+02  0.00000000000E+00 0.  1.
          1   -1    0    0  501    0  0.00000000000E+00 -0.00000000000E+00 -0.19912576566E+03  0.19912576566E+03  0.00000000000E+00 0. -1.
         25    2    1    2    0    0  0.30143521615E+02  0.17185578425E+02 -0.10000063387E+03  0.16386443623E+03  0.12508977051E+03 0.  0.
          5    1    3    3  502    0 -0.44541578407E+02 -0.15404999576E+02 -0.27577759233E+02  0.54765604382E+02  0.41800000000E+01 0.  1.
         -5    1    3    3    0  502  0.74685100023E+02  0.32590578001E+02 -0.72422874633E+02  0.10909883184E+03  0.41800000000E+01 0.  1.
        -11    1    1    2    0    0 -0.51593307940E+02 -0.31816322011E+01  0.11371826545E+02  0.52927409219E+02  0.00000000000E+00 0.  1.
         11    1    1    2    0    0  0.21449786325E+02 -0.14003946224E+02 -0.42881034275E+02  0.49949844281E+02  0.00000000000E+00 0. -1.
</event>
<event>
 7    1  0.2499014E-009  0.1144679E+03  0.7561462E-02  0.1252513E+00
         -2   -1    0    0    0  501 -0.00000000000E+00  0.00000000000E+00  0.28623869755E+02  0.28623869755E+02  0.00000000000E+00 0.  1.
          2   -1    0    0  501    0  0.00000000000E+00 -0.00000000000E+00 -0.70076203166E+03  0.70076203166E+03  0.00000000000E+00 0. -1.
         25    2    1    2    0    0 -0.63255497426E+02 -0.50738934217E+02 -0.26471967771E+03  0.30380869438E+03  0.12509003802E+03 0.  0.
          5    1    3    3  502    0 -0.54819010763E+02  0.14560032137E+02 -0.21159272714E+03  0.21910288235E+03  0.41800000000E+01 0. -1.
         -5    1    3    3    0  502 -0.84364866636E+01 -0.65298966354E+02 -0.53126950573E+02  0.84705812028E+02  0.41800000000E+01 0. -1.
        -11    1    1    2    0    0  0.50234159157E+02 -0.34539375987E+01 -0.30356788729E+03  0.30771555473E+03  0.00000000000E+00 0. -1.
         11    1    1    2    0    0  0.13021338269E+02  0.54192871816E+02 -0.10385059691E+03  0.11786165230E+03  0.00000000000E+00 0.  1.
</event>
<event>
 7    1  0.2499014E-009  0.9237735E+02  0.7561462E-02  0.1297195E+00
         -2   -1    0    0    0  501 -0.00000000000E+00  0.00000000000E+00  0.37982409434E+02  0.37982409434E+02  0.00000000000E+00 0.  1.
          2   -1    0    0  501    0  0.00000000000E+00 -0.00000000000E+00 -0.40190511335E+03  0.40190511335E+03  0.00000000000E+00 0. -1.
         25    2    1    2    0    0  0.55231871139E+01  0.54813557981E+02 -0.16887552707E+03  0.21725855714E+03  0.12508918928E+03 0.  0.
          5    1    3    3  502    0  0.25463735628E+02 -0.18441927857E+01 -0.15275229494E+03  0.15492752786E+03  0.41800000000E+01 0.  1.
         -5    1    3    3    0  502 -0.19940548514E+02  0.56657750767E+02 -0.16123232128E+02  0.62331029281E+02  0.41800000000E+01 0.  1.
        -11    1    1    2    0    0 -0.43783255035E+02 -0.29871954790E+02 -0.14734403613E+03  0.15658726668E+03  0.00000000000E+00 0. -1.
         11    1    1    2    0    0  0.38260067921E+02 -0.24941603191E+02 -0.47703140718E+02  0.66041698959E+02  0.00000000000E+00 0.  1.
</event>
<event>
 7    1  0.2947777E-009  0.1097071E+03  0.7561462E-02  0.1261113E+00
         -2   -1    0    0    0  501 -0.00000000000E+00  0.00000000000E+00  0.34380440317E+02  0.34380440317E+02  0.00000000000E+00 0.  1.
          2   -1    0    0  501    0  0.00000000000E+00 -0.00000000000E+00 -0.42970655635E+03  0.42970655635E+03  0.00000000000E+00 0. -1.
         25    2    1    2    0    0 -0.24542977393E+02  0.31847142540E+02 -0.15186388971E+03  0.20081529692E+03  0.12509014450E+03 0.  0.
          5    1    3    3  502    0  0.42520552093E+02  0.44212790357E+02 -0.56488407544E+02  0.83493597169E+02  0.41800000000E+01 0. -1.
         -5    1    3    3    0  502 -0.67063529486E+02 -0.12365647817E+02 -0.95375482166E+02  0.11732169975E+03  0.41800000000E+01 0. -1.
        -11    1    1    2    0    0 -0.12086216039E+02  0.21636999699E+02 -0.13219428831E+03  0.13449745810E+03  0.00000000000E+00 0. -1.
         11    1    1    2    0    0  0.36629193433E+02 -0.53484142239E+02 -0.11126793802E+03  0.12877424165E+03  0.00000000000E+00 0.  1.
</event>
<event>
 7    1  0.2499014E-009  0.9084794E+02  0.7561462E-02  0.1300811E+00
          1   -1    0    0  501    0  0.00000000000E+00  0.00000000000E+00  0.27899184232E+02  0.27899184232E+02  0.00000000000E+00 0. -1.
         -1   -1    0    0    0  501 -0.00000000000E+00 -0.00000000000E+00 -0.46038692096E+03  0.46038692096E+03  0.00000000000E+00 0.  1.
         25    2    1    2    0    0 -0.93966443612E+01 -0.27233859353E+02 -0.21352650595E+03  0.24914722972E+03  0.12510313071E+03 0.  0.
          5    1    3    3  502    0 -0.10911924708E+01 -0.63716655442E+02 -0.49348704844E+02  0.80707929918E+02  0.41800000000E+01 0.  1.
         -5    1    3    3    0  502 -0.83054518904E+01  0.36482796089E+02 -0.16417780110E+03  0.16843929980E+03  0.41800000000E+01 0.  1.
        -11    1    1    2    0    0 -0.31713564243E+02  0.22321156632E+02 -0.41043378165E+02  0.56467185883E+02  0.00000000000E+00 0. -1.
         11    1    1    2    0    0  0.41110208604E+02  0.49127027210E+01 -0.17791785262E+03  0.18267168960E+03  0.00000000000E+00 0.  1.
</event>
<event>
 7    1  0.2499014E-009  0.1228408E+03  0.7561462E-02  0.1238483E+00
         -1   -1    0    0    0  501 -0.00000000000E+00  0.00000000000E+00  0.16757665476E+03  0.16757665476E+03  0.00000000000E+00 0.  1.
          1   -1    0    0  501    0  0.00000000000E+00 -0.00000000000E+00 -0.16857183106E+03  0.16857183106E+03  0.00000000000E+00 0. -1.
         25    2    1    2    0    0 -0.54963923296E+02 -0.10687943356E+03  0.43616148221E+02  0.17886559430E+03  0.12508511605E+03 0.  0.
          5    1    3    3  502    0 -0.44970683320E+02 -0.85794711875E+02  0.86456149206E+02  0.12990470769E+03  0.41800000000E+01 0. -1.
         -5    1    3    3    0  502 -0.99932399767E+01 -0.21084721686E+02 -0.42840000985E+02  0.48960886616E+02  0.41800000000E+01 0. -1.
        -11    1    1    2    0    0  0.48492913410E+02  0.57497337840E+02  0.17939567004E+02  0.77326157114E+02  0.00000000000E+00 0.  1.
         11    1    1    2    0    0  0.64710098864E+01  0.49382095720E+02 -0.62550891523E+02  0.79956734407E+02  0.00000000000E+00 0. -1.
</event>
<event>
 7    1  0.2499014E-009  0.1552458E+03  0.7561462E-02  0.1194171E+00
          1   -1    0    0  501    0  0.00000000000E+00  0.00000000000E+00  0.65331251809E+03  0.65331251809E+03  0.00000000000E+00 0. -1.
         -1   -1    0    0    0  501 -0.00000000000E+00 -0.00000000000E+00 -0.42078890350E+02  0.42078890350E+02  0.00000000000E+00 0.  1.
         25    2    1    2    0    0 -0.60778208278E+02 -0.10777797219E+03  0.29776409228E+03  0.34586265606E+03  0.12508972906E+03 0.  0.
          5    1    3    3  502    0  0.36540758744E+02 -0.11053450895E+02  0.57433779798E+02  0.69090645446E+02  0.41800000000E+01 0. -1.
         -5    1    3    3    0  502 -0.97318967023E+02 -0.96724521299E+02  0.24033031248E+03  0.27677201062E+03  0.41800000000E+01 0. -1.
        -11    1    1    2    0    0  0.38255134389E+02  0.18045512562E+02  0.31412040678E+02  0.52685976600E+02  0.00000000000E+00 0.  1.
         11    1    1    2    0    0  0.22523073889E+02  0.89732459631E+02  0.28205749478E+03  0.29684277577E+03  0.00000000000E+00 0. -1.
</event>
<event>
 7    1  0.2499014E-009  0.6559621E+02  0.7561462E-02  0.1375743E+00
          2   -1    0    0  501    0  0.00000000000E+00  0.00000000000E+00  0.16141349670E+03  0.16141349670E+03  0.00000000000E+00 0. -1.
         -2   -1    0    0    0  501 -0.00000000000E+00 -0.00000000000E+00 -0.94187909383E+02  0.94187909383E+02  0.00000000000E+00 0.  1.
         25    2    1    2    0    0 -0.29275880485E+02 -0.18666764452E+02 -0.17042029002E+02  0.13093323367E+03  0.12509019008E+03 0.  0.
          5    1    3    3  502    0 -0.90489045257E+00 -0.20134211528E+02 -0.68762021951E+02  0.71776690948E+02  0.41800000000E+01 0. -1.
         -5    1    3    3    0  502 -0.28370990033E+02  0.14674470766E+01  0.51719992949E+02  0.59156542724E+02  0.41800000000E+01 0. -1.
        -11    1    1    2    0    0  0.72073406619E+01  0.46114826003E+02  0.18781019544E+02  0.50311525835E+02  0.00000000000E+00 0.  1.
         11    1    1    2    0    0  0.22068539823E+02 -0.27448061552E+02  0.65486596779E+02  0.74356646579E+02  0.00000000000E+00 0. -1.
</event>
<event>
 7    1  0.2499014E-009  0.1995422E+03  0.7561462E-02  0.1150126E+00
          2   -1    0    0  501    0  0.00000000000E+00  0.00000000000E+00  0.33234927030E+03  0.33234927030E+03  0.00000000000E+00 0. -1.
         -2   -1    0    0    0  501 -0.00000000000E+00 -0.00000000000E+00 -0.14504652412E+03  0.14504652412E+03  0.00000000000E+00 0.  1.
         25    2    1    2    0    0  0.18133037548E+03 -0.55173884336E+02  0.77969576141E+02  0.24011134230E+03  0.12509731937E+03 0.  0.
          5    1    3    3  502    0  0.10250432063E+03  0.14463624533E+02 -0.84073272595E+01  0.10394463783E+03  0.41800000000E+01 0.  1.
         -5    1    3    3    0  502  0.78826054854E+02 -0.69637508868E+02  0.86376903400E+02  0.13616670447E+03  0.41800000000E+01 0.  1.
        -11    1    1    2    0    0 -0.71928132286E+02  0.13724305347E+02  0.94208153708E+02  0.11931969241E+03  0.00000000000E+00 0. -1.
         11    1    1    2    0    0 -0.10940224319E+03  0.41449578989E+02  0.15125016332E+02  0.11796475971E+03  0.00000000000E+00 0.  1.
</event>
<event>
 7    1  0.2499014E-009  0.1454725E+03  0.7561462E-02  0.1206149E+00
          2   -1    0    0  501    0  0.00000000000E+00  0.00000000000E+00  0.25647538752E+04  0.25647538752E+04  0.00000000000E+00 0. -1.
         -2   -1    0    0    0  501 -0.00000000000E+00 -0.00000000000E+00 -0.12085885423E+02  0.12085885423E+02  0.00000000000E+00 0.  1.
         25    2    1    2    0    0 -0.11760177015E+03  0.28412812152E+02  0.18358999153E+04  0.18441292946E+04  0.12508753638E+03 0.  0.
          5    1    3    3  502    0 -0.20053976829E+02  0.37548898526E+02  0.11954758355E+04  0.11962407899E+04  0.41800000000E+01 0. -1.
         -5    1    3    3    0  502 -0.97547793323E+02 -0.91360863739E+01  0.64042407984E+03  0.64788850468E+03  0.41800000000E+01 0. -1.
        -11    1    1    2    0    0  0.35945389215E+02  0.32322581021E+02  0.17986528378E+03  0.18624806189E+03  0.00000000000E+00 0.  1.
         11    1    1    2    0    0  0.81656380937E+02 -0.60735393173E+02  0.53690279072E+03  0.54646240421E+03  0.00000000000E+00 0. -1.
</event>
<event>
 7    1  0.2499014E-009  0.1210469E+03  0.7561462E-02  0.1241380E+00
         -2   -1    0    0    0  501 -0.00000000000E+00  0.00000000000E+00  0.19385656776E+02  0.19385656776E+02  0.00000000000E+00 0.  1.
          2   -1    0    0  501    0  0.00000000000E+00 -0.00000000000E+00 -0.92451558206E+03  0.92451558206E+03  0.00000000000E+00 0. -1.
         25    2    1    2    0    0  0.67589870456E+02 -0.23213871018E+02 -0.64061850820E+03  0.65661775858E+03  0.12509010131E+03 0.  0.
          5    1    3    3  502    0  0.13734917704E+02  0.50227934919E+02 -0.26433491547E+03  0.26944742223E+03  0.41800000000E+01 0.  1.
         -5    1    3    3    0  502  0.53854952752E+02 -0.73441805936E+02 -0.37628359273E+03  0.38717033635E+03  0.41800000000E+01 0.  1.
        -11    1    1    2    0    0 -0.11896316610E+01  0.31721354368E+02 -0.31014015277E+02  0.44379372348E+02  0.00000000000E+00 0.  1.
         11    1    1    2    0    0 -0.66400238795E+02 -0.85074833501E+01 -0.23349740181E+03  0.24290410791E+03  0.00000000000E+00 0. -1.
</event>
<event>
 7    1  0.3562201E-009  0.8773830E+02  0.7561462E-02  0.1308423E+00
         -2   -1    0    0    0  501 -0.00000000000E+00  0.00000000000E+00  0.74185243862E+02  0.74185243862E+02  0.00000000000E+00 0.  1.
          2   -1    0    0  501    0  0.00000000000E+00 -0.00000000000E+00 -0.18255340265E+03  0.18255340265E+03  0.00000000000E+00 0. -1.
         25    2    1    2    0    0 -0.26769401257E+02  0.20187256205E+02 -0.34284895398E+02  0.13396624870E+03  0.12508947031E+03 0.  0.
          5    1    3    3  502    0 -0.60026170684E+02 -0.31237254831E+02 -0.22722014269E+02  0.71502934127E+02  0.41800000000E+01 0. -1.
         -5    1    3    3    0  502  0.33256769427E+02  0.51424511035E+02 -0.11562881128E+02  0.62463314577E+02  0.41800000000E+01 0. -1.
        -11    1    1    2    0    0  0.13098395400E+02 -0.27740506760E+02  0.13709297016E+02  0.33601316969E+02  0.00000000000E+00 0.  1.
         11    1    1    2    0    0  0.13671005857E+02  0.75532505550E+01 -0.87792560408E+02  0.89171080840E+02  0.00000000000E+00 0. -1.
</event>
<event>
 7    1  0.2499014E-009  0.9429150E+02  0.7561462E-02  0.1292780E+00
         -2   -1    0    0    0  501 -0.00000000000E+00  0.00000000000E+00  0.49644132117E+03  0.49644132117E+03  0.00000000000E+00 0.  1.
          2   -1    0    0  501    0  0.00000000000E+00 -0.00000000000E+00 -0.13531200267E+03  0.13531200267E+03  0.00000000000E+00 0. -1.
         25    2    1    2    0    0  0.86015680951E+02 -0.25130768778E+02  0.44969525079E+03  0.47529600084E+03  0.12510082702E+03 0.  0.
          5    1    3    3  502    0  0.11026104093E+02 -0.15170500841E+02 -0.49446751954E-01  0.19214419383E+02  0.41800000000E+01 0. -1.
         -5    1    3    3    0  502  0.74989576858E+02 -0.99602679373E+01  0.44974469755E+03  0.45608158146E+03  0.41800000000E+01 0. -1.
        -11    1    1    2    0    0 -0.39093003482E+02  0.25511588089E+02  0.95954506981E+01  0.47656864376E+02  0.00000000000E+00 0.  1.
         11    1    1    2    0    0 -0.46922677469E+02 -0.38081931015E+00 -0.98161382996E+02  0.10880045862E+03  0.00000000000E+00 0. -1.
</event>
<event>
 7    1  0.3211349E-009  0.8615755E+02  0.7561462E-02  0.1312433E+00
          1   -1    0    0  501    0  0.00000000000E+00  0.00000000000E+00  0.21767901284E+03  0.21767901284E+03  0.00000000000E+00 0. -1.
         -1   -1    0    0    0  501 -0.00000000000E+00 -0.00000000000E+00 -0.74177766910E+02  0.74177766910E+02  0.00000000000E+00 0.  1.
         25    2    1    2    0    0 -0.32623354827E+02  0.42399570957E+02  0.12423085494E+03  0.18423421611E+03  0.12508770592E+03 0.  0.
          5    1    3    3  502    0  0.24503935906E+02 -0.18169826367E+02  0.88193424413E+02  0.93413799702E+02  0.41800000000E+01 0.  1.
         -5    1    3    3    0  502 -0.57127290733E+02  0.60569397324E+02  0.36037430524E+02  0.90820416413E+02  0.41800000000E+01 0.  1.
        -11    1    1    2    0    0  0.14220902409E+02 -0.35949203453E+02 -0.33631469079E+02  0.51241145641E+02  0.00000000000E+00 0.  1.
         11    1    1    2    0    0  0.18402452417E+02 -0.64503675036E+01  0.52901860076E+02  0.56381417997E+02  0.00000000000E+00 0. -1.
</event>
<event>
 7    1  0.2499014E-009  0.6629248E+02  0.7561462E-02  0.1373175E+00
          2   -1    0    0  501    0  0.00000000000E+00  0.00000000000E+00  0.21800912617E+03  0.21800912617E+03  0.00000000000E+00 0.  1.
         -2   -1    0    0    0  501 -0.00000000000E+00 -0.00000000000E+00 -0.59321483028E+02  0.59321483028E+02  0.00000000000E+00 0. -1.
         25    2    1    2    0    0 -0.24199496582E+02  0.17427507301E+02  0.67514399006E+02  0.14523786893E+03  0.12508601382E+03 0.  0.
          5    1    3    3  502    0 -0.32851566191E+02 -0.77678184608E+01  0.98472877846E+02  0.10418226565E+03  0.41800000000E+01 0.  1.
         -5    1    3    3    0  502  0.86520696090E+01  0.25195325762E+02 -0.30958478840E+02  0.41055603282E+02  0.41800000000E+01 0.  1.
        -11    1    1    2    0    0  0.20838115532E+02  0.23000783497E+02 -0.13507271374E+01  0.31065858498E+02  0.00000000000E+00 0. -1.
         11    1    1    2    0    0  0.33613810498E+01 -0.40428290799E+02  0.92523971274E+02  0.10102688177E+03  0.00000000000E+00 0.  1.
</event>
<event>
 7    1  0.2499014E-009  0.2187211E+03  0.7561462E-02  0.1134840E+00
         -1   -1    0    0    0  501 -0.00000000000E+00  0.00000000000E+00  0.10540818672E+03  0.10540818672E+03  0.00000000000E+00 0.  1.
          1   -1    0    0  501    0  0.00000000000E+00 -0.00000000000E+00 -0.59264254925E+03  0.59264254925E+03  0.00000000000E+00 0. -1.
         25    2    1    2    0    0  0.52739556835E+02  0.18270019754E+03 -0.82575834491E+02  0.24212969635E+03  0.12508876199E+03 0.  0.
          5    1    3    3  502    0 -0.40805117551E+02  0.43257883137E+02 -0.23509557809E+02  0.64081774166E+02  0.41800000000E+01 0. -1.
         -5    1    3    3    0  502  0.93544674387E+02  0.13944231441E+03 -0.59066276682E+02  0.17804792218E+03  0.41800000000E+01 0. -1.
        -11    1    1    2    0    0 -0.63861815127E+02 -0.63201621234E+02 -0.16413556068E+03  0.18711830118E+03  0.00000000000E+00 0.  1.
         11    1    1    2    0    0  0.11122258292E+02 -0.11949857631E+03 -0.24052296736E+03  0.26880273844E+03  0.00000000000E+00 0. -1.
</event>
<event>
 7    1  0.2499014E-009  0.1065101E+03  0.7561462E-02  0.1267173E+00
          1   -1    0    0  501    0  0.00000000000E+00  0.00000000000E+00  0.72011469864E+03  0.72011469864E+03  0.00000000000E+00 0. -1.
         -1   -1    0    0    0  501 -0.00000000000E+00 -0.00000000000E+00 -0.18388341216E+02  0.18388341216E+02  0.00000000000E+00 0.  1.
         25    2    1    2    0    0 -0.10238004088E+02 -0.23764820745E+02  0.51428282962E+03  0.52991027107E+03  0.12509389718E+03 0.  0.
          5    1    3    3  502    0 -0.38061285278E+02 -0.66300728381E+02  0.32230034157E+03  0.33126942297E+03  0.41800000000E+01 0. -1.
         -5    1    3    3    0  502  0.27823281191E+02  0.42535907636E+02  0.19198248805E+03  0.19864084810E+03  0.41800000000E+01 0. -1.
        -11    1    1    2    0    0  0.44436847268E+02  0.25465995291E+02  0.73275386263E+02  0.89400405722E+02  0.00000000000E+00 0.  1.
         11    1    1    2    0    0 -0.34198843181E+02 -0.17011745461E+01  0.11416814154E+03  0.11919236306E+03  0.00000000000E+00 0. -1.
</event>
<event>
 7    1  0.2499014E-009  0.2213646E+03  0.7561462E-02  0.1132870E+00
          1   -1    0    0  501    0  0.00000000000E+00  0.00000000000E+00  0.12623396576E+04  0.12623396576E+04  0.00000000000E+00 0. -1.
         -1   -1    0    0    0  501 -0.00000000000E+00 -0.00000000000E+00 -0.41413914567E+02  0.41413914567E+02  0.00000000000E+00 0.  1.
         25    2    1    2    0    0  0.11073594841E+03 -0.16432057815E+03  0.53419822307E+03  0.58333441666E+03  0.12509035716E+03 0.  0.
          5    1    3    3  502    0  0.10826604472E+03 -0.62615477972E+02  0.22061865921E+03  0.25363812748E+03  0.41800000000E+01 0.  1.
         -5    1    3    3    0  502  0.24699036890E+01 -0.10170510017E+03  0.31357956386E+03  0.32969628918E+03  0.41800000000E+01 0.  1.
        -11    1    1    2    0    0 -0.12520006385E+03  0.14383606032E+03  0.57081852092E+03  0.60182859026E+03  0.00000000000E+00 0.  1.
         11    1    1    2    0    0  0.14464115442E+02  0.20484517831E+02  0.11590899904E+03  0.11859056524E+03  0.00000000000E+00 0. -1.
</event>
<event>
 7    1  0.2499014E-009  0.1168047E+03  0.7561462E-02  0.1248463E+00
         -2   -1    0    0    0  501 -0.00000000000E+00  0.00000000000E+00  0.15419267335E+02  0.15419267335E+02  0.00000000000E+00 0. -1.
          2   -1    0    0  501    0  0.00000000000E+00 -0.00000000000E+00 -0.94934812251E+03  0.94934812251E+03  0.00000000000E+00 0.  1.
         25    2    1    2    0    0  0.18867566234E+02  0.50131541642E+02 -0.54298423842E+03  0.55977485664E+03  0.12508737120E+03 0.  0.
          5    1    3    3  502    0 -0.37690475482E+02 -0.15695743997E+02 -0.27529349047E+03  0.27833595998E+03  0.41800000000E+01 0.  1.
         -5    1    3    3    0  502  0.56558041716E+02  0.65827285639E+02 -0.26769074795E+03  0.28143889666E+03  0.41800000000E+01 0.  1.
        -11    1    1    2    0    0 -0.49905863997E+01 -0.76085502556E+02 -0.28816380584E+03  0.29808101021E+03  0.00000000000E+00 0.  1.
         11    1    1    2    0    0 -0.13876979835E+02  0.25953960914E+02 -0.10278081092E+03  0.10691152300E+03  0.00000000000E+00 0. -1.
</event>
<event>
 7    1  0.2499014E-009  0.7845307E+02  0.7561462E-02  0.1333500E+00
          2   -1    0    0  501    0  0.00000000000E+00  0.00000000000E+00  0.70982762167E+03  0.70982762167E+03  0.00000000000E+00 0. -1.
         -2   -1    0    0    0  501 -0.00000000000E+00 -0.00000000000E+00 -0.18494240759E+02  0.18494240759E+02  0.00000000000E+00 0.  1.
         25    2    1    2    0    0 -0.16474918723E+02  0.81247486317E+01  0.49272480733E+03  0.50868660699E+03  0.12508754486E+03 0.  0.
          5    1    3    3  502    0 -0.44154089557E+02  0.14224851786E+02  0.46950241116E+03  0.47180707553E+03  0.41800000000E+01 0. -1.
         -5    1    3    3    0  502  0.27679170834E+02 -0.61001031539E+01  0.23222396173E+02  0.36879531458E+02  0.41800000000E+01 0. -1.
        -11    1    1    2    0    0  0.42596605825E+02 -0.26112557326E+02  0.16905679446E+03  0.17628538292E+03  0.00000000000E+00 0. -1.
         11    1    1    2    0    0 -0.26121687102E+02  0.17987808695E+02  0.29551779113E+02  0.43349872519E+02  0.00000000000E+00 0.  1.
</event>
<event>
 7    1  0.2499014E-009  0.1153983E+03  0.7561462E-02  0.1250887E+00
          1   -1    0    0  501    0  0.00000000000E+00  0.00000000000E+00  0.32566003449E+03  0.32566003449E+03  0.00000000000E+00 0. -1.
         -1   -1    0    0    0  501 -0.00000000000E+00 -0.00000000000E+00 -0.46255070761E+02  0.46255070761E+02  0.00000000000E+00 0.  1.
         25    2    1    2    0    0 -0.55664830285E+02  0.62059044519E+01  0.15216788451E+03  0.20479473146E+03  0.12509488549E+03 0.  0.
          5    1    3    3  502    0 -0.70422018885E+02  0.46019205563E+02  0.13432444546E+03  0.15854827994E+03  0.41800000000E+01 0. -1.
         -5    1    3    3    0  502  0.14757188600E+02 -0.39813301111E+02  0.17843439051E+02  0.46246451517E+02  0.41800000000E+01 0. -1.
        -11    1    1    2    0    0 -0.60264396006E+01  0.31186558073E+02  0.62876623603E+02  0.70444227403E+02  0.00000000000E+00 0. -1.
         11    1    1    2    0    0  0.61691269886E+02 -0.37392462525E+02  0.64360455621E+02  0.96676146394E+02  0.00000000000E+00 0.  1.
</event>
<event>
 7    1  0.2499014E-009  0.1115633E+03  0.7561462E-02  0.1257702E+00
         -1   -1    0    0    0  501 -0.00000000000E+00  0.00000000000E+00  0.25899561586E+02  0.25899561586E+02  0.00000000000E+00 0.  1.
          1   -1    0    0  501    0  0.00000000000E+00 -0.00000000000E+00 -0.95322431757E+03  0.95322431757E+03  0.00000000000E+00 0. -1.
         25    2    1    2    0    0 -0.88773069165E+02  0.12466521530E+02 -0.70608338873E+03  0.72265921941E+03  0.12508606475E+03 0.  0.
          5    1    3    3  502    0 -0.70313911822E+02  0.22181438785E+02 -0.16064356460E+03  0.17680466529E+03  0.41800000000E+01 0. -1.
         -5    1    3    3    0  502 -0.18459157344E+02 -0.97149172553E+01 -0.54543982413E+03  0.54585455412E+03  0.41800000000E+01 0. -1.
        -11    1    1    2    0    0  0.28501081887E+02  0.39304278900E+02 -0.64446047237E+02  0.80687241947E+02  0.00000000000E+00 0.  1.
         11    1    1    2    0    0  0.60271987278E+02 -0.51770800430E+02 -0.15679532002E+03  0.17577741780E+03  0.00000000000E+00 0. -1.
</event>
<event>
 7    1  0.2499014E-009  0.1376484E+03  0.7561462E-02  0.1216529E+00
         -1   -1    0    0    0  501 -0.00000000000E+00  0.00000000000E+00  0.32838309103E+02  0.32838309103E+02  0.00000000000E+00 0.  1.
          1   -1    0    0  501    0  0.00000000000E+00 -0.00000000000E+00 -0.78966076272E+03  0.78966076272E+03  0.00000000000E+00 0. -1.
         25    2    1    2    0    0 -0.79103130277E+02 -0.37713456594E+02 -0.61140170601E+03  0.63018992440E+03  0.12509070579E+03 0.  0.
          5    1    3    3  502    0  0.32005376361E+02 -0.18587861980E+02 -0.10614154840E+03  0.11248712560E+03  0.41800000000E+01 0.  1.
         -5    1    3    3    0  502 -0.11110850664E+03 -0.19125594614E+02 -0.50526015761E+03  0.51770279880E+03  0.41800000000E+01 0.  1.
        -11    1    1    2    0    0 -0.13473936792E+02 -0.13799027518E+02 -0.29737591324E+02  0.35444103471E+02  0.00000000000E+00 0.  1.
         11    1    1    2    0    0  0.92577067069E+02  0.51512484112E+02 -0.11568315628E+03  0.15686504395E+03  0.00000000000E+00 0. -1.
</event>
<event>
 7    1  0.2499014E-009  0.3591692E+03  0.7561462E-02  0.1058913E+00
         -1   -1    0    0    0  501 -0.00000000000E+00  0.00000000000E+00  0.62995895991E+03  0.62995895991E+03  0.00000000000E+00 0.  1.
          1   -1    0    0  501    0  0.00000000000E+00 -0.00000000000E+00 -0.30557755513E+03  0.30557755513E+03  0.00000000000E+00 0. -1.
         25    2    1    2    0    0 -0.23524608940E+03  0.26177612242E+03 -0.90032056985E+02  0.38421678724E+03  0.12509719208E+03 0.  0.
          5    1    3    3  502    0 -0.22540100088E+03  0.21683522936E+03 -0.38734469758E+02  0.31518400885E+03  0.41800000000E+01 0. -1.
         -5    1    3    3    0  502 -0.98450885208E+01  0.44940893055E+02 -0.51297587227E+02  0.69032778388E+02  0.41800000000E+01 0. -1.
        -11    1    1    2    0    0  0.10773396049E+03 -0.17361715107E+03  0.27668870399E+03  0.34395662562E+03  0.00000000000E+00 0.  1.
         11    1    1    2    0    0  0.12751212890E+03 -0.88158971343E+02  0.13772475777E+03  0.20736310219E+03  0.00000000000E+00 0. -1.
</event>
<event>
 7    1  0.2499014E-009  0.1410994E+03  0.7561462E-02  0.1211857E+00
         -1   -1    0    0    0  501 -0.00000000000E+00  0.00000000000E+00  0.52903016352E+03  0.52903016352E+03  0.00000000000E+00 0.  1.
          1   -1    0    0  501    0  0.00000000000E+00 -0.00000000000E+00 -0.40634893611E+02  0.40634893611E+02  0.00000000000E+00 0. -1.
         25    2    1    2    0    0  0.94764179521E+02 -0.16720237261E+02  0.30050154702E+03  0.33942336820E+03  0.12508887667E+03 0.  0.
          5    1    3    3  502    0 -0.16082886739E+02 -0.41022005902E+02  0.85233429525E+02  0.96039961072E+02  0.41800000000E+01 0.  1.
         -5    1    3    3    0  502  0.11084706626E+03  0.24301768641E+02  0.21526811749E+03  0.24338340713E+03  0.41800000000E+01 0.  1.
        -11    1    1    2    0    0 -0.91558263683E+02  0.40694503380E+02  0.11052495981E+03  0.14918017628E+03  0.00000000000E+00 0.  1.
         11    1    1    2    0    0 -0.32059158381E+01 -0.23974266119E+02  0.77368763078E+02  0.81061512646E+02  0.00000000000E+00 0. -1.
</event>
<event>
 7    1  0.2499014E-009  0.1218563E+03  0.7561462E-02  0.1240066E+00
          1   -1    0    0  501    0  0.00000000000E+00  0.00000000000E+00  0.41380889003E+03  0.41380889003E+03  0.00000000000E+00 0. -1.
         -1   -1    0    0    0  501 -0.00000000000E+00 -0.00000000000E+00 -0.38799238979E+02  0.38799238979E+02  0.00000000000E+00 0.  1.
         25    2    1    2    0    0 -0.62804381132E+02 -0.43399978431E+01  0.23587269981E+03  0.27431165955E+03  0.12509088768E+03 0.  0.
          5    1    3    3  502    0 -0.90865971530E+01 -0.59698030656E+02  0.79722563559E+02  0.10009785538E+03  0.41800000000E+01 0.  1.
         -5    1    3    3    0  502 -0.53717783979E+02  0.55358032813E+02  0.15615013625E+03  0.17421380417E+03  0.41800000000E+01 0.  1.
        -11    1    1    2    0    0  0.57425333372E+02  0.39926722878E+02  0.11617673514E+03  0.13560547887E+03  0.00000000000E+00 0. -1.
         11    1    1    2    0    0  0.53790477601E+01 -0.35586725035E+02  0.22960216105E+02  0.42690990585E+02  0.00000000000E+00 0.  1.
</event>
<event>
 7    1  0.2499014E-009  0.9447902E+02  0.7561462E-02  0.1292354E+00
          3   -1    0    0  501    0  0.00000000000E+00  0.00000000000E+00  0.56660087329E+03  0.56660087329E+03  0.00000000000E+00 0. -1.
         -3   -1    0    0    0  501 -0.00000000000E+00 -0.00000000000E+00 -0.35702077560E+02  0.35702077560E+02  0.00000000000E+00 0.  1.
         25    2    1    2    0    0  0.39718685077E+02  0.38917789629E+02  0.43310749174E+03  0.45422421676E+03  0.12508145904E+03 0.  0.
          5    1    3    3  502    0  0.81438946498E+00  0.39303919781E+02  0.40278494502E+03  0.40472045374E+03  0.41800000000E+01 0. -1.
         -5    1    3    3    0  502  0.38904295612E+02 -0.38613015266E+00  0.30322546721E+02  0.49503763021E+02  0.41800000000E+01 0. -1.
        -11    1    1    2    0    0  0.31584226679E+02 -0.15950371786E+02  0.22866282571E+02  0.42128904729E+02  0.00000000000E+00 0. -1.
         11    1    1    2    0    0 -0.71302911756E+02 -0.22967417843E+02  0.74925021417E+02  0.10594982936E+03  0.00000000000E+00 0.  1.
</event>
<event>
 7    1  0.2499014E-009  0.1560738E+03  0.7561462E-02  0.1193202E+00
          2   -1    0    0  501    0  0.00000000000E+00  0.00000000000E+00  0.10955459464E+03  0.10955459464E+03  0.00000000000E+00 0. -1.
         -2   -1    0    0    0  501 -0.00000000000E+00 -0.00000000000E+00 -0.34132082200E+03  0.34132082200E+03  0.00000000000E+00 0.  1.
         25    2    1    2    0    0 -0.13445734122E+03 -0.38795823642E+02 -0.32028666653E+02  0.19041384334E+03  0.12509078187E+03 0.  0.
          5    1    3    3  502    0 -0.13115796614E+03 -0.55690512194E+02  0.11899386307E+02  0.14304863867E+03  0.41800000000E+01 0. -1.
         -5    1    3    3    0  502 -0.32993750828E+01  0.16894688552E+02 -0.43928052960E+02  0.47365204677E+02  0.41800000000E+01 0. -1.
        -11    1    1    2    0    0  0.10084550544E+03  0.39331837629E+00 -0.17884132168E+03  0.20531485335E+03  0.00000000000E+00 0.  1.
         11    1    1    2    0    0  0.33611835782E+02  0.38402505265E+02 -0.20896239033E+02  0.55146719948E+02  0.00000000000E+00 0. -1.
</event>
<event>
 7    1  0.2499014E-009  0.1383372E+03  0.7561462E-02  0.1215584E+00
         -2   -1    0    0    0  501 -0.00000000000E+00  0.00000000000E+00  0.87857363005E+02  0.87857363005E+02  0.00000000000E+00 0. -1.
          2   -1    0    0  501    0  0.00000000000E+00 -0.00000000000E+00 -0.25009921642E+03  0.25009921642E+03  0.00000000000E+00 0.  1.
         25    2    1    2    0    0 -0.55128902845E-01 -0.86633170781E+02 -0.14612478429E+03  0.21096809926E+03  0.12509906875E+03 0.  0.
          5    1    3    3  502    0 -0.38444415637E+02  0.15569301624E+02 -0.28908847884E+02  0.50730366968E+02  0.41800000000E+01 0.  1.
         -5    1    3    3    0  502  0.38389286734E+02 -0.10220247241E+03 -0.11721593640E+03  0.16023773229E+03  0.41800000000E+01 0.  1.
        -11    1    1    2    0    0 -0.20001217676E+01  0.10611933715E+03 -0.10803847037E+02  0.10668663138E+03  0.00000000000E+00 0. -1.
         11    1    1    2    0    0  0.20552506705E+01 -0.19486166373E+02 -0.53132220941E+01  0.20301848789E+02  0.00000000000E+00 0.  1.
</event>
<event>
 7    1  0.2499014E-009  0.1518355E+03  0.7561462E-02  0.1198236E+00
         -3   -1    0    0    0  501 -0.00000000000E+00  0.00000000000E+00  0.29704111119E+02  0.29704111119E+02  0.00000000000E+00 0.  1.
          3   -1    0    0  501    0  0.00000000000E+00 -0.00000000000E+00 -0.10528065031E+04  0.10528065031E+04  0.00000000000E+00 0. -1.
         25    2    1    2    0    0  0.63742340401E+02 -0.12226560831E+03 -0.49172328887E+03  0.52578644131E+03  0.12509046372E+03 0.  0.
          5    1    3    3  502    0  0.18228500303E+02 -0.97852861677E+02 -0.14943867883E+03  0.17960192620E+03  0.41800000000E+01 0. -1.
         -5    1    3    3    0  502  0.45513840098E+02 -0.24412746637E+02 -0.34228461003E+03  0.34618451511E+03  0.41800000000E+01 0. -1.
        -11    1    1    2    0    0  0.88110910910E+01  0.46503566527E+02 -0.76919871936E+02  0.90315467803E+02  0.00000000000E+00 0.  1.
         11    1    1    2    0    0 -0.72553431492E+02  0.75762041787E+02 -0.45445923120E+03  0.46640870513E+03  0.00000000000E+00 0. -1.
</event>
<event>
 7    1  0.2499014E-009  0.1043050E+03  0.7561462E-02  0.1271495E+00
          1   -1    0    0  501    0  0.00000000000E+00  0.00000000000E+00  0.33866832238E+03  0.33866832238E+03  0.00000000000E+00 0. -1.
         -1   -1    0    0    0  501 -0.00000000000E+00 -0.00000000000E+00 -0.47954434588E+02  0.47954434588E+02  0.00000000000E+00 0.  1.
         25    2    1    2    0    0  0.11861980420E+01  0.25885009329E+02  0.25720141062E+03  0.28717207081E+03  0.12507514483E+03 0.  0.
          5    1    3    3  502    0 -0.15883022295E+02 -0.43376757298E+02  0.50982378563E+02  0.68923789760E+02  0.41800000000E+01 0.  1.
         -5    1    3    3    0  502  0.17069220337E+02  0.69261766627E+02  0.20621903206E+03  0.21824828105E+03  0.41800000000E+01 0.  1.
        -11    1    1    2    0    0  0.42126520311E+02 -0.21333697052E+02  0.29584673865E+02  0.55722735675E+02  0.00000000000E+00 0. -1.
         11    1    1    2    0    0 -0.43312718353E+02 -0.45513122766E+01  0.39278033076E+01  0.43727950482E+02  0.00000000000E+00 0.  1.
</event>
<event>
 7    1  0.2499014E-009  0.9489316E+02  0.7561462E-02  0.1291417E+00
         -2   -1    0    0    0  501 -0.00000000000E+00  0.00000000000E+00  0.11072548746E+03  0.11072548746E+03  0.00000000000E+00 0.  1.
          2   -1    0    0  501    0  0.00000000000E+00 -0.00000000000E+00 -0.17696761507E+03  0.17696761507E+03  0.00000000000E+00 0. -1.
         25    2    1    2    0    0 -0.70563643241E+02  0.45309237183E+02 -0.14528679524E+02  0.15129477623E+03  0.12508745766E+03 0.  0.
          5    1    3    3  502    0 -0.17667974906E+02  0.39968832921E+02  0.50684637720E+02  0.67052739267E+02  0.41800000000E+01 0. -1.
         -5    1    3    3    0  502 -0.52895668334E+02  0.53404042619E+01 -0.65213317244E+02  0.84242036966E+02  0.41800000000E+01 0. -1.
        -11    1    1    2    0    0  0.97401455731E+01  0.72739127541E+01  0.23399623551E+02  0.26368970873E+02  0.00000000000E+00 0.  1.
         11    1    1    2    0    0  0.60823497667E+02 -0.52583149937E+02 -0.75113071631E+02  0.11002935543E+03  0.00000000000E+00 0. -1.
</event>
<event>
 7    1  0.2499014E-009  0.8352993E+02  0.7561462E-02  0.1319322E+00
          2   -1    0    0  501    0  0.00000000000E+00  0.00000000000E+00  0.56272053093E+03  0.56272053093E+03  0.00000000000E+00 0. -1.
         -2   -1    0    0    0  501 -0.00000000000E+00 -0.00000000000E+00 -0.31198594604E+02  0.31198594604E+02  0.00000000000E+00 0.  1.
         25    2    1    2    0    0  0.10404348260E+02  0.68139192042E+02  0.36643372201E+03  0.39328421402E+03  0.12509036899E+03 0.  0.
          5    1    3    3  502    0  0.12782840972E+02  0.44009913763E+02  0.27813152510E+02  0.53770971586E+02  0.41800000000E+01 0.  1.
         -5    1    3    3    0  502 -0.23784927123E+01  0.24129278279E+02  0.33862056950E+03  0.33951324243E+03  0.41800000000E+01 0.  1.
        -11    1    1    2    0    0  0.23381935854E+02 -0.55743176011E+02  0.45248087171E+02  0.75507655166E+02  0.00000000000E+00 0.  1.
         11    1    1    2    0    0 -0.33786284113E+02 -0.12396016032E+02  0.11984012715E+03  0.12512725635E+03  0.00000000000E+00 0. -1.
</event>
<event>
 7    1  0.2499014E-009  0.2070002E+03  0.7561462E-02  0.1143964E+00
         -1   -1    0    0    0  501 -0.00000000000E+00  0.00000000000E+00  0.25418793552E+03  0.25418793552E+03  0.00000000000E+00 0.  1.
          1   -1    0    0  501    0  0.00000000000E+00 -0.00000000000E+00 -0.19358184110E+03  0.19358184110E+03  0.00000000000E+00 0. -1.
         25    2    1    2    0    0 -0.17007068790E+03 -0.86176018997E+02  0.60087933265E+02  0.23581402906E+03  0.12508937384E+03 0.  0.
          5    1    3    3  502    0 -0.33911584820E+02 -0.77306216907E+02  0.51626209699E+02  0.99040318484E+02  0.41800000000E+01 0. -1.
         -5    1    3    3    0  502 -0.13615910308E+03 -0.88698020909E+01  0.84617235656E+01  0.13677371058E+03  0.41800000000E+01 0. -1.
        -11    1    1    2    0    0  0.76930771329E+01  0.12454506900E+02  0.27928146281E+02  0.31532198347E+02  0.00000000000E+00 0.  1.
         11    1    1    2    0    0  0.16237761077E+03  0.73721512098E+02 -0.27409985124E+02  0.18042354921E+03  0.00000000000E+00 0. -1.
</event>
<event>
 7    1  0.2499014E-009  0.2656328E+03  0.7561462E-02  0.1103805E+00
          2   -1    0    0  501    0  0.00000000000E+00  0.00000000000E+00  0.13181007764E+04  0.13181007764E+04  0.00000000000E+00 0. -1.
         -2   -1    0    0    0  501 -0.00000000000E+00 -0.00000000000E+00 -0.92149230693E+02  0.92149230693E+02  0.00000000000E+00 0.  1.
         25    2    1    2    0    0 -0.24026216611E+03 -0.66007696545E+02  0.10660591269E+04  0.11019132732E+04  0.12509146707E+03 0.  0.
          5    1    3    3  502    0  0.14237008677E+02  0.41290636600E+00  0.80180235491E+02  0.81542660437E+02  0.41800000000E+01 0. -1.
         -5    1    3    3    0  502 -0.25449917479E+03 -0.66420602911E+02  0.98587889137E+03  0.10203706127E+04  0.41800000000E+01 0. -1.
        -11    1    1    2    0    0  0.13424306129E+03  0.13109342175E+02  0.42186868234E+02  0.14132510820E+03  0.00000000000E+00 0.  1.
         11    1    1    2    0    0  0.10601910482E+03  0.52898354370E+02  0.11770555057E+03  0.16701162570E+03  0.00000000000E+00 0. -1.
</event>
<event>
 7    1  0.2499014E-009  0.2143496E+03  0.7561462E-02  0.1138167E+00
         -2   -1    0    0    0  501 -0.00000000000E+00  0.00000000000E+00  0.72607592322E+03  0.72607592322E+03  0.00000000000E+00 0.  1.
          2   -1    0    0  501    0  0.00000000000E+00 -0.00000000000E+00 -0.73523288014E+02  0.73523288014E+02  0.00000000000E+00 0. -1.
         25    2    1    2    0    0 -0.15213279209E+03 -0.12618744714E+03  0.42601094557E+03  0.48600587481E+03  0.12509486942E+03 0.  0.
          5    1    3    3  502    0 -0.67237466108E+01  0.20384638231E+02  0.16573610341E+02  0.27439008802E+02  0.41800000000E+01 0.  1.
         -5    1    3    3    0  502 -0.14540904548E+03 -0.14657208537E+03  0.40943733523E+03  0.45856686601E+03  0.41800000000E+01 0.  1.
        -11    1    1    2    0    0  0.77844024172E+02  0.85482992277E+02  0.68779617927E+02  0.13452758048E+03  0.00000000000E+00 0. -1.
         11    1    1    2    0    0  0.74288767918E+02  0.40704454858E+02  0.15776207171E+03  0.17906575595E+03  0.00000000000E+00 0.  1.
</event>
<event>
 7    1  0.2499014E-009  0.1044641E+03  0.7561462E-02  0.1271179E+00
         -2   -1    0    0    0  501 -0.00000000000E+00  0.00000000000E+00  0.20547483841E+03  0.20547483841E+03  0.00000000000E+00 0.  1.
          2   -1    0    0  501    0  0.00000000000E+00 -0.00000000000E+00 -0.10932162075E+03  0.10932162075E+03  0.00000000000E+00 0. -1.
         25    2    1    2    0    0  0.88212128466E+02 -0.21050923036E+02  0.10553918356E+03  0.18711170446E+03  0.12509096574E+03 0.  0.
          5    1    3    3  502    0  0.45056902575E+02  0.79682429778E+01 -0.20791418522E+02  0.50431863440E+02  0.41800000000E+01 0. -1.
         -5    1    3    3    0  502  0.43155225890E+02 -0.29019166014E+02  0.12633060208E+03  0.13667984102E+03  0.41800000000E+01 0. -1.
        -11    1    1    2    0    0 -0.49444852865E+02  0.43633262329E+02 -0.36391296413E+02  0.75319197493E+02  0.00000000000E+00 0.  1.
         11    1    1    2    0    0 -0.38767275600E+02 -0.22582339293E+02  0.27005330522E+02  0.52365557211E+02  0.00000000000E+00 0. -1.
</event>
<event>
 7    1  0.2499014E-009  0.1321270E+03  0.7561462E-02  0.1224333E+00
          1   -1    0    0  501    0  0.00000000000E+00  0.00000000000E+00  0.60753843264E+03  0.60753843264E+03  0.00000000000E+00 0. -1.
         -1   -1    0    0    0  501 -0.00000000000E+00 -0.00000000000E+00 -0.32050618856E+02  0.32050618856E+02  0.00000000000E+00 0.  1.
         25    2    1    2    0    0  0.47398186008E+02  0.71140773954E+02  0.32760965536E+03  0.36094456136E+03  0.12508114301E+03 0.  0.
          5    1    3    3  502    0 -0.35911667292E+02 -0.57945543500E+01  0.60309900960E+02  0.70554810336E+02  0.41800000000E+01 0.  1.
         -5    1    3    3    0  502  0.83309853299E+02  0.76935328304E+02  0.26729975440E+03  0.29038975102E+03  0.41800000000E+01 0.  1.
        -11    1    1    2    0    0  0.12273057532E+02 -0.49001942558E+02  0.51202897653E+02  0.71927429008E+02  0.00000000000E+00 0.  1.
         11    1    1    2    0    0 -0.59671243539E+02 -0.22138831396E+02  0.19667526077E+03  0.20671706113E+03  0.00000000000E+00 0. -1.
</event>
<event>
 7    1  0.2499014E-009  0.2209397E+03  0.7561462E-02  0.1133184E+00
          2   -1    0    0  501    0  0.00000000000E+00  0.00000000000E+00  0.45702960845E+03  0.45702960845E+03  0.00000000000E+00 0. -1.
         -2   -1    0    0    0  501 -0.00000000000E+00 -0.00000000000E+00 -0.11267468920E+03  0.11267468920E+03  0.00000000000E+00 0.  1.
         25    2    1    2    0    0 -0.54838815609E+02  0.18822167241E+03  0.13532738658E+03  0.26906637395E+03  0.12509403811E+03 0.  0.
          5    1    3    3  502    0  0.35430720418E+02  0.62434381760E+02  0.16305820396E+02  0.73734253599E+02  0.41800000000E+01 0.  1.
         -5    1    3    3    0  502 -0.90269536027E+02  0.12578729065E+03  0.11902156618E+03  0.19533212035E+03  0.41800000000E+01 0.  1.
        -11    1    1    2    0    0 -0.16897024467E+02 -0.99832543128E+02  0.84094794477E+02  0.13162059323E+03  0.00000000000E+00 0.  1.
         11    1    1    2    0    0  0.71735840076E+02 -0.88389129282E+02  0.12493273819E+03  0.16901733047E+03  0.00000000000E+00 0. -1.
</event>
<event>
 7    1  0.2499014E-009  0.1038488E+03  0.7561462E-02  0.1272405E+00
         -2   -1    0    0    0  501 -0.00000000000E+00  0.00000000000E+00  0.51928810680E+02  0.51928810680E+02  0.00000000000E+00 0.  1.
          2   -1    0    0  501    0  0.00000000000E+00 -0.00000000000E+00 -0.28722858317E+03  0.28722858317E+03  0.00000000000E+00 0. -1.
         25    2    1    2    0    0 -0.12937442198E+02  0.46312950243E+02 -0.13271557528E+03  0.18860974592E+03  0.12509174858E+03 0.  0.
          5    1    3    3  502    0 -0.29085693432E+02  0.71524252243E+02 -0.13774459315E+03  0.15796436801E+03  0.41800000000E+01 0. -1.
         -5    1    3    3    0  502  0.16148251234E+02 -0.25211302000E+02  0.50290178648E+01  0.30645377908E+02  0.41800000000E+01 0. -1.
        -11    1    1    2    0    0  0.32712373487E+02 -0.65105912531E+02 -0.41989657285E+02  0.84095246860E+02  0.00000000000E+00 0.  1.
         11    1    1    2    0    0 -0.19774931289E+02  0.18792962287E+02 -0.60594539928E+02  0.66452401071E+02  0.00000000000E+00 0. -1.
</event>
<event>
 7    1  0.2499014E-009  0.1217490E+03  0.7561462E-02  0.1240239E+00
          2   -1    0    0  501    0  0.00000000000E+00  0.00000000000E+00  0.21554726829E+03  0.21554726829E+03  0.00000000000E+00 0. -1.
         -2   -1    0    0    0  501 -0.00000000000E+00 -0.00000000000E+00 -0.73154776854E+02  0.73154776854E+02  0.00000000000E+00 0.  1.
         25    2    1    2    0    0  0.36364520077E+01  0.64795372479E+02  0.71828537977E+02  0.15817378249E+03  0.12509173642E+03 0.  0.
          5    1    3    3  502    0  0.15449939290E+02  0.98167115026E+02  0.71551440040E+02  0.12252576900E+03  0.41800000000E+01 0. -1.
         -5    1    3    3    0  502 -0.11813487282E+02 -0.33371742547E+02  0.27709793744E+00  0.35648013489E+02  0.41800000000E+01 0. -1.
        -11    1    1    2    0    0 -0.41501277338E+02 -0.55673022026E+02  0.34891448511E+02  0.77712641066E+02  0.00000000000E+00 0.  1.
         11    1    1    2    0    0  0.37864825330E+02 -0.91223504522E+01  0.35672504953E+02  0.52815621597E+02  0.00000000000E+00 0. -1.
</event>
<event>
 7    1  0.2499014E-009  0.2051313E+03  0.7561462E-02  0.1145480E+00
         -1   -1    0    0    0  501 -0.00000000000E+00  0.00000000000E+00  0.62578925588E+02  0.62578925588E+02  0.00000000000E+00 0.  1.
          1   -1    0    0  501    0  0.00000000000E+00 -0.00000000000E+00 -0.96949497406E+03  0.96949497406E+03  0.00000000000E+00 0. -1.
         25    2    1    2    0    0 -0.12866159039E+03 -0.14584839269E+03 -0.68527347388E+03  0.72323810900E+03  0.12509224524E+03 0.  0.
          5    1    3    3  502    0 -0.80371906167E+02 -0.31185736022E+02 -0.14444647915E+03  0.16826898458E+03  0.41800000000E+01 0. -1.
         -5    1    3    3    0  502 -0.48289684222E+02 -0.11466265666E+03 -0.54082699472E+03  0.55496912442E+03  0.41800000000E+01 0. -1.
        -11    1    1    2    0    0  0.12060167213E+03  0.11171563418E+03 -0.21876276433E+03  0.27364629232E+03  0.00000000000E+00 0. -1.
         11    1    1    2    0    0  0.80599182600E+01  0.34132758501E+02 -0.28798102598E+01  0.35189498326E+02  0.00000000000E+00 0.  1.
</event>
<event>
 7    1  0.2499014E-009  0.1682365E+03  0.7561462E-02  0.1179699E+00
          1   -1    0    0  501    0  0.00000000000E+00  0.00000000000E+00  0.13268302812E+04  0.13268302812E+04  0.00000000000E+00 0. -1.
         -1   -1    0    0    0  501 -0.00000000000E+00 -0.00000000000E+00 -0.25030171399E+02  0.25030171399E+02  0.00000000000E+00 0.  1.
         25    2    1    2    0    0 -0.66960097938E+02 -0.12165865331E+03  0.86998977533E+03  0.88983952797E+03  0.12509074194E+03 0.  0.
          5    1    3    3  502    0  0.33414905026E+02 -0.75709844994E+01  0.14029528410E+03  0.14447876946E+03  0.41800000000E+01 0.  1.
         -5    1    3    3    0  502 -0.10037500296E+03 -0.11408766881E+03  0.72969449122E+03  0.74536075850E+03  0.41800000000E+01 0.  1.
        -11    1    1    2    0    0  0.74326489298E+02  0.86622172313E+02  0.22673304253E+03  0.25384188055E+03  0.00000000000E+00 0.  1.
         11    1    1    2    0    0 -0.73663913601E+01  0.35036480995E+02  0.20507729191E+03  0.20817904404E+03  0.00000000000E+00 0. -1.
</event>
<event>
 7    1  0.2499014E-009  0.1017566E+03  0.7561462E-02  0.1276645E+00
          2   -1    0    0  501    0  0.00000000000E+00  0.00000000000E+00  0.81877575711E+03  0.81877575711E+03  0.00000000000E+00 0.  1.
         -2   -1    0    0    0  501 -0.00000000000E+00 -0.00000000000E+00 -0.15450679231E+02  0.15450679231E+02  0.00000000000E+00 0. -1.
         25    2    1    2    0    0  0.20528027875E+02 -0.22212698488E+02  0.51352589575E+03  0.52940575915E+03  0.12508720284E+03 0.  0.
          5    1    3    3  502    0 -0.47338487566E+02  0.98664778579E+01  0.13435650244E+03  0.14285454819E+03  0.41800000000E+01 0.  1.
         -5    1    3    3    0  502  0.67866515441E+02 -0.32079176346E+02  0.37916939331E+03  0.38655121096E+03  0.41800000000E+01 0.  1.
        -11    1    1    2    0    0  0.14606530214E+02 -0.20068045453E+02  0.28464130617E+02  0.37766174084E+02  0.00000000000E+00 0. -1.
         11    1    1    2    0    0 -0.35134558089E+02  0.42280743941E+02  0.26133505151E+03  0.26705450310E+03  0.00000000000E+00 0.  1.
</event>
<event>
 7    1  0.2499014E-009  0.1049382E+03  0.7561462E-02  0.1270241E+00
          2   -1    0    0  501    0  0.00000000000E+00  0.00000000000E+00  0.55978759124E+03  0.55978759124E+03  0.00000000000E+00 0. -1.
         -2   -1    0    0    0  501 -0.00000000000E+00 -0.00000000000E+00 -0.22897389810E+02  0.22897389810E+02  0.00000000000E+00 0.  1.
         25    2    1    2    0    0  0.93905888629E+01 -0.19099578610E+00  0.39225335068E+03  0.41182305096E+03  0.12508922632E+03 0.  0.
          5    1    3    3  502    0 -0.30140246211E+01 -0.60782681151E+02  0.23511614146E+03  0.24290057853E+03  0.41800000000E+01 0. -1.
         -5    1    3    3    0  502  0.12404613484E+02  0.60591685365E+02  0.15713720922E+03  0.16892247243E+03  0.41800000000E+01 0. -1.
        -11    1    1    2    0    0  0.36898889263E+02 -0.12379506007E+02  0.40289278906E+02  0.56017909570E+02  0.00000000000E+00 0.  1.
         11    1    1    2    0    0 -0.46289478125E+02  0.12570501793E+02  0.10434757184E+03  0.11484402052E+03  0.00000000000E+00 0. -1.
</event>
<event>
 7    1  0.2499014E-009  0.7748277E+02  0.7561462E-02  0.1336351E+00
          2   -1    0    0  501    0  0.00000000000E+00  0.00000000000E+00  0.19732705805E+03  0.19732705805E+03  0.00000000000E+00 0.  1.
         -2   -1    0    0    0  501 -0.00000000000E+00 -0.00000000000E+00 -0.60084732203E+02  0.60084732203E+02  0.00000000000E+00 0. -1.
         25    2    1    2    0    0  0.90709604515E+01  0.31110265760E+01  0.61752470337E+02  0.13982949328E+03  0.12508780432E+03 0.  0.
          5    1    3    3  502    0  0.18778972835E+01  0.59628701990E+02  0.61655714590E+01  0.60121504228E+02  0.41800000000E+01 0.  1.
         -5    1    3    3    0  502  0.71930631680E+01 -0.56517675414E+02  0.55586898878E+02  0.79707989052E+02  0.41800000000E+01 0.  1.
        -11    1    1    2    0    0 -0.19756868880E+01  0.16790226633E+02  0.90243027700E+02  0.91812957133E+02  0.00000000000E+00 0.  1.
         11    1    1    2    0    0 -0.70952735635E+01 -0.19901253209E+02 -0.14753172188E+02  0.25769339841E+02  0.00000000000E+00 0. -1.
</event>
<event>
 7    1  0.2499014E-009  0.1294055E+03  0.7561462E-02  0.1228341E+00
          2   -1    0    0  501    0  0.00000000000E+00  0.00000000000E+00  0.45572423483E+03  0.45572423483E+03  0.00000000000E+00 0. -1.
         -2   -1    0    0    0  501 -0.00000000000E+00 -0.00000000000E+00 -0.37725064908E+02  0.37725064908E+02  0.00000000000E+00 0.  1.
         25    2    1    2    0    0 -0.87231499129E+00 -0.73156593961E+02  0.23198416283E+03  0.27352783207E+03  0.12509266540E+03 0.  0.
          5    1    3    3  502    0 -0.39078945926E+02  0.19894503710E+02  0.77171760304E+02  0.88858923474E+02  0.41800000000E+01 0.  1.
         -5    1    3    3    0  502  0.38206630934E+02 -0.93051097671E+02  0.15481240253E+03  0.18466890859E+03  0.41800000000E+01 0.  1.
        -11    1    1    2    0    0  0.26585505152E+02  0.82537376913E+02  0.11663261799E+03  0.14533538885E+03  0.00000000000E+00 0.  1.
         11    1    1    2    0    0 -0.25713190161E+02 -0.93807829524E+01  0.69382389102E+02  0.74586078825E+02  0.00000000000E+00 0. -1.
</event>
<event>
 7    1  0.2499014E-009  0.1017026E+03  0.7561462E-02  0.1276756E+00
         -1   -1    0    0    0  501 -0.00000000000E+00  0.00000000000E+00  0.34518162643E+02  0.34518162643E+02  0.00000000000E+00 0.  1.
          1   -1    0    0  501    0  0.00000000000E+00 -0.00000000000E+00 -0.49992559288E+03  0.49992559288E+03  0.00000000000E+00 0. -1.
         25    2    1    2    0    0  0.49126789031E+02  0.73742682864E+01 -0.36855003990E+03  0.39236005197E+03  0.12509779072E+03 0.  0.
          5    1    3    3  502    0 -0.12916670896E+02 -0.28684974375E+02 -0.26147707059E+03  0.26339589781E+03  0.41800000000E+01 0. -1.
         -5    1    3    3    0  502  0.62043459928E+02  0.36059242661E+02 -0.10707296931E+03  0.12896415416E+03  0.41800000000E+01 0. -1.
        -11    1    1    2    0    0  0.21171076932E+02 -0.19105154422E+02 -0.11159488683E+02  0.30622795621E+02  0.00000000000E+00 0.  1.
         11    1    1    2    0    0 -0.70297865964E+02  0.11730886135E+02 -0.85697901656E+02  0.11146090793E+03  0.00000000000E+00 0. -1.
</event>
<event>
 7    1  0.2499014E-009  0.1308326E+03  0.7561462E-02  0.1226226E+00
         -1   -1    0    0    0  501 -0.00000000000E+00  0.00000000000E+00  0.23968790609E+03  0.23968790609E+03  0.00000000000E+00 0.  1.
          1   -1    0    0  501    0  0.00000000000E+00 -0.00000000000E+00 -0.77962605190E+02  0.77962605190E+02  0.00000000000E+00 0. -1.
         25    2    1    2    0    0 -0.86138890578E+02  0.32546729584E+02  0.78711292328E+02  0.17413392621E+03  0.12509180085E+03 0.  0.
          5    1    3    3  502    0 -0.69164554691E+02 -0.36880313286E+02  0.63448384434E+02  0.10093098147E+03  0.41800000000E+01 0.  1.
         -5    1    3    3    0  502 -0.16974335887E+02  0.69427042870E+02  0.15262907894E+02  0.73202944734E+02  0.41800000000E+01 0.  1.
        -11    1    1    2    0    0  0.23843815224E+02  0.19183889608E+02  0.44098356036E+02  0.53676942443E+02  0.00000000000E+00 0.  1.
         11    1    1    2    0    0  0.62295075354E+02 -0.51730619192E+02  0.38915652532E+02  0.89839642627E+02  0.00000000000E+00 0. -1.
</event>
<event>
 7    1  0.2639047E-009  0.1116738E+03  0.7561462E-02  0.1257501E+00
         -1   -1    0    0    0  501 -0.00000000000E+00  0.00000000000E+00  0.54411606560E+02  0.54411606560E+02  0.00000000000E+00 0.  1.
          1   -1    0    0  501    0  0.00000000000E+00 -0.00000000000E+00 -0.38139698395E+03  0.38139698395E+03  0.00000000000E+00 0. -1.
         25    2    1    2    0    0 -0.73244790431E+02 -0.30245797514E+02 -0.25473590402E+03  0.29464022555E+03  0.12507147606E+03 0.  0.
          5    1    3    3  502    0 -0.10313989965E+02  0.34260444558E+02 -0.15978884379E+02  0.39407532228E+02  0.41800000000E+01 0.  1.
         -5    1    3    3    0  502 -0.62930800466E+02 -0.64506242072E+02 -0.23875701964E+03  0.25523269332E+03  0.41800000000E+01 0.  1.
        -11    1    1    2    0    0 -0.12371706175E+01  0.22154952558E+02  0.14529181631E+02  0.26523001958E+02  0.00000000000E+00 0.  1.
         11    1    1    2    0    0  0.74481961048E+02  0.80908449558E+01 -0.86778655001E+02  0.11464536300E+03  0.00000000000E+00 0. -1.
</event>
<event>
 7    1  0.2499014E-009  0.1074440E+03  0.7561462E-02  0.1265378E+00
          4   -1    0    0  501    0  0.00000000000E+00  0.00000000000E+00  0.95527099242E+02  0.95527099242E+02  0.00000000000E+00 0. -1.
         -4   -1    0    0    0  501 -0.00000000000E+00 -0.00000000000E+00 -0.14738728765E+03  0.14738728765E+03  0.00000000000E+00 0.  1.
         25    2    1    2    0    0  0.23720449527E+01  0.11170798589E+02  0.15789163077E+02  0.12659843105E+03  0.12508977470E+03 0.  0.
          5    1    3    3  502    0  0.48573519959E+02 -0.33983563823E+02  0.17126147629E+02  0.61846962609E+02  0.41800000000E+01 0.  1.
         -5    1    3    3    0  502 -0.46201475006E+02  0.45154362412E+02 -0.13369845519E+01  0.64751468441E+02  0.41800000000E+01 0.  1.
        -11    1    1    2    0    0  0.65464452714E+01 -0.50231335131E+02 -0.53872121789E+02  0.73947606322E+02  0.00000000000E+00 0. -1.
         11    1    1    2    0    0 -0.89184902241E+01  0.39060536542E+02 -0.13777229697E+02  0.42368349519E+02  0.00000000000E+00 0.  1.
</event>
<event>
 7    1  0.2499014E-009  0.9845478E+02  0.7561462E-02  0.1283579E+00
         -2   -1    0    0    0  501 -0.00000000000E+00  0.00000000000E+00  0.10576708064E+02  0.10576708064E+02  0.00000000000E+00 0.  1.
          2   -1    0    0  501    0  0.00000000000E+00 -0.00000000000E+00 -0.14701157909E+04  0.14701157909E+04  0.00000000000E+00 0. -1.
         25    2    1    2    0    0  0.11101618476E+02  0.29043592592E+01 -0.11962728518E+04  0.12028500822E+04  0.12509157789E+03 0.  0.
          5    1    3    3  502    0  0.45503288832E+02 -0.37217137976E+02 -0.35073254136E+03  0.35564933941E+03  0.41800000000E+01 0. -1.
         -5    1    3    3    0  502 -0.34401670356E+02  0.40121497235E+02 -0.84554031048E+03  0.84720074274E+03  0.41800000000E+01 0. -1.
        -11    1    1    2    0    0 -0.32527617064E+02  0.30947535040E+02 -0.98088280796E+02  0.10787542179E+03  0.00000000000E+00 0.  1.
         11    1    1    2    0    0  0.21425998589E+02 -0.33851894299E+02 -0.16517795025E+03  0.16996699506E+03  0.00000000000E+00 0. -1.
</event>
<event>
 7    1  0.2499014E-009  0.1041647E+03  0.7561462E-02  0.1271774E+00
         -2   -1    0    0    0  501 -0.00000000000E+00  0.00000000000E+00  0.48289404930E+02  0.48289404930E+02  0.00000000000E+00 0.  1.
          2   -1    0    0  501    0  0.00000000000E+00 -0.00000000000E+00 -0.26051344367E+03  0.26051344367E+03  0.00000000000E+00 0. -1.
         25    2    1    2    0    0  0.31142493203E+02 -0.37804394844E+01 -0.12429147854E+03  0.17911295992E+03  0.12509570003E+03 0.  0.
          5    1    3    3  502    0  0.46083940375E+01  0.58698923679E+02 -0.73291618067E+02  0.94105975451E+02  0.41800000000E+01 0.  1.
         -5    1    3    3    0  502  0.26534099165E+02 -0.62479363163E+02 -0.50999860470E+02  0.85006984465E+02  0.41800000000E+01 0.  1.
        -11    1    1    2    0    0 -0.49501173812E+02 -0.18121773111E+02 -0.20695094116E+02  0.56630837800E+02  0.00000000000E+00 0.  1.
         11    1    1    2    0    0  0.18358680609E+02  0.21902212595E+02 -0.67237466088E+02  0.73059050885E+02  0.00000000000E+00 0. -1.
</event>
<event>
 7    1  0.2499014E-009  0.7775345E+02  0.7561462E-02  0.1335550E+00
         -3   -1    0    0    0  501 -0.00000000000E+00  0.00000000000E+00  0.30168414833E+02  0.30168414833E+02  0.00000000000E+00 0.  1.
          3   -1    0    0  501    0  0.00000000000E+00 -0.00000000000E+00 -0.50109098187E+03  0.50109098187E+03  0.00000000000E+00 0. -1.
         25    2    1    2    0    0  0.40659304162E+02 -0.14723462752E+02 -0.31082878529E+03  0.33783248996E+03  0.12508516354E+03 0.  0.
          5    1    3    3  502    0  0.59642969175E+02  0.12517170216E+00 -0.30736666527E+03  0.31312783134E+03  0.41800000000E+01 0. -1.
         -5    1    3    3    0  502 -0.18983665013E+02 -0.14848634455E+02 -0.34621200179E+01  0.24704658620E+02  0.41800000000E+01 0. -1.
        -11    1    1    2    0    0 -0.43095594331E+02 -0.11752068954E+02 -0.16858018592E+02  0.47744467389E+02  0.00000000000E+00 0.  1.
         11    1    1    2    0    0  0.24362901695E+01  0.26475531706E+02 -0.14323576316E+03  0.14568243936E+03  0.00000000000E+00 0. -1.
</event>
<event>
 7    1  0.2499014E-009  0.1565871E+03  0.7561462E-02  0.1192605E+00
          2   -1    0    0  501    0  0.00000000000E+00  0.00000000000E+00  0.55305044626E+02  0.55305044626E+02  0.00000000000E+00 0. -1.
         -2   -1    0    0    0  501 -0.00000000000E+00 -0.00000000000E+00 -0.50731372237E+03  0.50731372237E+03  0.00000000000E+00 0.  1.
         25    2    1    2    0    0 -0.56340843709E+02  0.11268751606E+03 -0.26866875219E+03  0.32203017515E+03  0.12509104028E+03 0.  0.
          5    1    3    3  502    0 -0.75918706940E+02  0.17878422475E+02 -0.93367338578E+02  0.12173011282E+03  0.41800000000E+01 0. -1.
         -5    1    3    3    0  502  0.19577863231E+02  0.94809093585E+02 -0.17530141362E+03  0.20030006233E+03  0.41800000000E+01 0. -1.
        -11    1    1    2    0    0  0.67316319308E+02 -0.85302009760E+02 -0.18084453412E+03  0.21098024845E+03  0.00000000000E+00 0.  1.
         11    1    1    2    0    0 -0.10975475599E+02 -0.27385506301E+02 -0.24953914252E+01  0.29608343391E+02  0.00000000000E+00 0. -1.
</event>
<event>
 7    1  0.2499014E-009  0.1044612E+03  0.7561462E-02  0.1271185E+00
         -1   -1    0    0    0  501 -0.00000000000E+00  0.00000000000E+00  0.57811651882E+02  0.57811651882E+02  0.00000000000E+00 0.  1.
          1   -1    0    0  501    0  0.00000000000E+00 -0.00000000000E+00 -0.22465504741E+03  0.22465504741E+03  0.00000000000E+00 0. -1.
         25    2    1    2    0    0  0.25632384785E+02  0.22111370788E+02 -0.11533363018E+03  0.17348061513E+03  0.12509094975E+03 0.  0.
          5    1    3    3  502    0 -0.44406618327E+02 -0.63450426050E+01 -0.75517769750E+02  0.87935278841E+02  0.41800000000E+01 0.  1.
         -5    1    3    3    0  502  0.70039003112E+02  0.28456413393E+02 -0.39815860427E+02  0.85545336294E+02  0.41800000000E+01 0.  1.
        -11    1    1    2    0    0 -0.53491274815E+02 -0.15197872648E+01 -0.91917423989E+01  0.54296540986E+02  0.00000000000E+00 0. -1.
         11    1    1    2    0    0  0.27858890030E+02 -0.20591583523E+02 -0.42318022954E+02  0.54689543173E+02  0.00000000000E+00 0.  1.
</event>
<event>
 7    1  0.2499014E-009  0.1318936E+03  0.7561462E-02  0.1224673E+00
         -3   -1    0    0    0  501 -0.00000000000E+00  0.00000000000E+00  0.26542852421E+03  0.26542852421E+03  0.00000000000E+00 0.  1.
          3   -1    0    0  501    0  0.00000000000E+00 -0.00000000000E+00 -0.10492606155E+03  0.10492606155E+03  0.00000000000E+00 0. -1.
         25    2    1    2    0    0  0.10401419442E+03  0.74933878115E+01  0.16516917636E+03  0.23195771667E+03  0.12509365292E+03 0.  0.
          5    1    3    3  502    0  0.20358263153E+02 -0.38947323248E+02  0.11638384301E+03  0.12447499420E+03  0.41800000000E+01 0. -1.
         -5    1    3    3    0  502  0.83655931265E+02  0.46440711060E+02  0.48785333350E+02  0.10748272247E+03  0.41800000000E+01 0. -1.
        -11    1    1    2    0    0 -0.26213117982E+02  0.27998441754E+02  0.27327091359E+02  0.47093632447E+02  0.00000000000E+00 0.  1.
         11    1    1    2    0    0 -0.77801076436E+02 -0.35491829565E+02 -0.31993805061E+02  0.91303236650E+02  0.00000000000E+00 0. -1.
</event>
<event>
 7    1  0.2499014E-009  0.1085637E+03  0.7561462E-02  0.1263253E+00
         -2   -1    0    0    0  501 -0.00000000000E+00  0.00000000000E+00  0.30136923657E+02  0.30136923657E+02  0.00000000000E+00 0.  1.
          2   -1    0    0  501    0  0.00000000000E+00 -0.00000000000E+00 -0.48518996770E+03  0.48518996770E+03  0.00000000000E+00 0. -1.
         25    2    1    2    0    0 -0.55983598363E+01  0.53102707071E+02 -0.27588227963E+03  0.30758686621E+03  0.12508960359E+03 0.  0.
          5    1    3    3  502    0 -0.20698826998E+01 -0.29449970588E+02 -0.17307180590E+03  0.17562148952E+03  0.41800000000E+01 0. -1.
         -5    1    3    3    0  502 -0.35284771365E+01  0.82552677659E+02 -0.10281047372E+03  0.13196537670E+03  0.41800000000E+01 0. -1.
        -11    1    1    2    0    0  0.19281860179E+02  0.21413009461E+02 -0.40215260019E+02  0.49472964784E+02  0.00000000000E+00 0. -1.
         11    1    1    2    0    0 -0.13683500343E+02 -0.74515716532E+02 -0.13895550439E+03  0.15826706035E+03  0.00000000000E+00 0.  1.
</event>
<event>
 7    1  0.2499014E-009  0.1418005E+03  0.7561462E-02  0.1210927E+00
         -2   -1    0    0    0  501 -0.00000000000E+00  0.00000000000E+00  0.40763274030E+02  0.40763274030E+02  0.00000000000E+00 0. -1.
          2   -1    0    0  501    0  0.00000000000E+00 -0.00000000000E+00 -0.58630568414E+03  0.58630568414E+03  0.00000000000E+00 0.  1.
         25    2    1    2    0    0 -0.88630393997E+02  0.61880096852E+02 -0.32972671708E+03  0.36885232172E+03  0.12509130327E+03 0.  0.
          5    1    3    3  502    0  0.19954961000E+02  0.13665026582E+02 -0.79219850818E+01  0.25790767100E+02  0.41800000000E+01 0.  1.
         -5    1    3    3    0  502 -0.10858535500E+03  0.48215070271E+02 -0.32180473200E+03  0.34306155462E+03  0.41800000000E+01 0.  1.
        -11    1    1    2    0    0  0.28855755042E+02  0.22623495484E+02 -0.40562061096E+02  0.54678679093E+02  0.00000000000E+00 0.  1.
         11    1    1    2    0    0  0.59774638955E+02 -0.84503592336E+02 -0.17525363194E+03  0.20353795736E+03  0.00000000000E+00 0. -1.
</event>
<event>
 7    1  0.2499014E-009  0.1191387E+03  0.7561462E-02  0.1244525E+00
          2   -1    0    0  501    0  0.00000000000E+00  0.00000000000E+00  0.15688602910E+04  0.15688602910E+04  0.00000000000E+00 0.  1.
         -2   -1    0    0    0  501 -0.00000000000E+00 -0.00000000000E+00 -0.22385060523E+02  0.22385060523E+02  0.00000000000E+00 0. -1.
         25    2    1    2    0    0 -0.76073086924E+01 -0.90946444127E+02  0.13339551363E+04  0.13429121958E+04  0.12509089934E+03 0.  0.
          5    1    3    3  502    0 -0.60993596533E+02 -0.39932388357E+02  0.45190624327E+03  0.45776799753E+03  0.41800000000E+01 0.  1.
         -5    1    3    3    0  502  0.53386287840E+02 -0.51014055771E+02  0.88204889303E+03  0.88514419826E+03  0.41800000000E+01 0.  1.
        -11    1    1    2    0    0  0.23706674628E+01  0.17110683164E+02 -0.54691339580E+01  0.18119243053E+02  0.00000000000E+00 0. -1.
         11    1    1    2    0    0  0.52366412296E+01  0.73835760963E+02  0.21798922813E+03  0.23021391268E+03  0.00000000000E+00 0.  1.
</event>
<event>
 7    1  0.2499014E-009  0.1376647E+03  0.7561462E-02  0.1216506E+00
          2   -1    0    0  501    0  0.00000000000E+00  0.00000000000E+00  0.99648077786E+02  0.99648077786E+02  0.00000000000E+00 0. -1.
         -2   -1    0    0    0  501 -0.00000000000E+00 -0.00000000000E+00 -0.29327398414E+03  0.29327398414E+03  0.00000000000E+00 0.  1.
         25    2    1    2    0    0 -0.11255746832E+03 -0.60943696768E+00 -0.30546721499E+02  0.17102870315E+03  0.12509260578E+03 0.  0.
          5    1    3    3  502    0 -0.31921536740E+02  0.49956919183E+02 -0.45160515126E+02  0.74643303843E+02  0.41800000000E+01 0. -1.
         -5    1    3    3    0  502 -0.80635931579E+02 -0.50566356151E+02  0.14613793627E+02  0.96385399310E+02  0.41800000000E+01 0. -1.
        -11    1    1    2    0    0  0.69103923929E+02  0.21555613331E+02 -0.26567156475E+02  0.77109082290E+02  0.00000000000E+00 0. -1.
         11    1    1    2    0    0  0.43453544391E+02 -0.20946176364E+02 -0.13651202838E+03  0.14478427648E+03  0.00000000000E+00 0.  1.
</event>
<event>
 7    1  0.2499014E-009  0.1341910E+03  0.7561462E-02  0.1221366E+00
          2   -1    0    0  501    0  0.00000000000E+00  0.00000000000E+00  0.29012173114E+03  0.29012173114E+03  0.00000000000E+00 0. -1.
         -2   -1    0    0    0  501 -0.00000000000E+00 -0.00000000000E+00 -0.10008484843E+03  0.10008484843E+03  0.00000000000E+00 0.  1.
         25    2    1    2    0    0  0.35206965651E+02  0.83352452958E+02 -0.12860341513E+02  0.15491867125E+03  0.12508894625E+03 0.  0.
          5    1    3    3  502    0 -0.42809834783E+02  0.10713214770E+02  0.10849564375E+02  0.45635954816E+02  0.41800000000E+01 0. -1.
         -5    1    3    3    0  502  0.78016800433E+02  0.72639238188E+02 -0.23709905889E+02  0.10928271644E+03  0.41800000000E+01 0. -1.
        -11    1    1    2    0    0 -0.52167718837E+02 -0.27435379312E+02  0.81728966390E+02  0.10076604028E+03  0.00000000000E+00 0. -1.
         11    1    1    2    0    0  0.16960753186E+02 -0.55917073646E+02  0.12116825784E+03  0.13452186804E+03  0.00000000000E+00 0.  1.
</event>
<event>
 7    1  0.2499014E-009  0.7878825E+02  0.7561462E-02  0.1332526E+00
          2   -1    0    0  501    0  0.00000000000E+00  0.00000000000E+00  0.23836889075E+02  0.23836889075E+02  0.00000000000E+00 0. -1.
         -2   -1    0    0    0  501 -0.00000000000E+00 -0.00000000000E+00 -0.54773533578E+03  0.54773533578E+03  0.00000000000E+00 0.  1.
         25    2    1    2    0    0 -0.26880652181E+02 -0.19897469526E+02 -0.25405372016E+03  0.28514858176E+03  0.12509173513E+03 0.  0.
          5    1    3    3  502    0 -0.16018345624E+02 -0.39341028721E+02 -0.25854711179E+03  0.26204653280E+03  0.41800000000E+01 0.  1.
         -5    1    3    3    0  502 -0.10862306556E+02  0.19443559195E+02  0.44933916308E+01  0.23102048962E+02  0.41800000000E+01 0.  1.
        -11    1    1    2    0    0 -0.31538743325E+02  0.90916796014E+01 -0.60720033989E+02  0.69023716910E+02  0.00000000000E+00 0.  1.
         11    1    1    2    0    0  0.58419395506E+02  0.10805789924E+02 -0.20912469256E+03  0.21739992619E+03  0.00000000000E+00 0. -1.
</event>
<event>
 7    1  0.2613662E-009  0.9913239E+02  0.7561462E-02  0.1282131E+00
          1   -1    0    0  501    0  0.00000000000E+00  0.00000000000E+00  0.44341794594E+03  0.44341794594E+03  0.00000000000E+00 0. -1.
         -1   -1    0    0    0  501 -0.00000000000E+00 -0.00000000000E+00 -0.30597156331E+02  0.30597156331E+02  0.00000000000E+00 0.  1.
         25    2    1    2    0    0 -0.26309930835E+02 -0.18609764376E+02  0.28943427792E+03  0.31695031743E+03  0.12508703646E+03 0.  0.
          5    1    3    3  502    0 -0.13425018957E+02 -0.59195171783E+02  0.25462385113E+03  0.26179205004E+03  0.41800000000E+01 0.  1.
         -5    1    3    3    0  502 -0.12884911878E+02  0.40585407407E+02  0.34810426788E+02  0.55158267392E+02  0.41800000000E+01 0.  1.
        -11    1    1    2    0    0  0.58890574053E+02  0.42870448864E+01  0.58850415213E+02  0.83365759379E+02  0.00000000000E+00 0.  1.
         11    1    1    2    0    0 -0.32580643218E+02  0.14322719489E+02  0.64536096471E+02  0.73699025460E+02  0.00000000000E+00 0. -1.
</event>
<event>
 7    1  0.2499014E-009  0.1223717E+03  0.7561462E-02  0.1239235E+00
         -2   -1    0    0    0  501 -0.00000000000E+00  0.00000000000E+00  0.66755412392E+03  0.66755412392E+03  0.00000000000E+00 0.  1.
          2   -1    0    0  501    0  0.00000000000E+00 -0.00000000000E+00 -0.57318103058E+02  0.57318103058E+02  0.00000000000E+00 0. -1.
         25    2    1    2    0    0 -0.97745613682E+02  0.33929931149E+02  0.55204161853E+03  0.57541530386E+03  0.12508948038E+03 0.  0.
          5    1    3    3  502    0 -0.14133737633E+02  0.24471874614E+02  0.40455124538E+03  0.40555864893E+03  0.41800000000E+01 0.  1.
         -5    1    3    3    0  502 -0.83611876049E+02  0.94580565347E+01  0.14749037315E+03  0.16985665492E+03  0.41800000000E+01 0.  1.
        -11    1    1    2    0    0  0.95646565150E+02  0.22628895975E+01  0.21879619245E+02  0.98143282157E+02  0.00000000000E+00 0.  1.
         11    1    1    2    0    0  0.20990485325E+01 -0.36192820746E+02  0.36314783092E+02  0.51313640967E+02  0.00000000000E+00 0. -1.
</event>
<event>
 7    1  0.2583163E-009  0.2045737E+03  0.7561462E-02  0.1145937E+00
          2   -1    0    0  501    0  0.00000000000E+00  0.00000000000E+00  0.23032643831E+03  0.23032643831E+03  0.00000000000E+00 0.  1.
         -2   -1    0    0    0  501 -0.00000000000E+00 -0.00000000000E+00 -0.20277225014E+03  0.20277225014E+03  0.00000000000E+00 0. -1.
         25    2    1    2    0    0  0.37212180952E+02  0.17473924697E+03 -0.39467719597E+02  0.22164069538E+03  0.12509334961E+03 0.  0.
          5    1    3    3  502    0  0.51053168267E+02  0.18817479009E+03 -0.23856612536E+02  0.19647592213E+03  0.41800000000E+01 0. -1.
         -5    1    3    3    0  502 -0.13840987315E+02 -0.13435543126E+02 -0.15611107061E+02  0.25164773248E+02  0.41800000000E+01 0. -1.
        -11    1    1    2    0    0 -0.50843128429E+02 -0.59152479905E+02  0.17563921270E+01  0.78020026280E+02  0.00000000000E+00 0. -1.
         11    1    1    2    0    0  0.13630947477E+02 -0.11558676706E+03  0.65265515644E+02  0.13343796679E+03  0.00000000000E+00 0.  1.
</event>
<event>
 7    1  0.2612372E-009  0.1080069E+03  0.7561462E-02  0.1264306E+00
          1   -1    0    0  501    0  0.00000000000E+00  0.00000000000E+00  0.38218345289E+03  0.38218345289E+03  0.00000000000E+00 0. -1.
         -1   -1    0    0    0  501 -0.00000000000E+00 -0.00000000000E+00 -0.61076228242E+02  0.61076228242E+02  0.00000000000E+00 0.  1.
         25    2    1    2    0    0  0.41241590866E+02 -0.42478735997E+02  0.30208221109E+03  0.33227529456E+03  0.12509155563E+03 0.  0.
          5    1    3    3  502    0  0.45470338881E+02 -0.76445984018E+02  0.13534906843E+03  0.16201352695E+03  0.41800000000E+01 0. -1.
         -5    1    3    3    0  502 -0.42287480151E+01  0.33967248021E+02  0.16673314266E+03  0.17026176761E+03  0.41800000000E+01 0. -1.
        -11    1    1    2    0    0 -0.40015636556E+02 -0.89806119466E+01 -0.20723581752E+02  0.45949639830E+02  0.00000000000E+00 0.  1.
         11    1    1    2    0    0 -0.12259543096E+01  0.51459347944E+02  0.39748595313E+02  0.65034746744E+02  0.00000000000E+00 0. -1.
</event>
<event>
 7    1  0.2499014E-009  0.1057462E+03  0.7561462E-02  0.1268656E+00
          2   -1    0    0  501    0  0.00000000000E+00  0.00000000000E+00  0.64048646780E+02  0.64048646780E+02  0.00000000000E+00 0. -1.
         -2   -1    0    0    0  501 -0.00000000000E+00 -0.00000000000E+00 -0.28254693624E+03  0.28254693624E+03  0.00000000000E+00 0.  1.
         25    2    1    2    0    0 -0.77570429137E+01  0.21047701413E+02 -0.21994837620E+03  0.25402412957E+03  0.12509113782E+03 0.  0.
          5    1    3    3  502    0 -0.37117683005E+02  0.64261268743E+02 -0.11965051557E+03  0.14085791184E+03  0.41800000000E+01 0. -1.
         -5    1    3    3    0  502  0.29360640092E+02 -0.43213567330E+02 -0.10029786063E+03  0.11316621773E+03  0.41800000000E+01 0. -1.
        -11    1    1    2    0    0 -0.37097437174E+02 -0.70186901351E+01 -0.17853917035E+02  0.41764149813E+02  0.00000000000E+00 0.  1.
         11    1    1    2    0    0  0.44854480088E+02 -0.14029011277E+02  0.19304003774E+02  0.50807303639E+02  0.00000000000E+00 0. -1.
</event>
<event>
 7    1  0.2499014E-009  0.1067850E+03  0.7561462E-02  0.1266642E+00
         -2   -1    0    0    0  501 -0.00000000000E+00  0.00000000000E+00  0.22741786866E+03  0.22741786866E+03  0.00000000000E+00 0.  1.
          2   -1    0    0  501    0  0.00000000000E+00 -0.00000000000E+00 -0.63353611481E+02  0.63353611481E+02  0.00000000000E+00 0. -1.
         25    2    1    2    0    0 -0.10801728435E+02  0.44052542747E+02  0.59863877857E+02  0.14590731382E+03  0.12509179227E+03 0.  0.
          5    1    3    3  502    0 -0.17483220733E+02  0.85097335288E+02  0.57053667437E+02  0.10401832939E+03  0.41800000000E+01 0. -1.
         -5    1    3    3    0  502  0.66814922978E+01 -0.41044792542E+02  0.28102104198E+01  0.41888984432E+02  0.41800000000E+01 0. -1.
        -11    1    1    2    0    0 -0.30182497761E+02 -0.10915534006E+02  0.49324248956E+01  0.32472463243E+02  0.00000000000E+00 0. -1.
         11    1    1    2    0    0  0.40984226196E+02 -0.33137008740E+02  0.99267954421E+02  0.11239170307E+03  0.00000000000E+00 0.  1.
</event>
<event>
 7    1  0.2499014E-009  0.9240056E+02  0.7561462E-02  0.1297140E+00
          3   -1    0    0  501    0  0.00000000000E+00  0.00000000000E+00  0.28929148813E+03  0.28929148813E+03  0.00000000000E+00 0. -1.
         -3   -1    0    0    0  501 -0.00000000000E+00 -0.00000000000E+00 -0.52120568219E+02  0.52120568219E+02  0.00000000000E+00 0.  1.
         25    2    1    2    0    0 -0.26047186320E+01 -0.65374175845E+02  0.14580965510E+03  0.20294995823E+03  0.12509061756E+03 0.  0.
          5    1    3    3  502    0  0.18887055534E+02 -0.66449434606E+02  0.16169163800E+03  0.17588037532E+03  0.41800000000E+01 0.  1.
         -5    1    3    3    0  502 -0.21491774166E+02  0.10752587610E+01 -0.15881982898E+02  0.27069582911E+02  0.41800000000E+01 0.  1.
        -11    1    1    2    0    0  0.27545672513E+02  0.62828813793E+02  0.35522145967E+02  0.77253134377E+02  0.00000000000E+00 0.  1.
         11    1    1    2    0    0 -0.24940953881E+02  0.25453620511E+01  0.55839118846E+02  0.61208963738E+02  0.00000000000E+00 0. -1.
</event>
<event>
 7    1  0.2499014E-009  0.6231613E+02  0.7561462E-02  0.1388361E+00
         -2   -1    0    0    0  501 -0.00000000000E+00  0.00000000000E+00  0.33566293837E+03  0.33566293837E+03  0.00000000000E+00 0.  1.
          2   -1    0    0  501    0  0.00000000000E+00 -0.00000000000E+00 -0.36301511452E+02  0.36301511452E+02  0.00000000000E+00 0. -1.
         25    2    1    2    0    0  0.34847079468E+01  0.73576777266E+01  0.19229997492E+03  0.22955173440E+03  0.12509372406E+03 0.  0.
          5    1    3    3  502    0  0.15018022231E+02  0.97392689964E+01 -0.13855231408E+02  0.23018127415E+02  0.41800000000E+01 0. -1.
         -5    1    3    3    0  502 -0.11533314284E+02 -0.23815912698E+01  0.20615520633E+03  0.20653360698E+03  0.41800000000E+01 0. -1.
        -11    1    1    2    0    0 -0.26215070329E+00 -0.50495713624E+02  0.53557927230E+02  0.73609356651E+02  0.00000000000E+00 0.  1.
         11    1    1    2    0    0 -0.32225572435E+01  0.43138035898E+02  0.53503524761E+02  0.68803358771E+02  0.00000000000E+00 0. -1.
</event>
<event>
 7    1  0.2499014E-009  0.9907545E+02  0.7561462E-02  0.1282252E+00
          2   -1    0    0  501    0  0.00000000000E+00  0.00000000000E+00  0.72391434096E+02  0.72391434096E+02  0.00000000000E+00 0. -1.
         -2   -1    0    0    0  501 -0.00000000000E+00 -0.00000000000E+00 -0.20392087651E+03  0.20392087651E+03  0.00000000000E+00 0.  1.
         25    2    1    2    0    0 -0.16004344510E+02  0.28121828840E+02 -0.12908285861E+03  0.18264043117E+03  0.12509263132E+03 0.  0.
          5    1    3    3  502    0  0.35999213105E+02  0.52871375826E+02 -0.37179886326E+02  0.74102240675E+02  0.41800000000E+01 0. -1.
         -5    1    3    3    0  502 -0.52003557615E+02 -0.24749546986E+02 -0.91902972285E+02  0.10853819049E+03  0.41800000000E+01 0. -1.
        -11    1    1    2    0    0  0.35128945630E+02  0.74589039144E+01  0.25939699411E+02  0.44300632887E+02  0.00000000000E+00 0. -1.
         11    1    1    2    0    0 -0.19124601120E+02 -0.35580732754E+02 -0.28386283214E+02  0.49371246551E+02  0.00000000000E+00 0.  1.
</event>
<event>
 7    1  0.2499014E-009  0.1034302E+03  0.7561462E-02  0.1273244E+00
          2   -1    0    0  501    0  0.00000000000E+00  0.00000000000E+00  0.18501775583E+04  0.18501775583E+04  0.00000000000E+00 0.  1.
         -2   -1    0    0    0  501 -0.00000000000E+00 -0.00000000000E+00 -0.33882927243E+02  0.33882927243E+02  0.00000000000E+00 0. -1.
         25    2    1    2    0    0 -0.84264142202E+01  0.36695714969E+02  0.17692744170E+04  0.17740903956E+04  0.12508872531E+03 0.  0.
          5    1    3    3  502    0 -0.45399054246E+02 -0.26594548282E+02  0.97590219171E+03  0.97732845263E+03  0.41800000000E+01 0. -1.
         -5    1    3    3    0  502  0.36972640026E+02  0.63290263252E+02  0.79337222532E+03  0.79676194302E+03  0.41800000000E+01 0. -1.
        -11    1    1    2    0    0 -0.31685877015E+02 -0.17424810221E+02  0.53934408022E+02  0.64934884169E+02  0.00000000000E+00 0.  1.
         11    1    1    2    0    0  0.40112291235E+02 -0.19270904749E+02 -0.69141939816E+01  0.45035205743E+02  0.00000000000E+00 0. -1.
</event>
<event>
 7    1  0.2499014E-009  0.5768228E+02  0.7561462E-02  0.1407824E+00
         -2   -1    0    0    0  501 -0.00000000000E+00  0.00000000000E+00  0.13960735955E+03  0.13960735955E+03  0.00000000000E+00 0. -1.
          2   -1    0    0  501    0  0.00000000000E+00 -0.00000000000E+00 -0.14782757541E+03  0.14782757541E+03  0.00000000000E+00 0.  1.
         25    2    1    2    0    0 -0.25587570449E+02  0.40809858955E+02  0.75897550211E+02  0.15403967441E+03  0.12509042655E+03 0.  0.
          5    1    3    3  502    0 -0.49593471546E+01  0.80398808975E+01  0.10494579942E+03  0.10545296594E+03  0.41800000000E+01 0. -1.
         -5    1    3    3    0  502 -0.20628223294E+02  0.32769978057E+02 -0.29048249207E+02  0.48586708472E+02  0.41800000000E+01 0. -1.
        -11    1    1    2    0    0  0.35669728868E+02 -0.15591252058E+02  0.58969960879E+01  0.39372468313E+02  0.00000000000E+00 0. -1.
         11    1    1    2    0    0 -0.10082158419E+02 -0.25218606897E+02 -0.90014762163E+02  0.94022792234E+02  0.00000000000E+00 0.  1.
</event>
<event>
 7    1  0.2499014E-009  0.8055906E+02  0.7561462E-02  0.1327472E+00
          2   -1    0    0  501    0  0.00000000000E+00  0.00000000000E+00  0.34751559762E+03  0.34751559762E+03  0.00000000000E+00 0.  1.
         -2   -1    0    0    0  501 -0.00000000000E+00 -0.00000000000E+00 -0.39643804393E+02  0.39643804393E+02  0.00000000000E+00 0. -1.
         25    2    1    2    0    0 -0.34985191786E+02  0.21480148301E+02  0.16164539941E+03  0.20847837142E+03  0.12509450741E+03 0.  0.
          5    1    3    3  502    0 -0.43197070875E+02 -0.21650895482E+02  0.86655917789E+01  0.49267769264E+02  0.41800000000E+01 0. -1.
         -5    1    3    3    0  502  0.82118790899E+01  0.43131043783E+02  0.15297980763E+03  0.15921060216E+03  0.41800000000E+01 0. -1.
        -11    1    1    2    0    0  0.14401231459E+02  0.18560545583E+02  0.12795378141E+03  0.13009250362E+03  0.00000000000E+00 0.  1.
         11    1    1    2    0    0  0.20583960326E+02 -0.40040693884E+02  0.18272612405E+02  0.48588526974E+02  0.00000000000E+00 0. -1.
</event>
<event>
 7    1  0.2499014E-009  0.8731044E+02  0.7561462E-02  0.1309499E+00
         -4   -1    0    0    0  501 -0.00000000000E+00  0.00000000000E+00  0.13405382351E+03  0.13405382351E+03  0.00000000000E+00 0.  1.
          4   -1    0    0  501    0  0.00000000000E+00 -0.00000000000E+00 -0.13563044384E+03  0.13563044384E+03  0.00000000000E+00 0. -1.
         25    2    1    2    0    0 -0.14090321171E+02 -0.89716419179E+01 -0.79275272975E+02  0.14903318406E+03  0.12508914236E+03 0.  0.
          5    1    3    3  502    0  0.47572365250E+02 -0.22738279732E+02 -0.65577084527E+02  0.84249544305E+02  0.41800000000E+01 0.  1.
         -5    1    3    3    0  502 -0.61662686421E+02  0.13766637814E+02 -0.13698188448E+02  0.64783639757E+02  0.41800000000E+01 0.  1.
        -11    1    1    2    0    0 -0.64038418076E+01  0.29032864798E+02 -0.75779536503E+01  0.30681294135E+02  0.00000000000E+00 0. -1.
         11    1    1    2    0    0  0.20494162979E+02 -0.20061222880E+02  0.85276606298E+02  0.89969789160E+02  0.00000000000E+00 0.  1.
</event>
<event>
 7    1  0.2499014E-009  0.1255447E+03  0.7561462E-02  0.1234220E+00
         -1   -1    0    0    0  501 -0.00000000000E+00  0.00000000000E+00  0.19656302057E+03  0.19656302057E+03  0.00000000000E+00 0.  1.
          1   -1    0    0  501    0  0.00000000000E+00 -0.00000000000E+00 -0.12168242716E+03  0.12168242716E+03  0.00000000000E+00 0. -1.
         25    2    1    2    0    0  0.50476632935E+02 -0.90673776549E+02  0.78460718105E+01  0.16272510220E+03  0.12509306062E+03 0.  0.
          5    1    3    3  502    0  0.74397806791E+02 -0.79638695466E+02 -0.32995203053E+02  0.11394521181E+03  0.41800000000E+01 0. -1.
         -5    1    3    3    0  502 -0.23921173856E+02 -0.11035081083E+02  0.40841274863E+02  0.48779890381E+02  0.41800000000E+01 0. -1.
        -11    1    1    2    0    0 -0.15635391013E+02 -0.25399413076E+01 -0.18460781589E+02  0.24325238146E+02  0.00000000000E+00 0. -1.
         11    1    1    2    0    0 -0.34841241922E+02  0.93213717857E+02  0.85495303194E+02  0.13119510739E+03  0.00000000000E+00 0.  1.
</event>
<event>
 7    1  0.2499014E-009  0.1075496E+03  0.7561462E-02  0.1265176E+00
          1   -1    0    0  501    0  0.00000000000E+00  0.00000000000E+00  0.32071484700E+02  0.32071484700E+02  0.00000000000E+00 0. -1.
         -1   -1    0    0    0  501 -0.00000000000E+00 -0.00000000000E+00 -0.46658961376E+03  0.46658961376E+03  0.00000000000E+00 0.  1.
         25    2    1    2    0    0 -0.43452239535E+02  0.36438109442E+02 -0.26118195368E+03  0.29509208686E+03  0.12508994309E+03 0.  0.
          5    1    3    3  502    0  0.10703987782E+02  0.70875490284E+02 -0.11798315662E+03  0.13811375066E+03  0.41800000000E+01 0. -1.
         -5    1    3    3    0  502 -0.54156227317E+02 -0.34437380842E+02 -0.14319879706E+03  0.15697833620E+03  0.41800000000E+01 0. -1.
        -11    1    1    2    0    0  0.18689278306E+02  0.13626973908E+02 -0.13218214987E+03  0.13419055215E+03  0.00000000000E+00 0.  1.
         11    1    1    2    0    0  0.24762961229E+02 -0.50065083350E+02 -0.41154025519E+02  0.69378459453E+02  0.00000000000E+00 0. -1.
</event>
<event>
 7    1  0.2499014E-009  0.1060395E+03  0.7561462E-02  0.1268085E+00
         -2   -1    0    0    0  501 -0.00000000000E+00  0.00000000000E+00  0.92418004686E+02  0.92418004686E+02  0.00000000000E+00 0.  1.
          2   -1    0    0  501    0  0.00000000000E+00 -0.00000000000E+00 -0.15796241810E+03  0.15796241810E+03  0.00000000000E+00 0. -1.
         25    2    1    2    0    0  0.23477637889E+02 -0.74198132402E+01 -0.92985629860E+02  0.15780014811E+03  0.12509319035E+03 0.  0.
          5    1    3    3  502    0  0.47578808499E+02  0.47506384762E+02 -0.49502425605E+02  0.83597620494E+02  0.41800000000E+01 0.  1.
         -5    1    3    3    0  502 -0.24101170610E+02 -0.54926198003E+02 -0.43483204254E+02  0.74202527612E+02  0.41800000000E+01 0.  1.
        -11    1    1    2    0    0  0.18196798653E+02 -0.25605961809E+02 -0.25764244585E+01  0.31518672630E+02  0.00000000000E+00 0. -1.
         11    1    1    2    0    0 -0.41674436542E+02  0.33025775049E+02  0.30017640909E+02  0.61061602046E+02  0.00000000000E+00 0.  1.
</event>
<event>
 7    1  0.2499014E-009  0.1265387E+03  0.7561462E-02  0.1232684E+00
         -1   -1    0    0    0  501 -0.00000000000E+00  0.00000000000E+00  0.65411069172E+02  0.65411069172E+02  0.00000000000E+00 0.  1.
          1   -1    0    0  501    0  0.00000000000E+00 -0.00000000000E+00 -0.31821753670E+03  0.31821753670E+03  0.00000000000E+00 0. -1.
         25    2    1    2    0    0  0.34051249647E+02 -0.87921289014E+02 -0.15305492222E+03  0.21900365412E+03  0.12508857117E+03 0.  0.
          5    1    3    3  502    0  0.66101684291E+02 -0.46397349514E+01 -0.77061288959E+02  0.10171958741E+03  0.41800000000E+01 0.  1.
         -5    1    3    3    0  502 -0.32050434644E+02 -0.83281554062E+02 -0.75993633265E+02  0.11728406671E+03  0.41800000000E+01 0.  1.
        -11    1    1    2    0    0  0.21895809534E+01  0.22105761118E+02  0.15470785338E+02  0.27070355342E+02  0.00000000000E+00 0.  1.
         11    1    1    2    0    0 -0.36240830600E+02  0.65815527896E+02 -0.11522233064E+03  0.13755459641E+03  0.00000000000E+00 0. -1.
</event>
<event>
 7    1  0.3044954E-009  0.1436216E+03  0.7561462E-02  0.1208537E+00
         -2   -1    0    0    0  501 -0.00000000000E+00  0.00000000000E+00  0.28001984279E+02  0.28001984279E+02  0.00000000000E+00 0.  1.
          2   -1    0    0  501    0  0.00000000000E+00 -0.00000000000E+00 -0.77664470450E+03  0.77664470450E+03  0.00000000000E+00 0. -1.
         25    2    1    2    0    0 -0.51049211606E+02 -0.85072274310E+02 -0.41897599378E+03  0.44836587160E+03  0.12509099723E+03 0.  0.
          5    1    3    3  502    0 -0.39493781858E+00 -0.10062014031E+03 -0.21246027009E+03  0.23511998507E+03  0.41800000000E+01 0.  1.
         -5    1    3    3    0  502 -0.50654273787E+02  0.15547866001E+02 -0.20651572369E+03  0.21324588653E+03  0.41800000000E+01 0.  1.
        -11    1    1    2    0    0  0.56618641153E+02  0.92640341062E+01 -0.11423798082E+03  0.12783508562E+03  0.00000000000E+00 0.  1.
         11    1    1    2    0    0 -0.55694295468E+01  0.75808240204E+02 -0.21542874561E+03  0.22844573155E+03  0.00000000000E+00 0. -1.
</event>
<event>
 7    1  0.2499014E-009  0.1616702E+03  0.7561462E-02  0.1186824E+00
         -2   -1    0    0    0  501 -0.00000000000E+00  0.00000000000E+00  0.21206103260E+03  0.21206103260E+03  0.00000000000E+00 0. -1.
          2   -1    0    0  501    0  0.00000000000E+00 -0.00000000000E+00 -0.16012251937E+03  0.16012251937E+03  0.00000000000E+00 0.  1.
         25    2    1    2    0    0 -0.16082330381E+02  0.13406767907E+03  0.29530977214E+02  0.18641979793E+03  0.12508988178E+03 0.  0.
          5    1    3    3  502    0  0.44874886221E+02  0.12222717006E+02  0.16353443512E+02  0.49477850995E+02  0.41800000000E+01 0.  1.
         -5    1    3    3    0  502 -0.60957216602E+02  0.12184496207E+03  0.13177533702E+02  0.13694194694E+03  0.41800000000E+01 0.  1.
        -11    1    1    2    0    0 -0.70607339779E+01 -0.92433651862E+02  0.71715893870E+02  0.11720496318E+03  0.00000000000E+00 0. -1.
         11    1    1    2    0    0  0.23143064359E+02 -0.41634027211E+02 -0.49308357854E+02  0.68558790859E+02  0.00000000000E+00 0.  1.
</event>
<event>
 7    1  0.2499014E-009  0.7634158E+02  0.7561462E-02  0.1339766E+00
          1   -1    0    0  501    0  0.00000000000E+00  0.00000000000E+00  0.29882455701E+03  0.29882455701E+03  0.00000000000E+00 0. -1.
         -1   -1    0    0    0  501 -0.00000000000E+00 -0.00000000000E+00 -0.38184744622E+02  0.38184744622E+02  0.00000000000E+00 0.  1.
         25    2    1    2    0    0 -0.43569840308E+01 -0.23738127063E+01  0.18390629686E+03  0.22247096925E+03  0.12508871986E+03 0.  0.
          5    1    3    3  502    0  0.22814911738E+02 -0.35200523520E+02  0.17330748795E+03  0.17836074353E+03  0.41800000000E+01 0.  1.
         -5    1    3    3    0  502 -0.27171895769E+02  0.32826710814E+02  0.10598808914E+02  0.44110225718E+02  0.41800000000E+01 0.  1.
        -11    1    1    2    0    0 -0.23970762189E+02  0.22566575752E+02  0.30591513490E+01  0.33063668702E+02  0.00000000000E+00 0.  1.
         11    1    1    2    0    0  0.28327746220E+02 -0.20192763046E+02  0.73674364178E+02  0.81474663684E+02  0.00000000000E+00 0. -1.
</event>
<event>
 7    1  0.2499014E-009  0.1838931E+03  0.7561462E-02  0.1164088E+00
          2   -1    0    0  501    0  0.00000000000E+00  0.00000000000E+00  0.34680470207E+02  0.34680470207E+02  0.00000000000E+00 0. -1.
         -2   -1    0    0    0  501 -0.00000000000E+00 -0.00000000000E+00 -0.10629869958E+04  0.10629869958E+04  0.00000000000E+00 0.  1.
         25    2    1    2    0    0 -0.10555710827E+03 -0.11541447508E+03 -0.47691551885E+03  0.51725994469E+03  0.12508650648E+03 0.  0.
          5    1    3    3  502    0 -0.12007520736E+03 -0.56742969341E+02 -0.38398294422E+03  0.40632277052E+03  0.41800000000E+01 0. -1.
         -5    1    3    3    0  502  0.14518099091E+02 -0.58671505735E+02 -0.92932574631E+02  0.11093717418E+03  0.41800000000E+01 0. -1.
        -11    1    1    2    0    0  0.10424740753E+03  0.62810494679E+02 -0.45009107215E+03  0.46625599561E+03  0.00000000000E+00 0. -1.
         11    1    1    2    0    0  0.13097007387E+01  0.52603980397E+02 -0.10129993458E+03  0.11415152568E+03  0.00000000000E+00 0.  1.
</event>
<event>
 7    1  0.2499014E-009  0.1833119E+03  0.7561462E-02  0.1164636E+00
         -1   -1    0    0    0  501 -0.00000000000E+00  0.00000000000E+00  0.25908314935E+03  0.25908314935E+03  0.00000000000E+00 0.  1.
          1   -1    0    0  501    0  0.00000000000E+00 -0.00000000000E+00 -0.15966573993E+03  0.15966573993E+03  0.00000000000E+00 0. -1.
         25    2    1    2    0    0  0.17163393325E+03  0.10610190995E+02  0.45534278466E+02  0.21746455890E+03  0.12508669260E+03 0.  0.
          5    1    3    3  502    0  0.11907953634E+02  0.30154040827E+02 -0.25557203546E+02  0.41493476487E+02  0.41800000000E+01 0. -1.
         -5    1    3    3    0  502  0.15972597961E+03 -0.19543849831E+02  0.71091482012E+02  0.17597108241E+03  0.41800000000E+01 0. -1.
        -11    1    1    2    0    0 -0.60887392250E+02  0.51354298920E+01  0.64589815246E+02  0.88912830394E+02  0.00000000000E+00 0.  1.
         11    1    1    2    0    0 -0.11074654100E+03 -0.15745620887E+02 -0.10706684292E+02  0.11237149998E+03  0.00000000000E+00 0. -1.
</event>
<event>
 7    1  0.2499014E-009  0.3029410E+03  0.7561462E-02  0.1083780E+00
          2   -1    0    0  501    0  0.00000000000E+00  0.00000000000E+00  0.23542759924E+04  0.23542759924E+04  0.00000000000E+00 0. -1.
         -2   -1    0    0    0  501 -0.00000000000E+00 -0.00000000000E+00 -0.70532788944E+02  0.70532788944E+02  0.00000000000E+00 0.  1.
         25    2    1    2    0    0 -0.17722478410E+03  0.23665584340E+03  0.19232690294E+04  0.19498789447E+04  0.12509807104E+03 0.  0.
          5    1    3    3  502    0 -0.10553248317E+03  0.20592650414E+03  0.11773075820E+04  0.11998389247E+04  0.41800000000E+01 0. -1.
         -5    1    3    3    0  502 -0.71692300936E+02  0.30729339254E+02  0.74596144737E+03  0.75004002004E+03  0.41800000000E+01 0. -1.
        -11    1    1    2    0    0  0.25520992539E+02 -0.23372934476E+02  0.99390734140E+02  0.10524320956E+03  0.00000000000E+00 0. -1.
         11    1    1    2    0    0  0.15170379157E+03 -0.21328290892E+03  0.26108343992E+03  0.36968662704E+03  0.00000000000E+00 0.  1.
</event>
<event>
 7    1  0.2715231E-009  0.1064345E+03  0.7561462E-02  0.1267319E+00
          1   -1    0    0  501    0  0.00000000000E+00  0.00000000000E+00  0.45118903759E+03  0.45118903759E+03  0.00000000000E+00 0. -1.
         -1   -1    0    0    0  501 -0.00000000000E+00 -0.00000000000E+00 -0.31244740343E+02  0.31244740343E+02  0.00000000000E+00 0.  1.
         25    2    1    2    0    0 -0.19230029711E+02 -0.40549894663E+02  0.19973668209E+03  0.23990934194E+03  0.12509061586E+03 0.  0.
          5    1    3    3  502    0  0.11773284638E+02 -0.80387552551E+02  0.13628313363E+03  0.15871778019E+03  0.41800000000E+01 0.  1.
         -5    1    3    3    0  502 -0.31003314349E+02  0.39837657888E+02  0.63453548462E+02  0.81191561748E+02  0.41800000000E+01 0.  1.
        -11    1    1    2    0    0  0.16643678749E+02  0.59476318429E+02  0.21353967685E+03  0.22229178592E+03  0.00000000000E+00 0. -1.
         11    1    1    2    0    0  0.25863509617E+01 -0.18926423766E+02  0.66679382977E+01  0.20232650074E+02  0.00000000000E+00 0.  1.
</event>
<event>
 7    1  0.2499014E-009  0.9554280E+02  0.7561462E-02  0.1289958E+00
         -1   -1    0    0    0  501 -0.00000000000E+00  0.00000000000E+00  0.24362336577E+03  0.24362336577E+03  0.00000000000E+00 0.  1.
          1   -1    0    0  501    0  0.00000000000E+00 -0.00000000000E+00 -0.65082205007E+02  0.65082205007E+02  0.00000000000E+00 0. -1.
         25    2    1    2    0    0  0.33698657297E+02  0.13019027425E+02  0.17026914076E+03  0.21434655073E+03  0.12509104259E+03 0.  0.
          5    1    3    3  502    0 -0.34774132943E+02 -0.32564191720E+02  0.60977319489E+02  0.77494340415E+02  0.41800000000E+01 0. -1.
         -5    1    3    3    0  502  0.68472790240E+02  0.45583219145E+02  0.10929182127E+03  0.13685221031E+03  0.41800000000E+01 0. -1.
        -11    1    1    2    0    0  0.11854962826E+02  0.36277257907E+01 -0.30075403492E+02  0.32530453935E+02  0.00000000000E+00 0. -1.
         11    1    1    2    0    0 -0.45553620124E+02 -0.16646753216E+02  0.38347423494E+02  0.61828566113E+02  0.00000000000E+00 0.  1.
</event>
<event>
 7    1  0.2499014E-009  0.1228853E+03  0.7561462E-02  0.1238412E+00
          1   -1    0    0  501    0  0.00000000000E+00  0.00000000000E+00  0.12457557640E+04  0.12457557640E+04  0.00000000000E+00 0. -1.
         -1   -1    0    0    0  501 -0.00000000000E+00 -0.00000000000E+00 -0.14313577372E+02  0.14313577372E+02  0.00000000000E+00 0.  1.
         25    2    1    2    0    0  0.65771073096E+02  0.26661573321E+02  0.90503969381E+03  0.91639536158E+03  0.12508772048E+03 0.  0.
          5    1    3    3  502    0  0.79086921914E+02  0.64519781679E+02  0.58933297457E+03  0.59812069916E+03  0.41800000000E+01 0. -1.
         -5    1    3    3    0  502 -0.13315848818E+02 -0.37858208358E+02  0.31570671923E+03  0.31827466242E+03  0.41800000000E+01 0. -1.
        -11    1    1    2    0    0 -0.12012900135E+02 -0.44917708373E+02  0.10030843798E+03  0.11056081144E+03  0.00000000000E+00 0. -1.
         11    1    1    2    0    0 -0.53758172961E+02  0.18256135052E+02  0.22609405488E+03  0.23311316839E+03  0.00000000000E+00 0.  1.
</event>
<event>
 7    1  0.2499014E-009  0.1067462E+03  0.7561462E-02  0.1266717E+00
         -1   -1    0    0    0  501 -0.00000000000E+00  0.00000000000E+00  0.11808482729E+03  0.11808482729E+03  0.00000000000E+00 0.  1.
          1   -1    0    0  501    0  0.00000000000E+00 -0.00000000000E+00 -0.14711830866E+03  0.14711830866E+03  0.00000000000E+00 0. -1.
         25    2    1    2    0    0 -0.10206078604E+02  0.97417917276E+02 -0.39685170722E+02  0.16375599356E+03  0.12508676190E+03 0.  0.
          5    1    3    3  502    0 -0.35370965339E+02  0.65273549290E+02 -0.77892155413E+02  0.10768659016E+03  0.41800000000E+01 0. -1.
         -5    1    3    3    0  502  0.25164886735E+02  0.32144367986E+02  0.38206984692E+02  0.56069403393E+02  0.41800000000E+01 0. -1.
        -11    1    1    2    0    0  0.95375736844E+01 -0.67379787817E+02  0.18249154055E+02  0.70455892172E+02  0.00000000000E+00 0.  1.
         11    1    1    2    0    0  0.66850491975E+00 -0.30038129459E+02 -0.75974647059E+01  0.30991250220E+02  0.00000000000E+00 0. -1.
</event>
<event>
 7    1  0.2499014E-009  0.1256368E+03  0.7561462E-02  0.1234077E+00
         -2   -1    0    0    0  501 -0.00000000000E+00  0.00000000000E+00  0.25971235562E+02  0.25971235562E+02  0.00000000000E+00 0.  1.
          2   -1    0    0  501    0  0.00000000000E+00 -0.00000000000E+00 -0.76378539422E+03  0.76378539422E+03  0.00000000000E+00 0. -1.
         25    2    1    2    0    0  0.59107888762E+02 -0.69145962948E+02 -0.39457162781E+03  0.42380456306E+03  0.12509449023E+03 0.  0.
          5    1    3    3  502    0 -0.35829910023E+02 -0.76775510929E+01 -0.14756181718E+03  0.15210091890E+03  0.41800000000E+01 0. -1.
         -5    1    3    3    0  502  0.94937798785E+02 -0.61468411855E+02 -0.24700981064E+03  0.27170364415E+03  0.41800000000E+01 0. -1.
        -11    1    1    2    0    0 -0.39062938244E+02  0.12322547953E+02 -0.41714429248E+02  0.58462397657E+02  0.00000000000E+00 0.  1.
         11    1    1    2    0    0 -0.20044950519E+02  0.56823414995E+02 -0.30152810159E+03  0.30748966907E+03  0.00000000000E+00 0. -1.
</event>
<event>
 7    1  0.2499014E-009  0.8081078E+02  0.7561462E-02  0.1326766E+00
          3   -1    0    0  501    0  0.00000000000E+00  0.00000000000E+00  0.12395007664E+04  0.12395007664E+04  0.00000000000E+00 0. -1.
         -3   -1    0    0    0  501 -0.00000000000E+00 -0.00000000000E+00 -0.14814589294E+02  0.14814589294E+02  0.00000000000E+00 0.  1.
         25    2    1    2    0    0  0.10640014273E+01  0.13747519064E+02  0.10467454388E+04  0.10542833887E+04  0.12508926280E+03 0.  0.
          5    1    3    3  502    0  0.37240833578E+02 -0.15886706957E+02  0.12749404087E+03  0.13383374015E+03  0.41800000000E+01 0.  1.
         -5    1    3    3    0  502 -0.36176832151E+02  0.29634226021E+02  0.91925139797E+03  0.92044964859E+03  0.41800000000E+01 0.  1.
        -11    1    1    2    0    0  0.29348879023E+02 -0.27835698032E+02  0.35877310238E+02  0.54068143807E+02  0.00000000000E+00 0.  1.
         11    1    1    2    0    0 -0.30412880451E+02  0.14088178968E+02  0.14206342806E+03  0.14596382318E+03  0.00000000000E+00 0. -1.
</event>
<event>
 7    1  0.2499014E-009  0.1047865E+03  0.7561462E-02  0.1270541E+00
          2   -1    0    0  501    0  0.00000000000E+00  0.00000000000E+00  0.11431552863E+02  0.11431552863E+02  0.00000000000E+00 0. -1.
         -2   -1    0    0    0  501 -0.00000000000E+00 -0.00000000000E+00 -0.18411612607E+04  0.18411612607E+04  0.00000000000E+00 0.  1.
         25    2    1    2    0    0  0.54220296557E+02 -0.62776458065E+02 -0.13109703053E+04  0.13195350094E+04  0.12509506536E+03 0.  0.
          5    1    3    3  502    0  0.42896605476E+02 -0.31231568524E+02 -0.17162120655E+03  0.17968539332E+03  0.41800000000E+01 0.  1.
         -5    1    3    3    0  502  0.11323691081E+02 -0.31544889541E+02 -0.11393490987E+04  0.11398496160E+04  0.41800000000E+01 0.  1.
        -11    1    1    2    0    0 -0.45868954392E+02 -0.11933842611E+02 -0.19231739677E+03  0.19807159988E+03  0.00000000000E+00 0.  1.
         11    1    1    2    0    0 -0.83513421650E+01  0.74710300676E+02 -0.32644200581E+03  0.33498620434E+03  0.00000000000E+00 0. -1.
</event>
<event>
 7    1  0.2499014E-009  0.1313524E+03  0.7561462E-02  0.1225463E+00
          1   -1    0    0  501    0  0.00000000000E+00  0.00000000000E+00  0.11435922970E+03  0.11435922970E+03  0.00000000000E+00 0. -1.
         -1   -1    0    0    0  501 -0.00000000000E+00 -0.00000000000E+00 -0.19361028524E+03  0.19361028524E+03  0.00000000000E+00 0.  1.
         25    2    1    2    0    0  0.86550892735E+02  0.39241538763E+02 -0.66725842961E+01  0.15724648539E+03  0.12510387040E+03 0.  0.
          5    1    3    3  502    0  0.91948342727E+02  0.75759467015E+02  0.14396184797E+01  0.11922054971E+03  0.41800000000E+01 0. -1.
         -5    1    3    3    0  502 -0.53974499925E+01 -0.36517928253E+02 -0.81122027758E+01  0.38025935678E+02  0.41800000000E+01 0. -1.
        -11    1    1    2    0    0 -0.45815304916E+02 -0.46144839794E+02  0.24484015165E+01  0.65072137464E+02  0.00000000000E+00 0. -1.
         11    1    1    2    0    0 -0.40735587819E+02  0.69033010317E+01 -0.75026872755E+02  0.85650892088E+02  0.00000000000E+00 0.  1.
</event>
<event>
 7    1  0.2499014E-009  0.1492066E+03  0.7561462E-02  0.1201451E+00
         -1   -1    0    0    0  501 -0.00000000000E+00  0.00000000000E+00  0.19689687998E+03  0.19689687998E+03  0.00000000000E+00 0.  1.
          1   -1    0    0  501    0  0.00000000000E+00 -0.00000000000E+00 -0.16308804112E+03  0.16308804112E+03  0.00000000000E+00 0. -1.
         25    2    1    2    0    0  0.12488574719E+03  0.54058419386E+02 -0.25597708505E+02  0.18660414891E+03  0.12508838136E+03 0.  0.
          5    1    3    3  502    0  0.11487287405E+03  0.49778963537E+02  0.30814345369E+02  0.12899890963E+03  0.41800000000E+01 0.  1.
         -5    1    3    3    0  502  0.10012873136E+02  0.42794558496E+01 -0.56412053873E+02  0.57605239284E+02  0.41800000000E+01 0.  1.
        -11    1    1    2    0    0 -0.44726702703E+02 -0.66727544586E+02  0.40899212986E+02  0.90143157056E+02  0.00000000000E+00 0.  1.
         11    1    1    2    0    0 -0.80159044486E+02  0.12669125200E+02  0.18507334383E+02  0.83237615128E+02  0.00000000000E+00 0. -1.
</event>
<event>
 7    1  0.2499014E-009  0.9489316E+02  0.7561462E-02  0.1291417E+00
         -2   -1    0    0    0  501 -0.00000000000E+00  0.00000000000E+00  0.52024392557E+02  0.52024392557E+02  0.00000000000E+00 0.  1.
          2   -1    0    0  501    0  0.00000000000E+00 -0.00000000000E+00 -0.23835174348E+03  0.23835174348E+03  0.00000000000E+00 0. -1.
         25    2    1    2    0    0 -0.21061910350E+02 -0.75160868737E+01 -0.12923319442E+03  0.18124235669E+03  0.12508987844E+03 0.  0.
          5    1    3    3  502    0 -0.34596123905E+02 -0.47462104456E+02 -0.12558399112E+03  0.13870239498E+03  0.41800000000E+01 0.  1.
         -5    1    3    3    0  502  0.13534213555E+02  0.39946017582E+02 -0.36492033067E+01  0.42539961707E+02  0.41800000000E+01 0.  1.
        -11    1    1    2    0    0  0.34027831996E+02  0.40608114020E+02 -0.17196237503E+02  0.55701192616E+02  0.00000000000E+00 0.  1.
         11    1    1    2    0    0 -0.12965921646E+02 -0.33092027146E+02 -0.39897919000E+02  0.53432586736E+02  0.00000000000E+00 0. -1.
</event>
<event>
 7    1  0.2499014E-009  0.1008511E+03  0.7561462E-02  0.1278516E+00
          3   -1    0    0  501    0  0.00000000000E+00  0.00000000000E+00  0.57773294315E+02  0.57773294315E+02  0.00000000000E+00 0. -1.
         -3   -1    0    0    0  501 -0.00000000000E+00 -0.00000000000E+00 -0.48707093108E+03  0.48707093108E+03  0.00000000000E+00 0.  1.
         25    2    1    2    0    0  0.25545101732E+02  0.55743901697E+02 -0.46864985893E+02  0.14698792865E+03  0.12509672045E+03 0.  0.
          5    1    3    3  502    0  0.47861385730E+02 -0.51208994732E+01 -0.63632878534E+02  0.79897130649E+02  0.41800000000E+01 0. -1.
         -5    1    3    3    0  502 -0.22316283998E+02  0.60864801170E+02  0.16767892641E+02  0.67090798002E+02  0.41800000000E+01 0. -1.
        -11    1    1    2    0    0 -0.46551564503E+02 -0.45341291111E+02 -0.35855235086E+03  0.36439356354E+03  0.00000000000E+00 0.  1.
         11    1    1    2    0    0  0.21006462771E+02 -0.10402610586E+02 -0.23880300007E+02  0.33462733205E+02  0.00000000000E+00 0. -1.
</event>
<event>
 7    1  0.2499014E-009  0.1074732E+03  0.7561462E-02  0.1265322E+00
         -2   -1    0    0    0  501 -0.00000000000E+00  0.00000000000E+00  0.27984497854E+03  0.27984497854E+03  0.00000000000E+00 0.  1.
          2   -1    0    0  501    0  0.00000000000E+00 -0.00000000000E+00 -0.52274026390E+02  0.52274026390E+02  0.00000000000E+00 0. -1.
         25    2    1    2    0    0 -0.49715264112E+02 -0.23316710174E+02  0.12147154575E+03  0.18280637369E+03  0.12509019696E+03 0.  0.
          5    1    3    3  502    0 -0.12341555470E+02  0.51332202300E+02  0.44375400068E+02  0.69093831242E+02  0.41800000000E+01 0.  1.
         -5    1    3    3    0  502 -0.37373708642E+02 -0.74648912474E+02  0.77096145681E+02  0.11371254245E+03  0.41800000000E+01 0.  1.
        -11    1    1    2    0    0 -0.11059799784E+02  0.12463409786E+02  0.80954803566E+02  0.82651896379E+02  0.00000000000E+00 0.  1.
         11    1    1    2    0    0  0.60775063896E+02  0.10853300388E+02  0.25144602839E+02  0.66660734865E+02  0.00000000000E+00 0. -1.
</event>
<event>
 7    1  0.2499014E-009  0.1605395E+03  0.7561462E-02  0.1188089E+00
         -1   -1    0    0    0  501 -0.00000000000E+00  0.00000000000E+00  0.12939511046E+02  0.12939511046E+02  0.00000000000E+00 0.  1.
          1   -1    0    0  501    0  0.00000000000E+00 -0.00000000000E+00 -0.24565768249E+04  0.24565768249E+04  0.00000000000E+00 0. -1.
         25    2    1    2    0    0  0.33664557444E+02 -0.11391420585E+03 -0.17780154984E+04  0.17863640474E+04  0.12509056085E+03 0.  0.
          5    1    3    3  502    0 -0.68653420523E+01  0.24938695038E+02 -0.19589778846E+03  0.19764232177E+03  0.41800000000E+01 0.  1.
         -5    1    3    3    0  502  0.40529899497E+02 -0.13885290088E+03 -0.15821177100E+04  0.15887217256E+04  0.41800000000E+01 0.  1.
        -11    1    1    2    0    0  0.25260564119E+02  0.76030725470E+02 -0.42739292734E+03  0.43483730481E+03  0.00000000000E+00 0. -1.
         11    1    1    2    0    0 -0.58925121563E+02  0.37883480375E+02 -0.23822888810E+03  0.24831498376E+03  0.00000000000E+00 0.  1.
</event>
<event>
 7    1  0.2499014E-009  0.1162470E+03  0.7561462E-02  0.1249420E+00
         -2   -1    0    0    0  501 -0.00000000000E+00  0.00000000000E+00  0.43437494241E+02  0.43437494241E+02  0.00000000000E+00 0.  1.
          2   -1    0    0  501    0  0.00000000000E+00 -0.00000000000E+00 -0.53950569926E+03  0.53950569926E+03  0.00000000000E+00 0. -1.
         25    2    1    2    0    0  0.84994911590E+02  0.42441441397E+02 -0.36739468583E+03  0.39956358839E+03  0.12508714980E+03 0.  0.
          5    1    3    3  502    0 -0.60263955550E+01 -0.23755262033E+02 -0.13733950937E+02  0.28402882353E+02  0.41800000000E+01 0.  1.
         -5    1    3    3    0  502  0.91021307145E+02  0.66196703430E+02 -0.35366073489E+03  0.37116070603E+03  0.41800000000E+01 0.  1.
        -11    1    1    2    0    0 -0.59480347291E+02 -0.30220288942E+02 -0.13825472750E+03  0.15351073987E+03  0.00000000000E+00 0. -1.
         11    1    1    2    0    0 -0.25514564299E+02 -0.12221152455E+02  0.95812083081E+01  0.29868865250E+02  0.00000000000E+00 0.  1.
</event>
<event>
 7    1  0.2499014E-009  0.1183702E+03  0.7561462E-02  0.1245810E+00
          1   -1    0    0  501    0  0.00000000000E+00  0.00000000000E+00  0.25690833006E+03  0.25690833006E+03  0.00000000000E+00 0. -1.
         -1   -1    0    0    0  501 -0.00000000000E+00 -0.00000000000E+00 -0.84110716420E+02  0.84110716420E+02  0.00000000000E+00 0.  1.
         25    2    1    2    0    0 -0.29106043112E+01  0.68606481834E+02  0.12253744739E+02  0.14322588828E+03  0.12509268503E+03 0.  0.
          5    1    3    3  502    0  0.21125563216E+02 -0.32270463772E+02  0.59458150642E+01  0.39249170310E+02  0.41800000000E+01 0. -1.
         -5    1    3    3    0  502 -0.24036167527E+02  0.10087694561E+03  0.63079296747E+01  0.10397671798E+03  0.41800000000E+01 0. -1.
        -11    1    1    2    0    0  0.31258026724E+02 -0.17777479745E+02  0.12391351785E+03  0.12902582271E+03  0.00000000000E+00 0. -1.
         11    1    1    2    0    0 -0.28347422413E+02 -0.50829002089E+02  0.36630351046E+02  0.68767335477E+02  0.00000000000E+00 0.  1.
</event>
<event>
 7    1  0.2499014E-009  0.1085694E+03  0.7561462E-02  0.1263242E+00
         -1   -1    0    0    0  501 -0.00000000000E+00  0.00000000000E+00  0.23730967632E+02  0.23730967632E+02  0.00000000000E+00 0.  1.
          1   -1    0    0  501    0  0.00000000000E+00 -0.00000000000E+00 -0.72240430207E+03  0.72240430207E+03  0.00000000000E+00 0. -1.
         25    2    1    2    0    0  0.51198761961E+02 -0.32967137197E+02 -0.48202800813E+03  0.50170416888E+03  0.12509167474E+03 0.  0.
          5    1    3    3  502    0 -0.35460860091E+02 -0.17915351483E+01 -0.24116512056E+03  0.24380067672E+03  0.41800000000E+01 0. -1.
         -5    1    3    3    0  502  0.86659622052E+02 -0.31175602048E+02 -0.24086288757E+03  0.25790349216E+03  0.41800000000E+01 0. -1.
        -11    1    1    2    0    0 -0.17826504219E+02  0.49022054945E+02 -0.45168972366E+02  0.69001320193E+02  0.00000000000E+00 0. -1.
         11    1    1    2    0    0 -0.33372257742E+02 -0.16054917748E+02 -0.17147635395E+03  0.17542978063E+03  0.00000000000E+00 0.  1.
</event>
<event>
 7    1  0.2499014E-009  0.1246772E+03  0.7561462E-02  0.1235575E+00
          2   -1    0    0  501    0  0.00000000000E+00  0.00000000000E+00  0.24328723115E+02  0.24328723115E+02  0.00000000000E+00 0. -1.
         -2   -1    0    0    0  501 -0.00000000000E+00 -0.00000000000E+00 -0.11371872965E+04  0.11371872965E+04  0.00000000000E+00 0.  1.
         25    2    1    2    0    0 -0.75471605447E+02 -0.95634426180E+02 -0.69037167417E+03  0.71211112950E+03  0.12508919041E+03 0.  0.
          5    1    3    3  502    0 -0.28520954764E+02 -0.34293619580E+02 -0.55010385511E+03  0.55192501394E+03  0.41800000000E+01 0. -1.
         -5    1    3    3    0  502 -0.46950650683E+02 -0.61340806600E+02 -0.14026781906E+03  0.16018611556E+03  0.41800000000E+01 0. -1.
        -11    1    1    2    0    0  0.58439848292E+02  0.93177115626E+02 -0.41712310919E+03  0.43138020233E+03  0.00000000000E+00 0.  1.
         11    1    1    2    0    0  0.17031757155E+02  0.24573105536E+01 -0.53637900496E+01  0.18024687810E+02  0.00000000000E+00 0. -1.
</event>
<event>
 7    1  0.2499014E-009  0.1376451E+03  0.7561462E-02  0.1216533E+00
          2   -1    0    0  501    0  0.00000000000E+00  0.00000000000E+00  0.22195723043E+02  0.22195723043E+02  0.00000000000E+00 0.  1.
         -2   -1    0    0    0  501 -0.00000000000E+00 -0.00000000000E+00 -0.96623665987E+03  0.96623665987E+03  0.00000000000E+00 0. -1.
         25    2    1    2    0    0  0.11014458186E+02 -0.98525061907E+02 -0.50000039543E+03  0.52485882392E+03  0.12509150055E+03 0.  0.
          5    1    3    3  502    0  0.13335220059E+02  0.24455238239E+02 -0.17659090327E+03  0.17882311453E+03  0.41800000000E+01 0. -1.
         -5    1    3    3    0  502 -0.23207618730E+01 -0.12298030015E+03 -0.32340949215E+03  0.34603570939E+03  0.41800000000E+01 0. -1.
        -11    1    1    2    0    0  0.29504281071E+02  0.65282730180E+02 -0.33522037072E+03  0.34279007338E+03  0.00000000000E+00 0. -1.
         11    1    1    2    0    0 -0.40518739257E+02  0.33242331727E+02 -0.10882017068E+03  0.12078348561E+03  0.00000000000E+00 0.  1.
</event>
<event>
 7    1  0.2499014E-009  0.1992373E+03  0.7561462E-02  0.1150384E+00
          1   -1    0    0  501    0  0.00000000000E+00  0.00000000000E+00  0.44438028485E+03  0.44438028485E+03  0.00000000000E+00 0. -1.
         -1   -1    0    0    0  501 -0.00000000000E+00 -0.00000000000E+00 -0.10230120478E+03  0.10230120478E+03  0.00000000000E+00 0.  1.
         25    2    1    2    0    0  0.15326614772E+03 -0.83329354721E+02  0.10440192285E+03  0.23870800836E+03  0.12508980121E+03 0.  0.
          5    1    3    3  502    0 -0.10261321381E+02 -0.29335708709E+02  0.48213545238E+02  0.57514318794E+02  0.41800000000E+01 0. -1.
         -5    1    3    3    0  502  0.16352746910E+03 -0.53993646011E+02  0.56188377610E+02  0.18119368956E+03  0.41800000000E+01 0. -1.
        -11    1    1    2    0    0 -0.42622144350E+01  0.39231304293E+02  0.36354167857E+02  0.53655262827E+02  0.00000000000E+00 0. -1.
         11    1    1    2    0    0 -0.14900393328E+03  0.44098050428E+02  0.20132298936E+03  0.25431821844E+03  0.00000000000E+00 0.  1.
</event>
<event>
 7    1  0.2499014E-009  0.1684334E+03  0.7561462E-02  0.1179491E+00
         -2   -1    0    0    0  501 -0.00000000000E+00  0.00000000000E+00  0.31175793957E+02  0.31175793957E+02  0.00000000000E+00 0.  1.
          2   -1    0    0  501    0  0.00000000000E+00 -0.00000000000E+00 -0.99811872178E+03  0.99811872178E+03  0.00000000000E+00 0. -1.
         25    2    1    2    0    0  0.10396430167E+03 -0.91661835704E+02 -0.45538247341E+03  0.49216969620E+03  0.12508934657E+03 0.  0.
          5    1    3    3  502    0  0.57844801126E+02  0.16150190722E+02 -0.88938655042E+02  0.10739835398E+03  0.41800000000E+01 0.  1.
         -5    1    3    3    0  502  0.46119500545E+02 -0.10781202643E+03 -0.36644381836E+03  0.38477134222E+03  0.41800000000E+01 0.  1.
        -11    1    1    2    0    0 -0.21692196216E+02  0.71364923014E+02 -0.30212035525E+03  0.31119160122E+03  0.00000000000E+00 0.  1.
         11    1    1    2    0    0 -0.82272105455E+02  0.20296912690E+02 -0.20944009916E+03  0.22593321831E+03  0.00000000000E+00 0. -1.
</event>
<event>
 7    1  0.2499014E-009  0.9993362E+02  0.7561462E-02  0.1280436E+00
         -2   -1    0    0    0  501 -0.00000000000E+00  0.00000000000E+00  0.25076831221E+02  0.25076831221E+02  0.00000000000E+00 0.  1.
          2   -1    0    0  501    0  0.00000000000E+00 -0.00000000000E+00 -0.56181470688E+03  0.56181470688E+03  0.00000000000E+00 0. -1.
         25    2    1    2    0    0 -0.27830569067E+02 -0.11427176073E+02 -0.40081929889E+03  0.42096483226E+03  0.12510059435E+03 0.  0.
          5    1    3    3  502    0  0.45325555816E+02  0.17171547714E+02 -0.18383690218E+03  0.19016505216E+03  0.41800000000E+01 0. -1.
         -5    1    3    3    0  502 -0.73156124883E+02 -0.28598723787E+02 -0.21698239671E+03  0.23079978010E+03  0.41800000000E+01 0. -1.
        -11    1    1    2    0    0 -0.15027859981E+02  0.23624493849E+02 -0.11181050246E+03  0.11526292442E+03  0.00000000000E+00 0. -1.
         11    1    1    2    0    0  0.42858429048E+02 -0.12197317776E+02 -0.24108074309E+02  0.50663781425E+02  0.00000000000E+00 0.  1.
</event>
<event>
 7    1  0.2499014E-009  0.1327085E+03  0.7561462E-02  0.1223491E+00
         -1   -1    0    0    0  501 -0.00000000000E+00  0.00000000000E+00  0.11304319358E+02  0.11304319358E+02  0.00000000000E+00 0.  1.
          1   -1    0    0  501    0  0.00000000000E+00 -0.00000000000E+00 -0.17857051384E+04  0.17857051384E+04  0.00000000000E+00 0. -1.
         25    2    1    2    0    0  0.55566000325E+02 -0.55124371914E+02 -0.12606111223E+04  0.12692180110E+04  0.12509069164E+03 0.  0.
          5    1    3    3  502    0  0.38511063978E+02  0.35528154728E+02 -0.34795775778E+03  0.35190542113E+03  0.41800000000E+01 0. -1.
         -5    1    3    3    0  502  0.17054936348E+02 -0.90652526643E+02 -0.91265336449E+03  0.91731258988E+03  0.41800000000E+01 0. -1.
        -11    1    1    2    0    0 -0.10318199652E+02  0.71617397312E+02 -0.32479688717E+03  0.33275897397E+03  0.00000000000E+00 0. -1.
         11    1    1    2    0    0 -0.45247800674E+02 -0.16493025398E+02 -0.18899280958E+03  0.19503247275E+03  0.00000000000E+00 0.  1.
</event>
<event>
 7    1  0.2499014E-009  0.1059242E+03  0.7561462E-02  0.1268309E+00
          2   -1    0    0  501    0  0.00000000000E+00  0.00000000000E+00  0.48891049873E+03  0.48891049873E+03  0.00000000000E+00 0. -1.
         -2   -1    0    0    0  501 -0.00000000000E+00 -0.00000000000E+00 -0.33843725483E+02  0.33843725483E+02  0.00000000000E+00 0.  1.
         25    2    1    2    0    0 -0.56127317298E+02  0.28986057771E+02  0.19812883776E+03  0.24267547719E+03  0.12508350645E+03 0.  0.
          5    1    3    3  502    0 -0.18688029522E+02  0.59022341896E+02  0.32230618168E+02  0.69922560292E+02  0.41800000000E+01 0. -1.
         -5    1    3    3    0  502 -0.37439287776E+02 -0.30036284125E+02  0.16589821959E+03  0.17275291690E+03  0.41800000000E+01 0. -1.
        -11    1    1    2    0    0 -0.48522337967E+01 -0.39448849522E+02  0.16166321797E+03  0.16647748179E+03  0.00000000000E+00 0.  1.
         11    1    1    2    0    0  0.60979551095E+02  0.10462791750E+02  0.95274717526E+02  0.11360126523E+03  0.00000000000E+00 0. -1.
</event>
<event>
 7    1  0.2499014E-009  0.1131033E+03  0.7561462E-02  0.1254929E+00
         -1   -1    0    0    0  501 -0.00000000000E+00  0.00000000000E+00  0.21959931992E+02  0.21959931992E+02  0.00000000000E+00 0.  1.
          1   -1    0    0  501    0  0.00000000000E+00 -0.00000000000E+00 -0.67583413039E+03  0.67583413039E+03  0.00000000000E+00 0. -1.
         25    2    1    2    0    0  0.37198400593E+02  0.24355657756E+02 -0.26852396441E+03  0.29954547611E+03  0.12508178813E+03 0.  0.
          5    1    3    3  502    0  0.17411940859E+02  0.72147124639E+02 -0.20153589226E+03  0.21480822039E+03  0.41800000000E+01 0.  1.
         -5    1    3    3    0  502  0.19786459734E+02 -0.47791466883E+02 -0.66988072148E+02  0.84737255712E+02  0.41800000000E+01 0.  1.
        -11    1    1    2    0    0 -0.39998373003E+02  0.27183422657E+02 -0.16553534739E+03  0.17245509429E+03  0.00000000000E+00 0.  1.
         11    1    1    2    0    0  0.27999724106E+01 -0.51539080413E+02 -0.21981488660E+03  0.22579349199E+03  0.00000000000E+00 0. -1.
</event>
<event>
 7    1  0.2499014E-009  0.1052446E+03  0.7561462E-02  0.1269638E+00
         -2   -1    0    0    0  501 -0.00000000000E+00  0.00000000000E+00  0.31077441871E+02  0.31077441871E+02  0.00000000000E+00 0.  1.
          2   -1    0    0  501    0  0.00000000000E+00 -0.00000000000E+00 -0.43076084223E+03  0.43076084223E+03  0.00000000000E+00 0. -1.
         25    2    1    2    0    0  0.35149676524E+02 -0.34181291323E+01 -0.26968519166E+03  0.29937429262E+03  0.12509069155E+03 0.  0.
          5    1    3    3  502    0 -0.37389708100E+02 -0.13639542907E+02 -0.17537154981E+03  0.17987962721E+03  0.41800000000E+01 0.  1.
         -5    1    3    3    0  502  0.72539384624E+02  0.10221413775E+02 -0.94313641850E+02  0.11949466541E+03  0.41800000000E+01 0.  1.
        -11    1    1    2    0    0  0.27621278359E+02  0.17587109837E+02 -0.50471216516E+02  0.60162988184E+02  0.00000000000E+00 0.  1.
         11    1    1    2    0    0 -0.62770954883E+02 -0.14168980705E+02 -0.79526992187E+02  0.10230100331E+03  0.00000000000E+00 0. -1.
</event>
<event>
 7    1  0.2499014E-009  0.1414021E+03  0.7561462E-02  0.1211455E+00
          1   -1    0    0  501    0  0.00000000000E+00  0.00000000000E+00  0.37897615628E+03  0.37897615628E+03  0.00000000000E+00 0. -1.
         -1   -1    0    0    0  501 -0.00000000000E+00 -0.00000000000E+00 -0.54537957464E+02  0.54537957464E+02  0.00000000000E+00 0.  1.
         25    2    1    2    0    0 -0.60959963271E+01 -0.93000590968E+02  0.15264544216E+03  0.21825288632E+03  0.12508964899E+03 0.  0.
          5    1    3    3  502    0  0.54402208162E+02 -0.69791213809E+02  0.10684087995E+03  0.13879070504E+03  0.41800000000E+01 0. -1.
         -5    1    3    3    0  502 -0.60498204490E+02 -0.23209377159E+02  0.45804562212E+02  0.79462181281E+02  0.41800000000E+01 0. -1.
        -11    1    1    2    0    0 -0.27161990643E+02 -0.33378407569E+01  0.29556886695E+02  0.40280571839E+02  0.00000000000E+00 0.  1.
         11    1    1    2    0    0  0.33257986970E+02  0.96338431724E+02  0.14223586996E+03  0.17498065558E+03  0.00000000000E+00 0. -1.
</event>
<event>
 7    1  0.2499014E-009  0.1852817E+03  0.7561462E-02  0.1162787E+00
          1   -1    0    0  501    0  0.00000000000E+00  0.00000000000E+00  0.11197779142E+03  0.11197779142E+03  0.00000000000E+00 0. -1.
         -1   -1    0    0    0  501 -0.00000000000E+00 -0.00000000000E+00 -0.50887223875E+03  0.50887223875E+03  0.00000000000E+00 0.  1.
         25    2    1    2    0    0 -0.15937324117E+03  0.39890509854E+02 -0.30744417795E+02  0.20876748025E+03  0.12509020268E+03 0.  0.
          5    1    3    3  502    0  0.95414342749E+01 -0.15400012303E+02 -0.24656421627E+02  0.30880590577E+02  0.41800000000E+01 0. -1.
         -5    1    3    3    0  502 -0.16891467544E+03  0.55290522157E+02 -0.60879961688E+01  0.17788688967E+03  0.41800000000E+01 0. -1.
        -11    1    1    2    0    0  0.46880491948E+02  0.14724997317E+02 -0.18872847354E+03  0.19502062147E+03  0.00000000000E+00 0.  1.
         11    1    1    2    0    0  0.11249274922E+03 -0.54615507171E+02 -0.17742155599E+03  0.21706192845E+03  0.00000000000E+00 0. -1.
</event>
<event>
 7    1  0.2499014E-009  0.1163930E+03  0.7561462E-02  0.1249169E+00
         -1   -1    0    0    0  501 -0.00000000000E+00  0.00000000000E+00  0.40224121856E+02  0.40224121856E+02  0.00000000000E+00 0.  1.
          1   -1    0    0  501    0  0.00000000000E+00 -0.00000000000E+00 -0.39246075408E+03  0.39246075408E+03  0.00000000000E+00 0. -1.
         25    2    1    2    0    0 -0.44037720844E+02  0.43056896913E+02 -0.19102165181E+03  0.23650041883E+03  0.12509979782E+03 0.  0.
          5    1    3    3  502    0 -0.68477994687E+02  0.60811411540E+02 -0.81013576107E+02  0.12234351410E+03  0.41800000000E+01 0. -1.
         -5    1    3    3    0  502  0.24440273843E+02 -0.17754514627E+02 -0.11000807571E+03  0.11415690472E+03  0.41800000000E+01 0. -1.
        -11    1    1    2    0    0 -0.28114403084E+02 -0.21234605900E+02 -0.38686899083E+02  0.52325942984E+02  0.00000000000E+00 0.  1.
         11    1    1    2    0    0  0.72152123928E+02 -0.21822291012E+02 -0.12252808133E+03  0.14385851413E+03  0.00000000000E+00 0. -1.
</event>
<event>
 7    1  0.2499014E-009  0.1209234E+03  0.7561462E-02  0.1241581E+00
         -2   -1    0    0    0  501 -0.00000000000E+00  0.00000000000E+00  0.42695173068E+02  0.42695173068E+02  0.00000000000E+00 0.  1.
          2   -1    0    0  501    0  0.00000000000E+00 -0.00000000000E+00 -0.39198418262E+03  0.39198418262E+03  0.00000000000E+00 0. -1.
         25    2    1    2    0    0  0.60513719382E+02  0.35719796048E+02 -0.18259713377E+03  0.23222737170E+03  0.12510005933E+03 0.  0.
          5    1    3    3  502    0 -0.20599905621E+02 -0.29625720024E+02 -0.69471743816E+02  0.78395376059E+02  0.41800000000E+01 0.  1.
         -5    1    3    3    0  502  0.81113625003E+02  0.65345516071E+02 -0.11312538995E+03  0.15383199564E+03  0.41800000000E+01 0.  1.
        -11    1    1    2    0    0 -0.14957335780E+02  0.22705933856E+02 -0.96994494498E+02  0.10073337723E+03  0.00000000000E+00 0. -1.
         11    1    1    2    0    0 -0.45556383602E+02 -0.58425729904E+02 -0.69697381288E+02  0.10171860675E+03  0.00000000000E+00 0.  1.
</event>
<event>
 7    1  0.2499014E-009  0.1297690E+03  0.7561462E-02  0.1227799E+00
         -1   -1    0    0    0  501 -0.00000000000E+00  0.00000000000E+00  0.28682838833E+03  0.28682838833E+03  0.00000000000E+00 0.  1.
          1   -1    0    0  501    0  0.00000000000E+00 -0.00000000000E+00 -0.76528609267E+02  0.76528609267E+02  0.00000000000E+00 0. -1.
         25    2    1    2    0    0 -0.77448143055E+02 -0.30367619920E+02  0.18445939607E+03  0.23789329430E+03  0.12509014139E+03 0.  0.
          5    1    3    3  502    0 -0.29441826962E+02  0.49018668209E+02  0.72567759165E+02  0.92483528686E+02  0.41800000000E+01 0.  1.
         -5    1    3    3    0  502 -0.48006316093E+02 -0.79386288130E+02  0.11189163690E+03  0.14540976561E+03  0.41800000000E+01 0.  1.
        -11    1    1    2    0    0  0.91225788216E+02  0.27293760882E+02  0.41942990455E+02  0.10404954717E+03  0.00000000000E+00 0.  1.
         11    1    1    2    0    0 -0.13777645161E+02  0.30738590384E+01 -0.16102607458E+02  0.21414156124E+02  0.00000000000E+00 0. -1.
</event>
<event>
 7    1  0.2499014E-009  0.1112852E+03  0.7561462E-02  0.1258208E+00
          2   -1    0    0  501    0  0.00000000000E+00  0.00000000000E+00  0.11093261944E+04  0.11093261944E+04  0.00000000000E+00 0. -1.
         -2   -1    0    0    0  501 -0.00000000000E+00 -0.00000000000E+00 -0.16976685181E+02  0.16976685181E+02  0.00000000000E+00 0.  1.
         25    2    1    2    0    0 -0.68580853832E+02  0.54745583583E+01  0.80588915206E+03  0.81843815067E+03  0.12510146590E+03 0.  0.
          5    1    3    3  502    0 -0.18327154719E+02 -0.39252436868E+02  0.96574468604E+02  0.10592798868E+03  0.41800000000E+01 0. -1.
         -5    1    3    3    0  502 -0.50253699113E+02  0.44726995226E+02  0.70931468346E+03  0.71251016199E+03  0.41800000000E+01 0. -1.
        -11    1    1    2    0    0  0.14920517119E+02  0.39122303104E+02  0.86968587108E+02  0.96523114200E+02  0.00000000000E+00 0.  1.
         11    1    1    2    0    0  0.53660336713E+02 -0.44596861462E+02  0.19949177006E+03  0.21134161471E+03  0.00000000000E+00 0. -1.
</event>
<event>
 7    1  0.2499014E-009  0.1021996E+03  0.7561462E-02  0.1275737E+00
         -2   -1    0    0    0  501 -0.00000000000E+00  0.00000000000E+00  0.33599830654E+02  0.33599830654E+02  0.00000000000E+00 0.  1.
          2   -1    0    0  501    0  0.00000000000E+00 -0.00000000000E+00 -0.60006719540E+03  0.60006719540E+03  0.00000000000E+00 0. -1.
         25    2    1    2    0    0  0.77840023494E+02  0.27656595965E+02 -0.39689902467E+03  0.42426455268E+03  0.12509044055E+03 0.  0.
          5    1    3    3  502    0  0.50510359110E+02  0.89411169306E+01 -0.38396070448E+02  0.64210361899E+02  0.41800000000E+01 0.  1.
         -5    1    3    3    0  502  0.27329664384E+02  0.18715479034E+02 -0.35850295422E+03  0.36005419078E+03  0.41800000000E+01 0.  1.
        -11    1    1    2    0    0  0.81747687186E+01 -0.32386676337E+02 -0.27542663895E+02  0.43293440406E+02  0.00000000000E+00 0.  1.
         11    1    1    2    0    0 -0.86014792213E+02  0.47300803718E+01 -0.14202567618E+03  0.16610903297E+03  0.00000000000E+00 0. -1.
</event>
<event>
 7    1  0.2499014E-009  0.2402214E+03  0.7561462E-02  0.1119645E+00
          2   -1    0    0  501    0  0.00000000000E+00  0.00000000000E+00  0.88422663677E+03  0.88422663677E+03  0.00000000000E+00 0. -1.
         -2   -1    0    0    0  501 -0.00000000000E+00 -0.00000000000E+00 -0.71875563615E+02  0.71875563615E+02  0.00000000000E+00 0.  1.
         25    2    1    2    0    0 -0.50457641231E+02  0.21443937783E+03  0.30942423632E+03  0.39990119003E+03  0.12508950173E+03 0.  0.
          5    1    3    3  502    0  0.31662503416E+02  0.63266757824E+02  0.43512629673E+02  0.83162600423E+02  0.41800000000E+01 0. -1.
         -5    1    3    3    0  502 -0.82120144646E+02  0.15117262000E+03  0.26591160665E+03  0.31673858960E+03  0.41800000000E+01 0. -1.
        -11    1    1    2    0    0  0.70503634432E+02 -0.10665837971E+03  0.26484620713E+03  0.29409230840E+03  0.00000000000E+00 0.  1.
         11    1    1    2    0    0 -0.20045993201E+02 -0.10778099812E+03  0.23808062971E+03  0.26210870196E+03  0.00000000000E+00 0. -1.
</event>
<event>
 7    1  0.2499014E-009  0.1418955E+03  0.7561462E-02  0.1210801E+00
          1   -1    0    0  501    0  0.00000000000E+00  0.00000000000E+00  0.27950020740E+03  0.27950020740E+03  0.00000000000E+00 0. -1.
         -1   -1    0    0    0  501 -0.00000000000E+00 -0.00000000000E+00 -0.72322859425E+02  0.72322859425E+02  0.00000000000E+00 0.  1.
         25    2    1    2    0    0 -0.92189832358E+02  0.34696438988E+01  0.11264031176E+03  0.19196036680E+03  0.12509971611E+03 0.  0.
          5    1    3    3  502    0 -0.11974040887E+03 -0.16347872551E+02  0.82569925844E+02  0.14642500984E+03  0.41800000000E+01 0.  1.
         -5    1    3    3    0  502  0.27550576513E+02  0.19817516450E+02  0.30070385916E+02  0.45535356961E+02  0.41800000000E+01 0.  1.
        -11    1    1    2    0    0  0.10831895813E+02  0.36467184689E+02  0.32478989781E+02  0.50020698748E+02  0.00000000000E+00 0.  1.
         11    1    1    2    0    0  0.81357936545E+02 -0.39936828588E+02  0.62058046435E+02  0.10984200127E+03  0.00000000000E+00 0. -1.
</event>
<event>
 7    1  0.2499014E-009  0.1519982E+03  0.7561462E-02  0.1198039E+00
         -1   -1    0    0    0  501 -0.00000000000E+00  0.00000000000E+00  0.35959683058E+02  0.35959683058E+02  0.00000000000E+00 0.  1.
          1   -1    0    0  501    0  0.00000000000E+00 -0.00000000000E+00 -0.79629390906E+03  0.79629390906E+03  0.00000000000E+00 0. -1.
         25    2    1    2    0    0 -0.10382475022E+03  0.61965607808E+02 -0.52730102121E+03  0.55525976922E+03  0.12509088313E+03 0.  0.
          5    1    3    3  502    0  0.17488941818E+02  0.27700578451E+02 -0.22929384410E+03  0.23165993282E+03  0.41800000000E+01 0.  1.
         -5    1    3    3    0  502 -0.12131369204E+03  0.34265029357E+02 -0.29800717711E+03  0.32359983640E+03  0.41800000000E+01 0.  1.
        -11    1    1    2    0    0  0.74113125373E+01 -0.46631642469E+02 -0.45502432387E+02  0.65573691264E+02  0.00000000000E+00 0.  1.
         11    1    1    2    0    0  0.96413437683E+02 -0.15333965339E+02 -0.18753077241E+03  0.21142013163E+03  0.00000000000E+00 0. -1.
</event>
<event>
 7    1  0.2499014E-009  0.1398563E+03  0.7561462E-02  0.1213522E+00
          2   -1    0    0  501    0  0.00000000000E+00  0.00000000000E+00  0.22540616476E+03  0.22540616476E+03  0.00000000000E+00 0. -1.
         -2   -1    0    0    0  501 -0.00000000000E+00 -0.00000000000E+00 -0.27692071284E+03  0.27692071284E+03  0.00000000000E+00 0.  1.
         25    2    1    2    0    0  0.82230532331E+02  0.90236837838E+02 -0.21581586022E+03  0.27771854368E+03  0.12508619681E+03 0.  0.
          5    1    3    3  502    0  0.75048030581E+02  0.10279468510E+03 -0.10267648253E+03  0.16358143735E+03  0.41800000000E+01 0.  1.
         -5    1    3    3    0  502  0.71825017499E+01 -0.12557847265E+02 -0.11313937769E+03  0.11413710634E+03  0.41800000000E+01 0.  1.
        -11    1    1    2    0    0 -0.43266852056E+02 -0.49556721053E+01  0.10498760091E+03  0.11366167128E+03  0.00000000000E+00 0. -1.
         11    1    1    2    0    0 -0.38963680275E+02 -0.85281165733E+02  0.59313711229E+02  0.11094666263E+03  0.00000000000E+00 0.  1.
</event>
<event>
 7    1  0.2499014E-009  0.1079858E+03  0.7561462E-02  0.1264346E+00
          1   -1    0    0  501    0  0.00000000000E+00  0.00000000000E+00  0.15885382192E+03  0.15885382192E+03  0.00000000000E+00 0. -1.
         -1   -1    0    0    0  501 -0.00000000000E+00 -0.00000000000E+00 -0.18315830854E+03  0.18315830854E+03  0.00000000000E+00 0.  1.
         25    2    1    2    0    0  0.11312373557E+01 -0.99367348636E+02  0.74275198039E+02  0.17618059971E+03  0.12509056319E+03 0.  0.
          5    1    3    3  502    0 -0.73288179759E+01  0.60066124051E+01 -0.27495536282E+02  0.29381420676E+02  0.41800000000E+01 0.  1.
         -5    1    3    3    0  502  0.84600553315E+01 -0.10537396104E+03  0.10177073432E+03  0.14679917904E+03  0.41800000000E+01 0.  1.
        -11    1    1    2    0    0 -0.53059658995E+01  0.53717494088E+02 -0.10641859018E+03  0.11932576746E+03  0.00000000000E+00 0.  1.
         11    1    1    2    0    0  0.41747285438E+01  0.45649854548E+02  0.78389055161E+01  0.46505763281E+02  0.00000000000E+00 0. -1.
</event>
<event>
 7    1  0.2499014E-009  0.3425944E+03  0.7561462E-02  0.1065696E+00
          2   -1    0    0  501    0  0.00000000000E+00  0.00000000000E+00  0.19281103282E+03  0.19281103282E+03  0.00000000000E+00 0. -1.
         -2   -1    0    0    0  501 -0.00000000000E+00 -0.00000000000E+00 -0.69371022459E+03  0.69371022459E+03  0.00000000000E+00 0.  1.
         25    2    1    2    0    0  0.27855766414E+03  0.19011206156E+03 -0.14441118269E+03  0.38760642761E+03  0.12508870788E+03 0.  0.
          5    1    3    3  502    0 -0.28369419701E+01  0.10413934640E+02 -0.34008089760E+02  0.35923820002E+02  0.41800000000E+01 0. -1.
         -5    1    3    3    0  502  0.28139460611E+03  0.17969812692E+03 -0.11040309293E+03  0.35168260761E+03  0.41800000000E+01 0. -1.
        -11    1    1    2    0    0 -0.14233334106E+03 -0.12171747617E+03 -0.25258380710E+03  0.31443998409E+03  0.00000000000E+00 0. -1.
         11    1    1    2    0    0 -0.13622432308E+03 -0.68394585389E+02 -0.10390420198E+03  0.18447484571E+03  0.00000000000E+00 0.  1.
</event>
<event>
 7    1  0.2499014E-009  0.1529992E+03  0.7561462E-02  0.1196835E+00
          1   -1    0    0  501    0  0.00000000000E+00  0.00000000000E+00  0.12040054183E+03  0.12040054183E+03  0.00000000000E+00 0. -1.
         -1   -1    0    0    0  501 -0.00000000000E+00 -0.00000000000E+00 -0.21853418460E+03  0.21853418460E+03  0.00000000000E+00 0.  1.
         25    2    1    2    0    0  0.11062708829E+03  0.23835375478E+02 -0.94247697541E+02  0.19322949682E+03  0.12509409322E+03 0.  0.
          5    1    3    3  502    0  0.35833861946E+02 -0.45859500207E+02 -0.70072743126E+01  0.58768475516E+02  0.41800000000E+01 0. -1.
         -5    1    3    3    0  502  0.74793226345E+02  0.69694875684E+02 -0.87240423228E+02  0.13446102130E+03  0.41800000000E+01 0. -1.
        -11    1    1    2    0    0 -0.54115297575E+02 -0.57976137879E+02  0.26997067226E+01  0.79353553238E+02  0.00000000000E+00 0. -1.
         11    1    1    2    0    0 -0.56511790716E+02  0.34140762401E+02 -0.65856519515E+01  0.66351676384E+02  0.00000000000E+00 0.  1.
</event>
<event>
 7    1  0.2499014E-009  0.1720828E+03  0.7561462E-02  0.1175693E+00
          3   -1    0    0  501    0  0.00000000000E+00  0.00000000000E+00  0.13054700956E+03  0.13054700956E+03  0.00000000000E+00 0. -1.
         -3   -1    0    0    0  501 -0.00000000000E+00 -0.00000000000E+00 -0.27731652268E+03  0.27731652268E+03  0.00000000000E+00 0.  1.
         25    2    1    2    0    0 -0.93894400836E+02  0.10968078864E+03 -0.14924442047E+02  0.19160865688E+03  0.12508039222E+03 0.  0.
          5    1    3    3  502    0 -0.11883393785E+03  0.11345061024E+03 -0.57574805440E+01  0.16444806697E+03  0.41800000000E+01 0. -1.
         -5    1    3    3    0  502  0.24939537010E+02 -0.37698216022E+01 -0.91669615030E+01  0.27160589912E+02  0.41800000000E+01 0. -1.
        -11    1    1    2    0    0  0.98009396939E+02 -0.86540630241E+02 -0.13982697610E+03  0.19143329338E+03  0.00000000000E+00 0.  1.
         11    1    1    2    0    0 -0.41149961024E+01 -0.23140158402E+02  0.79819050228E+01  0.24821581972E+02  0.00000000000E+00 0. -1.
</event>
<event>
 7    1  0.2499014E-009  0.6750970E+02  0.7561462E-02  0.1368772E+00
         -2   -1    0    0    0  501 -0.00000000000E+00  0.00000000000E+00  0.18549400620E+03  0.18549400620E+03  0.00000000000E+00 0.  1.
          2   -1    0    0  501    0  0.00000000000E+00 -0.00000000000E+00 -0.72151154210E+02  0.72151154210E+02  0.00000000000E+00 0. -1.
         25    2    1    2    0    0  0.13642537493E+02 -0.22536651479E+02  0.97403006419E+02  0.16071199382E+03  0.12508788834E+03 0.  0.
          5    1    3    3  502    0 -0.39918441181E-01  0.25349324224E+02  0.10681039701E+03  0.10985683020E+03  0.41800000000E+01 0.  1.
         -5    1    3    3    0  502  0.13682455934E+02 -0.47885975702E+02 -0.94073905871E+01  0.50855163622E+02  0.41800000000E+01 0.  1.
        -11    1    1    2    0    0 -0.33701443542E+02  0.81712462987E+01  0.46277970988E+02  0.57829120360E+02  0.00000000000E+00 0.  1.
         11    1    1    2    0    0  0.20058906048E+02  0.14365405180E+02 -0.30338125417E+02  0.39104046232E+02  0.00000000000E+00 0. -1.
</event>
<event>
 7    1  0.2499014E-009  0.1302873E+03  0.7561462E-02  0.1227030E+00
          2   -1    0    0  501    0  0.00000000000E+00  0.00000000000E+00  0.16277457002E+03  0.16277457002E+03  0.00000000000E+00 0. -1.
         -2   -1    0    0    0  501 -0.00000000000E+00 -0.00000000000E+00 -0.13684396704E+03  0.13684396704E+03  0.00000000000E+00 0.  1.
         25    2    1    2    0    0 -0.24480967572E+02  0.98737876494E+02  0.67059792101E+01  0.16137408524E+03  0.12509252257E+03 0.  0.
          5    1    3    3  502    0  0.20208190004E+02  0.67309946216E+02  0.54210489068E+02  0.88855215535E+02  0.41800000000E+01 0. -1.
         -5    1    3    3    0  502 -0.44689157576E+02  0.31427930277E+02 -0.47504509858E+02  0.72518869704E+02  0.41800000000E+01 0. -1.
        -11    1    1    2    0    0  0.99795210714E+01  0.16472515172E+02 -0.43769080079E+01  0.19750744811E+02  0.00000000000E+00 0. -1.
         11    1    1    2    0    0  0.14501446500E+02 -0.11521039167E+03  0.23601531771E+02  0.11849370701E+03  0.00000000000E+00 0.  1.
</event>
<event>
 7    1  0.2499014E-009  0.1262245E+03  0.7561462E-02  0.1233168E+00
          1   -1    0    0  501    0  0.00000000000E+00  0.00000000000E+00  0.10913208271E+04  0.10913208271E+04  0.00000000000E+00 0. -1.
         -1   -1    0    0    0  501 -0.00000000000E+00 -0.00000000000E+00 -0.20723765641E+02  0.20723765641E+02  0.00000000000E+00 0.  1.
         25    2    1    2    0    0  0.91853001662E+02 -0.31282856769E+02  0.71786053341E+03  0.73510959164E+03  0.12508707064E+03 0.  0.
          5    1    3    3  502    0  0.11938237731E+03 -0.38742196499E+02  0.50868465864E+03  0.52395673881E+03  0.41800000000E+01 0. -1.
         -5    1    3    3    0  502 -0.27529375648E+02  0.74593397296E+01  0.20917587477E+03  0.21115285283E+03  0.41800000000E+01 0. -1.
        -11    1    1    2    0    0 -0.46303106232E+02  0.23162365326E+02  0.30886492628E+03  0.31317409775E+03  0.00000000000E+00 0. -1.
         11    1    1    2    0    0 -0.45549895430E+02  0.81204914431E+01  0.43871601754E+02  0.63760903345E+02  0.00000000000E+00 0.  1.
</event>
<event>
 7    1  0.2499014E-009  0.8728719E+02  0.7561462E-02  0.1309557E+00
          1   -1    0    0  501    0  0.00000000000E+00  0.00000000000E+00  0.86056926369E+03  0.86056926369E+03  0.00000000000E+00 0. -1.
         -1   -1    0    0    0  501 -0.00000000000E+00 -0.00000000000E+00 -0.16766911908E+02  0.16766911908E+02  0.00000000000E+00 0.  1.
         25    2    1    2    0    0  0.48062887626E+02 -0.26590561330E+02  0.51073850853E+03  0.52869488779E+03  0.12508941269E+03 0.  0.
          5    1    3    3  502    0  0.15409168269E+02  0.13938773338E+02  0.70927752555E+01  0.22349759053E+02  0.41800000000E+01 0. -1.
         -5    1    3    3    0  502  0.32653719358E+02 -0.40529334668E+02  0.50364573327E+03  0.50634512874E+03  0.41800000000E+01 0. -1.
        -11    1    1    2    0    0 -0.18197153475E+02 -0.31197045716E+02  0.15247916192E+03  0.15669807553E+03  0.00000000000E+00 0.  1.
         11    1    1    2    0    0 -0.29865734151E+02  0.57787607046E+02  0.18058468134E+03  0.19194321228E+03  0.00000000000E+00 0. -1.
</event>
<event>
 7    1  0.2499014E-009  0.1139918E+03  0.7561462E-02  0.1253351E+00
         -2   -1    0    0    0  501 -0.00000000000E+00  0.00000000000E+00  0.90713338742E+02  0.90713338742E+02  0.00000000000E+00 0.  1.
          2   -1    0    0  501    0  0.00000000000E+00 -0.00000000000E+00 -0.17164135335E+03  0.17164135335E+03  0.00000000000E+00 0. -1.
         25    2    1    2    0    0  0.62167895205E+02  0.88232820801E+01 -0.55638963199E+02  0.15060612908E+03  0.12507523492E+03 0.  0.
          5    1    3    3  502    0  0.49161741932E+02 -0.54495941574E+02 -0.41085923987E+02  0.84215260301E+02  0.41800000000E+01 0.  1.
         -5    1    3    3    0  502  0.13006153272E+02  0.63319223654E+02 -0.14553039213E+02  0.66390868780E+02  0.41800000000E+01 0.  1.
        -11    1    1    2    0    0 -0.50976835446E+02  0.23026240825E+02 -0.45759298080E+02  0.72268657656E+02  0.00000000000E+00 0. -1.
         11    1    1    2    0    0 -0.11191059758E+02 -0.31849522905E+02  0.20470246673E+02  0.39479905353E+02  0.00000000000E+00 0.  1.
</event>
<event>
 7    1  0.2836802E-009  0.1141610E+03  0.7561462E-02  0.1253053E+00
         -1   -1    0    0    0  501 -0.00000000000E+00  0.00000000000E+00  0.19514314761E+03  0.19514314761E+03  0.00000000000E+00 0.  1.
          1   -1    0    0  501    0  0.00000000000E+00 -0.00000000000E+00 -0.10855366312E+03  0.10855366312E+03  0.00000000000E+00 0. -1.
         25    2    1    2    0    0  0.27967350167E+02 -0.51313787116E+02  0.12744923868E+03  0.18789425893E+03  0.12508263938E+03 0.  0.
          5    1    3    3  502    0  0.12147126318E+02  0.37112481761E+02  0.11039447052E+02  0.40794984636E+02  0.41800000000E+01 0.  1.
         -5    1    3    3    0  502  0.15820223849E+02 -0.88426268877E+02  0.11640979162E+03  0.14709927429E+03  0.41800000000E+01 0.  1.
        -11    1    1    2    0    0 -0.41403300675E+02 -0.45613397635E+01  0.54353730697E+01  0.42006932852E+02  0.00000000000E+00 0.  1.
         11    1    1    2    0    0  0.13435950507E+02  0.55875126879E+02 -0.46295127251E+02  0.73795618955E+02  0.00000000000E+00 0. -1.
</event>
<event>
 7    1  0.2499014E-009  0.1856416E+03  0.7561462E-02  0.1162452E+00
          2   -1    0    0  501    0  0.00000000000E+00  0.00000000000E+00  0.18631565592E+04  0.18631565592E+04  0.00000000000E+00 0. -1.
         -2   -1    0    0    0  501 -0.00000000000E+00 -0.00000000000E+00 -0.25864224765E+02  0.25864224765E+02  0.00000000000E+00 0.  1.
         25    2    1    2    0    0  0.80970070727E+02  0.16530198345E+03  0.11800654973E+04  0.12008678844E+04  0.12509276383E+03 0.  0.
          5    1    3    3  502    0  0.47560583518E+02  0.69432419867E+02  0.22241578203E+03  0.23784264237E+03  0.41800000000E+01 0.  1.
         -5    1    3    3    0  502  0.33409487209E+02  0.95869563586E+02  0.95764971532E+03  0.96302524199E+03  0.41800000000E+01 0.  1.
        -11    1    1    2    0    0 -0.56661055592E+02 -0.90669960070E+02  0.22820460211E+03  0.25200963733E+03  0.00000000000E+00 0.  1.
         11    1    1    2    0    0 -0.24309015136E+02 -0.74632023383E+02  0.42902223500E+03  0.43614326231E+03  0.00000000000E+00 0. -1.
</event>
<event>
 7    1  0.2499014E-009  0.9875186E+02  0.7561462E-02  0.1282943E+00
         -2   -1    0    0    0  501 -0.00000000000E+00  0.00000000000E+00  0.38163541967E+02  0.38163541967E+02  0.00000000000E+00 0.  1.
          2   -1    0    0  501    0  0.00000000000E+00 -0.00000000000E+00 -0.42089244952E+03  0.42089244952E+03  0.00000000000E+00 0. -1.
         25    2    1    2    0    0 -0.61706140987E+02  0.73546912033E+01 -0.24700545544E+03  0.28376122355E+03  0.12508795969E+03 0.  0.
          5    1    3    3  502    0 -0.42506333203E+01  0.28260872094E+02  0.39293389627E+00  0.28885490686E+02  0.41800000000E+01 0. -1.
         -5    1    3    3    0  502 -0.57455507667E+02 -0.20906180890E+02 -0.24739838933E+03  0.25487573287E+03  0.41800000000E+01 0. -1.
        -11    1    1    2    0    0  0.36073724514E+02  0.39769584936E+02 -0.90041539237E+02  0.10483516716E+03  0.00000000000E+00 0. -1.
         11    1    1    2    0    0  0.25632416473E+02 -0.47124276139E+02 -0.45681912878E+02  0.70459600766E+02  0.00000000000E+00 0.  1.
</event>
<event>
 7    1  0.2499014E-009  0.1809216E+03  0.7561462E-02  0.1166914E+00
          1   -1    0    0  501    0  0.00000000000E+00  0.00000000000E+00  0.71210624727E+02  0.71210624727E+02  0.00000000000E+00 0. -1.
         -1   -1    0    0    0  501 -0.00000000000E+00 -0.00000000000E+00 -0.51049257406E+03  0.51049257406E+03  0.00000000000E+00 0.  1.
         25    2    1    2    0    0 -0.26461298793E+02  0.15459899346E+03 -0.21888804124E+03  0.29691968385E+03  0.12509306513E+03 0.  0.
          5    1    3    3  502    0 -0.26102561769E+01 -0.12196838800E+02 -0.72483743189E+02  0.73667779529E+02  0.41800000000E+01 0. -1.
         -5    1    3    3    0  502 -0.23851042616E+02  0.16679583226E+03 -0.14640429805E+03  0.22325190432E+03  0.41800000000E+01 0. -1.
        -11    1    1    2    0    0  0.26190844148E+02 -0.16634531164E+03 -0.20921297740E+03  0.26856431806E+03  0.00000000000E+00 0.  1.
         11    1    1    2    0    0  0.27045464487E+00  0.11746318175E+02 -0.11180930694E+02  0.16219196884E+02  0.00000000000E+00 0. -1.
</event>
<event>
 7    1  0.2594875E-009  0.1355984E+03  0.7561462E-02  0.1219377E+00
          3   -1    0    0  501    0  0.00000000000E+00  0.00000000000E+00  0.54883376538E+03  0.54883376538E+03  0.00000000000E+00 0. -1.
         -3   -1    0    0    0  501 -0.00000000000E+00 -0.00000000000E+00 -0.40092311889E+02  0.40092311889E+02  0.00000000000E+00 0.  1.
         25    2    1    2    0    0 -0.53567767608E+02 -0.84391427840E+02  0.24928135211E+03  0.29627649569E+03  0.12508857090E+03 0.  0.
          5    1    3    3  502    0 -0.56545758912E+02 -0.23472028862E+01  0.34770125221E+02  0.66553483908E+02  0.41800000000E+01 0.  1.
         -5    1    3    3    0  502  0.29779913042E+01 -0.82044224954E+02  0.21451122689E+03  0.22972301178E+03  0.41800000000E+01 0.  1.
        -11    1    1    2    0    0  0.16655717041E+02  0.92885416200E+02  0.21101883745E+03  0.23115809138E+03  0.00000000000E+00 0. -1.
         11    1    1    2    0    0  0.36912050568E+02 -0.84939883594E+01  0.48441263926E+02  0.61491490192E+02  0.00000000000E+00 0.  1.
</event>
<event>
 7    1  0.2499014E-009  0.1370732E+03  0.7561462E-02  0.1217322E+00
          1   -1    0    0  501    0  0.00000000000E+00  0.00000000000E+00  0.43655244056E+03  0.43655244056E+03  0.00000000000E+00 0. -1.
         -1   -1    0    0    0  501 -0.00000000000E+00 -0.00000000000E+00 -0.72258666110E+02  0.72258666110E+02  0.00000000000E+00 0.  1.
         25    2    1    2    0    0  0.28105364125E+02  0.12523709076E+03  0.27337426139E+03  0.32688988250E+03  0.12509703472E+03 0.  0.
          5    1    3    3  502    0  0.50997735907E+02  0.82936923564E+02  0.25867541662E+03  0.27642312841E+03  0.41800000000E+01 0. -1.
         -5    1    3    3    0  502 -0.22892371782E+02  0.42300167196E+02  0.14698844772E+02  0.50466754089E+02  0.41800000000E+01 0. -1.
        -11    1    1    2    0    0 -0.87001107201E+01 -0.47761744765E+02 -0.13564760585E+02  0.50407131631E+02  0.00000000000E+00 0.  1.
         11    1    1    2    0    0 -0.19405253405E+02 -0.77475345996E+02  0.10448427364E+03  0.13151409254E+03  0.00000000000E+00 0. -1.
</event>
<event>
 7    1  0.2499014E-009  0.9221726E+02  0.7561462E-02  0.1297569E+00
          1   -1    0    0  501    0  0.00000000000E+00  0.00000000000E+00  0.29017377334E+03  0.29017377334E+03  0.00000000000E+00 0. -1.
         -1   -1    0    0    0  501 -0.00000000000E+00 -0.00000000000E+00 -0.67532286098E+02  0.67532286098E+02  0.00000000000E+00 0.  1.
         25    2    1    2    0    0 -0.48015320730E+02  0.69934150876E+02  0.12676538607E+03  0.19726429831E+03  0.12508990287E+03 0.  0.
          5    1    3    3  502    0 -0.49691630159E+02  0.69711943689E+02  0.16968847618E+02  0.87375210387E+02  0.41800000000E+01 0.  1.
         -5    1    3    3    0  502  0.16763094293E+01  0.22220718691E+00  0.10979653845E+03  0.10988908792E+03  0.41800000000E+01 0.  1.
        -11    1    1    2    0    0 -0.74339426428E+01 -0.11180429353E+02  0.76091482486E+02  0.77266934782E+02  0.00000000000E+00 0. -1.
         11    1    1    2    0    0  0.55449263373E+02 -0.58753721523E+02  0.19784618695E+02  0.83174826349E+02  0.00000000000E+00 0.  1.
</event>
<event>
 7    1  0.2499014E-009  0.2323970E+03  0.7561462E-02  0.1124964E+00
         -2   -1    0    0    0  501 -0.00000000000E+00  0.00000000000E+00  0.14316786912E+03  0.14316786912E+03  0.00000000000E+00 0.  1.
          2   -1    0    0  501    0  0.00000000000E+00 -0.00000000000E+00 -0.64489412137E+03  0.64489412137E+03  0.00000000000E+00 0. -1.
         25    2    1    2    0    0 -0.21739467592E+03 -0.15900098889E+02 -0.49092716499E+03  0.55151567819E+03  0.12508718440E+03 0.  0.
          5    1    3    3  502    0 -0.97364437839E+02  0.35771299250E+02 -0.31935112486E+03  0.33580058511E+03  0.41800000000E+01 0.  1.
         -5    1    3    3    0  502 -0.12003023808E+03 -0.51671398139E+02 -0.17157604013E+03  0.21571509309E+03  0.41800000000E+01 0.  1.
        -11    1    1    2    0    0  0.79137967406E+02  0.41914916685E+02 -0.30252927574E+02  0.94524693877E+02  0.00000000000E+00 0. -1.
         11    1    1    2    0    0  0.13825670851E+03 -0.26014817796E+02  0.19453840317E+02  0.14202161841E+03  0.00000000000E+00 0.  1.
</event>
<event>
 7    1  0.2499014E-009  0.1101138E+03  0.7561462E-02  0.1260359E+00
         -1   -1    0    0    0  501 -0.00000000000E+00  0.00000000000E+00  0.10254727213E+04  0.10254727213E+04  0.00000000000E+00 0.  1.
          1   -1    0    0  501    0  0.00000000000E+00 -0.00000000000E+00 -0.19693551735E+02  0.19693551735E+02  0.00000000000E+00 0. -1.
         25    2    1    2    0    0  0.23635175695E+02 -0.84275105692E+02  0.44096373844E+03  0.46664277901E+03  0.12508217142E+03 0.  0.
          5    1    3    3  502    0  0.29844073917E+02 -0.39422775635E+02  0.40667532009E+03  0.40969148436E+03  0.41800000000E+01 0. -1.
         -5    1    3    3    0  502 -0.62088982216E+01 -0.44852330057E+02  0.34288418355E+02  0.56951294647E+02  0.41800000000E+01 0. -1.
        -11    1    1    2    0    0 -0.49594833144E+02  0.16035273753E+02  0.24400386379E+03  0.24950884358E+03  0.00000000000E+00 0. -1.
         11    1    1    2    0    0  0.25959657449E+02  0.68239831939E+02  0.32081156731E+03  0.32901465043E+03  0.00000000000E+00 0.  1.
</event>
<event>
 7    1  0.2499014E-009  0.1166072E+03  0.7561462E-02  0.1248801E+00
         -1   -1    0    0    0  501 -0.00000000000E+00  0.00000000000E+00  0.16692408181E+02  0.16692408181E+02  0.00000000000E+00 0.  1.
          1   -1    0    0  501    0  0.00000000000E+00 -0.00000000000E+00 -0.86560000748E+03  0.86560000748E+03  0.00000000000E+00 0. -1.
         25    2    1    2    0    0  0.47136802763E+02  0.22457412244E+02 -0.50629414482E+03  0.52412477872E+03  0.12508720577E+03 0.  0.
          5    1    3    3  502    0 -0.39521300632E+02  0.11876001009E+02 -0.95222470025E+02  0.10386416033E+03  0.41800000000E+01 0. -1.
         -5    1    3    3    0  502  0.86658103395E+02  0.10581411235E+02 -0.41107167480E+03  0.42026061839E+03  0.41800000000E+01 0. -1.
        -11    1    1    2    0    0 -0.47745882220E+02 -0.54402739560E+02 -0.23159809169E+03  0.24264583947E+03  0.00000000000E+00 0.  1.
         11    1    1    2    0    0  0.60907945637E+00  0.31945327316E+02 -0.11101536279E+03  0.11552179747E+03  0.00000000000E+00 0. -1.
</event>
<event>
 7    1  0.2499014E-009  0.8250466E+02  0.7561462E-02  0.1322090E+00
          2   -1    0    0  501    0  0.00000000000E+00  0.00000000000E+00  0.55057370598E+03  0.55057370598E+03  0.00000000000E+00 0. -1.
         -2   -1    0    0    0  501 -0.00000000000E+00 -0.00000000000E+00 -0.54240856945E+02  0.54240856945E+02  0.00000000000E+00 0.  1.
         25    2    1    2    0    0 -0.44478583565E+02 -0.11113007162E+02  0.48610540366E+03  0.50403217454E+03  0.12509247055E+03 0.  0.
          5    1    3    3  502    0 -0.39935030475E+02 -0.37449902240E+02  0.80016883883E+02  0.97043680594E+02  0.41800000000E+01 0. -1.
         -5    1    3    3    0  502 -0.45435530907E+01  0.26336895079E+02  0.40608851977E+03  0.40698849395E+03  0.41800000000E+01 0. -1.
        -11    1    1    2    0    0  0.29304197836E+02 -0.28348979253E+02 -0.23176882174E+02  0.46899557597E+02  0.00000000000E+00 0.  1.
         11    1    1    2    0    0  0.15174385729E+02  0.39461986415E+02  0.33404327558E+02  0.53882830787E+02  0.00000000000E+00 0. -1.
</event>
<event>
 7    1  0.2499014E-009  0.1251623E+03  0.7561462E-02  0.1234816E+00
          2   -1    0    0  501    0  0.00000000000E+00  0.00000000000E+00  0.14267362360E+03  0.14267362360E+03  0.00000000000E+00 0. -1.
         -2   -1    0    0    0  501 -0.00000000000E+00 -0.00000000000E+00 -0.12893242160E+03  0.12893242160E+03  0.00000000000E+00 0.  1.
         25    2    1    2    0    0  0.35779971028E+02 -0.64878081696E+02  0.44539659475E+02  0.15205462808E+03  0.12508979511E+03 0.  0.
          5    1    3    3  502    0  0.72909424789E+02 -0.85209305228E+01  0.49308151924E+01  0.73689726682E+02  0.41800000000E+01 0. -1.
         -5    1    3    3    0  502 -0.37129453761E+02 -0.56357151174E+02  0.39608844283E+02  0.78364901393E+02  0.41800000000E+01 0. -1.
        -11    1    1    2    0    0 -0.34802651464E+02 -0.84771198114E+01 -0.29131669632E+02  0.46170773058E+02  0.00000000000E+00 0.  1.
         11    1    1    2    0    0 -0.97731956448E+00  0.73355201508E+02 -0.16667878431E+01  0.73380644066E+02  0.00000000000E+00 0. -1.
</event>
<event>
 7    1  0.2499014E-009  0.8400622E+02  0.7561462E-02  0.1318052E+00
          2   -1    0    0  501    0  0.00000000000E+00  0.00000000000E+00  0.20765521634E+03  0.20765521634E+03  0.00000000000E+00 0. -1.
         -2   -1    0    0    0  501 -0.00000000000E+00 -0.00000000000E+00 -0.71354100048E+02  0.71354100048E+02  0.00000000000E+00 0.  1.
         25    2    1    2    0    0 -0.17154642899E+02 -0.49504998950E+02  0.58685870384E+02  0.14777214721E+03  0.12509016514E+03 0.  0.
          5    1    3    3  502    0 -0.33942435303E+02 -0.65899867439E+02 -0.10141487063E+02  0.74934662224E+02  0.41800000000E+01 0. -1.
         -5    1    3    3    0  502  0.16787792403E+02  0.16394868489E+02  0.68827357447E+02  0.72837484990E+02  0.41800000000E+01 0. -1.
        -11    1    1    2    0    0 -0.82625244927E+01  0.42876297281E+02 -0.55554265184E+01  0.44017143744E+02  0.00000000000E+00 0.  1.
         11    1    1    2    0    0  0.25417167392E+02  0.66287016683E+01  0.83170672424E+02  0.87220025427E+02  0.00000000000E+00 0. -1.
</event>
<event>
 7    1  0.2499014E-009  0.2017715E+03  0.7561462E-02  0.1148253E+00
         -1   -1    0    0    0  501 -0.00000000000E+00  0.00000000000E+00  0.80240513246E+02  0.80240513246E+02  0.00000000000E+00 0.  1.
          1   -1    0    0  501    0  0.00000000000E+00 -0.00000000000E+00 -0.58068796733E+03  0.58068796733E+03  0.00000000000E+00 0. -1.
         25    2    1    2    0    0 -0.17776724100E+03 -0.25538845881E+02 -0.18389472354E+03  0.28586645473E+03  0.12509570724E+03 0.  0.
          5    1    3    3  502    0 -0.13709707345E+03 -0.65487960243E+02 -0.16796635129E+03  0.22652692566E+03  0.41800000000E+01 0.  1.
         -5    1    3    3    0  502 -0.40670167552E+02  0.39949114361E+02 -0.15928372252E+02  0.59339529064E+02  0.41800000000E+01 0.  1.
        -11    1    1    2    0    0  0.14184680656E+03 -0.12097805829E+02 -0.18384739972E+03  0.23252255766E+03  0.00000000000E+00 0.  1.
         11    1    1    2    0    0  0.35920434447E+02  0.37636651710E+02 -0.13270533082E+03  0.14253946819E+03  0.00000000000E+00 0. -1.
</event>
<event>
 7    1  0.2499014E-009  0.9508033E+02  0.7561462E-02  0.1290995E+00
         -1   -1    0    0    0  501 -0.00000000000E+00  0.00000000000E+00  0.15956095105E+02  0.15956095105E+02  0.00000000000E+00 0.  1.
          1   -1    0    0  501    0  0.00000000000E+00 -0.00000000000E+00 -0.12833473866E+04  0.12833473866E+04  0.00000000000E+00 0. -1.
         25    2    1    2    0    0 -0.61357046005E+02 -0.66993306371E+02 -0.86671983963E+03  0.88039861059E+03  0.12508254449E+03 0.  0.
          5    1    3    3  502    0 -0.42977019113E+02 -0.36377591611E+02 -0.11796002182E+03  0.13077611590E+03  0.41800000000E+01 0. -1.
         -5    1    3    3    0  502 -0.18380026892E+02 -0.30615714760E+02 -0.74875981781E+03  0.74962249469E+03  0.41800000000E+01 0. -1.
        -11    1    1    2    0    0  0.20799573935E+02  0.16823738888E+01 -0.15135915398E+02  0.25778840019E+02  0.00000000000E+00 0.  1.
         11    1    1    2    0    0  0.40557472070E+02  0.65310932482E+02 -0.38553553649E+03  0.39312603112E+03  0.00000000000E+00 0. -1.
</event>
<event>
 7    1  0.2499014E-009  0.8792216E+02  0.7561462E-02  0.1307963E+00
          2   -1    0    0  501    0  0.00000000000E+00  0.00000000000E+00  0.40547519955E+02  0.40547519955E+02  0.00000000000E+00 0. -1.
         -2   -1    0    0    0  501 -0.00000000000E+00 -0.00000000000E+00 -0.31838890942E+03  0.31838890942E+03  0.00000000000E+00 0.  1.
         25    2    1    2    0    0 -0.17088437435E+02 -0.14799297210E+00 -0.10999024689E+03  0.16744310934E+03  0.12508918362E+03 0.  0.
          5    1    3    3  502    0 -0.47614291191E+01  0.57713951829E+02 -0.85336403643E+02  0.10321504556E+03  0.41800000000E+01 0. -1.
         -5    1    3    3    0  502 -0.12327008316E+02 -0.57861944802E+02 -0.24653843246E+02  0.64228063781E+02  0.41800000000E+01 0. -1.
        -11    1    1    2    0    0  0.10346378813E+02 -0.27833039739E+02 -0.15845994618E+03  0.16121811375E+03  0.00000000000E+00 0.  1.
         11    1    1    2    0    0  0.67420586224E+01  0.27981032711E+02 -0.93911963893E+01  0.30275206286E+02  0.00000000000E+00 0. -1.
</event>
<event>
 7    1  0.2499014E-009  0.1059361E+03  0.7561462E-02  0.1268286E+00
         -1   -1    0    0    0  501 -0.00000000000E+00  0.00000000000E+00  0.18349945942E+02  0.18349945942E+02  0.00000000000E+00 0.  1.
          1   -1    0    0  501    0  0.00000000000E+00 -0.00000000000E+00 -0.95144923045E+03  0.95144923045E+03  0.00000000000E+00 0. -1.
         25    2    1    2    0    0 -0.28342208422E+02  0.67929516771E+02 -0.57129366645E+03  0.58944276512E+03  0.12509444432E+03 0.  0.
          5    1    3    3  502    0 -0.58511418794E+02  0.49597780606E+02 -0.52737376515E+03  0.53293910210E+03  0.41800000000E+01 0.  1.
         -5    1    3    3    0  502  0.30169210372E+02  0.18331736165E+02 -0.43919901295E+02  0.56503663024E+02  0.41800000000E+01 0.  1.
        -11    1    1    2    0    0  0.18279384481E+02  0.10063268339E+02 -0.17648117932E+02  0.27328763843E+02  0.00000000000E+00 0.  1.
         11    1    1    2    0    0  0.10062823941E+02 -0.77992785110E+02 -0.34415750012E+03  0.35302764742E+03  0.00000000000E+00 0. -1.
</event>
<event>
 7    1  0.2499014E-009  0.1199764E+03  0.7561462E-02  0.1243136E+00
          2   -1    0    0  501    0  0.00000000000E+00  0.00000000000E+00  0.60670457018E+03  0.60670457018E+03  0.00000000000E+00 0.  1.
         -2   -1    0    0    0  501 -0.00000000000E+00 -0.00000000000E+00 -0.32743351134E+02  0.32743351134E+02  0.00000000000E+00 0. -1.
         25    2    1    2    0    0  0.37970123330E+02 -0.76620652213E+02  0.36795291451E+03  0.39793186756E+03  0.12509184352E+03 0.  0.
          5    1    3    3  502    0  0.75633083401E+02 -0.42007780615E+02  0.30306976421E+03  0.31520433264E+03  0.41800000000E+01 0. -1.
         -5    1    3    3    0  502 -0.37662960071E+02 -0.34612871598E+02  0.64883150298E+02  0.82727534921E+02  0.41800000000E+01 0. -1.
        -11    1    1    2    0    0  0.11208028962E+02  0.28971170000E+00 -0.46375277987E+01  0.12133033840E+02  0.00000000000E+00 0. -1.
         11    1    1    2    0    0 -0.49178152292E+02  0.76330940513E+02  0.21064583233E+03  0.22938301991E+03  0.00000000000E+00 0.  1.
</event>
<event>
 7    1  0.2499014E-009  0.1313039E+03  0.7561462E-02  0.1225534E+00
          2   -1    0    0  501    0  0.00000000000E+00  0.00000000000E+00  0.50143624398E+03  0.50143624398E+03  0.00000000000E+00 0.  1.
         -2   -1    0    0    0  501 -0.00000000000E+00 -0.00000000000E+00 -0.49695397091E+02  0.49695397091E+02  0.00000000000E+00 0. -1.
         25    2    1    2    0    0  0.94904626161E+02  0.45174139201E+02  0.15764068774E+03  0.22703942069E+03  0.12509484881E+03 0.  0.
          5    1    3    3  502    0  0.90833654655E+02  0.62921651152E+01  0.33973973102E+02  0.97273055920E+02  0.41800000000E+01 0.  1.
         -5    1    3    3    0  502  0.40709715066E+01  0.38881974086E+02  0.12366671464E+03  0.12976636477E+03  0.41800000000E+01 0.  1.
        -11    1    1    2    0    0 -0.10834880225E+03 -0.31198835678E+02  0.21643792652E+03  0.24404550054E+03  0.00000000000E+00 0. -1.
         11    1    1    2    0    0  0.13444176094E+02 -0.13975303523E+02  0.77662232635E+02  0.80046719841E+02  0.00000000000E+00 0.  1.
</event>
<event>
 7    1  0.2499014E-009  0.1164927E+03  0.7561462E-02  0.1248998E+00
         -3   -1    0    0    0  501 -0.00000000000E+00  0.00000000000E+00  0.34765966449E+02  0.34765966449E+02  0.00000000000E+00 0.  1.
          3   -1    0    0  501    0  0.00000000000E+00 -0.00000000000E+00 -0.41847484479E+03  0.41847484479E+03  0.00000000000E+00 0. -1.
         25    2    1    2    0    0 -0.46188619273E+02  0.21599868670E+02 -0.22058435844E+03  0.25866072586E+03  0.12509184241E+03 0.  0.
          5    1    3    3  502    0 -0.80968683925E+02  0.42950802439E+02 -0.12892798851E+03  0.15824221254E+03  0.41800000000E+01 0.  1.
         -5    1    3    3    0  502  0.34780064652E+02 -0.21350933769E+02 -0.91656369924E+02  0.10041851332E+03  0.41800000000E+01 0.  1.
        -11    1    1    2    0    0  0.59722957154E+02  0.14669525433E+02 -0.12926909486E+03  0.14315210608E+03  0.00000000000E+00 0. -1.
         11    1    1    2    0    0 -0.13534337881E+02 -0.36269394104E+02 -0.33855425042E+02  0.51427979304E+02  0.00000000000E+00 0.  1.
</event>
<event>
 7    1  0.2499014E-009  0.4161061E+03  0.7561462E-02  0.1038341E+00
         -1   -1    0    0    0  501 -0.00000000000E+00  0.00000000000E+00  0.63340604270E+03  0.63340604270E+03  0.00000000000E+00 0.  1.
          1   -1    0    0  501    0  0.00000000000E+00 -0.00000000000E+00 -0.28625421094E+03  0.28625421094E+03  0.00000000000E+00 0. -1.
         25    2    1    2    0    0  0.17143216655E+03  0.36810814234E+03  0.10305597573E+03  0.43721694708E+03  0.12508210301E+03 0.  0.
          5    1    3    3  502    0  0.16594001059E+03  0.37676778509E+03  0.92623620388E+02  0.42200314981E+03  0.41800000000E+01 0. -1.
         -5    1    3    3    0  502  0.54921559606E+01 -0.86596427430E+01  0.10432355341E+02  0.15213797274E+02  0.41800000000E+01 0. -1.
        -11    1    1    2    0    0 -0.88356226034E+02 -0.24896453054E+03  0.19771019533E+03  0.32996890988E+03  0.00000000000E+00 0.  1.
         11    1    1    2    0    0 -0.83075940517E+02 -0.11914361180E+03  0.46385660704E+02  0.15247439669E+03  0.00000000000E+00 0. -1.
</event>
<event>
 7    1  0.2499014E-009  0.1192953E+03  0.7561462E-02  0.1244264E+00
          1   -1    0    0  501    0  0.00000000000E+00  0.00000000000E+00  0.28910044985E+03  0.28910044985E+03  0.00000000000E+00 0. -1.
         -1   -1    0    0    0  501 -0.00000000000E+00 -0.00000000000E+00 -0.63250306747E+02  0.63250306747E+02  0.00000000000E+00 0.  1.
         25    2    1    2    0    0 -0.46766573076E+02  0.36646157715E+02  0.19394032095E+03  0.23830694057E+03  0.12508915460E+03 0.  0.
          5    1    3    3  502    0 -0.27601641351E+01 -0.42355790071E+02  0.34084147457E+02  0.54597005106E+02  0.41800000000E+01 0.  1.
         -5    1    3    3    0  502 -0.44006408941E+02  0.79001947786E+02  0.15985617350E+03  0.18370993546E+03  0.41800000000E+01 0.  1.
        -11    1    1    2    0    0 -0.25779572036E+01 -0.53277378853E+02  0.71813916317E+00  0.53344546906E+02  0.00000000000E+00 0.  1.
         11    1    1    2    0    0  0.49344530279E+02  0.16631221138E+02  0.31191682990E+02  0.60699269129E+02  0.00000000000E+00 0. -1.
</event>
<event>
 7    1  0.2499014E-009  0.1143853E+03  0.7561462E-02  0.1252658E+00
          1   -1    0    0  501    0  0.00000000000E+00  0.00000000000E+00  0.65279350145E+03  0.65279350145E+03  0.00000000000E+00 0. -1.
         -1   -1    0    0    0  501 -0.00000000000E+00 -0.00000000000E+00 -0.20839271576E+02  0.20839271576E+02  0.00000000000E+00 0.  1.
         25    2    1    2    0    0 -0.18413920062E+02  0.36252623279E+02  0.31271056732E+03  0.33924688511E+03  0.12508886841E+03 0.  0.
          5    1    3    3  502    0 -0.61938099188E+02 -0.13087884111E+02  0.18407054599E+03  0.19469735269E+03  0.41800000000E+01 0.  1.
         -5    1    3    3    0  502  0.43524179126E+02  0.49340507391E+02  0.12864002132E+03  0.14454953243E+03  0.41800000000E+01 0.  1.
        -11    1    1    2    0    0 -0.37028212384E+02 -0.12455640348E+02  0.11877026311E+03  0.12503042385E+03  0.00000000000E+00 0.  1.
         11    1    1    2    0    0  0.55442132446E+02 -0.23796982931E+02  0.20047339944E+03  0.20935546406E+03  0.00000000000E+00 0. -1.
</event>
<event>
 7    1  0.2499014E-009  0.1070570E+03  0.7561462E-02  0.1266119E+00
         -2   -1    0    0    0  501 -0.00000000000E+00  0.00000000000E+00  0.14593616701E+03  0.14593616701E+03  0.00000000000E+00 0.  1.
          2   -1    0    0  501    0  0.00000000000E+00 -0.00000000000E+00 -0.13332522653E+03  0.13332522653E+03  0.00000000000E+00 0. -1.
         25    2    1    2    0    0  0.77987780564E+02  0.20254709521E+02  0.38906289807E+02  0.15379900291E+03  0.12509231286E+03 0.  0.
          5    1    3    3  502    0  0.20107851644E+02  0.26074602158E+02  0.77197438922E+02  0.84030515597E+02  0.41800000000E+01 0.  1.
         -5    1    3    3    0  502  0.57879928920E+02 -0.58198926366E+01 -0.38291149115E+02  0.69768487318E+02  0.41800000000E+01 0.  1.
        -11    1    1    2    0    0 -0.82735766832E+02 -0.47191697387E+02 -0.22248972655E+02  0.97812474664E+02  0.00000000000E+00 0. -1.
         11    1    1    2    0    0  0.47479862689E+01  0.26936987866E+02 -0.40463766735E+01  0.27649915969E+02  0.00000000000E+00 0.  1.
</event>
<event>
 7    1  0.2499014E-009  0.1668683E+03  0.7561462E-02  0.1181154E+00
         -2   -1    0    0    0  501 -0.00000000000E+00  0.00000000000E+00  0.20608239046E+03  0.20608239046E+03  0.00000000000E+00 0.  1.
          2   -1    0    0  501    0  0.00000000000E+00 -0.00000000000E+00 -0.16224162371E+03  0.16224162371E+03  0.00000000000E+00 0. -1.
         25    2    1    2    0    0  0.31107735025E+02 -0.14345901172E+03  0.29568275335E+02  0.19512728102E+03  0.12510872739E+03 0.  0.
          5    1    3    3  502    0  0.52318568307E+02 -0.18748436754E+02 -0.19976481657E+02  0.59205309642E+02  0.41800000000E+01 0.  1.
         -5    1    3    3    0  502 -0.21210833282E+02 -0.12471057497E+03  0.49544756991E+02  0.13592197137E+03  0.41800000000E+01 0.  1.
        -11    1    1    2    0    0 -0.22711068858E+02  0.29819036118E+02  0.41620637048E+02  0.56011114897E+02  0.00000000000E+00 0.  1.
         11    1    1    2    0    0 -0.83966661665E+01  0.11363997560E+03 -0.27348145632E+02  0.11718561826E+03  0.00000000000E+00 0. -1.
</event>
<event>
 7    1  0.2499014E-009  0.1463893E+03  0.7561462E-02  0.1204981E+00
          4   -1    0    0  501    0  0.00000000000E+00  0.00000000000E+00  0.16680704953E+04  0.16680704953E+04  0.00000000000E+00 0.  1.
         -4   -1    0    0    0  501 -0.00000000000E+00 -0.00000000000E+00 -0.36268549557E+02  0.36268549557E+02  0.00000000000E+00 0. -1.
         25    2    1    2    0    0 -0.97457234800E+02 -0.68859967204E+02  0.14816883065E+04  0.14917397510E+04  0.12509052486E+03 0.  0.
          5    1    3    3  502    0  0.89166509165E+01  0.65037297805E+01  0.14189414534E+02  0.18455813432E+02  0.41800000000E+01 0.  1.
         -5    1    3    3    0  502 -0.10637388572E+03 -0.75363696984E+02  0.14674988920E+04  0.14732839376E+04  0.41800000000E+01 0.  1.
        -11    1    1    2    0    0 -0.10487962723E+02  0.36316702490E+02  0.37222229015E+02  0.53050867803E+02  0.00000000000E+00 0.  1.
         11    1    1    2    0    0  0.10794519752E+03  0.32543264714E+02  0.11289141017E+03  0.15954842599E+03  0.00000000000E+00 0. -1.
</event>
<event>
 7    1  0.2499014E-009  0.2016933E+03  0.7561462E-02  0.1148318E+00
         -2   -1    0    0    0  501 -0.00000000000E+00  0.00000000000E+00  0.23215651161E+03  0.23215651161E+03  0.00000000000E+00 0.  1.
          2   -1    0    0  501    0  0.00000000000E+00 -0.00000000000E+00 -0.22279990248E+03  0.22279990248E+03  0.00000000000E+00 0. -1.
         25    2    1    2    0    0  0.12607842067E+03  0.15356397058E+03 -0.77341312131E+01  0.23491402729E+03  0.12508845756E+03 0.  0.
          5    1    3    3  502    0  0.47124190411E+02  0.24550477914E+02 -0.54804128328E+02  0.76448545895E+02  0.41800000000E+01 0.  1.
         -5    1    3    3    0  502  0.78954230261E+02  0.12901349267E+03  0.47069997115E+02  0.15846548140E+03  0.41800000000E+01 0.  1.
        -11    1    1    2    0    0 -0.10219263145E+03 -0.12792888880E+03  0.50786777848E+02  0.17143054371E+03  0.00000000000E+00 0.  1.
         11    1    1    2    0    0 -0.23885789219E+02 -0.25635081776E+02 -0.33696037501E+02  0.48611843079E+02  0.00000000000E+00 0. -1.
</event>
<event>
 7    1  0.2696084E-009  0.1068218E+03  0.7561462E-02  0.1266571E+00
          1   -1    0    0  501    0  0.00000000000E+00  0.00000000000E+00  0.58262330907E+03  0.58262330907E+03  0.00000000000E+00 0. -1.
         -1   -1    0    0    0  501 -0.00000000000E+00 -0.00000000000E+00 -0.37576427625E+02  0.37576427625E+02  0.00000000000E+00 0.  1.
         25    2    1    2    0    0  0.45202230616E+01  0.88868371634E+02  0.19927288482E+03  0.25154566507E+03  0.12509004396E+03 0.  0.
          5    1    3    3  502    0  0.32046083207E+02  0.26127610322E+01  0.13891847282E+03  0.14265199774E+03  0.41800000000E+01 0. -1.
         -5    1    3    3    0  502 -0.27525860146E+02  0.86255610602E+02  0.60354412003E+02  0.10889366733E+03  0.41800000000E+01 0. -1.
        -11    1    1    2    0    0 -0.10977121809E+02 -0.60636748810E+02  0.32994459049E+03  0.33564973604E+03  0.00000000000E+00 0. -1.
         11    1    1    2    0    0  0.64568987478E+01 -0.28231622824E+02  0.15829406137E+02  0.33004335584E+02  0.00000000000E+00 0.  1.
</event>
<event>
 7    1  0.2499014E-009  0.2277543E+03  0.7561462E-02  0.1128230E+00
         -1   -1    0    0    0  501 -0.00000000000E+00  0.00000000000E+00  0.20542864564E+03  0.20542864564E+03  0.00000000000E+00 0.  1.
          1   -1    0    0  501    0  0.00000000000E+00 -0.00000000000E+00 -0.36385033753E+03  0.36385033753E+03  0.00000000000E+00 0. -1.
         25    2    1    2    0    0 -0.20872536424E+03  0.24757128001E+02  0.44676904249E+02  0.24864141955E+03  0.12508931482E+03 0.  0.
          5    1    3    3  502    0 -0.17867140903E+02 -0.22101749875E+02 -0.26987359264E+02  0.39414616979E+02  0.41800000000E+01 0. -1.
         -5    1    3    3    0  502 -0.19085822334E+03  0.46858877876E+02  0.71664263513E+02  0.20922680258E+03  0.41800000000E+01 0. -1.
        -11    1    1    2    0    0  0.11546933658E+03  0.33529438236E+02 -0.45709692629E+02  0.12863423697E+03  0.00000000000E+00 0.  1.
         11    1    1    2    0    0  0.93256027655E+02 -0.58286566238E+02 -0.15738890351E+03  0.19200332665E+03  0.00000000000E+00 0. -1.
</event>
<event>
 7    1  0.2780376E-009  0.2207752E+03  0.7561462E-02  0.1133306E+00
          2   -1    0    0  501    0  0.00000000000E+00  0.00000000000E+00  0.12647121246E+04  0.12647121246E+04  0.00000000000E+00 0.  1.
         -2   -1    0    0    0  501 -0.00000000000E+00 -0.00000000000E+00 -0.45633867701E+02  0.45633867701E+02  0.00000000000E+00 0. -1.
         25    2    1    2    0    0  0.17810362425E+03 -0.11407413317E+03  0.71772197736E+03  0.75862185376E+03  0.12509385031E+03 0.  0.
          5    1    3    3  502    0  0.94228859200E+02 -0.61165320694E+02  0.18304241793E+03  0.21480752669E+03  0.41800000000E+01 0.  1.
         -5    1    3    3    0  502  0.83874765047E+02 -0.52908812477E+02  0.53467955944E+03  0.54381432707E+03  0.41800000000E+01 0.  1.
        -11    1    1    2    0    0 -0.11251761139E+03  0.18598858331E+02  0.23187207714E+03  0.25840044613E+03  0.00000000000E+00 0.  1.
         11    1    1    2    0    0 -0.65586012856E+02  0.95475274841E+02  0.26948420243E+03  0.29332369244E+03  0.00000000000E+00 0. -1.
</event>
<event>
 7    1  0.2499014E-009  0.2359819E+03  0.7561462E-02  0.1122499E+00
         -2   -1    0    0    0  501 -0.00000000000E+00  0.00000000000E+00  0.49702491880E+02  0.49702491880E+02  0.00000000000E+00 0.  1.
          2   -1    0    0  501    0  0.00000000000E+00 -0.00000000000E+00 -0.11811694746E+04  0.11811694746E+04  0.00000000000E+00 0. -1.
         25    2    1    2    0    0 -0.10667104629E+03 -0.18546523457E+03 -0.50642565242E+03  0.56381802303E+03  0.12509099211E+03 0.  0.
          5    1    3    3  502    0 -0.52244104697E+02 -0.17617295718E+03 -0.44302872573E+03  0.47964391119E+03  0.41800000000E+01 0.  1.
         -5    1    3    3    0  502 -0.54426941590E+02 -0.92922773932E+01 -0.63396926689E+02  0.84174111838E+02  0.41800000000E+01 0.  1.
        -11    1    1    2    0    0  0.55445693049E+02  0.17069659244E+03 -0.46992058124E+03  0.50302773703E+03  0.00000000000E+00 0. -1.
         11    1    1    2    0    0  0.51225353238E+02  0.14768642129E+02 -0.15512074902E+03  0.16402620639E+03  0.00000000000E+00 0.  1.
</event>
<event>
 7    1  0.2499014E-009  0.9463166E+02  0.7561462E-02  0.1292008E+00
         -1   -1    0    0    0  501 -0.00000000000E+00  0.00000000000E+00  0.59075190011E+03  0.59075190011E+03  0.00000000000E+00 0.  1.
          1   -1    0    0  501    0  0.00000000000E+00 -0.00000000000E+00 -0.29751133674E+02  0.29751133674E+02  0.00000000000E+00 0. -1.
         25    2    1    2    0    0  0.62950181679E+02 -0.17353717690E+02  0.21819654294E+03  0.25984995150E+03  0.12509352122E+03 0.  0.
          5    1    3    3  502    0  0.62224091543E+02  0.11197791288E+02  0.31178163442E+02  0.70617125215E+02  0.41800000000E+01 0. -1.
         -5    1    3    3    0  502  0.72609013624E+00 -0.28551508978E+02  0.18701837950E+03  0.18923282628E+03  0.41800000000E+01 0. -1.
        -11    1    1    2    0    0 -0.84977102270E+01  0.37896873049E+02  0.23457446453E+03  0.23776787730E+03  0.00000000000E+00 0.  1.
         11    1    1    2    0    0 -0.54452471452E+02 -0.20543155359E+02  0.10822975896E+03  0.12288520498E+03  0.00000000000E+00 0. -1.
</event>
<event>
 7    1  0.2499014E-009  0.3446857E+03  0.7561462E-02  0.1064818E+00
          2   -1    0    0  501    0  0.00000000000E+00  0.00000000000E+00  0.24791570610E+04  0.24791570610E+04  0.00000000000E+00 0. -1.
         -2   -1    0    0    0  501 -0.00000000000E+00 -0.00000000000E+00 -0.54707494529E+02  0.54707494529E+02  0.00000000000E+00 0.  1.
         25    2    1    2    0    0  0.33476959780E+03 -0.73703016355E+02  0.15009674180E+04  0.15446858362E+04  0.12509326225E+03 0.  0.
          5    1    3    3  502    0  0.42730089715E+02 -0.17297084974E+02  0.75880574547E+02  0.88884102680E+02  0.41800000000E+01 0.  1.
         -5    1    3    3    0  502  0.29203950809E+03 -0.56405931381E+02  0.14250868435E+04  0.14558017335E+04  0.41800000000E+01 0.  1.
        -11    1    1    2    0    0 -0.88430835506E+02 -0.20366174777E+00  0.34405907034E+03  0.35524174590E+03  0.00000000000E+00 0.  1.
         11    1    1    2    0    0 -0.24633876230E+03  0.73906678103E+02  0.57942307811E+03  0.63393697346E+03  0.00000000000E+00 0. -1.
</event>
<event>
 7    1  0.2499014E-009  0.8760808E+02  0.7561462E-02  0.1308750E+00
         -2   -1    0    0    0  501 -0.00000000000E+00  0.00000000000E+00  0.48278979575E+03  0.48278979575E+03  0.00000000000E+00 0.  1.
          2   -1    0    0  501    0  0.00000000000E+00 -0.00000000000E+00 -0.32398795098E+02  0.32398795098E+02  0.00000000000E+00 0. -1.
         25    2    1    2    0    0  0.50096867731E+02  0.18427826801E+02  0.34533182403E+03  0.37114728165E+03  0.12508778930E+03 0.  0.
          5    1    3    3  502    0  0.34766402418E+01 -0.35088349650E+02  0.24846205090E+03  0.25098633917E+03  0.41800000000E+01 0. -1.
         -5    1    3    3    0  502  0.46620227489E+02  0.53516176450E+02  0.96869773123E+02  0.12016094248E+03  0.41800000000E+01 0. -1.
        -11    1    1    2    0    0 -0.17382461944E+02  0.14171639437E+02  0.93882584823E+02  0.96524220177E+02  0.00000000000E+00 0.  1.
         11    1    1    2    0    0 -0.32714405787E+02 -0.32599466238E+02  0.11176591802E+02  0.47517089024E+02  0.00000000000E+00 0. -1.
</event>
<event>
 7    1  0.2499014E-009  0.8466036E+02  0.7561462E-02  0.1316323E+00
          2   -1    0    0  501    0  0.00000000000E+00  0.00000000000E+00  0.60574475869E+02  0.60574475869E+02  0.00000000000E+00 0. -1.
         -2   -1    0    0    0  501 -0.00000000000E+00 -0.00000000000E+00 -0.32445969730E+03  0.32445969730E+03  0.00000000000E+00 0.  1.
         25    2    1    2    0    0 -0.72619516266E+02  0.18258954768E+01 -0.21564491938E+03  0.25966796102E+03  0.12509112955E+03 0.  0.
          5    1    3    3  502    0 -0.21127633320E+02 -0.11293054375E+02  0.11107689668E+02  0.26735054453E+02  0.41800000000E+01 0. -1.
         -5    1    3    3    0  502 -0.51491882946E+02  0.13118949852E+02 -0.22675260904E+03  0.23293290657E+03  0.41800000000E+01 0. -1.
        -11    1    1    2    0    0  0.52379939335E+02  0.25046080216E+02 -0.65522620434E+02  0.87545290950E+02  0.00000000000E+00 0.  1.
         11    1    1    2    0    0  0.20239576930E+02 -0.26871975693E+02  0.17282318376E+02  0.37820921200E+02  0.00000000000E+00 0. -1.
</event>
<event>
 7    1  0.2499014E-009  0.1171596E+03  0.7561462E-02  0.1247858E+00
         -2   -1    0    0    0  501 -0.00000000000E+00  0.00000000000E+00  0.18734854705E+02  0.18734854705E+02  0.00000000000E+00 0. -1.
          2   -1    0    0  501    0  0.00000000000E+00 -0.00000000000E+00 -0.91483860041E+03  0.91483860041E+03  0.00000000000E+00 0.  1.
         25    2    1    2    0    0 -0.87779629647E+01  0.68003925432E+02 -0.48053738895E+03  0.50126381267E+03  0.12509053204E+03 0.  0.
          5    1    3    3  502    0 -0.64649901223E+02  0.24721702278E+02 -0.19104809037E+03  0.20324275516E+03  0.41800000000E+01 0. -1.
         -5    1    3    3    0  502  0.55871938259E+02  0.43282223154E+02 -0.28948929858E+03  0.29802105751E+03  0.41800000000E+01 0. -1.
        -11    1    1    2    0    0 -0.12560605039E+02  0.82286877525E+01 -0.77824907216E+01  0.16912931824E+02  0.00000000000E+00 0. -1.
         11    1    1    2    0    0  0.21338568003E+02 -0.76232613185E+02 -0.40778386604E+03  0.41539671063E+03  0.00000000000E+00 0.  1.
</event>
<event>
 7    1  0.2499014E-009  0.1102936E+03  0.7561462E-02  0.1260027E+00
          2   -1    0    0  501    0  0.00000000000E+00  0.00000000000E+00  0.11993937142E+02  0.11993937142E+02  0.00000000000E+00 0.  1.
         -2   -1    0    0    0  501 -0.00000000000E+00 -0.00000000000E+00 -0.10317992974E+04  0.10317992974E+04  0.00000000000E+00 0. -1.
         25    2    1    2    0    0 -0.23117950989E+02  0.13648801554E+02 -0.65569750264E+03  0.66806314457E+03  0.12509364784E+03 0.  0.
          5    1    3    3  502    0 -0.71789291200E+02 -0.11771421911E+02 -0.37647631880E+03  0.38346337468E+03  0.41800000000E+01 0. -1.
         -5    1    3    3    0  502  0.48671340212E+02  0.25420223465E+02 -0.27922118384E+03  0.28459976989E+03  0.41800000000E+01 0. -1.
        -11    1    1    2    0    0  0.56160685469E+02  0.17674617187E+01 -0.22827267524E+03  0.23508628368E+03  0.00000000000E+00 0. -1.
         11    1    1    2    0    0 -0.33042734481E+02 -0.15416263272E+02 -0.13583518240E+03  0.14064380631E+03  0.00000000000E+00 0.  1.
</event>
<event>
 7    1  0.2499014E-009  0.1124077E+03  0.7561462E-02  0.1256175E+00
         -3   -1    0    0    0  501 -0.00000000000E+00  0.00000000000E+00  0.14145047560E+02  0.14145047560E+02  0.00000000000E+00 0.  1.
          3   -1    0    0  501    0  0.00000000000E+00 -0.00000000000E+00 -0.10573594342E+04  0.10573594342E+04  0.00000000000E+00 0. -1.
         25    2    1    2    0    0  0.18837343536E+02 -0.44507971922E+02 -0.70703101843E+03  0.71963691387E+03  0.12509445113E+03 0.  0.
          5    1    3    3  502    0 -0.38031302241E+02 -0.58594174836E+02 -0.48259634473E+03  0.48764368306E+03  0.41800000000E+01 0. -1.
         -5    1    3    3    0  502  0.56868645776E+02  0.14086202913E+02 -0.22443467370E+03  0.23199323082E+03  0.41800000000E+01 0. -1.
        -11    1    1    2    0    0 -0.30444878613E+01  0.67849318165E+02 -0.16583808102E+03  0.17920677442E+03  0.00000000000E+00 0.  1.
         11    1    1    2    0    0 -0.15792855675E+02 -0.23341346243E+02 -0.17034528719E+03  0.17266079348E+03  0.00000000000E+00 0. -1.
</event>
<event>
 7    1  0.2499014E-009  0.1407231E+03  0.7561462E-02  0.1212359E+00
         -1   -1    0    0    0  501 -0.00000000000E+00  0.00000000000E+00  0.15437374662E+03  0.15437374662E+03  0.00000000000E+00 0.  1.
          1   -1    0    0  501    0  0.00000000000E+00 -0.00000000000E+00 -0.15685628578E+03  0.15685628578E+03  0.00000000000E+00 0. -1.
         25    2    1    2    0    0  0.45122622314E+02 -0.10255168327E+03 -0.25029757569E+01  0.16794766659E+03  0.12508898848E+03 0.  0.
          5    1    3    3  502    0  0.45224925745E+02 -0.11593012300E+03 -0.37675932084E+02  0.13008472465E+03  0.41800000000E+01 0.  1.
         -5    1    3    3    0  502 -0.10230343094E+00  0.13378439730E+02  0.35172956328E+02  0.37862941941E+02  0.41800000000E+01 0.  1.
        -11    1    1    2    0    0  0.19965727486E+02 -0.16789650149E+01 -0.35404935334E+01  0.20346603943E+02  0.00000000000E+00 0. -1.
         11    1    1    2    0    0 -0.65088349800E+02  0.10423064829E+03  0.35609301316E+01  0.12293576187E+03  0.00000000000E+00 0.  1.
</event>
<event>
 7    1  0.2499014E-009  0.1406468E+03  0.7561462E-02  0.1212461E+00
          1   -1    0    0  501    0  0.00000000000E+00  0.00000000000E+00  0.10808739040E+03  0.10808739040E+03  0.00000000000E+00 0. -1.
         -1   -1    0    0    0  501 -0.00000000000E+00 -0.00000000000E+00 -0.25829027171E+03  0.25829027171E+03  0.00000000000E+00 0.  1.
         25    2    1    2    0    0  0.23712204197E+02 -0.12321247231E+03 -0.85968477812E+02  0.19693007329E+03  0.12508913872E+03 0.  0.
          5    1    3    3  502    0  0.10604422168E+01 -0.40243970473E+02 -0.10164601666E+03  0.10940789185E+03  0.41800000000E+01 0. -1.
         -5    1    3    3    0  502  0.22651761981E+02 -0.82968501841E+02  0.15677538848E+02  0.87522181434E+02  0.41800000000E+01 0. -1.
        -11    1    1    2    0    0  0.75234549140E+01 -0.12969846185E+02  0.14412110926E+01  0.15063079808E+02  0.00000000000E+00 0.  1.
         11    1    1    2    0    0 -0.31235659111E+02  0.13618231850E+03 -0.65675614589E+02  0.15438450901E+03  0.00000000000E+00 0. -1.
</event>
<event>
 7    1  0.2499014E-009  0.1485971E+03  0.7561462E-02  0.1202208E+00
         -2   -1    0    0    0  501 -0.00000000000E+00  0.00000000000E+00  0.55430294735E+03  0.55430294735E+03  0.00000000000E+00 0.  1.
          2   -1    0    0  501    0  0.00000000000E+00 -0.00000000000E+00 -0.45572945251E+02  0.45572945251E+02  0.00000000000E+00 0. -1.
         25    2    1    2    0    0 -0.10325746378E+03  0.28931703323E+02  0.34243780355E+03  0.38001456551E+03  0.12509305901E+03 0.  0.
          5    1    3    3  502    0 -0.11683087910E+03 -0.14926408627E+02  0.22848134695E+03  0.25708646462E+03  0.41800000000E+01 0. -1.
         -5    1    3    3    0  502  0.13573415319E+02  0.43858111950E+02  0.11395645660E+03  0.12292810089E+03  0.41800000000E+01 0. -1.
        -11    1    1    2    0    0 -0.77874725389E+01  0.12491157361E+02  0.56210617717E+02  0.58106000421E+02  0.00000000000E+00 0.  1.
         11    1    1    2    0    0  0.11104493632E+03 -0.41422860684E+02  0.11008158083E+03  0.16175532668E+03  0.00000000000E+00 0. -1.
</event>
<event>
 7    1  0.2499014E-009  0.2271828E+03  0.7561462E-02  0.1128638E+00
          2   -1    0    0  501    0  0.00000000000E+00  0.00000000000E+00  0.92768821282E+03  0.92768821282E+03  0.00000000000E+00 0. -1.
         -2   -1    0    0    0  501 -0.00000000000E+00 -0.00000000000E+00 -0.66825552674E+02  0.66825552674E+02  0.00000000000E+00 0.  1.
         25    2    1    2    0    0 -0.18596804129E+03 -0.12335370696E+03  0.40304829518E+03  0.47738356619E+03  0.12508753583E+03 0.  0.
          5    1    3    3  502    0 -0.40690615247E+02 -0.43132336403E+02  0.24989823898E+02  0.64483240545E+02  0.41800000000E+01 0. -1.
         -5    1    3    3    0  502 -0.14527742604E+03 -0.80221370561E+02  0.37805847128E+03  0.41290032565E+03  0.41800000000E+01 0. -1.
        -11    1    1    2    0    0  0.14970637278E+03  0.12114946452E+03  0.31027922144E+03  0.36518815159E+03  0.00000000000E+00 0.  1.
         11    1    1    2    0    0  0.36261668504E+02  0.22042424454E+01  0.14753514353E+03  0.15194204772E+03  0.00000000000E+00 0. -1.
</event>
<event>
 7    1  0.2499014E-009  0.1177097E+03  0.7561462E-02  0.1246924E+00
          2   -1    0    0  501    0  0.00000000000E+00  0.00000000000E+00  0.31286583676E+03  0.31286583676E+03  0.00000000000E+00 0. -1.
         -2   -1    0    0    0  501 -0.00000000000E+00 -0.00000000000E+00 -0.45408358959E+02  0.45408358959E+02  0.00000000000E+00 0.  1.
         25    2    1    2    0    0  0.47894666714E+02 -0.84620276305E+01  0.16170298815E+03  0.21014118217E+03  0.12508379213E+03 0.  0.
          5    1    3    3  502    0 -0.70748355406E+01  0.51149912262E+02  0.77015466810E+02  0.92818216694E+02  0.41800000000E+01 0.  1.
         -5    1    3    3    0  502  0.54969502255E+02 -0.59611939893E+02  0.84687521343E+02  0.11732296547E+03  0.41800000000E+01 0.  1.
        -11    1    1    2    0    0 -0.56105344366E+02  0.40595803664E+02  0.82038852185E+02  0.10736015187E+03  0.00000000000E+00 0.  1.
         11    1    1    2    0    0  0.82106776519E+01 -0.32133776033E+02  0.23715637466E+02  0.40772861686E+02  0.00000000000E+00 0. -1.
</event>
<event>
 7    1  0.2499014E-009  0.1126985E+03  0.7561462E-02  0.1255653E+00
         -2   -1    0    0    0  501 -0.00000000000E+00  0.00000000000E+00  0.32516268009E+02  0.32516268009E+02  0.00000000000E+00 0.  1.
          2   -1    0    0  501    0  0.00000000000E+00 -0.00000000000E+00 -0.62153188555E+03  0.62153188555E+03  0.00000000000E+00 0. -1.
         25    2    1    2    0    0 -0.26718311479E+02 -0.48147498207E+02 -0.48876542697E+03  0.50751535750E+03  0.12509254872E+03 0.  0.
          5    1    3    3  502    0  0.44097934465E+02 -0.31147295008E+02 -0.12069598639E+03  0.13228671642E+03  0.41800000000E+01 0. -1.
         -5    1    3    3    0  502 -0.70816245945E+02 -0.17000203200E+02 -0.36806944058E+03  0.37522864108E+03  0.41800000000E+01 0. -1.
        -11    1    1    2    0    0 -0.29462226305E+02  0.14870024380E+02 -0.63602660491E+02  0.71654998608E+02  0.00000000000E+00 0.  1.
         11    1    1    2    0    0  0.56180537785E+02  0.33277473828E+02 -0.36647530080E+02  0.74877797451E+02  0.00000000000E+00 0. -1.
</event>
<event>
 7    1  0.2499014E-009  0.1060889E+03  0.7561462E-02  0.1267989E+00
         -1   -1    0    0    0  501 -0.00000000000E+00  0.00000000000E+00  0.10729424948E+02  0.10729424948E+02  0.00000000000E+00 0.  1.
          1   -1    0    0  501    0  0.00000000000E+00 -0.00000000000E+00 -0.22255717560E+04  0.22255717560E+04  0.00000000000E+00 0. -1.
         25    2    1    2    0    0 -0.60470327211E+02 -0.29265425153E+02 -0.18262645715E+04  0.18317757289E+04  0.12508761052E+03 0.  0.
          5    1    3    3  502    0 -0.51729983225E+02  0.21297015748E+02 -0.15330368286E+04  0.15340628880E+04  0.41800000000E+01 0. -1.
         -5    1    3    3    0  502 -0.87403439853E+01 -0.50562440901E+02 -0.29322774286E+03  0.29771284089E+03  0.41800000000E+01 0. -1.
        -11    1    1    2    0    0  0.58052908469E+02 -0.15244848778E+02 -0.29271955130E+03  0.29880977445E+03  0.00000000000E+00 0.  1.
         11    1    1    2    0    0  0.24174187412E+01  0.44510273931E+02 -0.95858208252E+02  0.10571567759E+03  0.00000000000E+00 0. -1.
</event>
<event>
 7    1  0.2499014E-009  0.9624698E+02  0.7561462E-02  0.1288392E+00
         -1   -1    0    0    0  501 -0.00000000000E+00  0.00000000000E+00  0.58810943958E+02  0.58810943958E+02  0.00000000000E+00 0.  1.
          1   -1    0    0  501    0  0.00000000000E+00 -0.00000000000E+00 -0.21297841189E+03  0.21297841189E+03  0.00000000000E+00 0. -1.
         25    2    1    2    0    0  0.17752266132E+02 -0.19862670664E+02 -0.10273843066E+03  0.16404961492E+03  0.12508965738E+03 0.  0.
          5    1    3    3  502    0  0.59237352949E+02 -0.20365341696E+02 -0.11623674157E+02  0.63846639126E+02  0.41800000000E+01 0. -1.
         -5    1    3    3    0  502 -0.41485086817E+02  0.50267103190E+00 -0.91114756499E+02  0.10020297580E+03  0.41800000000E+01 0. -1.
        -11    1    1    2    0    0 -0.18742676447E+02  0.52303462452E+02 -0.50791463899E+02  0.75277572423E+02  0.00000000000E+00 0. -1.
         11    1    1    2    0    0  0.99041031486E+00 -0.32440791787E+02 -0.63757337955E+00  0.32462168507E+02  0.00000000000E+00 0.  1.
</event>
<event>
 7    1  0.2499014E-009  0.3800971E+03  0.7561462E-02  0.1050898E+00
          3   -1    0    0  501    0  0.00000000000E+00  0.00000000000E+00  0.58286094467E+03  0.58286094467E+03  0.00000000000E+00 0. -1.
         -3   -1    0    0    0  501 -0.00000000000E+00 -0.00000000000E+00 -0.25716156322E+03  0.25716156322E+03  0.00000000000E+00 0.  1.
         25    2    1    2    0    0  0.29614793157E+03  0.22375823322E+03  0.17851749183E+03  0.43044999030E+03  0.12508938786E+03 0.  0.
          5    1    3    3  502    0  0.24046364361E+02 -0.12957201198E+02  0.28849398007E+02  0.39948427594E+02  0.41800000000E+01 0.  1.
         -5    1    3    3    0  502  0.27210156721E+03  0.23671543442E+03  0.14966809382E+03  0.39050156271E+03  0.41800000000E+01 0.  1.
        -11    1    1    2    0    0 -0.26444466205E+02 -0.28743279991E+02  0.48816777075E+02  0.62518506552E+02  0.00000000000E+00 0. -1.
         11    1    1    2    0    0 -0.26970346536E+03 -0.19501495323E+03  0.98365112548E+02  0.34705401104E+03  0.00000000000E+00 0.  1.
</event>
<event>
 7    1  0.2499014E-009  0.9379905E+02  0.7561462E-02  0.1293904E+00
         -1   -1    0    0    0  501 -0.00000000000E+00  0.00000000000E+00  0.72865253550E+02  0.72865253550E+02  0.00000000000E+00 0.  1.
          1   -1    0    0  501    0  0.00000000000E+00 -0.00000000000E+00 -0.18344551851E+03  0.18344551851E+03  0.00000000000E+00 0. -1.
         25    2    1    2    0    0  0.77025313634E+01 -0.38091672862E+02 -0.88678772883E+02  0.15817968980E+03  0.12508631009E+03 0.  0.
          5    1    3    3  502    0  0.48500781579E+02 -0.23092139002E+02  0.57071523737E+01  0.54181331524E+02  0.41800000000E+01 0. -1.
         -5    1    3    3    0  502 -0.40798250216E+02 -0.14999533860E+02 -0.94385925257E+02  0.10399835827E+03  0.41800000000E+01 0. -1.
        -11    1    1    2    0    0  0.34553690828E+02  0.32479309604E+02  0.50624084009E+01  0.47691624852E+02  0.00000000000E+00 0. -1.
         11    1    1    2    0    0 -0.42256222191E+02  0.56123632583E+01 -0.26963900482E+02  0.50439457416E+02  0.00000000000E+00 0.  1.
</event>
<event>
 7    1  0.2499014E-009  0.1009306E+03  0.7561462E-02  0.1278351E+00
         -1   -1    0    0    0  501 -0.00000000000E+00  0.00000000000E+00  0.16618342915E+02  0.16618342915E+02  0.00000000000E+00 0.  1.
          1   -1    0    0  501    0  0.00000000000E+00 -0.00000000000E+00 -0.84186829387E+03  0.84186829387E+03  0.00000000000E+00 0. -1.
         25    2    1    2    0    0 -0.51023608002E+01 -0.47289937879E+02 -0.46068757931E+03  0.47973177541E+03  0.12508860180E+03 0.  0.
          5    1    3    3  502    0  0.29045660907E+02  0.18252006367E+02 -0.30921181126E+03  0.31113695180E+03  0.41800000000E+01 0. -1.
         -5    1    3    3    0  502 -0.34148021707E+02 -0.65541944246E+02 -0.15147576805E+03  0.16859482361E+03  0.41800000000E+01 0. -1.
        -11    1    1    2    0    0 -0.36175803791E+02  0.34694248878E+02 -0.11442580602E+03  0.12492255508E+03  0.00000000000E+00 0. -1.
         11    1    1    2    0    0  0.41278164591E+02  0.12595689001E+02 -0.25013656563E+03  0.25383230630E+03  0.00000000000E+00 0.  1.
</event>
<event>
 7    1  0.2868158E-009  0.7089966E+02  0.7561462E-02  0.1357060E+00
          1   -1    0    0  501    0  0.00000000000E+00  0.00000000000E+00  0.11389206654E+03  0.11389206654E+03  0.00000000000E+00 0. -1.
         -1   -1    0    0    0  501 -0.00000000000E+00 -0.00000000000E+00 -0.12581387051E+03  0.12581387051E+03  0.00000000000E+00 0.  1.
         25    2    1    2    0    0  0.12924918100E+02 -0.42404669030E+02 -0.31638425955E+02  0.13643547176E+03  0.12509371885E+03 0.  0.
          5    1    3    3  502    0  0.20869810060E+02 -0.39806126704E+02 -0.77469670522E+02  0.89661022445E+02  0.41800000000E+01 0. -1.
         -5    1    3    3    0  502 -0.79448919599E+01 -0.25985423261E+01  0.45831244567E+02  0.46774449318E+02  0.41800000000E+01 0. -1.
        -11    1    1    2    0    0 -0.23895354470E+01  0.63600001795E+02 -0.10899933480E+02  0.64571500353E+02  0.00000000000E+00 0.  1.
         11    1    1    2    0    0 -0.10535382653E+02 -0.21195332765E+02  0.30616555459E+02  0.38698964932E+02  0.00000000000E+00 0. -1.
</event>
<event>
 7    1  0.2499014E-009  0.1021623E+03  0.7561462E-02  0.1275814E+00
          1   -1    0    0  501    0  0.00000000000E+00  0.00000000000E+00  0.95403335117E+03  0.95403335117E+03  0.00000000000E+00 0. -1.
         -1   -1    0    0    0  501 -0.00000000000E+00 -0.00000000000E+00 -0.20475138306E+02  0.20475138306E+02  0.00000000000E+00 0.  1.
         25    2    1    2    0    0 -0.71294033848E+02 -0.51808880835E+02  0.50185604430E+03  0.52466340404E+03  0.12508076970E+03 0.  0.
          5    1    3    3  502    0 -0.80170148780E+02 -0.22204182797E+02  0.15121078029E+03  0.17263386390E+03  0.41800000000E+01 0.  1.
         -5    1    3    3    0  502  0.88761149320E+01 -0.29604698038E+02  0.35064526401E+03  0.35202954014E+03  0.41800000000E+01 0.  1.
        -11    1    1    2    0    0  0.56500842335E+02  0.48993959438E+02  0.42780221740E+03  0.43428963891E+03  0.00000000000E+00 0. -1.
         11    1    1    2    0    0  0.14793191513E+02  0.28149213969E+01  0.38999511633E+01  0.15555446528E+02  0.00000000000E+00 0.  1.
</event>
<event>
 7    1  0.2499014E-009  0.1169207E+03  0.7561462E-02  0.1248265E+00
         -4   -1    0    0    0  501 -0.00000000000E+00  0.00000000000E+00  0.18164260324E+03  0.18164260324E+03  0.00000000000E+00 0.  1.
          4   -1    0    0  501    0  0.00000000000E+00 -0.00000000000E+00 -0.12321584498E+03  0.12321584498E+03  0.00000000000E+00 0. -1.
         25    2    1    2    0    0 -0.34769478896E+02  0.89278372100E+02  0.65220019640E+02  0.17053144713E+03  0.12509108326E+03 0.  0.
          5    1    3    3  502    0 -0.27047076423E+02  0.86254198740E+02  0.99804908524E+02  0.13472128009E+03  0.41800000000E+01 0.  1.
         -5    1    3    3    0  502 -0.77224024734E+01  0.30241733598E+01 -0.34584888884E+02  0.35810167042E+02  0.41800000000E+01 0.  1.
        -11    1    1    2    0    0 -0.47831298873E+01  0.18577057618E+02 -0.27286405983E+01  0.19376038830E+02  0.00000000000E+00 0. -1.
         11    1    1    2    0    0  0.39552608783E+02 -0.10785542972E+03 -0.40646207816E+01  0.11495096225E+03  0.00000000000E+00 0.  1.
</event>
<event>
 7    1  0.2499014E-009  0.1511896E+03  0.7561462E-02  0.1199019E+00
          2   -1    0    0  501    0  0.00000000000E+00  0.00000000000E+00  0.95359607490E+03  0.95359607490E+03  0.00000000000E+00 0. -1.
         -2   -1    0    0    0  501 -0.00000000000E+00 -0.00000000000E+00 -0.27717813942E+02  0.27717813942E+02  0.00000000000E+00 0.  1.
         25    2    1    2    0    0 -0.73290698902E+01 -0.11974251939E+03  0.51684395006E+03  0.54512923151E+03  0.12508486765E+03 0.  0.
          5    1    3    3  502    0  0.17491021192E+02 -0.13108381143E+03  0.31873972432E+03  0.34511068616E+03  0.41800000000E+01 0.  1.
         -5    1    3    3    0  502 -0.24820091083E+02  0.11341292045E+02  0.19810422575E+03  0.20001854535E+03  0.41800000000E+01 0.  1.
        -11    1    1    2    0    0  0.32291748193E+02  0.16538047670E+02  0.18155581887E+03  0.18514529264E+03  0.00000000000E+00 0. -1.
         11    1    1    2    0    0 -0.24962678303E+02  0.10320447172E+03  0.22747849203E+03  0.25103936470E+03  0.00000000000E+00 0.  1.
</event>
<event>
 7    1  0.2499014E-009  0.1052559E+03  0.7561462E-02  0.1269616E+00
          1   -1    0    0  501    0  0.00000000000E+00  0.00000000000E+00  0.34839749328E+02  0.34839749328E+02  0.00000000000E+00 0. -1.
         -1   -1    0    0    0  501 -0.00000000000E+00 -0.00000000000E+00 -0.70252924848E+03  0.70252924848E+03  0.00000000000E+00 0.  1.
         25    2    1    2    0    0  0.68136132526E+02 -0.12157804354E+02 -0.58881822808E+03  0.60592440766E+03  0.12508851791E+03 0.  0.
          5    1    3    3  502    0  0.46989397415E+02 -0.57455223754E+02 -0.19102894432E+03  0.20498447788E+03  0.41800000000E+01 0. -1.
         -5    1    3    3    0  502  0.21146735112E+02  0.45297419400E+02 -0.39778928377E+03  0.40093992978E+03  0.41800000000E+01 0. -1.
        -11    1    1    2    0    0 -0.32019090767E+02 -0.19912209408E+02 -0.73805548909E+02  0.82879293594E+02  0.00000000000E+00 0.  1.
         11    1    1    2    0    0 -0.36117041760E+02  0.32070013762E+02 -0.50657221567E+01  0.48565296551E+02  0.00000000000E+00 0. -1.
</event>
<event>
 7    1  0.2499014E-009  0.1240570E+03  0.7561462E-02  0.1236550E+00
          1   -1    0    0  501    0  0.00000000000E+00  0.00000000000E+00  0.52619849878E+03  0.52619849878E+03  0.00000000000E+00 0. -1.
         -1   -1    0    0    0  501 -0.00000000000E+00 -0.00000000000E+00 -0.48640286324E+02  0.48640286324E+02  0.00000000000E+00 0.  1.
         25    2    1    2    0    0  0.10447644233E+03  0.46616987038E+02  0.30465565746E+03  0.34864414679E+03  0.12509676649E+03 0.  0.
          5    1    3    3  502    0  0.26226841480E+01 -0.78349719628E+01  0.17385133253E+03  0.17409774117E+03  0.41800000000E+01 0. -1.
         -5    1    3    3    0  502  0.10185375818E+03  0.54451959000E+02  0.13080432493E+03  0.17454640562E+03  0.41800000000E+01 0. -1.
        -11    1    1    2    0    0 -0.67354248512E+02 -0.50354795539E+01  0.32144079507E+02  0.74801020677E+02  0.00000000000E+00 0.  1.
         11    1    1    2    0    0 -0.37122193821E+02 -0.41581507484E+02  0.14075847549E+03  0.15139361764E+03  0.00000000000E+00 0. -1.
</event>
<event>
 7    1  0.2499014E-009  0.1031752E+03  0.7561462E-02  0.1273757E+00
          1   -1    0    0  501    0  0.00000000000E+00  0.00000000000E+00  0.21308042684E+03  0.21308042684E+03  0.00000000000E+00 0. -1.
         -1   -1    0    0    0  501 -0.00000000000E+00 -0.00000000000E+00 -0.84279223238E+02  0.84279223238E+02  0.00000000000E+00 0.  1.
         25    2    1    2    0    0 -0.66165510252E+02 -0.18331395978E+02  0.11250921638E+03  0.18170806323E+03  0.12508229950E+03 0.  0.
          5    1    3    3  502    0 -0.25490669366E+01  0.32969880622E+02  0.91269499574E+02  0.97165347337E+02  0.41800000000E+01 0.  1.
         -5    1    3    3    0  502 -0.63616443316E+02 -0.51301276600E+02  0.21239716806E+02  0.84542715895E+02  0.41800000000E+01 0.  1.
        -11    1    1    2    0    0  0.25222589211E+01  0.26857735859E+02  0.39105695166E+02  0.47507422156E+02  0.00000000000E+00 0. -1.
         11    1    1    2    0    0  0.63643251331E+02 -0.85263398805E+01 -0.22813707941E+02  0.68144164693E+02  0.00000000000E+00 0.  1.
</event>
<event>
 7    1  0.2499014E-009  0.8084158E+02  0.7561462E-02  0.1326680E+00
          1   -1    0    0  501    0  0.00000000000E+00  0.00000000000E+00  0.17474881961E+03  0.17474881961E+03  0.00000000000E+00 0. -1.
         -1   -1    0    0    0  501 -0.00000000000E+00 -0.00000000000E+00 -0.70917413572E+02  0.70917413572E+02  0.00000000000E+00 0.  1.
         25    2    1    2    0    0 -0.17487857996E+02 -0.40420234534E+01  0.80639166960E+02  0.14991863933E+03  0.12510299773E+03 0.  0.
          5    1    3    3  502    0  0.23773534054E+02  0.38200489766E+02  0.78626300174E+02  0.90686414743E+02  0.41800000000E+01 0. -1.
         -5    1    3    3    0  502 -0.41261392050E+02 -0.42242513220E+02  0.20128667856E+01  0.59232224589E+02  0.41800000000E+01 0. -1.
        -11    1    1    2    0    0 -0.19544004489E+02 -0.24628702461E+01  0.47194564315E+02  0.51140597789E+02  0.00000000000E+00 0. -1.
         11    1    1    2    0    0  0.37031862484E+02  0.65048936995E+01 -0.24002325235E+02  0.44606996063E+02  0.00000000000E+00 0.  1.
</event>
<event>
 7    1  0.2499014E-009  0.1555866E+03  0.7561462E-02  0.1193772E+00
          2   -1    0    0  501    0  0.00000000000E+00  0.00000000000E+00  0.12954113063E+04  0.12954113063E+04  0.00000000000E+00 0. -1.
         -2   -1    0    0    0  501 -0.00000000000E+00 -0.00000000000E+00 -0.44686464685E+02  0.44686464685E+02  0.00000000000E+00 0.  1.
         25    2    1    2    0    0  0.11473361169E+03 -0.42671471192E+02  0.11354062941E+04  0.11488166577E+04  0.12509038413E+03 0.  0.
          5    1    3    3  502    0  0.12749726790E+03  0.26015435113E+01  0.85279092936E+03  0.86228311067E+03  0.41800000000E+01 0. -1.
         -5    1    3    3    0  502 -0.12763656211E+02 -0.45273014703E+02  0.28261536472E+03  0.28653354700E+03  0.41800000000E+01 0. -1.
        -11    1    1    2    0    0 -0.11468744200E+03  0.23355187980E+02  0.12363752579E+03  0.17024955783E+03  0.00000000000E+00 0. -1.
         11    1    1    2    0    0 -0.46169691560E-01  0.19316283212E+02 -0.83189782204E+01  0.21031555515E+02  0.00000000000E+00 0.  1.
</event>
<event>
 7    1  0.2499014E-009  0.2602704E+03  0.7561462E-02  0.1106981E+00
          1   -1    0    0  501    0  0.00000000000E+00  0.00000000000E+00  0.64902208541E+03  0.64902208541E+03  0.00000000000E+00 0. -1.
         -1   -1    0    0    0  501 -0.00000000000E+00 -0.00000000000E+00 -0.11739240803E+03  0.11739240803E+03  0.00000000000E+00 0.  1.
         25    2    1    2    0    0 -0.17925413577E+03 -0.17511430800E+03  0.20737135687E+03  0.34849368327E+03  0.12509157276E+03 0.  0.
          5    1    3    3  502    0 -0.39032595018E+02 -0.10455521714E+02 -0.99930350653E+01  0.41835326675E+02  0.41800000000E+01 0.  1.
         -5    1    3    3    0  502 -0.14022154075E+03 -0.16465878628E+03  0.21736439194E+03  0.30665835660E+03  0.41800000000E+01 0.  1.
        -11    1    1    2    0    0  0.34325971267E+02  0.88117759622E+02  0.11229013418E+03  0.14680628767E+03  0.00000000000E+00 0.  1.
         11    1    1    2    0    0  0.14492816450E+03  0.86996548373E+02  0.21196818633E+03  0.27111452250E+03  0.00000000000E+00 0. -1.
</event>
<event>
 7    1  0.2499014E-009  0.1592726E+03  0.7561462E-02  0.1189520E+00
          2   -1    0    0  501    0  0.00000000000E+00  0.00000000000E+00  0.51191130621E+03  0.51191130621E+03  0.00000000000E+00 0. -1.
         -2   -1    0    0    0  501 -0.00000000000E+00 -0.00000000000E+00 -0.58169403800E+02  0.58169403800E+02  0.00000000000E+00 0.  1.
         25    2    1    2    0    0  0.11003109596E+03  0.74339035375E+02  0.20628842160E+03  0.27538317206E+03  0.12509134387E+03 0.  0.
          5    1    3    3  502    0  0.84245481703E+02  0.18260921926E+01  0.42726102103E+02  0.94570756584E+02  0.41800000000E+01 0. -1.
         -5    1    3    3    0  502  0.25785614254E+02  0.72512943183E+02  0.16356231950E+03  0.18081241548E+03  0.41800000000E+01 0. -1.
        -11    1    1    2    0    0  0.13657311902E+02 -0.13714743577E+02  0.52798860642E+02  0.56234651639E+02  0.00000000000E+00 0.  1.
         11    1    1    2    0    0 -0.12368840786E+03 -0.60624291798E+02  0.19465462017E+03  0.23846288631E+03  0.00000000000E+00 0. -1.
</event>
<event>
 7    1  0.2499014E-009  0.8875864E+02  0.7561462E-02  0.1305886E+00
         -1   -1    0    0    0  501 -0.00000000000E+00  0.00000000000E+00  0.38865377953E+02  0.38865377953E+02  0.00000000000E+00 0. -1.
          1   -1    0    0  501    0  0.00000000000E+00 -0.00000000000E+00 -0.36118030359E+03  0.36118030359E+03  0.00000000000E+00 0.  1.
         25    2    1    2    0    0 -0.32966435523E+02  0.23866542298E+01 -0.23199865311E+03  0.26563758877E+03  0.12508985385E+03 0.  0.
          5    1    3    3  502    0 -0.71789380650E+02  0.15891576801E+02 -0.82751242272E+02  0.11077679308E+03  0.41800000000E+01 0.  1.
         -5    1    3    3    0  502  0.38822945127E+02 -0.13504922572E+02 -0.14924741084E+03  0.15486079569E+03  0.41800000000E+01 0.  1.
        -11    1    1    2    0    0  0.26708010331E+02  0.23712466788E+02 -0.99756435918E+02  0.10595728103E+03  0.00000000000E+00 0.  1.
         11    1    1    2    0    0  0.62584251927E+01 -0.26099121018E+02  0.94401633856E+01  0.28450811738E+02  0.00000000000E+00 0. -1.
</event>
<event>
 7    1  0.2499014E-009  0.1773037E+03  0.7561462E-02  0.1170438E+00
          1   -1    0    0  501    0  0.00000000000E+00  0.00000000000E+00  0.50705244249E+02  0.50705244249E+02  0.00000000000E+00 0. -1.
         -1   -1    0    0    0  501 -0.00000000000E+00 -0.00000000000E+00 -0.81732754076E+03  0.81732754076E+03  0.00000000000E+00 0.  1.
         25    2    1    2    0    0 -0.16481485225E+03 -0.35014651440E+02 -0.33501233300E+03  0.39530971550E+03  0.12508615656E+03 0.  0.
          5    1    3    3  502    0 -0.15413184244E+03 -0.46573362536E+02 -0.18870251560E+03  0.24809638197E+03  0.41800000000E+01 0. -1.
         -5    1    3    3    0  502 -0.10683009818E+02  0.11558711096E+02 -0.14630981740E+03  0.14721333353E+03  0.41800000000E+01 0. -1.
        -11    1    1    2    0    0  0.16093717220E+03  0.44525201315E+02 -0.43124583869E+03  0.46244593234E+03  0.00000000000E+00 0.  1.
         11    1    1    2    0    0  0.38776800560E+01 -0.95105498753E+01 -0.36412481298E+00  0.10277137171E+02  0.00000000000E+00 0. -1.
</event>
<event>
 7    1  0.2499014E-009  0.9677637E+02  0.7561462E-02  0.1287225E+00
         -2   -1    0    0    0  501 -0.00000000000E+00  0.00000000000E+00  0.78642760468E+02  0.78642760468E+02  0.00000000000E+00 0. -1.
          2   -1    0    0  501    0  0.00000000000E+00 -0.00000000000E+00 -0.22364243126E+03  0.22364243126E+03  0.00000000000E+00 0.  1.
         25    2    1    2    0    0  0.64399689956E+02 -0.50303590937E+02 -0.64293003797E+02  0.16266289771E+03  0.12509139310E+03 0.  0.
          5    1    3    3  502    0 -0.15302489577E+01 -0.99239587559E+01 -0.82427343521E+02  0.83141842530E+02  0.41800000000E+01 0.  1.
         -5    1    3    3    0  502  0.65929938913E+02 -0.40379632181E+02  0.18134339724E+02  0.79521055183E+02  0.41800000000E+01 0.  1.
        -11    1    1    2    0    0  0.73173223081E+01 -0.94156004849E+01 -0.32422382555E+02  0.34545732425E+02  0.00000000000E+00 0.  1.
         11    1    1    2    0    0 -0.71717012264E+02  0.59719191422E+02 -0.48284284444E+02  0.10507656159E+03  0.00000000000E+00 0. -1.
</event>
<event>
 7    1  0.2499014E-009  0.2259919E+03  0.7561462E-02  0.1129493E+00
          2   -1    0    0  501    0  0.00000000000E+00  0.00000000000E+00  0.14328765028E+03  0.14328765028E+03  0.00000000000E+00 0.  1.
         -2   -1    0    0    0  501 -0.00000000000E+00 -0.00000000000E+00 -0.39295059364E+03  0.39295059364E+03  0.00000000000E+00 0. -1.
         25    2    1    2    0    0 -0.18454471894E+03  0.95781534733E+02 -0.10113467955E+03  0.26288151982E+03  0.12509042477E+03 0.  0.
          5    1    3    3  502    0 -0.17412897127E+03  0.12288557168E+03 -0.91852059258E+02  0.23211211850E+03  0.41800000000E+01 0. -1.
         -5    1    3    3    0  502 -0.10415747664E+02 -0.27104036942E+02 -0.92826202960E+01  0.30769401319E+02  0.41800000000E+01 0. -1.
        -11    1    1    2    0    0  0.53802487314E+02 -0.15222074685E+02  0.50863877483E+01  0.56145262838E+02  0.00000000000E+00 0.  1.
         11    1    1    2    0    0  0.13074223162E+03 -0.80559460047E+02 -0.15361465155E+03  0.21721146127E+03  0.00000000000E+00 0. -1.
</event>
<event>
 7    1  0.2499014E-009  0.6047294E+02  0.7561462E-02  0.1395858E+00
          2   -1    0    0  501    0  0.00000000000E+00  0.00000000000E+00  0.16791274996E+02  0.16791274996E+02  0.00000000000E+00 0.  1.
         -2   -1    0    0    0  501 -0.00000000000E+00 -0.00000000000E+00 -0.10982913476E+04  0.10982913476E+04  0.00000000000E+00 0. -1.
         25    2    1    2    0    0 -0.21046073168E+02  0.23283534465E+02 -0.89684641907E+03  0.90607181161E+03  0.12509024030E+03 0.  0.
          5    1    3    3  502    0 -0.14441835565E+02  0.13835048338E+02 -0.18266823986E+02  0.27406649477E+02  0.41800000000E+01 0.  1.
         -5    1    3    3    0  502 -0.66042376025E+01  0.94484861272E+01 -0.87857959509E+03  0.87866516213E+03  0.41800000000E+01 0.  1.
        -11    1    1    2    0    0 -0.22171235331E+02  0.17944916830E+02 -0.22889750734E+02  0.36572180750E+02  0.00000000000E+00 0.  1.
         11    1    1    2    0    0  0.43217308499E+02 -0.41228451295E+02 -0.16176390282E+03  0.17243863026E+03  0.00000000000E+00 0. -1.
</event>
<event>
 7    1  0.2499014E-009  0.9864135E+02  0.7561462E-02  0.1283179E+00
          1   -1    0    0  501    0  0.00000000000E+00  0.00000000000E+00  0.49528324601E+03  0.49528324601E+03  0.00000000000E+00 0. -1.
         -1   -1    0    0    0  501 -0.00000000000E+00 -0.00000000000E+00 -0.60831487212E+02  0.60831487212E+02  0.00000000000E+00 0.  1.
         25    2    1    2    0    0 -0.89179042109E+02 -0.38605511919E+02  0.38250128478E+03  0.41400366457E+03  0.12509402192E+03 0.  0.
          5    1    3    3  502    0 -0.12263290992E+02 -0.14382216934E+02 -0.34789145133E+01  0.19667529485E+02  0.41800000000E+01 0. -1.
         -5    1    3    3    0  502 -0.76915751118E+02 -0.24223294985E+02  0.38598019929E+03  0.39433613509E+03  0.41800000000E+01 0. -1.
        -11    1    1    2    0    0  0.58482914072E+02  0.25154252417E+02 -0.16613038284E+02  0.65794989885E+02  0.00000000000E+00 0.  1.
         11    1    1    2    0    0  0.30696128038E+02  0.13451259502E+02  0.68563512297E+02  0.76316078760E+02  0.00000000000E+00 0. -1.
</event>
<event>
 7    1  0.2499014E-009  0.1239256E+03  0.7561462E-02  0.1236758E+00
         -1   -1    0    0    0  501 -0.00000000000E+00  0.00000000000E+00  0.97397922477E+02  0.97397922477E+02  0.00000000000E+00 0.  1.
          1   -1    0    0  501    0  0.00000000000E+00 -0.00000000000E+00 -0.30444586476E+03  0.30444586476E+03  0.00000000000E+00 0. -1.
         25    2    1    2    0    0  0.93391673105E+01  0.12290976742E+03 -0.17006887985E+03  0.24446985790E+03  0.12509219221E+03 0.  0.
          5    1    3    3  502    0 -0.39912763018E+01  0.39578760388E+02 -0.15316497572E+03  0.15830158163E+03  0.41800000000E+01 0.  1.
         -5    1    3    3    0  502  0.13330443612E+02  0.83331007032E+02 -0.16903904137E+02  0.86168276268E+02  0.41800000000E+01 0.  1.
        -11    1    1    2    0    0 -0.12878117135E+01 -0.48057512608E+02 -0.61624449901E+02  0.78158529942E+02  0.00000000000E+00 0. -1.
         11    1    1    2    0    0 -0.80513555970E+01 -0.74852254811E+02  0.24645387475E+02  0.79215399394E+02  0.00000000000E+00 0.  1.
</event>
<event>
 7    1  0.2499014E-009  0.8738920E+02  0.7561462E-02  0.1309300E+00
         -1   -1    0    0    0  501 -0.00000000000E+00  0.00000000000E+00  0.28586562410E+02  0.28586562410E+02  0.00000000000E+00 0.  1.
          1   -1    0    0  501    0  0.00000000000E+00 -0.00000000000E+00 -0.53410832562E+03  0.53410832562E+03  0.00000000000E+00 0. -1.
         25    2    1    2    0    0  0.18644986766E+02  0.56781369946E+02 -0.24454774315E+03  0.28111063027E+03  0.12509127974E+03 0.  0.
          5    1    3    3  502    0  0.40048195044E+02  0.37341308133E+02 -0.26250167031E+02  0.60866861990E+02  0.41800000000E+01 0. -1.
         -5    1    3    3    0  502 -0.21403208278E+02  0.19440061813E+02 -0.21829757612E+03  0.22024376828E+03  0.41800000000E+01 0. -1.
        -11    1    1    2    0    0  0.20661273192E+02  0.10909102211E+01 -0.14221881690E+02  0.25106577104E+02  0.00000000000E+00 0.  1.
         11    1    1    2    0    0 -0.39306259958E+02 -0.57872280167E+02 -0.24675213837E+03  0.25647768066E+03  0.00000000000E+00 0. -1.
</event>
<event>
 7    1  0.2499014E-009  0.1970117E+03  0.7561462E-02  0.1152285E+00
          1   -1    0    0  501    0  0.00000000000E+00  0.00000000000E+00  0.13257479419E+04  0.13257479419E+04  0.00000000000E+00 0. -1.
         -1   -1    0    0    0  501 -0.00000000000E+00 -0.00000000000E+00 -0.39010110055E+02  0.39010110055E+02  0.00000000000E+00 0.  1.
         25    2    1    2    0    0 -0.17727416410E+03  0.81976928183E+02  0.55775451291E+03  0.60405601192E+03  0.12508885983E+03 0.  0.
          5    1    3    3  502    0 -0.17205149468E+03  0.79237587606E+02  0.56370445435E+03  0.59469361554E+03  0.41800000000E+01 0. -1.
         -5    1    3    3    0  502 -0.52226694221E+01  0.27393405765E+01 -0.59499414445E+01  0.93623963748E+01  0.41800000000E+01 0. -1.
        -11    1    1    2    0    0  0.60603886175E+02 -0.43037628249E+02  0.13492974916E+03  0.15404903658E+03  0.00000000000E+00 0.  1.
         11    1    1    2    0    0  0.11667027792E+03 -0.38939299934E+02  0.59405356977E+03  0.60665300345E+03  0.00000000000E+00 0. -1.
</event>
<event>
 7    1  0.2499014E-009  0.1230988E+03  0.7561462E-02  0.1238071E+00
          3   -1    0    0  501    0  0.00000000000E+00  0.00000000000E+00  0.67668286776E+02  0.67668286776E+02  0.00000000000E+00 0. -1.
         -3   -1    0    0    0  501 -0.00000000000E+00 -0.00000000000E+00 -0.28707613191E+03  0.28707613191E+03  0.00000000000E+00 0.  1.
         25    2    1    2    0    0  0.87414274849E+02  0.13041353964E+01 -0.13383334748E+03  0.20298136145E+03  0.12508841665E+03 0.  0.
          5    1    3    3  502    0  0.12712174144E+02 -0.46107031932E+02 -0.94641296629E+02  0.10612212395E+03  0.41800000000E+01 0.  1.
         -5    1    3    3    0  502  0.74702100705E+02  0.47411167328E+02 -0.39192050854E+02  0.96859237491E+02  0.41800000000E+01 0.  1.
        -11    1    1    2    0    0 -0.47396215257E+02  0.32300173843E+02 -0.81077365540E+02  0.99313854289E+02  0.00000000000E+00 0.  1.
         11    1    1    2    0    0 -0.40018059592E+02 -0.33604309239E+02 -0.44971321120E+01  0.52449202951E+02  0.00000000000E+00 0. -1.
</event>
<event>
 7    1  0.2499014E-009  0.7616471E+02  0.7561462E-02  0.1340302E+00
         -1   -1    0    0    0  501 -0.00000000000E+00  0.00000000000E+00  0.48808354547E+02  0.48808354547E+02  0.00000000000E+00 0.  1.
          1   -1    0    0  501    0  0.00000000000E+00 -0.00000000000E+00 -0.29782348221E+03  0.29782348221E+03  0.00000000000E+00 0. -1.
         25    2    1    2    0    0 -0.24274223763E+02  0.38960138394E+02 -0.17397706631E+03  0.21913949601E+03  0.12508784428E+03 0.  0.
          5    1    3    3  502    0 -0.34819686351E+02 -0.16948193083E+02 -0.15375813694E+03  0.15861490750E+03  0.41800000000E+01 0. -1.
         -5    1    3    3    0  502  0.10545462588E+02  0.55908331478E+02 -0.20218929376E+02  0.60524588515E+02  0.41800000000E+01 0. -1.
        -11    1    1    2    0    0  0.55376507146E+01 -0.37090913376E+02 -0.93733931072E+02  0.10095767066E+03  0.00000000000E+00 0. -1.
         11    1    1    2    0    0  0.18736573048E+02 -0.18692250184E+01  0.18695869724E+02  0.26534670084E+02  0.00000000000E+00 0.  1.
</event>
<event>
 7    1  0.2499014E-009  0.1611574E+03  0.7561462E-02  0.1187396E+00
         -2   -1    0    0    0  501 -0.00000000000E+00  0.00000000000E+00  0.94387288179E+03  0.94387288179E+03  0.00000000000E+00 0.  1.
          2   -1    0    0  501    0  0.00000000000E+00 -0.00000000000E+00 -0.64008977769E+02  0.64008977769E+02  0.00000000000E+00 0. -1.
         25    2    1    2    0    0 -0.12843242993E+03 -0.10787938571E+02  0.82116670082E+03  0.84058005685E+03  0.12509521473E+03 0.  0.
          5    1    3    3  502    0 -0.99839827060E+02  0.44602855554E+02  0.39576263038E+03  0.41061288069E+03  0.41800000000E+01 0. -1.
         -5    1    3    3    0  502 -0.28592602871E+02 -0.55390794126E+02  0.42540407045E+03  0.42996717615E+03  0.41800000000E+01 0. -1.
        -11    1    1    2    0    0  0.28272271288E+02 -0.30933933516E+02  0.38556589259E+02  0.56945940521E+02  0.00000000000E+00 0.  1.
         11    1    1    2    0    0  0.10016015864E+03  0.41721872087E+02  0.20140613936E+02  0.11035586219E+03  0.00000000000E+00 0. -1.
</event>
<event>
 7    1  0.2636252E-009  0.9853579E+02  0.7561462E-02  0.1283405E+00
          1   -1    0    0  501    0  0.00000000000E+00  0.00000000000E+00  0.28727899108E+03  0.28727899108E+03  0.00000000000E+00 0. -1.
         -1   -1    0    0    0  501 -0.00000000000E+00 -0.00000000000E+00 -0.51546539657E+02  0.51546539657E+02  0.00000000000E+00 0.  1.
         25    2    1    2    0    0  0.30050744401E+01 -0.42762019858E+02  0.18173599570E+03  0.22475153723E+03  0.12509060931E+03 0.  0.
          5    1    3    3  502    0 -0.53204219538E+01  0.37692012157E+02  0.11029588060E+03  0.11675465022E+03  0.41800000000E+01 0. -1.
         -5    1    3    3    0  502  0.83254963940E+01 -0.80454032015E+02  0.71440115101E+02  0.10799688701E+03  0.41800000000E+01 0. -1.
        -11    1    1    2    0    0 -0.31769267472E+02  0.36422509355E+02 -0.45409740401E+01  0.48543856343E+02  0.00000000000E+00 0.  1.
         11    1    1    2    0    0  0.28764193032E+02  0.63395105031E+01  0.58537429759E+02  0.65530137166E+02  0.00000000000E+00 0. -1.
</event>
<event>
 7    1  0.2499014E-009  0.7741684E+02  0.7561462E-02  0.1336546E+00
          3   -1    0    0  501    0  0.00000000000E+00  0.00000000000E+00  0.79565209664E+02  0.79565209664E+02  0.00000000000E+00 0. -1.
         -3   -1    0    0    0  501 -0.00000000000E+00 -0.00000000000E+00 -0.15561604556E+03  0.15561604556E+03  0.00000000000E+00 0.  1.
         25    2    1    2    0    0 -0.12853241333E+02 -0.14812205970E+02 -0.28220948075E+02  0.12972725415E+03  0.12509249099E+03 0.  0.
          5    1    3    3  502    0 -0.38047417848E+02 -0.26355895867E+02  0.36568941852E+02  0.59135430666E+02  0.41800000000E+01 0.  1.
         -5    1    3    3    0  502  0.25194176515E+02  0.11543689898E+02 -0.64789889927E+02  0.70591823489E+02  0.41800000000E+01 0.  1.
        -11    1    1    2    0    0 -0.32872195283E+02  0.99844079162E+01 -0.48541531781E+02  0.59468898861E+02  0.00000000000E+00 0.  1.
         11    1    1    2    0    0  0.45725436617E+02  0.48277980535E+01  0.71164396112E+00  0.45985102206E+02  0.00000000000E+00 0. -1.
</event>
<event>
 7    1  0.2499014E-009  0.1296467E+03  0.7561462E-02  0.1227981E+00
         -1   -1    0    0    0  501 -0.00000000000E+00  0.00000000000E+00  0.23193994765E+03  0.23193994765E+03  0.00000000000E+00 0.  1.
          1   -1    0    0  501    0  0.00000000000E+00 -0.00000000000E+00 -0.86720712409E+02  0.86720712409E+02  0.00000000000E+00 0. -1.
         25    2    1    2    0    0 -0.22342941505E+01 -0.83480770753E+02  0.12184237321E+03  0.19356586224E+03  0.12509255757E+03 0.  0.
          5    1    3    3  502    0  0.50517826826E+02 -0.82455220622E+02  0.69756025945E+02  0.11930754289E+03  0.41800000000E+01 0. -1.
         -5    1    3    3    0  502 -0.52752120977E+02 -0.10255501308E+01  0.52086347267E+02  0.74258319347E+02  0.41800000000E+01 0. -1.
        -11    1    1    2    0    0  0.35703698814E+02  0.30753079026E+02 -0.17707683716E+02  0.50339527622E+02  0.00000000000E+00 0. -1.
         11    1    1    2    0    0 -0.33469404663E+02  0.52727691727E+02  0.41084545743E+02  0.74755270197E+02  0.00000000000E+00 0.  1.
</event>
<event>
 7    1  0.2499014E-009  0.1990195E+03  0.7561462E-02  0.1150569E+00
          2   -1    0    0  501    0  0.00000000000E+00  0.00000000000E+00  0.91492211126E+03  0.91492211126E+03  0.00000000000E+00 0. -1.
         -2   -1    0    0    0  501 -0.00000000000E+00 -0.00000000000E+00 -0.46238362377E+02  0.46238362377E+02  0.00000000000E+00 0.  1.
         25    2    1    2    0    0  0.48592748881E+02 -0.16493381619E+03  0.37900622229E+03  0.43457729798E+03  0.12508913789E+03 0.  0.
          5    1    3    3  502    0  0.44944782320E+02 -0.18519880582E+03  0.32726336707E+03  0.37873132292E+03  0.41800000000E+01 0.  1.
         -5    1    3    3    0  502  0.36479665602E+01  0.20264989623E+02  0.51742855216E+02  0.55845975060E+02  0.41800000000E+01 0.  1.
        -11    1    1    2    0    0 -0.66647781744E+02  0.14456868919E+03  0.35318624922E+03  0.38740490361E+03  0.00000000000E+00 0.  1.
         11    1    1    2    0    0  0.18055032864E+02  0.20365127004E+02  0.13649127738E+03  0.13917827204E+03  0.00000000000E+00 0. -1.
</event>
<event>
 7    1  0.2499014E-009  0.4401581E+02  0.7561462E-02  0.1480581E+00
         -2   -1    0    0    0  501 -0.00000000000E+00  0.00000000000E+00  0.12595337886E+03  0.12595337886E+03  0.00000000000E+00 0. -1.
          2   -1    0    0  501    0  0.00000000000E+00 -0.00000000000E+00 -0.15311971422E+03  0.15311971422E+03  0.00000000000E+00 0.  1.
         25    2    1    2    0    0  0.18759547415E+02 -0.76758446218E+01 -0.99424268162E+02  0.16106119374E+03  0.12507871050E+03 0.  0.
          5    1    3    3  502    0  0.14628941855E+02  0.10882733298E+02 -0.12641014697E+03  0.12778668741E+03  0.41800000000E+01 0. -1.
         -5    1    3    3    0  502  0.41306055600E+01 -0.18558577920E+02  0.26985878804E+02  0.33274506330E+02  0.41800000000E+01 0. -1.
        -11    1    1    2    0    0  0.14136701503E+02  0.93018548435E+01 -0.16319284268E+02  0.23509357114E+02  0.00000000000E+00 0.  1.
         11    1    1    2    0    0 -0.32896248918E+02 -0.16260102217E+01  0.88577217072E+02  0.94502542222E+02  0.00000000000E+00 0. -1.
</event>
<event>
 7    1  0.2499014E-009  0.1551668E+03  0.7561462E-02  0.1194264E+00
         -1   -1    0    0    0  501 -0.00000000000E+00  0.00000000000E+00  0.24611499488E+03  0.24611499488E+03  0.00000000000E+00 0.  1.
          1   -1    0    0  501    0  0.00000000000E+00 -0.00000000000E+00 -0.15710963943E+03  0.15710963943E+03  0.00000000000E+00 0. -1.
         25    2    1    2    0    0 -0.33335396353E+02 -0.12716635174E+03 -0.55699270406E+02  0.18982324560E+03  0.12509167112E+03 0.  0.
          5    1    3    3  502    0 -0.62078923419E+02 -0.16656700239E+02 -0.36269066937E+02  0.73919929737E+02  0.41800000000E+01 0.  1.
         -5    1    3    3    0  502  0.28743527066E+02 -0.11050965150E+03 -0.19430203469E+02  0.11590331587E+03  0.41800000000E+01 0.  1.
        -11    1    1    2    0    0  0.23142666565E+02  0.74325472363E+02  0.24352118387E+02  0.81565216408E+02  0.00000000000E+00 0.  1.
         11    1    1    2    0    0  0.10192729789E+02  0.52840879374E+02  0.12035250747E+03  0.13183617230E+03  0.00000000000E+00 0. -1.
</event>
<event>
 7    1  0.2560270E-009  0.1088604E+03  0.7561462E-02  0.1262695E+00
          1   -1    0    0  501    0  0.00000000000E+00  0.00000000000E+00  0.21253540233E+04  0.21253540233E+04  0.00000000000E+00 0. -1.
         -1   -1    0    0    0  501 -0.00000000000E+00 -0.00000000000E+00 -0.11101886884E+02  0.11101886884E+02  0.00000000000E+00 0.  1.
         25    2    1    2    0    0 -0.42949677247E+02 -0.27537019353E+02  0.18017121217E+04  0.18067695567E+04  0.12508676767E+03 0.  0.
          5    1    3    3  502    0  0.30159344365E+02 -0.25391973560E+02  0.23309104853E+03  0.23643867636E+03  0.41800000000E+01 0.  1.
         -5    1    3    3    0  502 -0.73109021612E+02 -0.21450457927E+01  0.15686210732E+04  0.15703308804E+04  0.41800000000E+01 0.  1.
        -11    1    1    2    0    0  0.44748571918E+02  0.58582108853E+02  0.22693927211E+03  0.23861209397E+03  0.00000000000E+00 0.  1.
         11    1    1    2    0    0 -0.17988946714E+01 -0.31045089500E+02  0.85600742622E+02  0.91074259489E+02  0.00000000000E+00 0. -1.
</event>
<event>
 7    1  0.2499014E-009  0.1160336E+03  0.7561462E-02  0.1249788E+00
         -2   -1    0    0    0  501 -0.00000000000E+00  0.00000000000E+00  0.31768289051E+02  0.31768289051E+02  0.00000000000E+00 0.  1.
          2   -1    0    0  501    0  0.00000000000E+00 -0.00000000000E+00 -0.45249747057E+03  0.45249747057E+03  0.00000000000E+00 0. -1.
         25    2    1    2    0    0 -0.40965754721E+01  0.48360060435E+02 -0.24058240734E+03  0.27546754455E+03  0.12508795307E+03 0.  0.
          5    1    3    3  502    0  0.59711987873E+02  0.16710796462E+02 -0.12587240091E+03  0.14037843825E+03  0.41800000000E+01 0. -1.
         -5    1    3    3    0  502 -0.63808563345E+02  0.31649263973E+02 -0.11471000643E+03  0.13508910630E+03  0.41800000000E+01 0. -1.
        -11    1    1    2    0    0  0.36600526719E+02 -0.54345073695E+02 -0.80389422258E+02  0.10370846061E+03  0.00000000000E+00 0.  1.
         11    1    1    2    0    0 -0.32503951247E+02  0.59850132601E+01 -0.99757351925E+02  0.10508975447E+03  0.00000000000E+00 0. -1.
</event>
<event>
 7    1  0.2499014E-009  0.1117511E+03  0.7561462E-02  0.1257361E+00
          2   -1    0    0  501    0  0.00000000000E+00  0.00000000000E+00  0.60332598651E+03  0.60332598651E+03  0.00000000000E+00 0. -1.
         -2   -1    0    0    0  501 -0.00000000000E+00 -0.00000000000E+00 -0.45905263444E+02  0.45905263444E+02  0.00000000000E+00 0.  1.
         25    2    1    2    0    0  0.71845365514E+01  0.32137628628E+02  0.60199359344E+02  0.14267369729E+03  0.12508947316E+03 0.  0.
          5    1    3    3  502    0  0.46405165290E+02 -0.28513554653E+02  0.39537969622E+02  0.67432822916E+02  0.41800000000E+01 0.  1.
         -5    1    3    3    0  502 -0.39220628738E+02  0.60651183281E+02  0.20661389722E+02  0.75240874379E+02  0.41800000000E+01 0.  1.
        -11    1    1    2    0    0 -0.38023351760E+02 -0.48491604885E+02  0.29858305070E+03  0.30487546505E+03  0.00000000000E+00 0.  1.
         11    1    1    2    0    0  0.30838815209E+02  0.16353976258E+02  0.19863831303E+03  0.20168208762E+03  0.00000000000E+00 0. -1.
</event>
<event>
 7    1  0.2499014E-009  0.2385024E+03  0.7561462E-02  0.1120794E+00
         -2   -1    0    0    0  501 -0.00000000000E+00  0.00000000000E+00  0.29650152653E+02  0.29650152653E+02  0.00000000000E+00 0.  1.
          2   -1    0    0  501    0  0.00000000000E+00 -0.00000000000E+00 -0.35115388523E+04  0.35115388523E+04  0.00000000000E+00 0. -1.
         25    2    1    2    0    0 -0.19555418500E+03 -0.13087668529E+03 -0.28233309652E+04  0.28358799499E+04  0.12508879049E+03 0.  0.
          5    1    3    3  502    0 -0.91081642752E+02 -0.39601899223E+02 -0.59635810734E+03  0.60458633846E+03  0.41800000000E+01 0.  1.
         -5    1    3    3    0  502 -0.10447254225E+03 -0.91274786068E+02 -0.22269728578E+04  0.22312936115E+04  0.41800000000E+01 0.  1.
        -11    1    1    2    0    0  0.14446559642E+03  0.11690692279E+03 -0.39569661867E+03  0.43716513033E+03  0.00000000000E+00 0.  1.
         11    1    1    2    0    0  0.51088588586E+02  0.13969762497E+02 -0.26286111575E+03  0.26814392464E+03  0.00000000000E+00 0. -1.
</event>
<event>
 7    1  0.2499014E-009  0.5325082E+02  0.7561462E-02  0.1428557E+00
         -2   -1    0    0    0  501 -0.00000000000E+00  0.00000000000E+00  0.39705615189E+02  0.39705615189E+02  0.00000000000E+00 0.  1.
          2   -1    0    0  501    0  0.00000000000E+00 -0.00000000000E+00 -0.56227772449E+03  0.56227772449E+03  0.00000000000E+00 0. -1.
         25    2    1    2    0    0 -0.27566116402E+01  0.14227402306E+01 -0.49483427468E+03  0.51040977967E+03  0.12509021019E+03 0.  0.
          5    1    3    3  502    0  0.14409358989E+02 -0.17651614235E+01 -0.49200317819E+03  0.49223505073E+03  0.41800000000E+01 0. -1.
         -5    1    3    3    0  502 -0.17165970630E+02  0.31879016542E+01 -0.28310964938E+01  0.18174728938E+02  0.41800000000E+01 0. -1.
        -11    1    1    2    0    0  0.59349659856E+01  0.35696655741E+02  0.11006432456E+02  0.37823492802E+02  0.00000000000E+00 0.  1.
         11    1    1    2    0    0 -0.31783543454E+01 -0.37119395972E+02 -0.38744267077E+02  0.53750067209E+02  0.00000000000E+00 0. -1.
</event>
<event>
 7    1  0.2499014E-009  0.5620134E+02  0.7561462E-02  0.1414502E+00
          1   -1    0    0  501    0  0.00000000000E+00  0.00000000000E+00  0.49965616122E+02  0.49965616122E+02  0.00000000000E+00 0. -1.
         -1   -1    0    0    0  501 -0.00000000000E+00 -0.00000000000E+00 -0.38610535225E+03  0.38610535225E+03  0.00000000000E+00 0.  1.
         25    2    1    2    0    0  0.38599588157E+01  0.45329307248E+02 -0.65007162485E+02  0.14813344604E+03  0.12509173148E+03 0.  0.
          5    1    3    3  502    0  0.69342676963E+01  0.65139423148E+01 -0.97006538949E+02  0.97561552426E+02  0.41800000000E+01 0. -1.
         -5    1    3    3    0  502 -0.30743088806E+01  0.38815364934E+02  0.31999376464E+02  0.50571893618E+02  0.41800000000E+01 0. -1.
        -11    1    1    2    0    0  0.59999833978E+01 -0.51083140913E+02 -0.27168243580E+03  0.27650828742E+03  0.00000000000E+00 0.  1.
         11    1    1    2    0    0 -0.98599422135E+01  0.57538336648E+01  0.54986215830E+00  0.11429234913E+02  0.00000000000E+00 0. -1.
</event>
<event>
 7    1  0.2499014E-009  0.8530707E+02  0.7561462E-02  0.1314631E+00
         -3   -1    0    0    0  501 -0.00000000000E+00  0.00000000000E+00  0.46975373036E+02  0.46975373036E+02  0.00000000000E+00 0.  1.
          3   -1    0    0  501    0  0.00000000000E+00 -0.00000000000E+00 -0.28478470537E+03  0.28478470537E+03  0.00000000000E+00 0. -1.
         25    2    1    2    0    0  0.24317042578E+02 -0.22715610735E+02 -0.15992387429E+03  0.20574215181E+03  0.12508744914E+03 0.  0.
          5    1    3    3  502    0  0.96037524645E+01 -0.68303716194E+02 -0.13482073462E+03  0.15149829237E+03  0.41800000000E+01 0. -1.
         -5    1    3    3    0  502  0.14713290113E+02  0.45588105459E+02 -0.25103139672E+02  0.54243859438E+02  0.41800000000E+01 0. -1.
        -11    1    1    2    0    0 -0.27417162250E+02 -0.29489152246E+01  0.13744725757E+02  0.30810945668E+02  0.00000000000E+00 0.  1.
         11    1    1    2    0    0  0.31001196723E+01  0.25664525960E+02 -0.91630183794E+02  0.95206980925E+02  0.00000000000E+00 0. -1.
</event>
<event>
 7    1  0.2499014E-009  0.6991020E+02  0.7561462E-02  0.1360399E+00
          2   -1    0    0  501    0  0.00000000000E+00  0.00000000000E+00  0.43858354455E+02  0.43858354455E+02  0.00000000000E+00 0. -1.
         -2   -1    0    0    0  501 -0.00000000000E+00 -0.00000000000E+00 -0.41137146472E+03  0.41137146472E+03  0.00000000000E+00 0.  1.
         25    2    1    2    0    0 -0.27772350736E+01  0.25258567261E+02 -0.32769383096E+03  0.35167761058E+03  0.12509271232E+03 0.  0.
          5    1    3    3  502    0 -0.41378959081E+02 -0.82494529423E+01 -0.36333708777E+02  0.55838002490E+02  0.41800000000E+01 0. -1.
         -5    1    3    3    0  502  0.38601724008E+02  0.33508020204E+02 -0.29136012219E+03  0.29583960809E+03  0.41800000000E+01 0. -1.
        -11    1    1    2    0    0 -0.16038826241E+02 -0.19178534781E+01 -0.63389843838E+02  0.65415551751E+02  0.00000000000E+00 0.  1.
         11    1    1    2    0    0  0.18816061314E+02 -0.23340713783E+02  0.23570564532E+02  0.38136656849E+02  0.00000000000E+00 0. -1.
</event>
<event>
 7    1  0.2499014E-009  0.1203864E+03  0.7561462E-02  0.1242461E+00
         -1   -1    0    0    0  501 -0.00000000000E+00  0.00000000000E+00  0.28110479013E+02  0.28110479013E+02  0.00000000000E+00 0.  1.
          1   -1    0    0  501    0  0.00000000000E+00 -0.00000000000E+00 -0.74819075971E+03  0.74819075971E+03  0.00000000000E+00 0. -1.
         25    2    1    2    0    0 -0.36885432019E+02 -0.62644654396E+02 -0.55950246673E+03  0.57790614807E+03  0.12509043882E+03 0.  0.
          5    1    3    3  502    0  0.31882985104E+01  0.27750809741E+02 -0.27958446639E+03  0.28100750690E+03  0.41800000000E+01 0. -1.
         -5    1    3    3    0  502 -0.40073730529E+02 -0.90395464137E+02 -0.27991800034E+03  0.29689864118E+03  0.41800000000E+01 0. -1.
        -11    1    1    2    0    0  0.62065527362E+02  0.62917843110E+02 -0.14137822370E+03  0.16672908206E+03  0.00000000000E+00 0.  1.
         11    1    1    2    0    0 -0.25180095343E+02 -0.27318871455E+00 -0.19199590268E+02  0.31666008590E+02  0.00000000000E+00 0. -1.
</event>
<event>
 7    1  0.2499014E-009  0.9776181E+02  0.7561462E-02  0.1285074E+00
         -4   -1    0    0    0  501 -0.00000000000E+00  0.00000000000E+00  0.34937033115E+03  0.34937033115E+03  0.00000000000E+00 0. -1.
          4   -1    0    0  501    0  0.00000000000E+00 -0.00000000000E+00 -0.53945793101E+02  0.53945793101E+02  0.00000000000E+00 0.  1.
         25    2    1    2    0    0 -0.31580612374E+02  0.75817652282E+02  0.14136388404E+03  0.20585825816E+03  0.12509285857E+03 0.  0.
          5    1    3    3  502    0 -0.55203608646E+02  0.33790905259E+02  0.14343966788E+03  0.15742196291E+03  0.41800000000E+01 0.  1.
         -5    1    3    3    0  502  0.23622996272E+02  0.42026747023E+02 -0.20757838397E+01  0.48436295242E+02  0.41800000000E+01 0.  1.
        -11    1    1    2    0    0  0.12017295843E+02 -0.35070921454E+02  0.17677717307E+00  0.37073119389E+02  0.00000000000E+00 0.  1.
         11    1    1    2    0    0  0.19563316531E+02 -0.40746730828E+02  0.15388387683E+03  0.16038474670E+03  0.00000000000E+00 0. -1.
</event>
<event>
 7    1  0.2499014E-009  0.9296539E+02  0.7561462E-02  0.1295825E+00
         -1   -1    0    0    0  501 -0.00000000000E+00  0.00000000000E+00  0.10609563711E+03  0.10609563711E+03  0.00000000000E+00 0.  1.
          1   -1    0    0  501    0  0.00000000000E+00 -0.00000000000E+00 -0.15752437710E+03  0.15752437710E+03  0.00000000000E+00 0. -1.
         25    2    1    2    0    0  0.16043714817E+02 -0.21610874883E+02 -0.94131495118E+02  0.15885018882E+03  0.12509281921E+03 0.  0.
          5    1    3    3  502    0 -0.42481984543E+02  0.13546341763E+02 -0.29744196713E+01  0.44883649119E+02  0.41800000000E+01 0. -1.
         -5    1    3    3    0  502  0.58525699361E+02 -0.35157216646E+02 -0.91157075447E+02  0.11396653970E+03  0.41800000000E+01 0. -1.
        -11    1    1    2    0    0  0.25701806488E+02 -0.75521643476E-01  0.50897675210E+02  0.57018960900E+02  0.00000000000E+00 0.  1.
         11    1    1    2    0    0 -0.41745521306E+02  0.21686396526E+02 -0.81949200820E+01  0.47750864480E+02  0.00000000000E+00 0. -1.
</event>
<event>
 7    1  0.2499014E-009  0.1452170E+03  0.7561462E-02  0.1206477E+00
         -1   -1    0    0    0  501 -0.00000000000E+00  0.00000000000E+00  0.14599176897E+03  0.14599176897E+03  0.00000000000E+00 0. -1.
          1   -1    0    0  501    0  0.00000000000E+00 -0.00000000000E+00 -0.20147309676E+03  0.20147309676E+03  0.00000000000E+00 0.  1.
         25    2    1    2    0    0 -0.36222970124E+02 -0.12063639474E+03  0.11761339712E+02  0.17790927524E+03  0.12509251699E+03 0.  0.
          5    1    3    3  502    0 -0.72897074547E+02 -0.84620316309E+02 -0.25058781313E+02  0.11454255249E+03  0.41800000000E+01 0. -1.
         -5    1    3    3    0  502  0.36674104423E+02 -0.36016078427E+02  0.36820121025E+02  0.63366722755E+02  0.41800000000E+01 0. -1.
        -11    1    1    2    0    0  0.23396091040E+01  0.33813964019E+02  0.22089128639E+02  0.40457230966E+02  0.00000000000E+00 0. -1.
         11    1    1    2    0    0  0.33883361020E+02  0.86822430716E+02 -0.89331796138E+02  0.12909835952E+03  0.00000000000E+00 0.  1.
</event>
<event>
 7    1  0.2524698E-009  0.8406368E+02  0.7561462E-02  0.1317899E+00
          1   -1    0    0  501    0  0.00000000000E+00  0.00000000000E+00  0.56317205602E+02  0.56317205602E+02  0.00000000000E+00 0. -1.
         -1   -1    0    0    0  501 -0.00000000000E+00 -0.00000000000E+00 -0.27988102295E+03  0.27988102295E+03  0.00000000000E+00 0.  1.
         25    2    1    2    0    0 -0.61048393670E+02 -0.50406875801E+01 -0.14436526632E+03  0.20060872942E+03  0.12510082853E+03 0.  0.
          5    1    3    3  502    0  0.60209454121E+01 -0.32346127556E+02  0.59609333161E+01  0.33697609374E+02  0.41800000000E+01 0. -1.
         -5    1    3    3    0  502 -0.67069339082E+02  0.27305439976E+02 -0.15032619964E+03  0.16691112004E+03  0.41800000000E+01 0. -1.
        -11    1    1    2    0    0  0.44551249628E+02  0.90211439595E+01 -0.99343585061E+02  0.10924899439E+03  0.00000000000E+00 0.  1.
         11    1    1    2    0    0  0.16497144041E+02 -0.39804563795E+01  0.20145034030E+02  0.26340504752E+02  0.00000000000E+00 0. -1.
</event>
<event>
 7    1  0.2499014E-009  0.5968729E+02  0.7561462E-02  0.1399149E+00
          2   -1    0    0  501    0  0.00000000000E+00  0.00000000000E+00  0.62981206723E+02  0.62981206723E+02  0.00000000000E+00 0. -1.
         -2   -1    0    0    0  501 -0.00000000000E+00 -0.00000000000E+00 -0.23862686714E+03  0.23862686714E+03  0.00000000000E+00 0.  1.
         25    2    1    2    0    0 -0.34479850722E+02 -0.29945246972E+02 -0.57623230525E+02  0.14509651614E+03  0.12508790660E+03 0.  0.
          5    1    3    3  502    0 -0.22224220367E+02  0.11769264255E+02  0.34644134308E+02  0.43013021214E+02  0.41800000000E+01 0.  1.
         -5    1    3    3    0  502 -0.12255630355E+02 -0.41714511228E+02 -0.92267364833E+02  0.10208349492E+03  0.41800000000E+01 0.  1.
        -11    1    1    2    0    0  0.21438052740E+02  0.49377640878E+01  0.10891924311E+02  0.24548027104E+02  0.00000000000E+00 0. -1.
         11    1    1    2    0    0  0.13041797982E+02  0.25007482885E+02 -0.12891435420E+03  0.13196353062E+03  0.00000000000E+00 0.  1.
</event>
<event>
 7    1  0.2499014E-009  0.9884471E+02  0.7561462E-02  0.1282744E+00
         -1   -1    0    0    0  501 -0.00000000000E+00  0.00000000000E+00  0.31169854055E+02  0.31169854055E+02  0.00000000000E+00 0.  1.
          1   -1    0    0  501    0  0.00000000000E+00 -0.00000000000E+00 -0.52977325235E+03  0.52977325235E+03  0.00000000000E+00 0. -1.
         25    2    1    2    0    0 -0.31238038695E+02  0.59477804447E+02 -0.23813947390E+03  0.27725743007E+03  0.12509136347E+03 0.  0.
          5    1    3    3  502    0  0.13283286042E+02  0.27222470459E+02  0.22172960724E+01  0.30657745968E+02  0.41800000000E+01 0.  1.
         -5    1    3    3    0  502 -0.44521324737E+02  0.32255333988E+02 -0.24035676997E+03  0.24659968410E+03  0.41800000000E+01 0.  1.
        -11    1    1    2    0    0  0.13554442463E+02  0.23502989734E+02 -0.74325321400E+02  0.79122479980E+02  0.00000000000E+00 0.  1.
         11    1    1    2    0    0  0.17683596232E+02 -0.82980794181E+02 -0.18613860299E+03  0.20456319635E+03  0.00000000000E+00 0. -1.
</event>
<event>
 7    1  0.2499014E-009  0.1761114E+03  0.7561462E-02  0.1171620E+00
         -4   -1    0    0    0  501 -0.00000000000E+00  0.00000000000E+00  0.27727013983E+03  0.27727013983E+03  0.00000000000E+00 0.  1.
          4   -1    0    0  501    0  0.00000000000E+00 -0.00000000000E+00 -0.14995647434E+03  0.14995647434E+03  0.00000000000E+00 0. -1.
         25    2    1    2    0    0  0.14871236409E+03  0.24905097628E+02 -0.21221872522E+02  0.19706163498E+03  0.12508912418E+03 0.  0.
          5    1    3    3  502    0  0.43343263930E+02  0.68705288919E+02 -0.14937740311E+02  0.82702259577E+02  0.41800000000E+01 0.  1.
         -5    1    3    3    0  502  0.10536910016E+03 -0.43800191291E+02 -0.62841322103E+01  0.11435937541E+03  0.41800000000E+01 0.  1.
        -11    1    1    2    0    0 -0.17831947170E+02 -0.18443594063E+02 -0.71885421903E+01  0.26642440592E+02  0.00000000000E+00 0. -1.
         11    1    1    2    0    0 -0.13088041692E+03 -0.64615035647E+01  0.15572408021E+03  0.20352253860E+03  0.00000000000E+00 0.  1.
</event>
<event>
 7    1  0.2499014E-009  0.1234709E+03  0.7561462E-02  0.1237478E+00
         -2   -1    0    0    0  501 -0.00000000000E+00  0.00000000000E+00  0.20451233571E+03  0.20451233571E+03  0.00000000000E+00 0.  1.
          2   -1    0    0  501    0  0.00000000000E+00 -0.00000000000E+00 -0.97146601962E+02  0.97146601962E+02  0.00000000000E+00 0. -1.
         25    2    1    2    0    0 -0.67180680168E+02 -0.58556792414E+02  0.73196579472E+02  0.17013770935E+03  0.12508780584E+03 0.  0.
          5    1    3    3  502    0 -0.81663144585E+02 -0.87028771470E+02  0.45975737926E+02  0.12796138920E+03  0.41800000000E+01 0.  1.
         -5    1    3    3    0  502  0.14482464417E+02  0.28471979056E+02  0.27220841546E+02  0.42176320151E+02  0.41800000000E+01 0.  1.
        -11    1    1    2    0    0  0.46353570189E+02  0.18016034471E+02  0.60944672975E+02  0.78660562745E+02  0.00000000000E+00 0.  1.
         11    1    1    2    0    0  0.20827109979E+02  0.40540757943E+02 -0.26775518695E+02  0.52860665585E+02  0.00000000000E+00 0. -1.
</event>
<event>
 7    1  0.2499014E-009  0.1899101E+03  0.7561462E-02  0.1158542E+00
          2   -1    0    0  501    0  0.00000000000E+00  0.00000000000E+00  0.83616940446E+03  0.83616940446E+03  0.00000000000E+00 0.  1.
         -2   -1    0    0    0  501 -0.00000000000E+00 -0.00000000000E+00 -0.83433734594E+02  0.83433734594E+02  0.00000000000E+00 0. -1.
         25    2    1    2    0    0  0.17069107819E+03  0.44943190401E+01  0.91674903509E+02  0.23066728721E+03  0.12508983322E+03 0.  0.
          5    1    3    3  502    0  0.55094727862E+02 -0.39427734460E+02 -0.12381608310E+02  0.68998202203E+02  0.41800000000E+01 0. -1.
         -5    1    3    3    0  502  0.11559635033E+03  0.43922053500E+02  0.10405651182E+03  0.16166908500E+03  0.41800000000E+01 0. -1.
        -11    1    1    2    0    0 -0.15144709076E+03  0.24496494066E+02  0.46060832724E+03  0.48548566471E+03  0.00000000000E+00 0.  1.
         11    1    1    2    0    0 -0.19243987437E+02 -0.28990813106E+02  0.20045243912E+03  0.20345018714E+03  0.00000000000E+00 0. -1.
</event>
<event>
 7    1  0.2499014E-009  0.1964223E+03  0.7561462E-02  0.1152793E+00
          2   -1    0    0  501    0  0.00000000000E+00  0.00000000000E+00  0.81700189355E+03  0.81700189355E+03  0.00000000000E+00 0. -1.
         -2   -1    0    0    0  501 -0.00000000000E+00 -0.00000000000E+00 -0.61441483290E+02  0.61441483290E+02  0.00000000000E+00 0.  1.
         25    2    1    2    0    0  0.19201950888E+03 -0.22224959794E+02  0.45386489906E+03  0.50892697663E+03  0.12509148778E+03 0.  0.
          5    1    3    3  502    0  0.16105691276E+03 -0.30610888916E+02  0.44661976435E+03  0.47577625201E+03  0.41800000000E+01 0. -1.
         -5    1    3    3    0  502  0.30962596122E+02  0.83859291215E+01  0.72451347069E+01  0.33150724619E+02  0.41800000000E+01 0. -1.
        -11    1    1    2    0    0 -0.13822830414E+03 -0.18742688991E+00  0.26964417310E+03  0.30301003165E+03  0.00000000000E+00 0.  1.
         11    1    1    2    0    0 -0.53791204747E+02  0.22412386684E+02  0.32051338101E+02  0.66506368560E+02  0.00000000000E+00 0. -1.
</event>
<event>
 7    1  0.2499014E-009  0.1662580E+03  0.7561462E-02  0.1181807E+00
         -1   -1    0    0    0  501 -0.00000000000E+00  0.00000000000E+00  0.14759273261E+03  0.14759273261E+03  0.00000000000E+00 0.  1.
          1   -1    0    0  501    0  0.00000000000E+00 -0.00000000000E+00 -0.22613079802E+03  0.22613079802E+03  0.00000000000E+00 0. -1.
         25    2    1    2    0    0 -0.12329931180E+03 -0.36586468310E+02 -0.11479469888E+03  0.21299527895E+03  0.12509147058E+03 0.  0.
          5    1    3    3  502    0 -0.75348586394E+02  0.40050184627E+02 -0.34938292954E+02  0.92301589773E+02  0.41800000000E+01 0.  1.
         -5    1    3    3    0  502 -0.47950725402E+02 -0.76636652936E+02 -0.79856405929E+02  0.12069368918E+03  0.41800000000E+01 0.  1.
        -11    1    1    2    0    0  0.10501145382E+02 -0.25677921102E+02  0.61784972490E+01  0.28421884433E+02  0.00000000000E+00 0. -1.
         11    1    1    2    0    0  0.11279816641E+03  0.62264389412E+02  0.30078136216E+02  0.13230636724E+03  0.00000000000E+00 0.  1.
</event>
<event>
 7    1  0.2499014E-009  0.1649105E+03  0.7561462E-02  0.1183262E+00
         -2   -1    0    0    0  501 -0.00000000000E+00  0.00000000000E+00  0.38218167782E+03  0.38218167782E+03  0.00000000000E+00 0.  1.
          2   -1    0    0  501    0  0.00000000000E+00 -0.00000000000E+00 -0.11263875067E+03  0.11263875067E+03  0.00000000000E+00 0. -1.
         25    2    1    2    0    0  0.13898430711E+03  0.36846850114E+01  0.10892020856E+02  0.18734351000E+03  0.12509492433E+03 0.  0.
          5    1    3    3  502    0  0.15700400933E+03  0.10345315014E+02  0.29651787217E+02  0.16016861545E+03  0.41800000000E+01 0. -1.
         -5    1    3    3    0  502 -0.18019702218E+02 -0.66606300026E+01 -0.18759766361E+02  0.27174894553E+02  0.41800000000E+01 0. -1.
        -11    1    1    2    0    0 -0.58364767867E+02  0.29717649449E+02  0.53609091009E+02  0.84637577091E+02  0.00000000000E+00 0. -1.
         11    1    1    2    0    0 -0.80619539246E+02 -0.33402334461E+02  0.20504181529E+03  0.22283934140E+03  0.00000000000E+00 0.  1.
</event>
<event>
 7    1  0.2499014E-009  0.1466241E+03  0.7561462E-02  0.1204684E+00
          1   -1    0    0  501    0  0.00000000000E+00  0.00000000000E+00  0.25169214069E+02  0.25169214069E+02  0.00000000000E+00 0. -1.
         -1   -1    0    0    0  501 -0.00000000000E+00 -0.00000000000E+00 -0.88756676299E+03  0.88756676299E+03  0.00000000000E+00 0.  1.
         25    2    1    2    0    0 -0.75736477220E+02  0.67153523141E+02 -0.42600173558E+03  0.45537964181E+03  0.12509008674E+03 0.  0.
          5    1    3    3  502    0  0.22087394819E+02  0.58065727967E+02 -0.15148812428E+03  0.16378524345E+03  0.41800000000E+01 0.  1.
         -5    1    3    3    0  502 -0.97823872039E+02  0.90877951739E+01 -0.27451361130E+03  0.29159439835E+03  0.41800000000E+01 0.  1.
        -11    1    1    2    0    0 -0.16310788840E+02  0.34140355313E+01 -0.25969247983E+02  0.30856106560E+02  0.00000000000E+00 0.  1.
         11    1    1    2    0    0  0.92047266061E+02 -0.70567558672E+02 -0.41042656536E+03  0.42650022869E+03  0.00000000000E+00 0. -1.
</event>
<event>
 7    1  0.2499014E-009  0.1438408E+03  0.7561462E-02  0.1208252E+00
         -3   -1    0    0    0  501 -0.00000000000E+00  0.00000000000E+00  0.15553131650E+03  0.15553131650E+03  0.00000000000E+00 0.  1.
          3   -1    0    0  501    0  0.00000000000E+00 -0.00000000000E+00 -0.14651954239E+03  0.14651954239E+03  0.00000000000E+00 0. -1.
         25    2    1    2    0    0 -0.49399548722E+02  0.85766307481E+02  0.40875568782E+02  0.16466197681E+03  0.12508628850E+03 0.  0.
          5    1    3    3  502    0  0.24517547974E+02 -0.15040895524E+02  0.25465063458E+02  0.38642988416E+02  0.41800000000E+01 0.  1.
         -5    1    3    3    0  502 -0.73917096695E+02  0.10080720300E+03  0.15410505324E+02  0.12601898839E+03  0.41800000000E+01 0.  1.
        -11    1    1    2    0    0  0.31439448416E+02 -0.10358025969E+03 -0.27896554315E+02  0.11178339258E+03  0.00000000000E+00 0. -1.
         11    1    1    2    0    0  0.17960100306E+02  0.17813952211E+02 -0.39672403519E+01  0.25605489497E+02  0.00000000000E+00 0.  1.
</event>
<event>
 7    1  0.2499014E-009  0.1007936E+03  0.7561462E-02  0.1278636E+00
         -1   -1    0    0    0  501 -0.00000000000E+00  0.00000000000E+00  0.19120063005E+03  0.19120063005E+03  0.00000000000E+00 0.  1.
          1   -1    0    0  501    0  0.00000000000E+00 -0.00000000000E+00 -0.64233904696E+02  0.64233904696E+02  0.00000000000E+00 0. -1.
         25    2    1    2    0    0 -0.20728335276E+02  0.78020653518E+01  0.72907287190E+02  0.14647005439E+03  0.12508984051E+03 0.  0.
          5    1    3    3  502    0  0.69185979133E+01 -0.46371582577E+02  0.71360112051E+02  0.85486423832E+02  0.41800000000E+01 0.  1.
         -5    1    3    3    0  502 -0.27646933189E+02  0.54173647929E+02  0.15471751391E+01  0.60983630554E+02  0.41800000000E+01 0.  1.
        -11    1    1    2    0    0  0.58625471791E-01 -0.48185982134E+02  0.35942385362E+02  0.60114452311E+02  0.00000000000E+00 0.  1.
         11    1    1    2    0    0  0.20669709804E+02  0.40383916782E+02  0.18117052801E+02  0.48850028048E+02  0.00000000000E+00 0. -1.
</event>
<event>
 7    1  0.2499014E-009  0.9062036E+02  0.7561462E-02  0.1301356E+00
         -1   -1    0    0    0  501 -0.00000000000E+00  0.00000000000E+00  0.51905997729E+02  0.51905997729E+02  0.00000000000E+00 0.  1.
          1   -1    0    0  501    0  0.00000000000E+00 -0.00000000000E+00 -0.60037237276E+03  0.60037237276E+03  0.00000000000E+00 0. -1.
         25    2    1    2    0    0 -0.48006316425E+02 -0.71715587090E+02 -0.49257335388E+03  0.51548347699E+03  0.12508786612E+03 0.  0.
          5    1    3    3  502    0 -0.30772193023E+02 -0.52002448525E+02 -0.72057911009E+02  0.94132871278E+02  0.41800000000E+01 0. -1.
         -5    1    3    3    0  502 -0.17234123402E+02 -0.19713138565E+02 -0.42051544287E+03  0.42135060571E+03  0.41800000000E+01 0. -1.
        -11    1    1    2    0    0  0.14461051953E+02  0.54626162333E+02  0.13273870366E+02  0.58045975479E+02  0.00000000000E+00 0.  1.
         11    1    1    2    0    0  0.33545264472E+02  0.17089424757E+02 -0.69166891512E+02  0.78748918015E+02  0.00000000000E+00 0. -1.
</event>
<event>
 7    1  0.2499014E-009  0.1702647E+03  0.7561462E-02  0.1177572E+00
          3   -1    0    0  501    0  0.00000000000E+00  0.00000000000E+00  0.40341900531E+03  0.40341900531E+03  0.00000000000E+00 0.  1.
         -3   -1    0    0    0  501 -0.00000000000E+00 -0.00000000000E+00 -0.83207517625E+02  0.83207517625E+02  0.00000000000E+00 0. -1.
         25    2    1    2    0    0  0.87826197958E+02 -0.11497785733E+03  0.20977512637E+03  0.28387877905E+03  0.12509280087E+03 0.  0.
          5    1    3    3  502    0  0.94369769203E+02 -0.13617100911E+03  0.19868571266E+03  0.25873090631E+03  0.41800000000E+01 0. -1.
         -5    1    3    3    0  502 -0.65435712448E+01  0.21193151785E+02  0.11089413704E+02  0.25147872743E+02  0.41800000000E+01 0. -1.
        -11    1    1    2    0    0 -0.56759778828E+02  0.10541721740E+03  0.11934022866E+03  0.16904600673E+03  0.00000000000E+00 0.  1.
         11    1    1    2    0    0 -0.31066419130E+02  0.95606399304E+01 -0.89038673366E+01  0.33701737151E+02  0.00000000000E+00 0. -1.
</event>
<event>
 7    1  0.2499014E-009  0.9014513E+02  0.7561462E-02  0.1302501E+00
          2   -1    0    0  501    0  0.00000000000E+00  0.00000000000E+00  0.31754381091E+03  0.31754381091E+03  0.00000000000E+00 0. -1.
         -2   -1    0    0    0  501 -0.00000000000E+00 -0.00000000000E+00 -0.56013387691E+02  0.56013387691E+02  0.00000000000E+00 0.  1.
         25    2    1    2    0    0 -0.23366997763E+01 -0.21993492752E+02  0.40665827080E+02  0.13337135428E+03  0.12508011337E+03 0.  0.
          5    1    3    3  502    0 -0.15574183299E+02  0.36091837674E+02  0.58893794217E+02  0.70930440076E+02  0.41800000000E+01 0.  1.
         -5    1    3    3    0  502  0.13237483522E+02 -0.58085330426E+02 -0.18227967137E+02  0.62440914204E+02  0.41800000000E+01 0.  1.
        -11    1    1    2    0    0  0.23603308037E+02  0.44314640214E+02  0.19014988385E+03  0.19666693117E+03  0.00000000000E+00 0. -1.
         11    1    1    2    0    0 -0.21266608261E+02 -0.22321147462E+02  0.30714712290E+02  0.43518913153E+02  0.00000000000E+00 0.  1.
</event>
<event>
 7    1  0.2499014E-009  0.1249083E+03  0.7561462E-02  0.1235213E+00
         -2   -1    0    0    0  501 -0.00000000000E+00  0.00000000000E+00  0.41739801698E+03  0.41739801698E+03  0.00000000000E+00 0.  1.
          2   -1    0    0  501    0  0.00000000000E+00 -0.00000000000E+00 -0.47119368936E+02  0.47119368936E+02  0.00000000000E+00 0. -1.
         25    2    1    2    0    0 -0.84145033905E+02  0.11377193653E+02  0.24443075428E+03  0.28741468109E+03  0.12510386885E+03 0.  0.
          5    1    3    3  502    0 -0.85575470648E+02  0.54668435820E+02  0.13016332572E+03  0.16514164470E+03  0.41800000000E+01 0.  1.
         -5    1    3    3    0  502  0.14304367430E+01 -0.43291242167E+02  0.11426742856E+03  0.12227303639E+03  0.41800000000E+01 0.  1.
        -11    1    1    2    0    0  0.65131148857E+01  0.19924939643E+02 -0.52050274867E+01  0.21598986005E+02  0.00000000000E+00 0. -1.
         11    1    1    2    0    0  0.77631919019E+02 -0.31302133296E+02  0.13105292125E+03  0.15550371882E+03  0.00000000000E+00 0.  1.
</event>
<event>
 7    1  0.2499014E-009  0.7377729E+02  0.7561462E-02  0.1347700E+00
         -1   -1    0    0    0  501 -0.00000000000E+00  0.00000000000E+00  0.16984017418E+02  0.16984017418E+02  0.00000000000E+00 0.  1.
          1   -1    0    0  501    0  0.00000000000E+00 -0.00000000000E+00 -0.81031122248E+03  0.81031122248E+03  0.00000000000E+00 0. -1.
         25    2    1    2    0    0 -0.45520065922E+01 -0.15859552164E+02 -0.58666750727E+03  0.60008209168E+03  0.12508999364E+03 0.  0.
          5    1    3    3  502    0 -0.27588224421E+02  0.13776409631E+01 -0.24484921372E+02  0.37148240818E+02  0.41800000000E+01 0. -1.
         -5    1    3    3    0  502  0.23036217829E+02 -0.17237193127E+02 -0.56218258590E+03  0.56293385086E+03  0.41800000000E+01 0. -1.
        -11    1    1    2    0    0  0.12550457256E+02  0.52018499444E+02 -0.88846650989E+02  0.10371675686E+03  0.00000000000E+00 0.  1.
         11    1    1    2    0    0 -0.79984506642E+01 -0.36158947280E+02 -0.11781304681E+03  0.12349639136E+03  0.00000000000E+00 0. -1.
</event>
<event>
 7    1  0.2499014E-009  0.1213232E+03  0.7561462E-02  0.1240930E+00
          3   -1    0    0  501    0  0.00000000000E+00  0.00000000000E+00  0.41892163441E+03  0.41892163441E+03  0.00000000000E+00 0. -1.
         -3   -1    0    0    0  501 -0.00000000000E+00 -0.00000000000E+00 -0.55748713651E+02  0.55748713651E+02  0.00000000000E+00 0.  1.
         25    2    1    2    0    0  0.58512934319E+02 -0.73825371639E+02  0.13110548408E+03  0.20422145376E+03  0.12507519833E+03 0.  0.
          5    1    3    3  502    0  0.77172972771E+02 -0.91875728044E+02  0.73174340253E+02  0.14060147084E+03  0.41800000000E+01 0. -1.
         -5    1    3    3    0  502 -0.18660038451E+02  0.18050356405E+02  0.57931143830E+02  0.63619982921E+02  0.41800000000E+01 0. -1.
        -11    1    1    2    0    0 -0.20345395654E+02  0.41716928819E+02  0.16614147096E+02  0.49297739889E+02  0.00000000000E+00 0.  1.
         11    1    1    2    0    0 -0.38167538666E+02  0.32108442820E+02  0.21545328958E+03  0.22115115441E+03  0.00000000000E+00 0. -1.
</event>
<event>
 7    1  0.2499014E-009  0.1334293E+03  0.7561462E-02  0.1222454E+00
          1   -1    0    0  501    0  0.00000000000E+00  0.00000000000E+00  0.42490113308E+03  0.42490113308E+03  0.00000000000E+00 0. -1.
         -1   -1    0    0    0  501 -0.00000000000E+00 -0.00000000000E+00 -0.57652467437E+02  0.57652467437E+02  0.00000000000E+00 0.  1.
         25    2    1    2    0    0 -0.76046860057E+02 -0.68936979751E+02  0.26202403944E+03  0.30796086412E+03  0.12509142448E+03 0.  0.
          5    1    3    3  502    0  0.16558070182E+02  0.89990821663E+01  0.11897288135E+03  0.12052871884E+03  0.41800000000E+01 0. -1.
         -5    1    3    3    0  502 -0.92604930240E+02 -0.77936061917E+02  0.14305115810E+03  0.18743214528E+03  0.41800000000E+01 0. -1.
        -11    1    1    2    0    0  0.91012664518E+02  0.60127598837E+02  0.56456649459E+02  0.12282502397E+03  0.00000000000E+00 0.  1.
         11    1    1    2    0    0 -0.14965804461E+02  0.88093809139E+01  0.48767976743E+02  0.51767712436E+02  0.00000000000E+00 0. -1.
</event>
<event>
 7    1  0.2499014E-009  0.9472946E+02  0.7561462E-02  0.1291787E+00
          2   -1    0    0  501    0  0.00000000000E+00  0.00000000000E+00  0.57088384604E+03  0.57088384604E+03  0.00000000000E+00 0. -1.
         -2   -1    0    0    0  501 -0.00000000000E+00 -0.00000000000E+00 -0.63387208699E+02  0.63387208699E+02  0.00000000000E+00 0.  1.
         25    2    1    2    0    0 -0.46142303900E+02 -0.63107416838E+02  0.49284126381E+03  0.51444252234E+03  0.12508772607E+03 0.  0.
          5    1    3    3  502    0 -0.64302639066E+01 -0.18527836936E+02  0.41860915023E+03  0.41908915769E+03  0.41800000000E+01 0.  1.
         -5    1    3    3    0  502 -0.39712039994E+02 -0.44579579902E+02  0.74232113582E+02  0.95353364658E+02  0.41800000000E+01 0.  1.
        -11    1    1    2    0    0 -0.20042280663E+02  0.28583422613E+02 -0.16899446527E+02  0.38785259512E+02  0.00000000000E+00 0.  1.
         11    1    1    2    0    0  0.66184584563E+02  0.34523994225E+02  0.31554820062E+02  0.81043272886E+02  0.00000000000E+00 0. -1.
</event>
<event>
 7    1  0.2499014E-009  0.9772185E+02  0.7561462E-02  0.1285161E+00
          1   -1    0    0  501    0  0.00000000000E+00  0.00000000000E+00  0.36076720172E+03  0.36076720172E+03  0.00000000000E+00 0. -1.
         -1   -1    0    0    0  501 -0.00000000000E+00 -0.00000000000E+00 -0.39897220702E+02  0.39897220702E+02  0.00000000000E+00 0.  1.
         25    2    1    2    0    0 -0.21136220272E+02  0.46188643021E+02  0.18224730261E+03  0.22679665403E+03  0.12507003007E+03 0.  0.
          5    1    3    3  502    0 -0.81295689078E+00  0.66814688011E+02  0.18564037816E+03  0.19734407982E+03  0.41800000000E+01 0.  1.
         -5    1    3    3    0  502 -0.20323263381E+02 -0.20626044989E+02 -0.33930755544E+01  0.29452574218E+02  0.41800000000E+01 0.  1.
        -11    1    1    2    0    0 -0.12302988211E+02 -0.61313944731E+02  0.58032998474E+02  0.85314666085E+02  0.00000000000E+00 0.  1.
         11    1    1    2    0    0  0.33439208483E+02  0.15125301710E+02  0.80589679934E+02  0.88553102304E+02  0.00000000000E+00 0. -1.
</event>
<event>
 7    1  0.2499014E-009  0.9628536E+02  0.7561462E-02  0.1288307E+00
         -2   -1    0    0    0  501 -0.00000000000E+00  0.00000000000E+00  0.39728096918E+02  0.39728096918E+02  0.00000000000E+00 0.  1.
          2   -1    0    0  501    0  0.00000000000E+00 -0.00000000000E+00 -0.50947173411E+03  0.50947173411E+03  0.00000000000E+00 0. -1.
         25    2    1    2    0    0  0.42857570920E+01  0.80856177308E+01 -0.43207387743E+03  0.44991084392E+03  0.12509271359E+03 0.  0.
          5    1    3    3  502    0  0.52300480537E+02 -0.47969503902E+00 -0.88635816638E+02  0.10300170272E+03  0.41800000000E+01 0. -1.
         -5    1    3    3    0  502 -0.48014723445E+02  0.85653127698E+01 -0.34343806079E+03  0.34690914120E+03  0.41800000000E+01 0. -1.
        -11    1    1    2    0    0 -0.46381804404E+02  0.59806430264E+01 -0.25502809397E+02  0.53267561967E+02  0.00000000000E+00 0.  1.
         11    1    1    2    0    0  0.42096047312E+02 -0.14066260757E+02 -0.12166950371E+02  0.46021425145E+02  0.00000000000E+00 0. -1.
</event>
<event>
 7    1  0.2499014E-009  0.9490914E+02  0.7561462E-02  0.1291381E+00
         -1   -1    0    0    0  501 -0.00000000000E+00  0.00000000000E+00  0.42625917351E+03  0.42625917351E+03  0.00000000000E+00 0.  1.
          1   -1    0    0  501    0  0.00000000000E+00 -0.00000000000E+00 -0.35534356785E+02  0.35534356785E+02  0.00000000000E+00 0. -1.
         25    2    1    2    0    0  0.42929462968E+02  0.15829303564E+02  0.19153454357E+03  0.23329707856E+03  0.12509412393E+03 0.  0.
          5    1    3    3  502    0 -0.20353722007E+02 -0.24395743090E+02  0.52880499342E+01  0.32478641483E+02  0.41800000000E+01 0.  1.
         -5    1    3    3    0  502  0.63283184975E+02  0.40225046654E+02  0.18624649363E+03  0.20081843708E+03  0.41800000000E+01 0.  1.
        -11    1    1    2    0    0 -0.31218774666E+02  0.25126290942E+02  0.20916935912E+02  0.45204652372E+02  0.00000000000E+00 0. -1.
         11    1    1    2    0    0 -0.11710688302E+02 -0.40955594505E+02  0.17827333724E+03  0.18329179936E+03  0.00000000000E+00 0.  1.
</event>
<event>
 7    1  0.2499014E-009  0.1282252E+03  0.7561462E-02  0.1230113E+00
         -1   -1    0    0    0  501 -0.00000000000E+00  0.00000000000E+00  0.27432035439E+03  0.27432035439E+03  0.00000000000E+00 0.  1.
          1   -1    0    0  501    0  0.00000000000E+00 -0.00000000000E+00 -0.82363219371E+02  0.82363219371E+02  0.00000000000E+00 0. -1.
         25    2    1    2    0    0  0.52932980684E+02 -0.73173561443E+02  0.16207685967E+03  0.22376993638E+03  0.12509118853E+03 0.  0.
          5    1    3    3  502    0 -0.40838625788E+02 -0.29054238981E+02  0.59303284518E+02  0.77757919942E+02  0.41800000000E+01 0. -1.
         -5    1    3    3    0  502  0.93771606472E+02 -0.44119322462E+02  0.10277357515E+03  0.14601201644E+03  0.41800000000E+01 0. -1.
        -11    1    1    2    0    0 -0.53669184950E+02  0.34590124991E+02  0.57125301320E+02  0.85674723291E+02  0.00000000000E+00 0.  1.
         11    1    1    2    0    0  0.73620426547E+00  0.38583436452E+02 -0.27245025964E+02  0.47238914096E+02  0.00000000000E+00 0. -1.
</event>
<event>
 7    1  0.2499014E-009  0.9097671E+02  0.7561462E-02  0.1300504E+00
         -1   -1    0    0    0  501 -0.00000000000E+00  0.00000000000E+00  0.74034767952E+02  0.74034767952E+02  0.00000000000E+00 0.  1.
          1   -1    0    0  501    0  0.00000000000E+00 -0.00000000000E+00 -0.22427844782E+03  0.22427844782E+03  0.00000000000E+00 0. -1.
         25    2    1    2    0    0  0.38328493538E+01 -0.85539807992E+01 -0.55991107420E+01  0.12556482559E+03  0.12508922441E+03 0.  0.
          5    1    3    3  502    0 -0.35127347358E+01 -0.56921388445E+02  0.30324833346E+02  0.64725973807E+02  0.41800000000E+01 0.  1.
         -5    1    3    3    0  502  0.73455840896E+01  0.48367407646E+02 -0.35923944088E+02  0.60838851788E+02  0.41800000000E+01 0.  1.
        -11    1    1    2    0    0 -0.22500907502E+02 -0.27221585355E+02 -0.17620923692E+02  0.39469006820E+02  0.00000000000E+00 0.  1.
         11    1    1    2    0    0  0.18668058148E+02  0.35775566154E+02 -0.12702364543E+03  0.13327938335E+03  0.00000000000E+00 0. -1.
</event>
<event>
 7    1  0.2499014E-009  0.1237090E+03  0.7561462E-02  0.1237101E+00
          2   -1    0    0  501    0  0.00000000000E+00  0.00000000000E+00  0.12467332139E+03  0.12467332139E+03  0.00000000000E+00 0. -1.
         -2   -1    0    0    0  501 -0.00000000000E+00 -0.00000000000E+00 -0.18165407519E+03  0.18165407519E+03  0.00000000000E+00 0.  1.
         25    2    1    2    0    0 -0.10274802581E+03  0.66398216169E+01 -0.44376387037E+02  0.16798468505E+03  0.12509335172E+03 0.  0.
          5    1    3    3  502    0 -0.11440279760E+03  0.12180678997E+01  0.71560511657E+01  0.11470904610E+03  0.41800000000E+01 0. -1.
         -5    1    3    3    0  502  0.11654771786E+02  0.54217537172E+01 -0.51532438203E+02  0.53275638953E+02  0.41800000000E+01 0. -1.
        -11    1    1    2    0    0  0.83530626222E+02  0.20643436384E+02  0.23482434804E+02  0.89190480025E+02  0.00000000000E+00 0. -1.
         11    1    1    2    0    0  0.19217399593E+02 -0.27283258001E+02 -0.36086801568E+02  0.49152231502E+02  0.00000000000E+00 0.  1.
</event>
<event>
 7    1  0.2499014E-009  0.1649662E+03  0.7561462E-02  0.1183201E+00
         -1   -1    0    0    0  501 -0.00000000000E+00  0.00000000000E+00  0.36567396659E+02  0.36567396659E+02  0.00000000000E+00 0.  1.
          1   -1    0    0  501    0  0.00000000000E+00 -0.00000000000E+00 -0.81287957524E+03  0.81287957524E+03  0.00000000000E+00 0. -1.
         25    2    1    2    0    0  0.18654566122E+02 -0.12948185050E+03 -0.47390675673E+03  0.50729620283E+03  0.12509308885E+03 0.  0.
          5    1    3    3  502    0 -0.46636863206E+02 -0.73805968367E+02 -0.31196728842E+03  0.32398052321E+03  0.41800000000E+01 0. -1.
         -5    1    3    3    0  502  0.65291429328E+02 -0.55675882137E+02 -0.16193946832E+03  0.18331567962E+03  0.41800000000E+01 0. -1.
        -11    1    1    2    0    0 -0.44503747171E+02  0.29606814970E+02 -0.13877304375E+03  0.14871148132E+03  0.00000000000E+00 0.  1.
         11    1    1    2    0    0  0.25849181049E+02  0.99875035533E+02 -0.16363237809E+03  0.19343928774E+03  0.00000000000E+00 0. -1.
</event>
<event>
 7    1  0.2499014E-009  0.1332654E+03  0.7561462E-02  0.1222689E+00
          2   -1    0    0  501    0  0.00000000000E+00  0.00000000000E+00  0.30692424591E+03  0.30692424591E+03  0.00000000000E+00 0. -1.
         -2   -1    0    0    0  501 -0.00000000000E+00 -0.00000000000E+00 -0.80842472172E+02  0.80842472172E+02  0.00000000000E+00 0.  1.
         25    2    1    2    0    0  0.12960532991E+02  0.11313346630E+03  0.11520778297E+03  0.20465516722E+03  0.12507496793E+03 0.  0.
          5    1    3    3  502    0  0.42325532599E+02  0.91533446188E+02  0.13043716995E+03  0.16492771200E+03  0.41800000000E+01 0.  1.
         -5    1    3    3    0  502 -0.29364999608E+02  0.21600020109E+02 -0.15229386982E+02  0.39727455224E+02  0.41800000000E+01 0.  1.
        -11    1    1    2    0    0  0.13297876517E+02 -0.55879347937E+00  0.51434049354E+02  0.53128214754E+02  0.00000000000E+00 0. -1.
         11    1    1    2    0    0 -0.26258409508E+02 -0.11257467282E+03  0.59439941420E+02  0.12998333611E+03  0.00000000000E+00 0.  1.
</event>
<event>
 7    1  0.2499014E-009  0.3649659E+03  0.7561462E-02  0.1056635E+00
          2   -1    0    0  501    0  0.00000000000E+00  0.00000000000E+00  0.68671455567E+03  0.68671455567E+03  0.00000000000E+00 0. -1.
         -2   -1    0    0    0  501 -0.00000000000E+00 -0.00000000000E+00 -0.25863933482E+03  0.25863933482E+03  0.00000000000E+00 0.  1.
         25    2    1    2    0    0 -0.34634179679E+03  0.86887405971E+02 -0.26420634053E+01  0.37836062254E+03  0.12509084170E+03 0.  0.
          5    1    3    3  502    0 -0.11033874438E+03 -0.12921880812E+02 -0.42473651899E+02  0.11900881069E+03  0.41800000000E+01 0. -1.
         -5    1    3    3    0  502 -0.23600305240E+03  0.99809286783E+02  0.39831588493E+02  0.25935181186E+03  0.41800000000E+01 0. -1.
        -11    1    1    2    0    0  0.22087215472E+03 -0.24101354336E+02  0.21170328120E+03  0.30689356996E+03  0.00000000000E+00 0. -1.
         11    1    1    2    0    0  0.12546964206E+03 -0.62786051635E+02  0.21901400305E+03  0.26009969799E+03  0.00000000000E+00 0.  1.
</event>
<event>
 7    1  0.2499014E-009  0.1086387E+03  0.7561462E-02  0.1263112E+00
         -1   -1    0    0    0  501 -0.00000000000E+00  0.00000000000E+00  0.11800914815E+03  0.11800914815E+03  0.00000000000E+00 0.  1.
          1   -1    0    0  501    0  0.00000000000E+00 -0.00000000000E+00 -0.15254639795E+03  0.15254639795E+03  0.00000000000E+00 0. -1.
         25    2    1    2    0    0 -0.75174393742E+02 -0.26487709835E+02 -0.56435146056E+02  0.15869970800E+03  0.12509149996E+03 0.  0.
          5    1    3    3  502    0 -0.87246999216E+02 -0.77468616814E+01  0.10227328392E+02  0.88284332608E+02  0.41800000000E+01 0.  1.
         -5    1    3    3    0  502  0.12072605474E+02 -0.18740848154E+02 -0.66662474448E+02  0.70415375394E+02  0.41800000000E+01 0.  1.
        -11    1    1    2    0    0  0.61188876133E+02  0.50354037070E+02  0.27019115002E+02  0.83723593969E+02  0.00000000000E+00 0.  1.
         11    1    1    2    0    0  0.13985517609E+02 -0.23866327235E+02 -0.51212187484E+01  0.28132244132E+02  0.00000000000E+00 0. -1.
</event>
<event>
 7    1  0.2499014E-009  0.6509379E+02  0.7561462E-02  0.1377619E+00
          1   -1    0    0  501    0  0.00000000000E+00  0.00000000000E+00  0.30656250279E+03  0.30656250279E+03  0.00000000000E+00 0. -1.
         -1   -1    0    0    0  501 -0.00000000000E+00 -0.00000000000E+00 -0.52546051216E+02  0.52546051216E+02  0.00000000000E+00 0.  1.
         25    2    1    2    0    0  0.28449746117E+02 -0.14228430139E+02  0.22306156004E+03  0.25770921630E+03  0.12508294976E+03 0.  0.
          5    1    3    3  502    0 -0.39409387914E+00  0.44286067236E+01 -0.15496248858E+02  0.16654548813E+02  0.41800000000E+01 0.  1.
         -5    1    3    3    0  502  0.28843839997E+02 -0.18657036863E+02  0.23855780890E+03  0.24105466749E+03  0.41800000000E+01 0.  1.
        -11    1    1    2    0    0 -0.58152210941E+02  0.49528874685E+01  0.37804932017E+02  0.69537210301E+02  0.00000000000E+00 0.  1.
         11    1    1    2    0    0  0.29702464823E+02  0.92755426709E+01 -0.68500404811E+01  0.31862127409E+02  0.00000000000E+00 0. -1.
</event>
<event>
 7    1  0.2499014E-009  0.8800335E+02  0.7561462E-02  0.1307760E+00
         -2   -1    0    0    0  501 -0.00000000000E+00  0.00000000000E+00  0.47712918913E+02  0.47712918913E+02  0.00000000000E+00 0.  1.
          2   -1    0    0  501    0  0.00000000000E+00 -0.00000000000E+00 -0.33038654871E+03  0.33038654871E+03  0.00000000000E+00 0. -1.
         25    2    1    2    0    0 -0.10549304440E+02  0.36543289269E+02 -0.23549175236E+03  0.26935219780E+03  0.12509013235E+03 0.  0.
          5    1    3    3  502    0 -0.35757163127E+02 -0.36420489956E+02 -0.11889014917E+03  0.12945024825E+03  0.41800000000E+01 0.  1.
         -5    1    3    3    0  502  0.25207858687E+02  0.72963779224E+02 -0.11660160320E+03  0.13990194955E+03  0.41800000000E+01 0.  1.
        -11    1    1    2    0    0  0.12170652034E+02 -0.13366872254E+01  0.25324478403E+02  0.28129001227E+02  0.00000000000E+00 0.  1.
         11    1    1    2    0    0 -0.16213475939E+01 -0.35206602043E+02 -0.72506355840E+02  0.80618268603E+02  0.00000000000E+00 0. -1.
</event>
<event>
 7    1  0.2499014E-009  0.1087883E+03  0.7561462E-02  0.1262830E+00
         -2   -1    0    0    0  501 -0.00000000000E+00  0.00000000000E+00  0.13407821995E+02  0.13407821995E+02  0.00000000000E+00 0.  1.
          2   -1    0    0  501    0  0.00000000000E+00 -0.00000000000E+00 -0.12238477653E+04  0.12238477653E+04  0.00000000000E+00 0. -1.
         25    2    1    2    0    0  0.56953227128E+02  0.74228527359E+01 -0.85682125411E+03  0.86780701957E+03  0.12509033900E+03 0.  0.
          5    1    3    3  502    0 -0.35123682874E+02  0.16730755944E+02 -0.15340785949E+03  0.15831940830E+03  0.41800000000E+01 0.  1.
         -5    1    3    3    0  502  0.92076910002E+02 -0.93079032077E+01 -0.70341339462E+03  0.70948761127E+03  0.41800000000E+01 0.  1.
        -11    1    1    2    0    0  0.28580487760E+01  0.19861952330E+02 -0.16498363286E+02  0.25978098166E+02  0.00000000000E+00 0.  1.
         11    1    1    2    0    0 -0.59811275904E+02 -0.27284805066E+02 -0.33712032587E+03  0.34347046951E+03  0.00000000000E+00 0. -1.
</event>
<event>
 7    1  0.2499014E-009  0.8852298E+02  0.7561462E-02  0.1306468E+00
         -4   -1    0    0    0  501 -0.00000000000E+00  0.00000000000E+00  0.14811189147E+04  0.14811189147E+04  0.00000000000E+00 0. -1.
          4   -1    0    0  501    0  0.00000000000E+00 -0.00000000000E+00 -0.20129038749E+02  0.20129038749E+02  0.00000000000E+00 0.  1.
         25    2    1    2    0    0 -0.40736630711E+02 -0.46091576612E+02  0.13015673329E+04  0.13090106777E+04  0.12509007080E+03 0.  0.
          5    1    3    3  502    0  0.13078571923E+00  0.36130754936E+01  0.10254001684E+04  0.10254150619E+04  0.41800000000E+01 0.  1.
         -5    1    3    3    0  502 -0.40867416430E+02 -0.49704652106E+02  0.27616716446E+03  0.28359561579E+03  0.41800000000E+01 0.  1.
        -11    1    1    2    0    0 -0.13597140548E+02  0.50714228425E+02  0.86366407358E+02  0.10107408924E+03  0.00000000000E+00 0. -1.
         11    1    1    2    0    0  0.54333771259E+02 -0.46226518129E+01  0.73056135744E+02  0.91163186533E+02  0.00000000000E+00 0.  1.
</event>
<event>
 7    1  0.2625826E-009  0.1383073E+03  0.7561462E-02  0.1215625E+00
          2   -1    0    0  501    0  0.00000000000E+00  0.00000000000E+00  0.12392374118E+04  0.12392374118E+04  0.00000000000E+00 0. -1.
         -2   -1    0    0    0  501 -0.00000000000E+00 -0.00000000000E+00 -0.24571368604E+02  0.24571368604E+02  0.00000000000E+00 0.  1.
         25    2    1    2    0    0 -0.95669133908E+02  0.96914045326E+02  0.64501463073E+03  0.67099618882E+03  0.12508835359E+03 0.  0.
          5    1    3    3  502    0 -0.19747402777E+02  0.39022808892E+02  0.43110833673E+02  0.61552870853E+02  0.41800000000E+01 0. -1.
         -5    1    3    3    0  502 -0.75921731131E+02  0.57891236434E+02  0.60190379705E+03  0.60944331797E+03  0.41800000000E+01 0. -1.
        -11    1    1    2    0    0  0.97100900068E+01 -0.39045436040E+01  0.13290913049E+01  0.10549776888E+02  0.00000000000E+00 0.  1.
         11    1    1    2    0    0  0.85959043902E+02 -0.93009501722E+02  0.56832232119E+03  0.58226281472E+03  0.00000000000E+00 0. -1.
</event>
<event>
 7    1  0.2499014E-009  0.1369230E+03  0.7561462E-02  0.1217530E+00
         -1   -1    0    0    0  501 -0.00000000000E+00  0.00000000000E+00  0.25945305081E+02  0.25945305081E+02  0.00000000000E+00 0.  1.
          1   -1    0    0  501    0  0.00000000000E+00 -0.00000000000E+00 -0.89280763825E+03  0.89280763825E+03  0.00000000000E+00 0. -1.
         25    2    1    2    0    0 -0.72937006947E+02  0.71323415299E+02 -0.54964584789E+03  0.57285693486E+03  0.12509065978E+03 0.  0.
          5    1    3    3  502    0 -0.11378665002E+01 -0.25127399708E+02 -0.22842210843E+03  0.22984084271E+03  0.41800000000E+01 0.  1.
         -5    1    3    3    0  502 -0.71799140447E+02  0.96450815007E+02 -0.32122373946E+03  0.34301609215E+03  0.41800000000E+01 0.  1.
        -11    1    1    2    0    0  0.23762585806E+02 -0.75046870884E+02 -0.25278216338E+03  0.26475557678E+03  0.00000000000E+00 0. -1.
         11    1    1    2    0    0  0.49174421141E+02  0.37234555857E+01 -0.64434321900E+02  0.81140431690E+02  0.00000000000E+00 0.  1.
</event>
<event>
 7    1  0.2499014E-009  0.1794465E+03  0.7561462E-02  0.1168340E+00
         -2   -1    0    0    0  501 -0.00000000000E+00  0.00000000000E+00  0.30527997887E+02  0.30527997887E+02  0.00000000000E+00 0.  1.
          2   -1    0    0  501    0  0.00000000000E+00 -0.00000000000E+00 -0.10636968047E+04  0.10636968047E+04  0.00000000000E+00 0. -1.
         25    2    1    2    0    0 -0.13949546132E+03  0.27669681899E+02 -0.50554240822E+03  0.53985736579E+03  0.12509298085E+03 0.  0.
          5    1    3    3  502    0  0.23359071246E+02  0.61502825350E+01 -0.52700027560E+02  0.58122607387E+02  0.41800000000E+01 0.  1.
         -5    1    3    3    0  502 -0.16285453257E+03  0.21519399364E+02 -0.45284238066E+03  0.48173475840E+03  0.41800000000E+01 0.  1.
        -11    1    1    2    0    0  0.63159412323E+02  0.34173690734E+02 -0.21664239187E+03  0.22823426224E+03  0.00000000000E+00 0.  1.
         11    1    1    2    0    0  0.76336048996E+02 -0.61843372633E+02 -0.31098400670E+03  0.32613317454E+03  0.00000000000E+00 0. -1.
</event>
<event>
 7    1  0.2499014E-009  0.2217459E+03  0.7561462E-02  0.1132588E+00
          2   -1    0    0  501    0  0.00000000000E+00  0.00000000000E+00  0.65006849987E+03  0.65006849987E+03  0.00000000000E+00 0.  1.
         -2   -1    0    0    0  501 -0.00000000000E+00 -0.00000000000E+00 -0.84543674976E+02  0.84543674976E+02  0.00000000000E+00 0. -1.
         25    2    1    2    0    0  0.19084757981E+03 -0.74659228094E+02  0.24750533421E+03  0.34482353700E+03  0.12509029598E+03 0.  0.
          5    1    3    3  502    0  0.23353338982E+02 -0.65366818688E+02  0.49944014742E+02  0.85615865560E+02  0.41800000000E+01 0. -1.
         -5    1    3    3    0  502  0.16749424083E+03 -0.92924094058E+01  0.19756131947E+03  0.25920767144E+03  0.41800000000E+01 0. -1.
        -11    1    1    2    0    0 -0.37104837411E+02  0.24362071274E+02  0.15053016859E+03  0.15693823987E+03  0.00000000000E+00 0.  1.
         11    1    1    2    0    0 -0.15374274240E+03  0.50297156819E+02  0.16748932209E+03  0.23285039798E+03  0.00000000000E+00 0. -1.
</event>
<event>
 7    1  0.2499014E-009  0.1416428E+03  0.7561462E-02  0.1211135E+00
          1   -1    0    0  501    0  0.00000000000E+00  0.00000000000E+00  0.24303080244E+03  0.24303080244E+03  0.00000000000E+00 0. -1.
         -1   -1    0    0    0  501 -0.00000000000E+00 -0.00000000000E+00 -0.10027125974E+03  0.10027125974E+03  0.00000000000E+00 0.  1.
         25    2    1    2    0    0 -0.98097580334E+01  0.10372413754E+03  0.11981278289E+03  0.20213421832E+03  0.12509281039E+03 0.  0.
          5    1    3    3  502    0 -0.66508074075E+02  0.67806461707E+02  0.62480866541E+02  0.11376454303E+03  0.41800000000E+01 0.  1.
         -5    1    3    3    0  502  0.56698316042E+02  0.35917675831E+02  0.57331916353E+02  0.88369675295E+02  0.41800000000E+01 0.  1.
        -11    1    1    2    0    0  0.34995872374E+02 -0.44520566523E+02 -0.24018333875E+02  0.61511562237E+02  0.00000000000E+00 0.  1.
         11    1    1    2    0    0 -0.25186114341E+02 -0.59203571015E+02  0.46965093678E+02  0.79656281615E+02  0.00000000000E+00 0. -1.
</event>
<event>
 7    1  0.2499014E-009  0.9246688E+02  0.7561462E-02  0.1296985E+00
         -4   -1    0    0    0  501 -0.00000000000E+00  0.00000000000E+00  0.51090937323E+02  0.51090937323E+02  0.00000000000E+00 0. -1.
          4   -1    0    0  501    0  0.00000000000E+00 -0.00000000000E+00 -0.25193528283E+03  0.25193528283E+03  0.00000000000E+00 0.  1.
         25    2    1    2    0    0 -0.11067521371E+02 -0.93478561069E+01 -0.15899096855E+03  0.20281914718E+03  0.12509039108E+03 0.  0.
          5    1    3    3  502    0  0.11250479901E+02 -0.49895102797E+02 -0.18027020545E+02  0.54392466857E+02  0.41800000000E+01 0.  1.
         -5    1    3    3    0  502 -0.22318001271E+02  0.40547246690E+02 -0.14096394800E+03  0.14842668032E+03  0.41800000000E+01 0.  1.
        -11    1    1    2    0    0  0.41272324569E+02 -0.19256641242E+02 -0.72924924498E+01  0.46123784032E+02  0.00000000000E+00 0. -1.
         11    1    1    2    0    0 -0.30204803198E+02  0.28604497349E+02 -0.34560884515E+02  0.54083288947E+02  0.00000000000E+00 0.  1.
</event>
<event>
 7    1  0.2499014E-009  0.2200533E+03  0.7561462E-02  0.1133843E+00
          2   -1    0    0  501    0  0.00000000000E+00  0.00000000000E+00  0.48688719422E+03  0.48688719422E+03  0.00000000000E+00 0. -1.
         -2   -1    0    0    0  501 -0.00000000000E+00 -0.00000000000E+00 -0.15360100114E+03  0.15360100114E+03  0.00000000000E+00 0.  1.
         25    2    1    2    0    0 -0.85120966607E+02 -0.19227765150E+03  0.33067148682E+03  0.41134801875E+03  0.12508911269E+03 0.  0.
          5    1    3    3  502    0 -0.54585032425E+01 -0.23219165022E+02  0.14804181925E+03  0.15000925814E+03  0.41800000000E+01 0. -1.
         -5    1    3    3    0  502 -0.79662463365E+02 -0.16905848647E+03  0.18262966757E+03  0.26133876060E+03  0.41800000000E+01 0. -1.
        -11    1    1    2    0    0  0.12468286233E+02  0.13725490283E+03  0.58733764416E+01  0.13794514513E+03  0.00000000000E+00 0. -1.
         11    1    1    2    0    0  0.72652680374E+02  0.55022748665E+02 -0.32586701730E+01  0.91195031485E+02  0.00000000000E+00 0.  1.
</event>
<event>
 7    1  0.2499014E-009  0.2087622E+03  0.7561462E-02  0.1142550E+00
          1   -1    0    0  501    0  0.00000000000E+00  0.00000000000E+00  0.12244659343E+04  0.12244659343E+04  0.00000000000E+00 0. -1.
         -1   -1    0    0    0  501 -0.00000000000E+00 -0.00000000000E+00 -0.43259022254E+02  0.43259022254E+02  0.00000000000E+00 0.  1.
         25    2    1    2    0    0  0.11924541544E+03 -0.16138690474E+03  0.68742277779E+03  0.72695368225E+03  0.12508548515E+03 0.  0.
          5    1    3    3  502    0  0.15088602615E+02 -0.36299847777E+02  0.35077513430E+03  0.35299576785E+03  0.41800000000E+01 0. -1.
         -5    1    3    3    0  502  0.10415681282E+03 -0.12508705697E+03  0.33664764348E+03  0.37395791440E+03  0.41800000000E+01 0. -1.
        -11    1    1    2    0    0 -0.84246826834E+02  0.49014713946E+02  0.28354579919E+03  0.29983026908E+03  0.00000000000E+00 0. -1.
         11    1    1    2    0    0 -0.34998588604E+02  0.11237219080E+03  0.21023833510E+03  0.24094100526E+03  0.00000000000E+00 0.  1.
</event>
<event>
 7    1  0.2499014E-009  0.1467362E+03  0.7561462E-02  0.1204542E+00
         -1   -1    0    0    0  501 -0.00000000000E+00  0.00000000000E+00  0.98307323752E+02  0.98307323752E+02  0.00000000000E+00 0.  1.
          1   -1    0    0  501    0  0.00000000000E+00 -0.00000000000E+00 -0.42075230600E+03  0.42075230600E+03  0.00000000000E+00 0. -1.
         25    2    1    2    0    0 -0.32384463770E+01 -0.95395318510E+02 -0.33983071436E+03  0.37448997374E+03  0.12508825556E+03 0.  0.
          5    1    3    3  502    0  0.56038309772E+02 -0.28571322156E+02 -0.96683246282E+02  0.11541982119E+03  0.41800000000E+01 0.  1.
         -5    1    3    3    0  502 -0.59276756149E+02 -0.66823996354E+02 -0.24314746808E+03  0.25907015255E+03  0.41800000000E+01 0.  1.
        -11    1    1    2    0    0  0.35369189411E+02 -0.48860286592E+01  0.16327762810E+02  0.39261287219E+02  0.00000000000E+00 0.  1.
         11    1    1    2    0    0 -0.32130743035E+02  0.10028134717E+03  0.10579693089E+01  0.10530836879E+03  0.00000000000E+00 0. -1.
</event>
<event>
 7    1  0.2499014E-009  0.2940276E+03  0.7561462E-02  0.1088265E+00
          2   -1    0    0  501    0  0.00000000000E+00  0.00000000000E+00  0.35117507005E+03  0.35117507005E+03  0.00000000000E+00 0. -1.
         -2   -1    0    0    0  501 -0.00000000000E+00 -0.00000000000E+00 -0.28366008233E+03  0.28366008233E+03  0.00000000000E+00 0.  1.
         25    2    1    2    0    0  0.11802521977E+03  0.25943905791E+03 -0.46140492700E+02  0.31466654023E+03  0.12509000441E+03 0.  0.
          5    1    3    3  502    0  0.11728107827E+03  0.17607651153E+03  0.13572083599E+02  0.21203646641E+03  0.41800000000E+01 0. -1.
         -5    1    3    3    0  502  0.74414150377E+00  0.83362546371E+02 -0.59712576299E+02  0.10263007382E+03  0.41800000000E+01 0. -1.
        -11    1    1    2    0    0 -0.11039047451E+03 -0.16674422290E+03  0.10730078736E+03  0.22694305827E+03  0.00000000000E+00 0. -1.
         11    1    1    2    0    0 -0.76347452636E+01 -0.92694835009E+02  0.63546930607E+01  0.93225553882E+02  0.00000000000E+00 0.  1.
</event>
<event>
 7    1  0.2499014E-009  0.1137363E+03  0.7561462E-02  0.1253803E+00
         -1   -1    0    0    0  501 -0.00000000000E+00  0.00000000000E+00  0.66641655533E+02  0.66641655533E+02  0.00000000000E+00 0.  1.
          1   -1    0    0  501    0  0.00000000000E+00 -0.00000000000E+00 -0.53767738375E+03  0.53767738375E+03  0.00000000000E+00 0. -1.
         25    2    1    2    0    0  0.58407969716E+02 -0.38314723897E+02 -0.46734835462E+03  0.48881665867E+03  0.12509089586E+03 0.  0.
          5    1    3    3  502    0  0.67060259454E+02 -0.61153870314E+02 -0.44869824665E+03  0.45780395717E+03  0.41800000000E+01 0. -1.
         -5    1    3    3    0  502 -0.86522897383E+01  0.22839146417E+02 -0.18650107972E+02  0.31012701497E+02  0.41800000000E+01 0.  1.
        -11    1    1    2    0    0 -0.68370317290E+02  0.58078321718E+02 -0.14495308559E+02  0.90871919261E+02  0.00000000000E+00 0. -1.
         11    1    1    2    0    0  0.99623475742E+01 -0.19763597821E+02  0.10807934970E+02  0.24630461350E+02  0.00000000000E+00 0.  1.
</event>
<event>
 7    1  0.2499014E-009  0.2052244E+03  0.7561462E-02  0.1145405E+00
          1   -1    0    0  501    0  0.00000000000E+00  0.00000000000E+00  0.77878360966E+03  0.77878360966E+03  0.00000000000E+00 0. -1.
         -1   -1    0    0    0  501 -0.00000000000E+00 -0.00000000000E+00 -0.80392833673E+02  0.80392833673E+02  0.00000000000E+00 0.  1.
         25    2    1    2    0    0  0.12742828638E+03 -0.13264635335E+03  0.57837759215E+03  0.61967898198E+03  0.12509347857E+03 0.  0.
          5    1    3    3  502    0  0.15159951941E+03 -0.10644969792E+03  0.50678558197E+03  0.53959526589E+03  0.41800000000E+01 0. -1.
         -5    1    3    3    0  502 -0.24171233034E+02 -0.26196655427E+02  0.71592010172E+02  0.80083716088E+02  0.41800000000E+01 0. -1.
        -11    1    1    2    0    0 -0.79522019780E+02  0.11138891486E+03  0.12689406022E+03  0.18663693231E+03  0.00000000000E+00 0. -1.
         11    1    1    2    0    0 -0.47906266597E+02  0.21257438489E+02 -0.68808763825E+01  0.52860529038E+02  0.00000000000E+00 0.  1.
</event>
<event>
 7    1  0.2499014E-009  0.8995956E+02  0.7561462E-02  0.1302950E+00
          1   -1    0    0  501    0  0.00000000000E+00  0.00000000000E+00  0.24068006526E+03  0.24068006526E+03  0.00000000000E+00 0. -1.
         -1   -1    0    0    0  501 -0.00000000000E+00 -0.00000000000E+00 -0.62930921528E+02  0.62930921528E+02  0.00000000000E+00 0.  1.
         25    2    1    2    0    0  0.18579986695E+02 -0.45168583509E+02  0.46604416693E+02  0.14214367043E+03  0.12508970600E+03 0.  0.
          5    1    3    3  502    0  0.69175742846E+02 -0.12150256802E+02  0.40732223610E+02  0.81298822740E+02  0.41800000000E+01 0.  1.
         -5    1    3    3    0  502 -0.50595756151E+02 -0.33018326707E+02  0.58721930830E+01  0.60844847692E+02  0.41800000000E+01 0.  1.
        -11    1    1    2    0    0 -0.13090220641E+02  0.26768594049E+02  0.13792253884E+03  0.14110470660E+03  0.00000000000E+00 0. -1.
         11    1    1    2    0    0 -0.54897660536E+01  0.18399989459E+02 -0.67778118007E+01  0.20362609760E+02  0.00000000000E+00 0.  1.
</event>
<event>
 7    1  0.2499014E-009  0.1089897E+03  0.7561462E-02  0.1262452E+00
          2   -1    0    0  501    0  0.00000000000E+00  0.00000000000E+00  0.17385164568E+03  0.17385164568E+03  0.00000000000E+00 0. -1.
         -2   -1    0    0    0  501 -0.00000000000E+00 -0.00000000000E+00 -0.73465862527E+02  0.73465862527E+02  0.00000000000E+00 0.  1.
         25    2    1    2    0    0 -0.99391709581E+01  0.29432747578E+02  0.62093715630E+02  0.14306821090E+03  0.12509120553E+03 0.  0.
          5    1    3    3  502    0  0.49954948985E+02  0.37742881259E+02  0.52264153549E+02  0.81664166927E+02  0.41800000000E+01 0. -1.
         -5    1    3    3    0  502 -0.59894119943E+02 -0.83101336810E+01  0.98295620811E+01  0.61404043973E+02  0.41800000000E+01 0. -1.
        -11    1    1    2    0    0  0.17690431690E+02 -0.60274435951E+02  0.35916465177E+02  0.72359874746E+02  0.00000000000E+00 0. -1.
         11    1    1    2    0    0 -0.77512607314E+01  0.30841688373E+02  0.23756023435E+01  0.31889422558E+02  0.00000000000E+00 0.  1.
</event>
<event>
 7    1  0.2499014E-009  0.1053422E+03  0.7561462E-02  0.1269447E+00
         -1   -1    0    0    0  501 -0.00000000000E+00  0.00000000000E+00  0.64969501570E+03  0.64969501570E+03  0.00000000000E+00 0.  1.
          1   -1    0    0  501    0  0.00000000000E+00 -0.00000000000E+00 -0.24536887684E+02  0.24536887684E+02  0.00000000000E+00 0. -1.
         25    2    1    2    0    0  0.32556335853E+02 -0.30736964096E+02  0.47475331818E+03  0.49299382553E+03  0.12509005922E+03 0.  0.
          5    1    3    3  502    0  0.42312592838E+02 -0.67555394070E+02  0.19617819959E+03  0.21179576289E+03  0.41800000000E+01 0.  1.
         -5    1    3    3    0  502 -0.97562569853E+01  0.36818429973E+02  0.27857511859E+03  0.28119806264E+03  0.41800000000E+01 0.  1.
        -11    1    1    2    0    0 -0.40012852467E+02 -0.17544793377E+02  0.10816428362E+03  0.11665487726E+03  0.00000000000E+00 0.  1.
         11    1    1    2    0    0  0.74565166144E+01  0.48281757473E+02  0.42240526209E+02  0.64583200596E+02  0.00000000000E+00 0. -1.
</event>
<event>
 7    1  0.2785104E-009  0.1861597E+03  0.7561462E-02  0.1161971E+00
          1   -1    0    0  501    0  0.00000000000E+00  0.00000000000E+00  0.50268223641E+03  0.50268223641E+03  0.00000000000E+00 0. -1.
         -1   -1    0    0    0  501 -0.00000000000E+00 -0.00000000000E+00 -0.88141842709E+02  0.88141842709E+02  0.00000000000E+00 0.  1.
         25    2    1    2    0    0 -0.12095818450E+03 -0.99302759352E+02  0.91097283441E+02  0.22008566402E+03  0.12508822505E+03 0.  0.
          5    1    3    3  502    0 -0.46055125918E+02  0.26229092695E+02  0.15048861695E+02  0.55253783267E+02  0.41800000000E+01 0. -1.
         -5    1    3    3    0  502 -0.74903058586E+02 -0.12553185205E+03  0.76048421746E+02  0.16483188076E+03  0.41800000000E+01 0. -1.
        -11    1    1    2    0    0  0.11338308868E+03  0.51527790690E+02  0.27686372327E+03  0.30358583510E+03  0.00000000000E+00 0.  1.
         11    1    1    2    0    0  0.75750958249E+01  0.47774968661E+02  0.46579386989E+02  0.67152579992E+02  0.00000000000E+00 0. -1.
</event>
<event>
 7    1  0.2499014E-009  0.1000121E+03  0.7561462E-02  0.1280270E+00
          2   -1    0    0  501    0  0.00000000000E+00  0.00000000000E+00  0.16438114757E+03  0.16438114757E+03  0.00000000000E+00 0. -1.
         -2   -1    0    0    0  501 -0.00000000000E+00 -0.00000000000E+00 -0.16418190746E+03  0.16418190746E+03  0.00000000000E+00 0.  1.
         25    2    1    2    0    0 -0.32228327289E+02  0.76943522846E+02  0.89880860320E+02  0.17516508781E+03  0.12508104632E+03 0.  0.
          5    1    3    3  502    0 -0.34109229558E+02  0.12054857202E+02  0.10261011670E+03  0.10888097893E+03  0.41800000000E+01 0. -1.
         -5    1    3    3    0  502  0.18809022695E+01  0.64888665645E+02 -0.12729256378E+02  0.66284108883E+02  0.41800000000E+01 0. -1.
        -11    1    1    2    0    0  0.46724385096E+02 -0.53903416352E+02 -0.13635801946E+02  0.72627002911E+02  0.00000000000E+00 0. -1.
         11    1    1    2    0    0 -0.14496057808E+02 -0.23040106494E+02 -0.76045818270E+02  0.80770964310E+02  0.00000000000E+00 0.  1.
</event>
<event>
 7    1  0.2499014E-009  0.8522126E+02  0.7561462E-02  0.1314855E+00
          2   -1    0    0  501    0  0.00000000000E+00  0.00000000000E+00  0.31879221382E+03  0.31879221382E+03  0.00000000000E+00 0.  1.
         -2   -1    0    0    0  501 -0.00000000000E+00 -0.00000000000E+00 -0.61776006227E+02  0.61776006227E+02  0.00000000000E+00 0. -1.
         25    2    1    2    0    0  0.28925420838E+02  0.51846439602E+02  0.50245245508E+02  0.14729740041E+03  0.12508879327E+03 0.  0.
          5    1    3    3  502    0  0.33233832568E+02  0.76992783455E+02  0.74200904061E+02  0.11205187591E+03  0.41800000000E+01 0.  1.
         -5    1    3    3    0  502 -0.43084117303E+01 -0.25146343853E+02 -0.23955658553E+02  0.35245524503E+02  0.41800000000E+01 0.  1.
        -11    1    1    2    0    0 -0.78303217416E+00 -0.10975391458E+02 -0.75081807175E+01  0.13320853378E+02  0.00000000000E+00 0. -1.
         11    1    1    2    0    0 -0.28142388664E+02 -0.40871048144E+02  0.21427914280E+03  0.21994996625E+03  0.00000000000E+00 0.  1.
</event>
<event>
 7    1  0.2499014E-009  0.1975543E+03  0.7561462E-02  0.1151819E+00
         -3   -1    0    0    0  501 -0.00000000000E+00  0.00000000000E+00  0.95963344261E+03  0.95963344261E+03  0.00000000000E+00 0.  1.
          3   -1    0    0  501    0  0.00000000000E+00 -0.00000000000E+00 -0.47067699293E+02  0.47067699293E+02  0.00000000000E+00 0. -1.
         25    2    1    2    0    0 -0.29589461847E+02 -0.17570436041E+03  0.56717128799E+03  0.60751754140E+03  0.12508690848E+03 0.  0.
          5    1    3    3  502    0  0.96574622201E+01 -0.15425121981E+03  0.30960120924E+03  0.34605936854E+03  0.41800000000E+01 0. -1.
         -5    1    3    3    0  502 -0.39246924068E+02 -0.21453140594E+02  0.25757007875E+03  0.26145817286E+03  0.41800000000E+01 0. -1.
        -11    1    1    2    0    0 -0.15774751507E+01  0.16118607470E+03  0.24690562916E+03  0.29486578101E+03  0.00000000000E+00 0. -1.
         11    1    1    2    0    0  0.31166936998E+02  0.14518285712E+02  0.98488826175E+02  0.10431781949E+03  0.00000000000E+00 0.  1.
</event>
<event>
 7    1  0.2499014E-009  0.9872819E+02  0.7561462E-02  0.1282993E+00
          1   -1    0    0  501    0  0.00000000000E+00  0.00000000000E+00  0.58195939779E+03  0.58195939779E+03  0.00000000000E+00 0. -1.
         -1   -1    0    0    0  501 -0.00000000000E+00 -0.00000000000E+00 -0.27650998377E+02  0.27650998377E+02  0.00000000000E+00 0.  1.
         25    2    1    2    0    0  0.39418767080E+02  0.10169513479E+02  0.43589582957E+03  0.45531315824E+03  0.12509052576E+03 0.  0.
          5    1    3    3  502    0  0.31589564915E+02  0.64343477826E+02  0.30566543928E+03  0.31398537692E+03  0.41800000000E+01 0. -1.
         -5    1    3    3    0  502  0.78292021653E+01 -0.54173964348E+02  0.13023039029E+03  0.14132778132E+03  0.41800000000E+01 0. -1.
        -11    1    1    2    0    0 -0.50017256166E+02 -0.22202589981E+02  0.12538892273E+03  0.13681031708E+03  0.00000000000E+00 0. -1.
         11    1    1    2    0    0  0.10598489086E+02  0.12033076503E+02 -0.69763528812E+01  0.17486920843E+02  0.00000000000E+00 0.  1.
</event>
<event>
 7    1  0.2499014E-009  0.9168801E+02  0.7561462E-02  0.1298815E+00
         -1   -1    0    0    0  501 -0.00000000000E+00  0.00000000000E+00  0.28689561716E+03  0.28689561716E+03  0.00000000000E+00 0.  1.
          1   -1    0    0  501    0  0.00000000000E+00 -0.00000000000E+00 -0.46211173141E+02  0.46211173141E+02  0.00000000000E+00 0. -1.
         25    2    1    2    0    0 -0.60761773647E+01 -0.18084966115E+02  0.83614121950E+02  0.15166489168E+03  0.12508769743E+03 0.  0.
          5    1    3    3  502    0 -0.54734408999E+02  0.10390602340E+02  0.67865653299E+01  0.56279214764E+02  0.41800000000E+01 0. -1.
         -5    1    3    3    0  502  0.48658231634E+02 -0.28475568455E+02  0.76827556620E+02  0.95385676916E+02  0.41800000000E+01 0. -1.
        -11    1    1    2    0    0 -0.31249869752E+02  0.68144962840E+01  0.13024523251E+03  0.13411492203E+03  0.00000000000E+00 0.  1.
         11    1    1    2    0    0  0.37326047117E+02  0.11270469831E+02  0.26825089562E+02  0.47326976595E+02  0.00000000000E+00 0. -1.
</event>
<event>
 7    1  0.2499014E-009  0.1571292E+03  0.7561462E-02  0.1191976E+00
          2   -1    0    0  501    0  0.00000000000E+00  0.00000000000E+00  0.32652434242E+03  0.32652434242E+03  0.00000000000E+00 0. -1.
         -2   -1    0    0    0  501 -0.00000000000E+00 -0.00000000000E+00 -0.10378549955E+03  0.10378549955E+03  0.00000000000E+00 0.  1.
         25    2    1    2    0    0 -0.11081825246E+03  0.34654461612E+01  0.17457421848E+03  0.24169124373E+03  0.12508319288E+03 0.  0.
          5    1    3    3  502    0  0.22732194591E+01 -0.43505949368E+02  0.35608868692E+02  0.56421618965E+02  0.41800000000E+01 0. -1.
         -5    1    3    3    0  502 -0.11309147191E+03  0.46971395529E+02  0.13896534979E+03  0.18526962476E+03  0.41800000000E+01 0. -1.
        -11    1    1    2    0    0  0.22417321725E+02  0.42705417093E+02 -0.34320175912E+02  0.59195974838E+02  0.00000000000E+00 0.  1.
         11    1    1    2    0    0  0.88400930730E+02 -0.46170863254E+02  0.82484800296E+02  0.12942262340E+03  0.00000000000E+00 0. -1.
</event>
<event>
 7    1  0.2499014E-009  0.1274792E+03  0.7561462E-02  0.1231245E+00
         -1   -1    0    0    0  501 -0.00000000000E+00  0.00000000000E+00  0.20711949699E+03  0.20711949699E+03  0.00000000000E+00 0.  1.
          1   -1    0    0  501    0  0.00000000000E+00 -0.00000000000E+00 -0.10234703732E+03  0.10234703732E+03  0.00000000000E+00 0. -1.
         25    2    1    2    0    0 -0.72576353323E+02  0.63691355064E+02  0.44023774193E+02  0.16403264767E+03  0.12507877931E+03 0.  0.
          5    1    3    3  502    0 -0.82528457230E+02 -0.83178772848E+01  0.99665736472E+01  0.83647703648E+02  0.41800000000E+01 0. -1.
         -5    1    3    3    0  502  0.99521039073E+01  0.72009232349E+02  0.34057200546E+02  0.80384944018E+02  0.41800000000E+01 0. -1.
        -11    1    1    2    0    0  0.22634184258E+02 -0.34448949140E+02 -0.20217587092E+02  0.45910643883E+02  0.00000000000E+00 0. -1.
         11    1    1    2    0    0  0.49942169065E+02 -0.29242405924E+02  0.80966272577E+02  0.99523242763E+02  0.00000000000E+00 0.  1.
</event>
<event>
 7    1  0.2499014E-009  0.1048989E+03  0.7561462E-02  0.1270319E+00
         -1   -1    0    0    0  501 -0.00000000000E+00  0.00000000000E+00  0.15414216305E+03  0.15414216305E+03  0.00000000000E+00 0.  1.
          1   -1    0    0  501    0  0.00000000000E+00 -0.00000000000E+00 -0.13252906324E+03  0.13252906324E+03  0.00000000000E+00 0. -1.
         25    2    1    2    0    0  0.82339491744E+02  0.41138086704E+02  0.18758855992E+01  0.15531480707E+03  0.12508811402E+03 0.  0.
          5    1    3    3  502    0  0.62247103703E+02 -0.92624310896E+01 -0.49729541805E+02  0.80318081882E+02  0.41800000000E+01 0. -1.
         -5    1    3    3    0  502  0.20092388041E+02  0.50400517794E+02  0.51605427404E+02  0.74996725186E+02  0.41800000000E+01 0. -1.
        -11    1    1    2    0    0 -0.66051774530E+02 -0.29802305508E+02 -0.29524677170E+02  0.78247817185E+02  0.00000000000E+00 0. -1.
         11    1    1    2    0    0 -0.16287717214E+02 -0.11335781195E+02  0.49261891386E+02  0.53108602036E+02  0.00000000000E+00 0.  1.
</event>
<event>
 7    1  0.2499014E-009  0.1367389E+03  0.7561462E-02  0.1217786E+00
          2   -1    0    0  501    0  0.00000000000E+00  0.00000000000E+00  0.39545362679E+03  0.39545362679E+03  0.00000000000E+00 0. -1.
         -2   -1    0    0    0  501 -0.00000000000E+00 -0.00000000000E+00 -0.57343189407E+02  0.57343189407E+02  0.00000000000E+00 0.  1.
         25    2    1    2    0    0 -0.81083298974E+02 -0.57240715578E+02  0.23004597405E+03  0.28003328319E+03  0.12508592497E+03 0.  0.
          5    1    3    3  502    0 -0.70740998644E+02  0.14818227698E+02  0.17272187038E+03  0.18728103393E+03  0.41800000000E+01 0. -1.
         -5    1    3    3    0  502 -0.10342300331E+02 -0.72058943276E+02  0.57324103668E+02  0.92752249264E+02  0.41800000000E+01 0. -1.
        -11    1    1    2    0    0 -0.16239093900E+02  0.14866368464E+02  0.10607318448E+01  0.22041829190E+02  0.00000000000E+00 0.  1.
         11    1    1    2    0    0  0.97322392875E+02  0.42374347114E+02  0.10700373149E+03  0.15072170381E+03  0.00000000000E+00 0. -1.
</event>
<event>
 7    1  0.2499014E-009  0.1100789E+03  0.7561462E-02  0.1260424E+00
         -2   -1    0    0    0  501 -0.00000000000E+00  0.00000000000E+00  0.15512812934E+03  0.15512812934E+03  0.00000000000E+00 0. -1.
          2   -1    0    0  501    0  0.00000000000E+00 -0.00000000000E+00 -0.10687675712E+03  0.10687675712E+03  0.00000000000E+00 0.  1.
         25    2    1    2    0    0  0.27548247621E+01  0.43768322519E+02 -0.28222900140E+02  0.13553550900E+03  0.12510030772E+03 0.  0.
          5    1    3    3  502    0 -0.55257411841E+02  0.48714613969E+02 -0.10465867879E+02  0.74521822093E+02  0.41800000000E+01 0.  1.
         -5    1    3    3    0  502  0.58012236603E+02 -0.49462914506E+01 -0.17757032261E+02  0.61013686903E+02  0.41800000000E+01 0.  1.
        -11    1    1    2    0    0  0.45733911583E+01  0.21673706834E+02 -0.39759393035E+01  0.22504967629E+02  0.00000000000E+00 0.  1.
         11    1    1    2    0    0 -0.73282159204E+01 -0.65442029353E+02  0.80450211668E+02  0.10396440983E+03  0.00000000000E+00 0. -1.
</event>
<event>
 7    1  0.2499014E-009  0.1526981E+03  0.7561462E-02  0.1197196E+00
          3   -1    0    0  501    0  0.00000000000E+00  0.00000000000E+00  0.11604747004E+03  0.11604747004E+03  0.00000000000E+00 0. -1.
         -3   -1    0    0    0  501 -0.00000000000E+00 -0.00000000000E+00 -0.21312794171E+03  0.21312794171E+03  0.00000000000E+00 0.  1.
         25    2    1    2    0    0 -0.52061962325E+02  0.97600005937E+02 -0.24831449658E+02  0.16881725681E+03  0.12508579546E+03 0.  0.
          5    1    3    3  502    0  0.36045888264E+02  0.59906154333E+02 -0.19697679432E+02  0.72756610440E+02  0.41800000000E+01 0.  1.
         -5    1    3    3    0  502 -0.88107850590E+02  0.37693851603E+02 -0.51337702260E+01  0.96060646370E+02  0.41800000000E+01 0.  1.
        -11    1    1    2    0    0  0.74209889833E+02 -0.58495757605E+02 -0.31250940539E+02  0.99526291458E+02  0.00000000000E+00 0.  1.
         11    1    1    2    0    0 -0.22147927508E+02 -0.39104248332E+02 -0.40998081469E+02  0.60831863481E+02  0.00000000000E+00 0. -1.
</event>
<event>
 7    1  0.2499014E-009  0.1244705E+03  0.7561462E-02  0.1235899E+00
         -2   -1    0    0    0  501 -0.00000000000E+00  0.00000000000E+00  0.70004434119E+02  0.70004434119E+02  0.00000000000E+00 0.  1.
          2   -1    0    0  501    0  0.00000000000E+00 -0.00000000000E+00 -0.29059657212E+03  0.29059657212E+03  0.00000000000E+00 0. -1.
         25    2    1    2    0    0  0.50251226390E+02 -0.76947707063E+02 -0.11481398658E+03  0.19307964229E+03  0.12510540107E+03 0.  0.
          5    1    3    3  502    0 -0.37612676677E+02 -0.50312857364E+02 -0.53266428829E+02  0.82467459662E+02  0.41800000000E+01 0.  1.
         -5    1    3    3    0  502  0.87863903067E+02 -0.26634849700E+02 -0.61547557749E+02  0.11061218263E+03  0.41800000000E+01 0.  1.
        -11    1    1    2    0    0 -0.23268504335E+01  0.17796613656E+02 -0.87375548585E+02  0.89199888907E+02  0.00000000000E+00 0. -1.
         11    1    1    2    0    0 -0.47924375957E+02  0.59151093408E+02 -0.18402602842E+02  0.78321475047E+02  0.00000000000E+00 0.  1.
</event>
<event>
 7    1  0.2499014E-009  0.1154682E+03  0.7561462E-02  0.1250766E+00
          1   -1    0    0  501    0  0.00000000000E+00  0.00000000000E+00  0.15597747389E+03  0.15597747389E+03  0.00000000000E+00 0. -1.
         -1   -1    0    0    0  501 -0.00000000000E+00 -0.00000000000E+00 -0.13266533472E+03  0.13266533472E+03  0.00000000000E+00 0.  1.
         25    2    1    2    0    0 -0.75922868073E+02 -0.53823223308E+02  0.15470418590E+02  0.15668163470E+03  0.12509428260E+03 0.  0.
          5    1    3    3  502    0  0.34061002942E+01 -0.54947847791E+02  0.45706171288E+02  0.71675616424E+02  0.41800000000E+01 0.  1.
         -5    1    3    3    0  502 -0.79328968367E+02  0.11246244830E+01 -0.30235752698E+02  0.85006018279E+02  0.41800000000E+01 0.  1.
        -11    1    1    2    0    0  0.26700657838E+02  0.54233810045E+01 -0.39694500504E+02  0.48145524826E+02  0.00000000000E+00 0.  1.
         11    1    1    2    0    0  0.49222210235E+02  0.48399842303E+02  0.47536221083E+02  0.83815649077E+02  0.00000000000E+00 0. -1.
</event>
<event>
 7    1  0.2499014E-009  0.8474573E+02  0.7561462E-02  0.1316099E+00
          3   -1    0    0  501    0  0.00000000000E+00  0.00000000000E+00  0.20756368633E+02  0.20756368633E+02  0.00000000000E+00 0. -1.
         -3   -1    0    0    0  501 -0.00000000000E+00 -0.00000000000E+00 -0.63056139939E+03  0.63056139939E+03  0.00000000000E+00 0.  1.
         25    2    1    2    0    0 -0.22913550406E+02  0.24109858307E+02 -0.30609713880E+03  0.33233928044E+03  0.12509045880E+03 0.  0.
          5    1    3    3  502    0  0.85920274351E+01  0.39424588415E+02 -0.29125297910E+03  0.29406443399E+03  0.41800000000E+01 0.  1.
         -5    1    3    3    0  502 -0.31505577841E+02 -0.15314730107E+02 -0.14844159704E+02  0.38274846449E+02  0.41800000000E+01 0.  1.
        -11    1    1    2    0    0 -0.11820145326E+02  0.28358341650E+02 -0.61725979928E+02  0.68949314534E+02  0.00000000000E+00 0.  1.
         11    1    1    2    0    0  0.34733695732E+02 -0.52468199957E+02 -0.24198191203E+03  0.25002917305E+03  0.00000000000E+00 0. -1.
</event>
<event>
 7    1  0.2499014E-009  0.9940055E+02  0.7561462E-02  0.1281562E+00
         -3   -1    0    0    0  501 -0.00000000000E+00  0.00000000000E+00  0.32387146451E+03  0.32387146451E+03  0.00000000000E+00 0.  1.
          3   -1    0    0  501    0  0.00000000000E+00 -0.00000000000E+00 -0.48199345203E+02  0.48199345203E+02  0.00000000000E+00 0. -1.
         25    2    1    2    0    0 -0.32637354011E+02 -0.14470495675E+02  0.12067565958E+03  0.17744107356E+03  0.12509247639E+03 0.  0.
          5    1    3    3  502    0  0.25425406820E+02  0.18279720734E+02 -0.78878773280E+01  0.32562102371E+02  0.41800000000E+01 0.  1.
         -5    1    3    3    0  502 -0.58062760831E+02 -0.32750216409E+02  0.12856353691E+03  0.14487897119E+03  0.41800000000E+01 0.  1.
        -11    1    1    2    0    0  0.18229819675E+02  0.54713890460E+02  0.35507386745E+02  0.67725258568E+02  0.00000000000E+00 0. -1.
         11    1    1    2    0    0  0.14407534336E+02 -0.40243394785E+02  0.11948907298E+03  0.12690447759E+03  0.00000000000E+00 0.  1.
</event>
<event>
 7    1  0.2499014E-009  0.4968814E+02  0.7561462E-02  0.1447031E+00
          2   -1    0    0  501    0  0.00000000000E+00  0.00000000000E+00  0.12535256217E+03  0.12535256217E+03  0.00000000000E+00 0. -1.
         -2   -1    0    0    0  501 -0.00000000000E+00 -0.00000000000E+00 -0.14460398909E+03  0.14460398909E+03  0.00000000000E+00 0.  1.
         25    2    1    2    0    0  0.33661745046E+01  0.33604428066E+02 -0.80468025690E+02  0.15252428445E+03  0.12509182816E+03 0.  0.
          5    1    3    3  502    0  0.40163184480E+00  0.27082826643E+02 -0.11437751745E+03  0.11761517633E+03  0.41800000000E+01 0. -1.
         -5    1    3    3    0  502  0.29645426598E+01  0.65216014229E+01  0.33909491756E+02  0.34909108116E+02  0.41800000000E+01 0. -1.
        -11    1    1    2    0    0 -0.22903074681E+02  0.20757193603E+01  0.71805244770E+02  0.75397961625E+02  0.00000000000E+00 0. -1.
         11    1    1    2    0    0  0.19536900176E+02 -0.35680147427E+02 -0.10588645996E+02  0.42034305191E+02  0.00000000000E+00 0.  1.
</event>
<event>
 7    1  0.2499014E-009  0.1907931E+03  0.7561462E-02  0.1157748E+00
         -1   -1    0    0    0  501 -0.00000000000E+00  0.00000000000E+00  0.41248148484E+03  0.41248148484E+03  0.00000000000E+00 0.  1.
          1   -1    0    0  501    0  0.00000000000E+00 -0.00000000000E+00 -0.14042359331E+03  0.14042359331E+03  0.00000000000E+00 0. -1.
         25    2    1    2    0    0 -0.86994481793E+02  0.14723235089E+03  0.28926836460E+03  0.35856509577E+03  0.12508931263E+03 0.  0.
          5    1    3    3  502    0 -0.98004977304E+01  0.12091563935E+03  0.22093105993E+03  0.25208063638E+03  0.41800000000E+01 0. -1.
         -5    1    3    3    0  502 -0.77193984062E+02  0.26316711540E+02  0.68337304663E+02  0.10648445938E+03  0.41800000000E+01 0. -1.
        -11    1    1    2    0    0  0.26854938069E+02 -0.95519336778E+02 -0.46772571815E+02  0.10969414238E+03  0.00000000000E+00 0.  1.
         11    1    1    2    0    0  0.60139543724E+02 -0.51713014111E+02  0.29562098752E+02  0.84645840006E+02  0.00000000000E+00 0. -1.
</event>
<event>
 7    1  0.2499014E-009  0.2497946E+03  0.7561462E-02  0.1113435E+00
          1   -1    0    0  501    0  0.00000000000E+00  0.00000000000E+00  0.66942021828E+02  0.66942021828E+02  0.00000000000E+00 0. -1.
         -1   -1    0    0    0  501 -0.00000000000E+00 -0.00000000000E+00 -0.10780533562E+04  0.10780533562E+04  0.00000000000E+00 0.  1.
         25    2    1    2    0    0  0.49638115193E+02  0.23021506475E+03 -0.37225415396E+03  0.45791190320E+03  0.12508891811E+03 0.  0.
          5    1    3    3  502    0  0.59017907679E+02  0.67768932602E+02 -0.20822589976E+03  0.22682865644E+03  0.41800000000E+01 0.  1.
         -5    1    3    3    0  502 -0.93797924865E+01  0.16244613214E+03 -0.16402825420E+03  0.23108324676E+03  0.41800000000E+01 0.  1.
        -11    1    1    2    0    0 -0.13422517794E+01 -0.16842970375E+03 -0.50004640500E+03  0.52765213341E+03  0.00000000000E+00 0.  1.
         11    1    1    2    0    0 -0.48295863413E+02 -0.61785361000E+02 -0.13881077546E+03  0.15943134146E+03  0.00000000000E+00 0. -1.
</event>
<event>
 7    1  0.2499014E-009  0.2717861E+03  0.7561462E-02  0.1100262E+00
         -1   -1    0    0    0  501 -0.00000000000E+00  0.00000000000E+00  0.59767352698E+02  0.59767352698E+02  0.00000000000E+00 0.  1.
          1   -1    0    0  501    0  0.00000000000E+00 -0.00000000000E+00 -0.16540948399E+04  0.16540948399E+04  0.00000000000E+00 0. -1.
         25    2    1    2    0    0  0.39926261681E+02 -0.26613661650E+03 -0.11284397650E+04  0.11668103509E+04  0.12508911542E+03 0.  0.
          5    1    3    3  502    0  0.41159565472E+02 -0.13911351650E+03 -0.36383897069E+03  0.39171794610E+03  0.41800000000E+01 0.  1.
         -5    1    3    3    0  502 -0.12333037913E+01 -0.12702310000E+03 -0.76460079431E+03  0.77509240484E+03  0.41800000000E+01 0.  1.
        -11    1    1    2    0    0  0.11748762060E+01  0.10618759495E+03 -0.10110038352E+03  0.14662357656E+03  0.00000000000E+00 0.  1.
         11    1    1    2    0    0 -0.41101137887E+02  0.15994902155E+03 -0.36478733865E+03  0.40042826507E+03  0.00000000000E+00 0. -1.
</event>
<event>
 7    1  0.2499014E-009  0.5208227E+02  0.7561462E-02  0.1434423E+00
          3   -1    0    0  501    0  0.00000000000E+00  0.00000000000E+00  0.37948430731E+02  0.37948430731E+02  0.00000000000E+00 0. -1.
         -3   -1    0    0    0  501 -0.00000000000E+00 -0.00000000000E+00 -0.32071265529E+03  0.32071265529E+03  0.00000000000E+00 0.  1.
         25    2    1    2    0    0  0.96116611381E+01 -0.91644522538E+01 -0.19149727513E+03  0.22911974832E+03  0.12509309124E+03 0.  0.
          5    1    3    3  502    0  0.25036913054E+02 -0.18291709252E+02  0.50675536801E+01  0.31695206940E+02  0.41800000000E+01 0. -1.
         -5    1    3    3    0  502 -0.15425251916E+02  0.91272569985E+01 -0.19656482881E+03  0.19742454138E+03  0.41800000000E+01 0. -1.
        -11    1    1    2    0    0 -0.28915388770E+02 -0.64717685315E+01 -0.99146583667E+02  0.10347960451E+03  0.00000000000E+00 0.  1.
         11    1    1    2    0    0  0.19303727632E+02  0.15636220785E+02  0.78796342393E+01  0.26061733187E+02  0.00000000000E+00 0. -1.
</event>
<event>
 7    1  0.2499014E-009  0.1691465E+03  0.7561462E-02  0.1178741E+00
         -1   -1    0    0    0  501 -0.00000000000E+00  0.00000000000E+00  0.32356222987E+03  0.32356222987E+03  0.00000000000E+00 0.  1.
          1   -1    0    0  501    0  0.00000000000E+00 -0.00000000000E+00 -0.12576408481E+03  0.12576408481E+03  0.00000000000E+00 0. -1.
         25    2    1    2    0    0  0.15858898463E+03 -0.22738384332E+02  0.16528530701E+03  0.26198485209E+03  0.12509728151E+03 0.  0.
          5    1    3    3  502    0  0.81108801781E+02 -0.42599176378E+02  0.15652409301E+03  0.18141276594E+03  0.41800000000E+01 0. -1.
         -5    1    3    3    0  502  0.77480182851E+02  0.19860792046E+02  0.87612140068E+01  0.80572086148E+02  0.41800000000E+01 0. -1.
        -11    1    1    2    0    0 -0.37766085285E+02  0.25611089239E+02  0.47133647491E+02  0.65603245465E+02  0.00000000000E+00 0.  1.
         11    1    1    2    0    0 -0.12082289935E+03 -0.28727049065E+01 -0.14620809452E+02  0.12173821713E+03  0.00000000000E+00 0. -1.
</event>
<event>
 7    1  0.2499014E-009  0.4445303E+03  0.7561462E-02  0.1029366E+00
         -2   -1    0    0    0  501 -0.00000000000E+00  0.00000000000E+00  0.98335008093E+02  0.98335008093E+02  0.00000000000E+00 0.  1.
          2   -1    0    0  501    0  0.00000000000E+00 -0.00000000000E+00 -0.20882156198E+04  0.20882156198E+04  0.00000000000E+00 0. -1.
         25    2    1    2    0    0  0.40905878922E+03  0.13853843506E+03 -0.12084066486E+04  0.12893468626E+04  0.12508682061E+03 0.  0.
          5    1    3    3  502    0  0.21660055512E+03  0.10066657012E+02 -0.63404958833E+03  0.67011453568E+03  0.41800000000E+01 0.  1.
         -5    1    3    3    0  502  0.19245823411E+03  0.12847177804E+03 -0.57435706028E+03  0.61923232694E+03  0.41800000000E+01 0.  1.
        -11    1    1    2    0    0 -0.29156410045E+03 -0.55310149564E+02 -0.52278302390E+03  0.60114135392E+03  0.00000000000E+00 0.  1.
         11    1    1    2    0    0 -0.11749468878E+03 -0.83228285491E+02 -0.25869093916E+03  0.29606241133E+03  0.00000000000E+00 0. -1.
</event>
<event>
 7    1  0.2499014E-009  0.9529907E+02  0.7561462E-02  0.1290504E+00
         -1   -1    0    0    0  501 -0.00000000000E+00  0.00000000000E+00  0.51558869806E+02  0.51558869806E+02  0.00000000000E+00 0.  1.
          1   -1    0    0  501    0  0.00000000000E+00 -0.00000000000E+00 -0.25530266142E+03  0.25530266142E+03  0.00000000000E+00 0. -1.
         25    2    1    2    0    0 -0.92868106330E+01 -0.92995310079E+00 -0.69763609998E+02  0.14353486569E+03  0.12509271251E+03 0.  0.
          5    1    3    3  502    0  0.56608613756E+02  0.76283840998E+01 -0.43675485820E+02  0.72026022082E+02  0.41800000000E+01 0.  1.
         -5    1    3    3    0  502 -0.65895424389E+02 -0.85583372006E+01 -0.26088124178E+02  0.71508843608E+02  0.41800000000E+01 0.  1.
        -11    1    1    2    0    0  0.10568938130E+02  0.32999017662E+02 -0.11191400923E+02  0.36412704850E+02  0.00000000000E+00 0.  1.
         11    1    1    2    0    0 -0.12821274973E+01 -0.32069064561E+02 -0.12278878069E+03  0.12691396069E+03  0.00000000000E+00 0. -1.
</event>
<event>
 7    1  0.2499014E-009  0.1194029E+03  0.7561462E-02  0.1244085E+00
         -1   -1    0    0    0  501 -0.00000000000E+00  0.00000000000E+00  0.33233671806E+02  0.33233671806E+02  0.00000000000E+00 0.  1.
          1   -1    0    0  501    0  0.00000000000E+00 -0.00000000000E+00 -0.44017637918E+03  0.44017637918E+03  0.00000000000E+00 0. -1.
         25    2    1    2    0    0  0.31991455974E+02 -0.32617043789E+02 -0.22591987871E+03  0.26224735503E+03  0.12508620557E+03 0.  0.
          5    1    3    3  502    0  0.72532517946E+02 -0.50675054412E+02 -0.15189780796E+03  0.17583897112E+03  0.41800000000E+01 0. -1.
         -5    1    3    3    0  502 -0.40541061972E+02  0.18058010624E+02 -0.74022070745E+02  0.86408383915E+02  0.41800000000E+01 0. -1.
        -11    1    1    2    0    0  0.33720646250E+02  0.39347978010E+01 -0.36597708762E+02  0.49919504243E+02  0.00000000000E+00 0.  1.
         11    1    1    2    0    0 -0.65712102224E+02  0.28682245988E+02 -0.14442511990E+03  0.16124319171E+03  0.00000000000E+00 0. -1.
</event>
<event>
 7    1  0.3204228E-009  0.8919612E+02  0.7561462E-02  0.1304810E+00
         -1   -1    0    0    0  501 -0.00000000000E+00  0.00000000000E+00  0.35045187415E+03  0.35045187415E+03  0.00000000000E+00 0.  1.
          1   -1    0    0  501    0  0.00000000000E+00 -0.00000000000E+00 -0.57747123050E+02  0.57747123050E+02  0.00000000000E+00 0. -1.
         25    2    1    2    0    0  0.21187757767E+02 -0.66143789149E+02  0.24617124027E+03  0.28472743658E+03  0.12508201983E+03 0.  0.
          5    1    3    3  502    0  0.33263429057E+02 -0.25849448757E+02  0.23792090211E+03  0.24165776994E+03  0.41800000000E+01 0.  1.
         -5    1    3    3    0  502 -0.12075671289E+02 -0.40294340392E+02  0.82503381594E+01  0.43069666640E+02  0.41800000000E+01 0.  1.
        -11    1    1    2    0    0  0.35967716048E+01  0.68769486888E+02  0.63216583047E+02  0.93480027091E+02  0.00000000000E+00 0.  1.
         11    1    1    2    0    0 -0.24784529372E+02 -0.26256977389E+01 -0.16683072214E+02  0.29991533527E+02  0.00000000000E+00 0. -1.
</event>
<event>
 7    1  0.2499014E-009  0.1658286E+03  0.7561462E-02  0.1182269E+00
          1   -1    0    0  501    0  0.00000000000E+00  0.00000000000E+00  0.45504646812E+02  0.45504646812E+02  0.00000000000E+00 0. -1.
         -1   -1    0    0    0  501 -0.00000000000E+00 -0.00000000000E+00 -0.70547635899E+03  0.70547635899E+03  0.00000000000E+00 0.  1.
         25    2    1    2    0    0  0.38239197335E+00  0.14024959476E+03 -0.32081626234E+03  0.37180696696E+03  0.12508897411E+03 0.  0.
          5    1    3    3  502    0  0.27115723126E+02 -0.13459376837E+02 -0.70243673261E+02  0.76603285169E+02  0.41800000000E+01 0. -1.
         -5    1    3    3    0  502 -0.26733331152E+02  0.15370897160E+03 -0.25057258908E+03  0.29520368179E+03  0.41800000000E+01 0. -1.
        -11    1    1    2    0    0 -0.17973298370E+02 -0.90227680857E+02 -0.29850304960E+03  0.31235899934E+03  0.00000000000E+00 0.  1.
         11    1    1    2    0    0  0.17590906396E+02 -0.50021913908E+02 -0.40652400240E+02  0.66815039506E+02  0.00000000000E+00 0. -1.
</event>
<event>
 7    1  0.2499014E-009  0.1368719E+03  0.7561462E-02  0.1217601E+00
          2   -1    0    0  501    0  0.00000000000E+00  0.00000000000E+00  0.15146521637E+03  0.15146521637E+03  0.00000000000E+00 0. -1.
         -2   -1    0    0    0  501 -0.00000000000E+00 -0.00000000000E+00 -0.16563001349E+03  0.16563001349E+03  0.00000000000E+00 0.  1.
         25    2    1    2    0    0  0.54956976971E+02 -0.81082243114E+02 -0.67794783335E+02  0.17273779200E+03  0.12509041799E+03 0.  0.
          5    1    3    3  502    0  0.34504078735E+02 -0.11335357617E+03 -0.62232357915E+02  0.13390258942E+03  0.41800000000E+01 0. -1.
         -5    1    3    3    0  502  0.20452898236E+02  0.32271333058E+02 -0.55624254193E+01  0.38835202590E+02  0.41800000000E+01 0. -1.
        -11    1    1    2    0    0 -0.57614172866E+01  0.64610374119E+02 -0.62052401942E+01  0.65162868099E+02  0.00000000000E+00 0.  1.
         11    1    1    2    0    0 -0.49195559684E+02  0.16471868995E+02  0.59835226404E+02  0.79194569761E+02  0.00000000000E+00 0. -1.
</event>
<event>
 7    1  0.2499014E-009  0.1102010E+03  0.7561462E-02  0.1260198E+00
         -2   -1    0    0    0  501 -0.00000000000E+00  0.00000000000E+00  0.12331507628E+03  0.12331507628E+03  0.00000000000E+00 0.  1.
          2   -1    0    0  501    0  0.00000000000E+00 -0.00000000000E+00 -0.22506746539E+03  0.22506746539E+03  0.00000000000E+00 0. -1.
         25    2    1    2    0    0 -0.16909304646E+02  0.72107401734E+02  0.37180654830E+02  0.15004917768E+03  0.12508777982E+03 0.  0.
          5    1    3    3  502    0  0.39232473133E+02 -0.99099403223E+01  0.29544755150E+02  0.50276821918E+02  0.41800000000E+01 0. -1.
         -5    1    3    3    0  502 -0.56141777778E+02  0.82017342057E+02  0.76358996798E+01  0.99772355761E+02  0.41800000000E+01 0. -1.
        -11    1    1    2    0    0 -0.81566801183E+01 -0.80718011005E+01  0.21173720466E+02  0.24083435011E+02  0.00000000000E+00 0.  1.
         11    1    1    2    0    0  0.25065984764E+02 -0.64035600634E+02 -0.16010676440E+03  0.17424992898E+03  0.00000000000E+00 0. -1.
</event>
<event>
 7    1  0.2499014E-009  0.1171387E+03  0.7561462E-02  0.1247893E+00
         -1   -1    0    0    0  501 -0.00000000000E+00  0.00000000000E+00  0.34268762374E+03  0.34268762374E+03  0.00000000000E+00 0.  1.
          1   -1    0    0  501    0  0.00000000000E+00 -0.00000000000E+00 -0.68533640632E+02  0.68533640632E+02  0.00000000000E+00 0. -1.
         25    2    1    2    0    0  0.28304647401E+01  0.84738421537E+02  0.23608322409E+03  0.28031149488E+03  0.12510249339E+03 0.  0.
          5    1    3    3  502    0  0.23926719610E+02 -0.25085480361E+02  0.88177058335E+02  0.94838996477E+02  0.41800000000E+01 0. -1.
         -5    1    3    3    0  502 -0.21096254870E+02  0.10982390190E+03  0.14790616575E+03  0.18547249841E+03  0.41800000000E+01 0. -1.
        -11    1    1    2    0    0 -0.11762908738E+02 -0.60147583368E+02  0.67741872941E+02  0.91351295319E+02  0.00000000000E+00 0.  1.
         11    1    1    2    0    0  0.89324439979E+01 -0.24590838170E+02 -0.29671113917E+02  0.39558474171E+02  0.00000000000E+00 0. -1.
</event>
<event>
 7    1  0.2499014E-009  0.1463547E+03  0.7561462E-02  0.1205025E+00
         -2   -1    0    0    0  501 -0.00000000000E+00  0.00000000000E+00  0.92920617272E+03  0.92920617272E+03  0.00000000000E+00 0.  1.
          2   -1    0    0  501    0  0.00000000000E+00 -0.00000000000E+00 -0.34648932438E+02  0.34648932438E+02  0.00000000000E+00 0. -1.
         25    2    1    2    0    0  0.72637865396E+02  0.65700259308E+02  0.74632071318E+03  0.76304337744E+03  0.12509118825E+03 0.  0.
          5    1    3    3  502    0  0.66437332360E+02  0.10196899306E+03  0.56277763133E+03  0.57580181434E+03  0.41800000000E+01 0. -1.
         -5    1    3    3    0  502  0.62005330366E+01 -0.36268733747E+02  0.18354308185E+03  0.18724156310E+03  0.41800000000E+01 0. -1.
        -11    1    1    2    0    0 -0.83721186865E+02 -0.18926190449E+02  0.10915132652E+03  0.13885766056E+03  0.00000000000E+00 0.  1.
         11    1    1    2    0    0  0.11083321469E+02 -0.46774068860E+02  0.39085200584E+02  0.61954067156E+02  0.00000000000E+00 0. -1.
</event>
<event>
 7    1  0.2499014E-009  0.1084584E+03  0.7561462E-02  0.1263452E+00
         -1   -1    0    0    0  501 -0.00000000000E+00  0.00000000000E+00  0.72264302359E+02  0.72264302359E+02  0.00000000000E+00 0.  1.
          1   -1    0    0  501    0  0.00000000000E+00 -0.00000000000E+00 -0.17708019451E+03  0.17708019451E+03  0.00000000000E+00 0. -1.
         25    2    1    2    0    0 -0.26675016389E+02 -0.56794069072E+01 -0.37175553527E+02  0.13331532943E+03  0.12508854111E+03 0.  0.
          5    1    3    3  502    0 -0.26152701622E+01  0.58274572195E+02 -0.25791951287E+02  0.63917623185E+02  0.41800000000E+01 0.  1.
         -5    1    3    3    0  502 -0.24059746227E+02 -0.63953979102E+02 -0.11383602241E+02  0.69397706241E+02  0.41800000000E+01 0.  1.
        -11    1    1    2    0    0  0.26801547009E+02 -0.37887647251E+02 -0.52101832536E+02  0.69773904075E+02  0.00000000000E+00 0. -1.
         11    1    1    2    0    0 -0.12653061995E+00  0.43567054158E+02 -0.15538506092E+02  0.46255263372E+02  0.00000000000E+00 0.  1.
</event>
<event>
 7    1  0.2499014E-009  0.9853639E+02  0.7561462E-02  0.1283404E+00
         -2   -1    0    0    0  501 -0.00000000000E+00  0.00000000000E+00  0.98592468401E+02  0.98592468401E+02  0.00000000000E+00 0.  1.
          2   -1    0    0  501    0  0.00000000000E+00 -0.00000000000E+00 -0.16054282175E+03  0.16054282175E+03  0.00000000000E+00 0. -1.
         25    2    1    2    0    0 -0.46460834227E+02  0.14973832754E+02 -0.85746852865E+02  0.15932129039E+03  0.12509167044E+03 0.  0.
          5    1    3    3  502    0  0.32510684411E+02  0.12264003946E+01 -0.70306380650E+02  0.77581622946E+02  0.41800000000E+01 0.  1.
         -5    1    3    3    0  502 -0.78971518638E+02  0.13747432359E+02 -0.15440472215E+02  0.81739667449E+02  0.41800000000E+01 0.  1.
        -11    1    1    2    0    0 -0.69811698562E+01 -0.28115587446E+02  0.33113393222E+02  0.43996815801E+02  0.00000000000E+00 0.  1.
         11    1    1    2    0    0  0.53442004083E+02  0.13141754692E+02 -0.93168937106E+01  0.55817183960E+02  0.00000000000E+00 0. -1.
</event>
<event>
 7    1  0.2499014E-009  0.1580398E+03  0.7561462E-02  0.1190928E+00
         -1   -1    0    0    0  501 -0.00000000000E+00  0.00000000000E+00  0.28667090998E+02  0.28667090998E+02  0.00000000000E+00 0.  1.
          1   -1    0    0  501    0  0.00000000000E+00 -0.00000000000E+00 -0.10534891141E+04  0.10534891141E+04  0.00000000000E+00 0. -1.
         25    2    1    2    0    0 -0.44961245886E+01 -0.13283789881E+03 -0.69956077619E+03  0.72297912274E+03  0.12508960721E+03 0.  0.
          5    1    3    3  502    0 -0.53261893533E+02 -0.98960983282E+02 -0.56119863142E+03  0.57235607958E+03  0.41800000000E+01 0. -1.
         -5    1    3    3    0  502  0.48765768945E+02 -0.33876915530E+02 -0.13836214477E+03  0.15062304316E+03  0.41800000000E+01 0. -1.
        -11    1    1    2    0    0 -0.18131078029E+02  0.11159032089E+03 -0.19625044157E+03  0.22648481521E+03  0.00000000000E+00 0.  1.
         11    1    1    2    0    0  0.22627202618E+02  0.21247577924E+02 -0.12901080536E+03  0.13269226716E+03  0.00000000000E+00 0. -1.
</event>
<event>
 7    1  0.2499014E-009  0.1784275E+03  0.7561462E-02  0.1169334E+00
         -1   -1    0    0    0  501 -0.00000000000E+00  0.00000000000E+00  0.78222912074E+02  0.78222912074E+02  0.00000000000E+00 0.  1.
          1   -1    0    0  501    0  0.00000000000E+00 -0.00000000000E+00 -0.58804599298E+03  0.58804599298E+03  0.00000000000E+00 0. -1.
         25    2    1    2    0    0  0.44432463586E+02 -0.15024922638E+03 -0.11332716829E+03  0.23030374903E+03  0.12509075065E+03 0.  0.
          5    1    3    3  502    0 -0.42180197338E+02 -0.43421706727E+02 -0.19386410836E+02  0.63701797366E+02  0.41800000000E+01 0.  1.
         -5    1    3    3    0  502  0.86612660924E+02 -0.10682751965E+03 -0.93940757457E+02  0.16660195167E+03  0.41800000000E+01 0.  1.
        -11    1    1    2    0    0 -0.12105492487E+02  0.84002879082E+02 -0.31430262839E+03  0.32555977770E+03  0.00000000000E+00 0. -1.
         11    1    1    2    0    0 -0.32326971099E+02  0.66246347300E+02 -0.82193284223E+02  0.11040537832E+03  0.00000000000E+00 0.  1.
</event>
<event>
 7    1  0.2499014E-009  0.5830155E+02  0.7561462E-02  0.1405101E+00
         -2   -1    0    0    0  501 -0.00000000000E+00  0.00000000000E+00  0.74154161056E+02  0.74154161056E+02  0.00000000000E+00 0.  1.
          2   -1    0    0  501    0  0.00000000000E+00 -0.00000000000E+00 -0.16181015864E+03  0.16181015864E+03  0.00000000000E+00 0. -1.
         25    2    1    2    0    0 -0.17436947845E+01 -0.14343506393E+02 -0.66828507854E+02  0.14255792303E+03  0.12509170759E+03 0.  0.
          5    1    3    3  502    0 -0.50718828101E+01 -0.18619275256E+02  0.35168107404E+02  0.40331992075E+02  0.41800000000E+01 0. -1.
         -5    1    3    3    0  502  0.33281880256E+01  0.42757688633E+01 -0.10199661526E+03  0.10222593095E+03  0.41800000000E+01 0. -1.
        -11    1    1    2    0    0 -0.12538506532E+02 -0.35770860748E+02 -0.18545373249E+01  0.37950071586E+02  0.00000000000E+00 0.  1.
         11    1    1    2    0    0  0.14282201316E+02  0.50114367141E+02 -0.18972952400E+02  0.55456325078E+02  0.00000000000E+00 0. -1.
</event>
<event>
 7    1  0.2499014E-009  0.9577023E+02  0.7561462E-02  0.1289451E+00
         -1   -1    0    0    0  501 -0.00000000000E+00  0.00000000000E+00  0.10949387188E+03  0.10949387188E+03  0.00000000000E+00 0.  1.
          1   -1    0    0  501    0  0.00000000000E+00 -0.00000000000E+00 -0.14590614243E+03  0.14590614243E+03  0.00000000000E+00 0. -1.
         25    2    1    2    0    0 -0.53766490171E+01  0.63137032003E+02 -0.26632165213E+02  0.14273019661E+03  0.12508974232E+03 0.  0.
          5    1    3    3  502    0 -0.13299707763E+02  0.71110817780E+02  0.34623757285E+02  0.80311316765E+02  0.41800000000E+01 0. -1.
         -5    1    3    3    0  502  0.79230587463E+01 -0.79737857773E+01 -0.61255922498E+02  0.62418879841E+02  0.41800000000E+01 0. -1.
        -11    1    1    2    0    0  0.42812282615E+02 -0.13456745761E+02 -0.20854070534E+02  0.49486036485E+02  0.00000000000E+00 0. -1.
         11    1    1    2    0    0 -0.37435633598E+02 -0.49680286242E+02  0.11073965197E+02  0.63183781219E+02  0.00000000000E+00 0.  1.
</event>
<event>
 7    1  0.2499014E-009  0.8353553E+02  0.7561462E-02  0.1319307E+00
         -1   -1    0    0    0  501 -0.00000000000E+00  0.00000000000E+00  0.20265492624E+02  0.20265492624E+02  0.00000000000E+00 0.  1.
          1   -1    0    0  501    0  0.00000000000E+00 -0.00000000000E+00 -0.64348888160E+03  0.64348888160E+03  0.00000000000E+00 0. -1.
         25    2    1    2    0    0  0.77744039760E+01 -0.21559325824E+02 -0.27636948507E+03  0.30422400832E+03  0.12508760557E+03 0.  0.
          5    1    3    3  502    0  0.35935293434E+02  0.15613931943E+01 -0.13247648686E+02  0.38558473240E+02  0.41800000000E+01 0.  1.
         -5    1    3    3    0  502 -0.28160889458E+02 -0.23120719018E+02 -0.26312183639E+03  0.26566553508E+03  0.41800000000E+01 0.  1.
        -11    1    1    2    0    0  0.29223312130E+02 -0.22332471507E+02 -0.15276886177E+03  0.15713391226E+03  0.00000000000E+00 0. -1.
         11    1    1    2    0    0 -0.36997716106E+02  0.43891797331E+02 -0.19408504214E+03  0.20239645365E+03  0.00000000000E+00 0.  1.
</event>
<event>
 7    1  0.2499014E-009  0.1253192E+03  0.7561462E-02  0.1234571E+00
          1   -1    0    0  501    0  0.00000000000E+00  0.00000000000E+00  0.66981735435E+02  0.66981735435E+02  0.00000000000E+00 0. -1.
         -1   -1    0    0    0  501 -0.00000000000E+00 -0.00000000000E+00 -0.43107287014E+03  0.43107287014E+03  0.00000000000E+00 0.  1.
         25    2    1    2    0    0  0.11481133402E+03  0.15249454152E+02 -0.28210815168E+03  0.32961655974E+03  0.12509148228E+03 0.  0.
          5    1    3    3  502    0  0.10495713810E+03  0.83869298242E+01 -0.94390133944E+02  0.14146841067E+03  0.41800000000E+01 0. -1.
         -5    1    3    3    0  502  0.98541959188E+01  0.68625243280E+01 -0.18771801773E+03  0.18814814907E+03  0.41800000000E+01 0. -1.
        -11    1    1    2    0    0 -0.84316232392E+02  0.19268286620E+02 -0.86295361573E+02  0.12217767121E+03  0.00000000000E+00 0.  1.
         11    1    1    2    0    0 -0.30495101630E+02 -0.34517740772E+02  0.43123785466E+01  0.46260374622E+02  0.00000000000E+00 0. -1.
</event>
<event>
 7    1  0.2499014E-009  0.1167177E+03  0.7561462E-02  0.1248612E+00
          2   -1    0    0  501    0  0.00000000000E+00  0.00000000000E+00  0.10608892728E+04  0.10608892728E+04  0.00000000000E+00 0.  1.
         -2   -1    0    0    0  501 -0.00000000000E+00 -0.00000000000E+00 -0.55900409254E+02  0.55900409254E+02  0.00000000000E+00 0. -1.
         25    2    1    2    0    0 -0.65817254865E+02 -0.68677619167E+01  0.99322068350E+03  0.10032508623E+04  0.12508352998E+03 0.  0.
          5    1    3    3  502    0 -0.91020357528E+02  0.16251159241E+02  0.88129922061E+03  0.88614592157E+03  0.41800000000E+01 0.  1.
         -5    1    3    3    0  502  0.25203102663E+02 -0.23118921158E+02  0.11192146289E+03  0.11710494078E+03  0.41800000000E+01 0.  1.
        -11    1    1    2    0    0  0.41219639598E+02  0.45014925107E+02  0.25453241995E+02  0.66130701637E+02  0.00000000000E+00 0.  1.
         11    1    1    2    0    0  0.24597615267E+02 -0.38147163190E+02 -0.13685061968E+02  0.47408118053E+02  0.00000000000E+00 0. -1.
</event>
<event>
 7    1  0.2513230E-009  0.1104781E+03  0.7561462E-02  0.1259687E+00
          2   -1    0    0  501    0  0.00000000000E+00  0.00000000000E+00  0.50888566305E+03  0.50888566305E+03  0.00000000000E+00 0. -1.
         -2   -1    0    0    0  501 -0.00000000000E+00 -0.00000000000E+00 -0.35623992888E+02  0.35623992888E+02  0.00000000000E+00 0.  1.
         25    2    1    2    0    0  0.77913247884E+02 -0.11030173426E+02  0.28015073284E+03  0.31674029651E+03  0.12509134023E+03 0.  0.
          5    1    3    3  502    0  0.23510687545E+02  0.43678246526E+02  0.38188321967E+02  0.62740433399E+02  0.41800000000E+01 0. -1.
         -5    1    3    3    0  502  0.54402560339E+02 -0.54708419952E+02  0.24196241087E+03  0.25399986311E+03  0.41800000000E+01 0. -1.
        -11    1    1    2    0    0 -0.83763689675E+02  0.27976024494E+01  0.19910465411E+03  0.21602510404E+03  0.00000000000E+00 0. -1.
         11    1    1    2    0    0  0.58504417910E+01  0.82325709763E+01 -0.59937167776E+01  0.11744255397E+02  0.00000000000E+00 0.  1.
</event>
<event>
 7    1  0.2499014E-009  0.1194746E+03  0.7561462E-02  0.1243966E+00
         -1   -1    0    0    0  501 -0.00000000000E+00  0.00000000000E+00  0.68901730269E+02  0.68901730269E+02  0.00000000000E+00 0.  1.
          1   -1    0    0  501    0  0.00000000000E+00 -0.00000000000E+00 -0.30832101471E+03  0.30832101471E+03  0.00000000000E+00 0. -1.
         25    2    1    2    0    0  0.37097777834E+01  0.86747027839E+02 -0.18705905903E+03  0.24119376746E+03  0.12507810602E+03 0.  0.
          5    1    3    3  502    0 -0.32654055426E+02  0.10508568212E+03 -0.12223605421E+03  0.16452481050E+03  0.41800000000E+01 0. -1.
         -5    1    3    3    0  502  0.36363833210E+02 -0.18338654282E+02 -0.64823004821E+02  0.76668956955E+02  0.41800000000E+01 0. -1.
        -11    1    1    2    0    0 -0.70323876508E+01 -0.22938521589E+02  0.25696339946E+02  0.35155826478E+02  0.00000000000E+00 0.  1.
         11    1    1    2    0    0  0.33226098674E+01 -0.63808506250E+02 -0.78056565361E+02  0.10087315105E+03  0.00000000000E+00 0. -1.
</event>
<event>
 7    1  0.2499014E-009  0.1414037E+03  0.7561462E-02  0.1211453E+00
          2   -1    0    0  501    0  0.00000000000E+00  0.00000000000E+00  0.51633939752E+03  0.51633939752E+03  0.00000000000E+00 0. -1.
         -2   -1    0    0    0  501 -0.00000000000E+00 -0.00000000000E+00 -0.40531172002E+02  0.40531172002E+02  0.00000000000E+00 0.  1.
         25    2    1    2    0    0 -0.88149878173E+02  0.17304927182E+02  0.31494415394E+03  0.35057936815E+03  0.12508481819E+03 0.  0.
          5    1    3    3  502    0  0.22090389550E+02  0.35611961237E+02  0.90470566669E+02  0.99792749872E+02  0.41800000000E+01 0. -1.
         -5    1    3    3    0  502 -0.11024026772E+03 -0.18307034055E+02  0.22447358727E+03  0.25078661827E+03  0.41800000000E+01 0. -1.
        -11    1    1    2    0    0  0.15659585709E+02  0.35752392349E+02  0.42596169056E+02  0.57774473615E+02  0.00000000000E+00 0. -1.
         11    1    1    2    0    0  0.72490292465E+02 -0.53057319531E+02  0.11826790252E+03  0.14851672776E+03  0.00000000000E+00 0.  1.
</event>
<event>
 7    1  0.2499014E-009  0.2215567E+03  0.7561462E-02  0.1132728E+00
         -2   -1    0    0    0  501 -0.00000000000E+00  0.00000000000E+00  0.37191361026E+03  0.37191361026E+03  0.00000000000E+00 0.  1.
          2   -1    0    0  501    0  0.00000000000E+00 -0.00000000000E+00 -0.13886061548E+03  0.13886061548E+03  0.00000000000E+00 0. -1.
         25    2    1    2    0    0 -0.94343994600E+02  0.17392861805E+03  0.14720021612E+03  0.27653106507E+03  0.12509825270E+03 0.  0.
          5    1    3    3  502    0 -0.68896469741E+02  0.18623823898E+03  0.10257553930E+03  0.22354108988E+03  0.41800000000E+01 0.  1.
         -5    1    3    3    0  502 -0.25447524859E+02 -0.12309620933E+02  0.44624676822E+02  0.52989975188E+02  0.41800000000E+01 0.  1.
        -11    1    1    2    0    0  0.68178938492E+02 -0.39138933338E+02  0.46806004015E+02  0.91493309967E+02  0.00000000000E+00 0. -1.
         11    1    1    2    0    0  0.26165056108E+02 -0.13478968471E+03  0.39046774651E+02  0.14274985070E+03  0.00000000000E+00 0.  1.
</event>
<event>
 7    1  0.2499014E-009  0.1171533E+03  0.7561462E-02  0.1247868E+00
         -1   -1    0    0    0  501 -0.00000000000E+00  0.00000000000E+00  0.77395172021E+02  0.77395172021E+02  0.00000000000E+00 0.  1.
          1   -1    0    0  501    0  0.00000000000E+00 -0.00000000000E+00 -0.31805523536E+03  0.31805523536E+03  0.00000000000E+00 0. -1.
         25    2    1    2    0    0  0.10276065998E+03  0.24579792352E+01 -0.17100968484E+03  0.23549573764E+03  0.12509250670E+03 0.  0.
          5    1    3    3  502    0  0.38063344825E+02 -0.36827533748E+02 -0.54503611565E+01  0.53406594143E+02  0.41800000000E+01 0. -1.
         -5    1    3    3    0  502  0.64697315159E+02  0.39285512983E+02 -0.16555932369E+03  0.18208914350E+03  0.41800000000E+01 0. -1.
        -11    1    1    2    0    0 -0.35103775086E+02 -0.11887499354E+02 -0.82503050848E+02  0.90445237937E+02  0.00000000000E+00 0. -1.
         11    1    1    2    0    0 -0.67656884898E+02  0.94295201188E+01  0.12852672351E+02  0.69509431808E+02  0.00000000000E+00 0.  1.
</event>
<event>
 7    1  0.2499014E-009  0.8588651E+02  0.7561462E-02  0.1313130E+00
          1   -1    0    0  501    0  0.00000000000E+00  0.00000000000E+00  0.18836476128E+03  0.18836476128E+03  0.00000000000E+00 0. -1.
         -1   -1    0    0    0  501 -0.00000000000E+00 -0.00000000000E+00 -0.69998534569E+02  0.69998534569E+02  0.00000000000E+00 0.  1.
         25    2    1    2    0    0  0.82948418464E+01  0.30655219756E+02  0.38129633938E+02  0.13457791105E+03  0.12509515682E+03 0.  0.
          5    1    3    3  502    0 -0.19440354922E+02  0.55764737643E+02 -0.22397258798E+02  0.63298838580E+02  0.41800000000E+01 0. -1.
         -5    1    3    3    0  502  0.27735196769E+02 -0.25109517887E+02  0.60526892735E+02  0.71279072472E+02  0.41800000000E+01 0. -1.
        -11    1    1    2    0    0  0.29382612097E+02 -0.20733880435E+02  0.15662764299E+01  0.35995623531E+02  0.00000000000E+00 0.  1.
         11    1    1    2    0    0 -0.37677453943E+02 -0.99213393205E+01  0.78670316345E+02  0.87789761268E+02  0.00000000000E+00 0. -1.
</event>
<event>
 7    1  0.2499014E-009  0.1306866E+03  0.7561462E-02  0.1226441E+00
         -1   -1    0    0    0  501 -0.00000000000E+00  0.00000000000E+00  0.75139716548E+02  0.75139716548E+02  0.00000000000E+00 0.  1.
          1   -1    0    0  501    0  0.00000000000E+00 -0.00000000000E+00 -0.30766701754E+03  0.30766701754E+03  0.00000000000E+00 0. -1.
         25    2    1    2    0    0 -0.10892349853E+01  0.89714240322E+02 -0.51139744440E+02  0.16220725341E+03  0.12508432455E+03 0.  0.
          5    1    3    3  502    0 -0.62596463813E+02  0.44611853995E+02 -0.32629764511E+02  0.83610458262E+02  0.41800000000E+01 0.  1.
         -5    1    3    3    0  502  0.61507228828E+02  0.45102386328E+02 -0.18509979929E+02  0.78596795148E+02  0.41800000000E+01 0.  1.
        -11    1    1    2    0    0 -0.16065001459E+02 -0.89418045014E+02 -0.90960620342E+02  0.12855934621E+03  0.00000000000E+00 0.  1.
         11    1    1    2    0    0  0.17154236444E+02 -0.29619530810E+00 -0.90426936213E+02  0.92040134466E+02  0.00000000000E+00 0. -1.
</event>
<event>
 7    1  0.2499014E-009  0.1787157E+03  0.7561462E-02  0.1169052E+00
         -3   -1    0    0    0  501 -0.00000000000E+00  0.00000000000E+00  0.35954303995E+02  0.35954303995E+02  0.00000000000E+00 0.  1.
          3   -1    0    0  501    0  0.00000000000E+00 -0.00000000000E+00 -0.89584513424E+03  0.89584513424E+03  0.00000000000E+00 0. -1.
         25    2    1    2    0    0 -0.12225081353E+03 -0.71181703124E+02 -0.45578603506E+03  0.49335598126E+03  0.12508844161E+03 0.  0.
          5    1    3    3  502    0 -0.14754968127E+03 -0.62598486980E+02 -0.36580639450E+03  0.39940113880E+03  0.41800000000E+01 0.  1.
         -5    1    3    3    0  502  0.25298867736E+02 -0.85832161433E+01 -0.89979640554E+02  0.93954842463E+02  0.41800000000E+01 0.  1.
        -11    1    1    2    0    0 -0.10678421292E+01  0.43700630563E+02 -0.10790307397E+03  0.11642147041E+03  0.00000000000E+00 0. -1.
         11    1    1    2    0    0  0.12331865566E+03  0.27481072561E+02 -0.29620172121E+03  0.32202198656E+03  0.00000000000E+00 0.  1.
</event>
<event>
 7    1  0.2499014E-009  0.1878508E+03  0.7561462E-02  0.1160414E+00
         -2   -1    0    0    0  501 -0.00000000000E+00  0.00000000000E+00  0.50470803295E+02  0.50470803295E+02  0.00000000000E+00 0.  1.
          2   -1    0    0  501    0  0.00000000000E+00 -0.00000000000E+00 -0.90519716113E+03  0.90519716113E+03  0.00000000000E+00 0. -1.
         25    2    1    2    0    0  0.16400450145E+03  0.27707167438E+01 -0.26213034538E+03  0.33356478216E+03  0.12509193644E+03 0.  0.
          5    1    3    3  502    0  0.19118709373E+02  0.33776897609E+02 -0.87375447160E+01  0.40002761753E+02  0.41800000000E+01 0. -1.
         -5    1    3    3    0  502  0.14488579208E+03 -0.31006180865E+02 -0.25339280066E+03  0.29356202041E+03  0.41800000000E+01 0. -1.
        -11    1    1    2    0    0 -0.90357811784E+02  0.44709388353E+02 -0.34675003109E+03  0.36110808301E+03  0.00000000000E+00 0.  1.
         11    1    1    2    0    0 -0.73646689667E+02 -0.47480105097E+02 -0.24584598136E+03  0.26099509925E+03  0.00000000000E+00 0. -1.
</event>
<event>
 7    1  0.2499014E-009  0.1077553E+03  0.7561462E-02  0.1264784E+00
         -2   -1    0    0    0  501 -0.00000000000E+00  0.00000000000E+00  0.38220852080E+02  0.38220852080E+02  0.00000000000E+00 0.  1.
          2   -1    0    0  501    0  0.00000000000E+00 -0.00000000000E+00 -0.34071244716E+03  0.34071244716E+03  0.00000000000E+00 0. -1.
         25    2    1    2    0    0 -0.31238867288E+02  0.13347832634E+02 -0.19686252528E+03  0.23570463904E+03  0.12509113294E+03 0.  0.
          5    1    3    3  502    0 -0.53969066478E+02  0.57888634103E+02 -0.11429731662E+03  0.13908667471E+03  0.41800000000E+01 0. -1.
         -5    1    3    3    0  502  0.22730199191E+02 -0.44540801469E+02 -0.82565208660E+02  0.96617964333E+02  0.41800000000E+01 0. -1.
        -11    1    1    2    0    0  0.52167441402E+02  0.11672260099E+02 -0.31031828623E+02  0.61811471313E+02  0.00000000000E+00 0.  1.
         11    1    1    2    0    0 -0.20928574114E+02 -0.25020092734E+02 -0.74597241180E+02  0.81417188889E+02  0.00000000000E+00 0. -1.
</event>
<event>
 7    1  0.2499014E-009  0.1052042E+03  0.7561462E-02  0.1269718E+00
          3   -1    0    0  501    0  0.00000000000E+00  0.00000000000E+00  0.73301354068E+02  0.73301354068E+02  0.00000000000E+00 0. -1.
         -3   -1    0    0    0  501 -0.00000000000E+00 -0.00000000000E+00 -0.37374876206E+03  0.37374876206E+03  0.00000000000E+00 0.  1.
         25    2    1    2    0    0  0.92508064640E+02  0.37748128765E+02 -0.53503188132E+02  0.16880006632E+03  0.12509279755E+03 0.  0.
          5    1    3    3  502    0  0.74730935898E+02  0.35445540310E+02 -0.93420263380E+02  0.12484357059E+03  0.41800000000E+01 0.  1.
         -5    1    3    3    0  502  0.17777128742E+02  0.23025884547E+01  0.39917075248E+02  0.43956495723E+02  0.41800000000E+01 0.  1.
        -11    1    1    2    0    0 -0.38938468873E+02 -0.39662475932E+02 -0.52154922120E+02  0.76219762900E+02  0.00000000000E+00 0. -1.
         11    1    1    2    0    0 -0.53569595767E+02  0.19143471667E+01 -0.19478929774E+03  0.20203028691E+03  0.00000000000E+00 0.  1.
</event>
<event>
 7    1  0.2499014E-009  0.8575276E+02  0.7561462E-02  0.1313476E+00
         -1   -1    0    0    0  501 -0.00000000000E+00  0.00000000000E+00  0.16013497785E+03  0.16013497785E+03  0.00000000000E+00 0.  1.
          1   -1    0    0  501    0  0.00000000000E+00 -0.00000000000E+00 -0.85881522675E+02  0.85881522675E+02  0.00000000000E+00 0. -1.
         25    2    1    2    0    0  0.26847276275E+02  0.74434178253E+01  0.53645843095E+01  0.12826683956E+03  0.12508965846E+03 0.  0.
          5    1    3    3  502    0 -0.28740845684E+02 -0.32229202525E+02  0.32965926760E+02  0.54488369706E+02  0.41800000000E+01 0.  1.
         -5    1    3    3    0  502  0.55588121960E+02  0.39672620351E+02 -0.27601342451E+02  0.73778469851E+02  0.41800000000E+01 0.  1.
        -11    1    1    2    0    0 -0.41516749426E+02 -0.13746820100E+02 -0.32604195892E+01  0.43854827348E+02  0.00000000000E+00 0. -1.
         11    1    1    2    0    0  0.14669473151E+02  0.63034022750E+01  0.72149290457E+02  0.73894833623E+02  0.00000000000E+00 0.  1.
</event>
<event>
 7    1  0.2499014E-009  0.1629632E+03  0.7561462E-02  0.1185391E+00
          2   -1    0    0  501    0  0.00000000000E+00  0.00000000000E+00  0.13005070643E+03  0.13005070643E+03  0.00000000000E+00 0. -1.
         -2   -1    0    0    0  501 -0.00000000000E+00 -0.00000000000E+00 -0.23517407734E+03  0.23517407734E+03  0.00000000000E+00 0.  1.
         25    2    1    2    0    0 -0.12240825541E+03  0.41273436125E+02 -0.11826806810E+02  0.18020894718E+03  0.12509242088E+03 0.  0.
          5    1    3    3  502    0 -0.62768134601E+02 -0.40820403062E+02 -0.21980283244E+02  0.78145692645E+02  0.41800000000E+01 0. -1.
         -5    1    3    3    0  502 -0.59640120813E+02  0.82093839187E+02  0.10153476434E+02  0.10206325454E+03  0.41800000000E+01 0. -1.
        -11    1    1    2    0    0  0.10498395216E+03 -0.44204492444E+00 -0.93554915034E+02  0.14062129192E+03  0.00000000000E+00 0.  1.
         11    1    1    2    0    0  0.17424303257E+02 -0.40831391200E+02  0.25835093915E+00  0.44394544671E+02  0.00000000000E+00 0. -1.
</event>
<event>
 7    1  0.2499014E-009  0.1893354E+03  0.7561462E-02  0.1159062E+00
          1   -1    0    0  501    0  0.00000000000E+00  0.00000000000E+00  0.88547555266E+03  0.88547555266E+03  0.00000000000E+00 0. -1.
         -1   -1    0    0    0  501 -0.00000000000E+00 -0.00000000000E+00 -0.43569744834E+02  0.43569744834E+02  0.00000000000E+00 0.  1.
         25    2    1    2    0    0  0.31369176699E+02 -0.16035475457E+03  0.50197168470E+03  0.54251350777E+03  0.12509061243E+03 0.  0.
          5    1    3    3  502    0  0.77691045940E+02 -0.72964513305E+02  0.25108714030E+03  0.27280385489E+03  0.41800000000E+01 0.  1.
         -5    1    3    3    0  502 -0.46321869241E+02 -0.87390241263E+02  0.25088454440E+03  0.26970965288E+03  0.41800000000E+01 0.  1.
        -11    1    1    2    0    0  0.11520972972E+02  0.89111292558E+02  0.24149776282E+03  0.25767173831E+03  0.00000000000E+00 0. -1.
         11    1    1    2    0    0 -0.42890149671E+02  0.71243462010E+02  0.98436360316E+02  0.12886005141E+03  0.00000000000E+00 0.  1.
</event>
<event>
 7    1  0.2499014E-009  0.1674310E+03  0.7561462E-02  0.1180554E+00
         -1   -1    0    0    0  501 -0.00000000000E+00  0.00000000000E+00  0.13740078588E+03  0.13740078588E+03  0.00000000000E+00 0.  1.
          1   -1    0    0  501    0  0.00000000000E+00 -0.00000000000E+00 -0.28695350894E+03  0.28695350894E+03  0.00000000000E+00 0. -1.
         25    2    1    2    0    0 -0.18327203550E+02  0.16349103667E+03 -0.54727618530E+02  0.21379441026E+03  0.12509089563E+03 0.  0.
          5    1    3    3  502    0 -0.20428361127E+02  0.10929216672E+03 -0.94844229734E+02  0.14620190135E+03  0.41800000000E+01 0. -1.
         -5    1    3    3    0  502  0.21011575775E+01  0.54198869945E+02  0.40116611204E+02  0.67592508911E+02  0.41800000000E+01 0. -1.
        -11    1    1    2    0    0  0.24288554150E+02 -0.50371129828E+02  0.93095614276E+01  0.56690850380E+02  0.00000000000E+00 0.  1.
         11    1    1    2    0    0 -0.59613506004E+01 -0.11311990684E+03 -0.10413466595E+03  0.15386903417E+03  0.00000000000E+00 0. -1.
</event>
<event>
 7    1  0.2499014E-009  0.1135581E+03  0.7561462E-02  0.1254119E+00
          1   -1    0    0  501    0  0.00000000000E+00  0.00000000000E+00  0.26183128952E+03  0.26183128952E+03  0.00000000000E+00 0. -1.
         -1   -1    0    0    0  501 -0.00000000000E+00 -0.00000000000E+00 -0.74360394138E+02  0.74360394138E+02  0.00000000000E+00 0.  1.
         25    2    1    2    0    0 -0.66124600036E+02 -0.20973214677E+02  0.21640782538E+02  0.14467100676E+03  0.12509611610E+03 0.  0.
          5    1    3    3  502    0 -0.36454848073E+02 -0.71332132055E+02  0.29664034422E+02  0.85525764245E+02  0.41800000000E+01 0. -1.
         -5    1    3    3    0  502 -0.29669751963E+02  0.50358917378E+02 -0.80232518833E+01  0.59145242512E+02  0.41800000000E+01 0. -1.
        -11    1    1    2    0    0  0.27003177915E+02  0.37183596214E+02  0.48644778365E+02  0.66918651414E+02  0.00000000000E+00 0.  1.
         11    1    1    2    0    0  0.39121422121E+02 -0.16210381536E+02  0.11718533448E+03  0.12460202548E+03  0.00000000000E+00 0. -1.
</event>
<event>
 7    1  0.2499014E-009  0.1378239E+03  0.7561462E-02  0.1216287E+00
         -1   -1    0    0    0  501 -0.00000000000E+00  0.00000000000E+00  0.65480173894E+02  0.65480173894E+02  0.00000000000E+00 0.  1.
          1   -1    0    0  501    0  0.00000000000E+00 -0.00000000000E+00 -0.33503321703E+03  0.33503321703E+03  0.00000000000E+00 0. -1.
         25    2    1    2    0    0 -0.34471741494E+02  0.85256966169E+02 -0.19834816175E+03  0.25188579650E+03  0.12508960775E+03 0.  0.
          5    1    3    3  502    0 -0.43043634846E+02 -0.16029689605E+02 -0.10121250180E+03  0.11122566417E+03  0.41800000000E+01 0. -1.
         -5    1    3    3    0  502  0.85718933521E+01  0.10128665577E+03 -0.97135659949E+02  0.14066013233E+03  0.41800000000E+01 0. -1.
        -11    1    1    2    0    0  0.64732552087E+02 -0.61902732446E+02 -0.63075111544E+02  0.10954780363E+03  0.00000000000E+00 0.  1.
         11    1    1    2    0    0 -0.30260810593E+02 -0.23354233723E+02 -0.81297698398E+01  0.39079790790E+02  0.00000000000E+00 0. -1.
</event>
<event>
 7    1  0.2499014E-009  0.1078607E+03  0.7561462E-02  0.1264584E+00
          2   -1    0    0  501    0  0.00000000000E+00  0.00000000000E+00  0.16534035179E+03  0.16534035179E+03  0.00000000000E+00 0. -1.
         -2   -1    0    0    0  501 -0.00000000000E+00 -0.00000000000E+00 -0.97654152094E+02  0.97654152094E+02  0.00000000000E+00 0.  1.
         25    2    1    2    0    0  0.18663431045E+02  0.59377289450E+02  0.22061756431E+02  0.14144369969E+03  0.12508242452E+03 0.  0.
          5    1    3    3  502    0  0.11981604499E+02  0.98745604305E+02  0.15158657104E+02  0.10070506691E+03  0.41800000000E+01 0. -1.
         -5    1    3    3    0  502  0.66818265456E+01 -0.39368314855E+02  0.69030993274E+01  0.40738632781E+02  0.41800000000E+01 0. -1.
        -11    1    1    2    0    0  0.13301193059E+02 -0.80500704174E+01  0.57813691258E+02  0.59867756492E+02  0.00000000000E+00 0. -1.
         11    1    1    2    0    0 -0.31964624104E+02 -0.51327219032E+02 -0.12189247989E+02  0.61683047705E+02  0.00000000000E+00 0.  1.
</event>
<event>
 7    1  0.2499014E-009  0.8781461E+02  0.7561462E-02  0.1308232E+00
         -1   -1    0    0    0  501 -0.00000000000E+00  0.00000000000E+00  0.13631252838E+03  0.13631252838E+03  0.00000000000E+00 0.  1.
          1   -1    0    0  501    0  0.00000000000E+00 -0.00000000000E+00 -0.14379168241E+03  0.14379168241E+03  0.00000000000E+00 0. -1.
         25    2    1    2    0    0 -0.42861084661E+02 -0.74389152706E+01  0.73127317813E+02  0.15128620292E+03  0.12508996980E+03 0.  0.
          5    1    3    3  502    0  0.10718606827E+02  0.47553775063E+02  0.52312490086E+02  0.71626245707E+02  0.41800000000E+01 0. -1.
         -5    1    3    3    0  502 -0.53579691488E+02 -0.54992690334E+02  0.20814827727E+02  0.79659957214E+02  0.41800000000E+01 0. -1.
        -11    1    1    2    0    0  0.23120971993E+02  0.16182210808E+02 -0.97437927190E+02  0.10144255984E+03  0.00000000000E+00 0. -1.
         11    1    1    2    0    0  0.19740112667E+02 -0.87432955375E+01  0.16831455350E+02  0.27375448018E+02  0.00000000000E+00 0.  1.
</event>
<event>
 7    1  0.2499014E-009  0.1096019E+03  0.7561462E-02  0.1261309E+00
         -2   -1    0    0    0  501 -0.00000000000E+00  0.00000000000E+00  0.61857002079E+02  0.61857002079E+02  0.00000000000E+00 0. -1.
          2   -1    0    0  501    0  0.00000000000E+00 -0.00000000000E+00 -0.30931259746E+03  0.30931259746E+03  0.00000000000E+00 0.  1.
         25    2    1    2    0    0  0.65932564406E+02  0.48945147357E+02 -0.10037371214E+03  0.18018103443E+03  0.12509033768E+03 0.  0.
          5    1    3    3  502    0  0.35175256191E+02  0.78004446274E+02 -0.10708236186E+03  0.13713532334E+03  0.41800000000E+01 0.  1.
         -5    1    3    3    0  502  0.30757308215E+02 -0.29059298917E+02  0.67086497223E+01  0.43045711091E+02  0.41800000000E+01 0.  1.
        -11    1    1    2    0    0 -0.27054369684E+02 -0.44232874663E+02 -0.14240095424E+03  0.15154708142E+03  0.00000000000E+00 0.  1.
         11    1    1    2    0    0 -0.38878194722E+02 -0.47122726934E+01 -0.46809290063E+01  0.39441483683E+02  0.00000000000E+00 0. -1.
</event>
<event>
 7    1  0.2499014E-009  0.1142849E+03  0.7561462E-02  0.1252834E+00
          2   -1    0    0  501    0  0.00000000000E+00  0.00000000000E+00  0.33980265549E+03  0.33980265549E+03  0.00000000000E+00 0. -1.
         -2   -1    0    0    0  501 -0.00000000000E+00 -0.00000000000E+00 -0.81613469235E+02  0.81613469235E+02  0.00000000000E+00 0.  1.
         25    2    1    2    0    0 -0.10110135489E+03 -0.38405519686E+02  0.56100157254E+02  0.17461759866E+03  0.12509040817E+03 0.  0.
          5    1    3    3  502    0 -0.36460091840E+02 -0.34331353892E+02  0.88729928997E+02  0.10197280450E+03  0.41800000000E+01 0. -1.
         -5    1    3    3    0  502 -0.64641263050E+02 -0.40741657944E+01 -0.32629771742E+02  0.72644794167E+02  0.41800000000E+01 0. -1.
        -11    1    1    2    0    0  0.17092058133E+02  0.21926831261E+02  0.13554780087E+03  0.13836954398E+03  0.00000000000E+00 0. -1.
         11    1    1    2    0    0  0.84009296757E+02  0.16478688425E+02  0.66541228127E+02  0.10842898208E+03  0.00000000000E+00 0.  1.
</event>
<event>
 7    1  0.2499014E-009  0.1384008E+03  0.7561462E-02  0.1215497E+00
         -1   -1    0    0    0  501 -0.00000000000E+00  0.00000000000E+00  0.11124441696E+03  0.11124441696E+03  0.00000000000E+00 0.  1.
          1   -1    0    0  501    0  0.00000000000E+00 -0.00000000000E+00 -0.44980069800E+03  0.44980069800E+03  0.00000000000E+00 0. -1.
         25    2    1    2    0    0  0.81625841395E+02  0.80820341044E+02  0.25195508723E+02  0.17168945043E+03  0.12509095979E+03 0.  0.
          5    1    3    3  502    0  0.97173092065E+02  0.26352495203E+02 -0.15312858649E+02  0.10192654151E+03  0.41800000000E+01 0. -1.
         -5    1    3    3    0  502 -0.15547250669E+02  0.54467845841E+02  0.40508367372E+02  0.69762908921E+02  0.41800000000E+01 0. -1.
        -11    1    1    2    0    0 -0.29916769103E+02 -0.99964935193E+01 -0.27467670492E+02  0.41826019157E+02  0.00000000000E+00 0.  1.
         11    1    1    2    0    0 -0.51709072293E+02 -0.70823847524E+02 -0.33628411927E+03  0.34752964537E+03  0.00000000000E+00 0. -1.
</event>
<event>
 7    1  0.2499014E-009  0.1015886E+03  0.7561462E-02  0.1276990E+00
         -2   -1    0    0    0  501 -0.00000000000E+00  0.00000000000E+00  0.53861374547E+02  0.53861374547E+02  0.00000000000E+00 0.  1.
          2   -1    0    0  501    0  0.00000000000E+00 -0.00000000000E+00 -0.34436410273E+03  0.34436410273E+03  0.00000000000E+00 0. -1.
         25    2    1    2    0    0  0.22437961521E+02 -0.76804538209E+02 -0.13010494582E+03  0.19742466068E+03  0.12508717166E+03 0.  0.
          5    1    3    3  502    0  0.25482264884E+02 -0.73909180750E+02 -0.15402548566E+03  0.17278088857E+03  0.41800000000E+01 0.  1.
         -5    1    3    3    0  502 -0.30443033625E+01 -0.28953574582E+01  0.23920539841E+02  0.24643772115E+02  0.41800000000E+01 0.  1.
        -11    1    1    2    0    0 -0.38300070011E+02  0.90330174450E+02 -0.14414400882E+03  0.17436723046E+03  0.00000000000E+00 0. -1.
         11    1    1    2    0    0  0.15862108490E+02 -0.13525636241E+02 -0.16253773546E+02  0.26433586135E+02  0.00000000000E+00 0.  1.
</event>
<event>
 7    1  0.2499014E-009  0.1410898E+03  0.7561462E-02  0.1211870E+00
          2   -1    0    0  501    0  0.00000000000E+00  0.00000000000E+00  0.23698730955E+03  0.23698730955E+03  0.00000000000E+00 0. -1.
         -2   -1    0    0    0  501 -0.00000000000E+00 -0.00000000000E+00 -0.15744647181E+03  0.15744647181E+03  0.00000000000E+00 0.  1.
         25    2    1    2    0    0  0.96124802554E+02 -0.92183857106E+02 -0.47807019354E+02  0.18886683482E+03  0.12508928419E+03 0.  0.
          5    1    3    3  502    0  0.51208492183E+02 -0.35867441904E+02 -0.86640661958E+02  0.10692455174E+03  0.41800000000E+01 0. -1.
         -5    1    3    3    0  502  0.44916310371E+02 -0.56316415202E+02  0.38833642604E+02  0.81942283080E+02  0.41800000000E+01 0. -1.
        -11    1    1    2    0    0 -0.54954851749E+02  0.10581756617E+02  0.91767533462E+02  0.10748622936E+03  0.00000000000E+00 0.  1.
         11    1    1    2    0    0 -0.41169950804E+02  0.81602100489E+02  0.35580323625E+02  0.98080717180E+02  0.00000000000E+00 0. -1.
</event>
<event>
 7    1  0.2499014E-009  0.2030359E+03  0.7561462E-02  0.1147203E+00
          1   -1    0    0  501    0  0.00000000000E+00  0.00000000000E+00  0.14674602868E+03  0.14674602868E+03  0.00000000000E+00 0. -1.
         -1   -1    0    0    0  501 -0.00000000000E+00 -0.00000000000E+00 -0.34140317318E+03  0.34140317318E+03  0.00000000000E+00 0.  1.
         25    2    1    2    0    0 -0.73446913797E+02  0.17191293876E+03 -0.16103061874E+03  0.27663660620E+03  0.12509374110E+03 0.  0.
          5    1    3    3  502    0 -0.41071231820E+02  0.11605612341E+02 -0.87152151007E+02  0.97131385999E+02  0.41800000000E+01 0. -1.
         -5    1    3    3    0  502 -0.32375681977E+02  0.16030732642E+03 -0.73878467735E+02  0.17950522021E+03  0.41800000000E+01 0. -1.
        -11    1    1    2    0    0 -0.85348272151E+01 -0.61395634656E+02  0.17992532475E+02  0.64544546286E+02  0.00000000000E+00 0. -1.
         11    1    1    2    0    0  0.81981741012E+02 -0.11051730410E+03 -0.51619058234E+02  0.14696804938E+03  0.00000000000E+00 0.  1.
</event>
<event>
 7    1  0.2499014E-009  0.9360528E+02  0.7561462E-02  0.1294349E+00
         -2   -1    0    0    0  501 -0.00000000000E+00  0.00000000000E+00  0.18250762127E+02  0.18250762127E+02  0.00000000000E+00 0.  1.
          2   -1    0    0  501    0  0.00000000000E+00 -0.00000000000E+00 -0.10150749372E+04  0.10150749372E+04  0.00000000000E+00 0. -1.
         25    2    1    2    0    0  0.57978243471E+02 -0.21015052362E+02 -0.75746150792E+03  0.77019370806E+03  0.12508917945E+03 0.  0.
          5    1    3    3  502    0  0.57428124793E+02  0.20483775697E+02 -0.15995112684E+03  0.17122911540E+03  0.41800000000E+01 0. -1.
         -5    1    3    3    0  502  0.55011867779E+00 -0.41498828059E+02 -0.59751038107E+03  0.59896459265E+03  0.41800000000E+01 0. -1.
        -11    1    1    2    0    0 -0.48279627118E+02  0.40239883323E+02 -0.23201983771E+03  0.24038172912E+03  0.00000000000E+00 0. -1.
         11    1    1    2    0    0 -0.96986163523E+01 -0.19224830961E+02 -0.73428294835E+01  0.22750262184E+02  0.00000000000E+00 0.  1.
</event>
<event>
 7    1  0.2499014E-009  0.1306577E+03  0.7561462E-02  0.1226483E+00
         -2   -1    0    0    0  501 -0.00000000000E+00  0.00000000000E+00  0.41256108672E+03  0.41256108672E+03  0.00000000000E+00 0. -1.
          2   -1    0    0  501    0  0.00000000000E+00 -0.00000000000E+00 -0.53327561185E+02  0.53327561185E+02  0.00000000000E+00 0.  1.
         25    2    1    2    0    0 -0.12328446957E+02 -0.90474301785E+02  0.99130301442E+02  0.18388079995E+03  0.12509093507E+03 0.  0.
          5    1    3    3  502    0  0.35091509097E+02 -0.99247290307E+02  0.77900615130E+02  0.13102448963E+03  0.41800000000E+01 0.  1.
         -5    1    3    3    0  502 -0.47419956055E+02  0.87729885227E+01  0.21229686312E+02  0.52856310321E+02  0.41800000000E+01 0.  1.
        -11    1    1    2    0    0  0.31635024429E+02  0.28266483657E+02  0.12543217799E+03  0.13241223563E+03  0.00000000000E+00 0.  1.
         11    1    1    2    0    0 -0.19306577471E+02  0.62207818128E+02  0.13467104610E+03  0.14959561233E+03  0.00000000000E+00 0. -1.
</event>
<event>
 7    1  0.2499014E-009  0.9883023E+02  0.7561462E-02  0.1282775E+00
         -1   -1    0    0    0  501 -0.00000000000E+00  0.00000000000E+00  0.78184114356E+02  0.78184114356E+02  0.00000000000E+00 0.  1.
          1   -1    0    0  501    0  0.00000000000E+00 -0.00000000000E+00 -0.27673790348E+03  0.27673790348E+03  0.00000000000E+00 0. -1.
         25    2    1    2    0    0  0.71615137172E+02 -0.47084728459E+02 -0.16774062971E+03  0.22613058570E+03  0.12510964555E+03 0.  0.
          5    1    3    3  502    0  0.43761352301E+02  0.25848281818E+01 -0.16298949964E+03  0.16883360650E+03  0.41800000000E+01 0. -1.
         -5    1    3    3    0  502  0.27853784871E+02 -0.49669556641E+02 -0.47511300695E+01  0.57296979200E+02  0.41800000000E+01 0. -1.
        -11    1    1    2    0    0 -0.76368633458E+02  0.35929271969E+02 -0.55690365015E+02  0.10111625743E+03  0.00000000000E+00 0. -1.
         11    1    1    2    0    0  0.47534962853E+01  0.11155456490E+02  0.24877205601E+02  0.27675174705E+02  0.00000000000E+00 0.  1.
</event>
<event>
 7    1  0.2499014E-009  0.1225290E+03  0.7561462E-02  0.1238982E+00
         -2   -1    0    0    0  501 -0.00000000000E+00  0.00000000000E+00  0.33415073158E+02  0.33415073158E+02  0.00000000000E+00 0.  1.
          2   -1    0    0  501    0  0.00000000000E+00 -0.00000000000E+00 -0.68882714066E+03  0.68882714066E+03  0.00000000000E+00 0. -1.
         25    2    1    2    0    0  0.55783123161E+02 -0.47879683836E+02 -0.17007807927E+03  0.22355896481E+03  0.12509131362E+03 0.  0.
          5    1    3    3  502    0  0.86123672722E+02 -0.15279849418E+02 -0.15178297721E+03  0.17523214709E+03  0.41800000000E+01 0. -1.
         -5    1    3    3    0  502 -0.30340549561E+02 -0.32599834419E+02 -0.18295102061E+02  0.48326817722E+02  0.41800000000E+01 0. -1.
        -11    1    1    2    0    0 -0.73976058552E+02  0.15445423617E+02 -0.28055128088E+03  0.29055126837E+03  0.00000000000E+00 0. -1.
         11    1    1    2    0    0  0.18192935391E+02  0.32434260220E+02 -0.20478270735E+03  0.20813198063E+03  0.00000000000E+00 0.  1.
</event>
<event>
 7    1  0.2499014E-009  0.1137864E+03  0.7561462E-02  0.1253715E+00
         -2   -1    0    0    0  501 -0.00000000000E+00  0.00000000000E+00  0.73616336383E+02  0.73616336383E+02  0.00000000000E+00 0.  1.
          2   -1    0    0  501    0  0.00000000000E+00 -0.00000000000E+00 -0.53534241292E+03  0.53534241292E+03  0.00000000000E+00 0. -1.
         25    2    1    2    0    0 -0.89825189402E+02  0.59247657203E+01 -0.27975284688E+02  0.15663276346E+03  0.12509012165E+03 0.  0.
          5    1    3    3  502    0 -0.75608410001E+02 -0.11385295339E+02 -0.73236644620E+02  0.10595912008E+03  0.41800000000E+01 0.  1.
         -5    1    3    3    0  502 -0.14216779401E+02  0.17310061059E+02  0.45261359932E+02  0.50673643379E+02  0.41800000000E+01 0.  1.
        -11    1    1    2    0    0 -0.16705241093E+02 -0.13404727482E+02 -0.66623657731E+02  0.69981880286E+02  0.00000000000E+00 0.  1.
         11    1    1    2    0    0  0.10653043049E+03  0.74799617622E+01 -0.36712713412E+03  0.38234410556E+03  0.00000000000E+00 0. -1.
</event>
<event>
 7    1  0.2499014E-009  0.1172498E+03  0.7561462E-02  0.1247704E+00
          2   -1    0    0  501    0  0.00000000000E+00  0.00000000000E+00  0.11118840002E+04  0.11118840002E+04  0.00000000000E+00 0. -1.
         -2   -1    0    0    0  501 -0.00000000000E+00 -0.00000000000E+00 -0.14650028414E+02  0.14650028414E+02  0.00000000000E+00 0.  1.
         25    2    1    2    0    0  0.39146626652E+02  0.52412980831E+02  0.73752608145E+03  0.75091525951E+03  0.12509767070E+03 0.  0.
          5    1    3    3  502    0  0.76717274794E+02  0.13861953978E+01  0.36311464593E+03  0.37115654417E+03  0.41800000000E+01 0.  1.
         -5    1    3    3    0  502 -0.37570648142E+02  0.51026785433E+02  0.37441143552E+03  0.37975871534E+03  0.41800000000E+01 0.  1.
        -11    1    1    2    0    0  0.93202925495E+01  0.10948955238E+02  0.11563162199E+02  0.18451400870E+02  0.00000000000E+00 0.  1.
         11    1    1    2    0    0 -0.48466919201E+02 -0.63361936069E+02  0.34814472813E+03  0.35716736823E+03  0.00000000000E+00 0. -1.
</event>
<event>
 7    1  0.2499014E-009  0.1479495E+03  0.7561462E-02  0.1203016E+00
         -2   -1    0    0    0  501 -0.00000000000E+00  0.00000000000E+00  0.18898619296E+02  0.18898619296E+02  0.00000000000E+00 0.  1.
          2   -1    0    0  501    0  0.00000000000E+00 -0.00000000000E+00 -0.17098468128E+04  0.17098468128E+04  0.00000000000E+00 0. -1.
         25    2    1    2    0    0 -0.71050226011E+02 -0.86811112119E+02 -0.13147804462E+04  0.13254731360E+04  0.12508840457E+03 0.  0.
          5    1    3    3  502    0  0.12165453956E+02 -0.67424796006E+02 -0.85870726214E+03  0.86144630467E+03  0.41800000000E+01 0. -1.
         -5    1    3    3    0  502 -0.83215679968E+02 -0.19386316113E+02 -0.45607318401E+03  0.46402683136E+03  0.41800000000E+01 0. -1.
        -11    1    1    2    0    0  0.90721006112E+02  0.61265936417E+02 -0.32349405613E+03  0.34151459744E+03  0.00000000000E+00 0.  1.
         11    1    1    2    0    0 -0.19670780101E+02  0.25545175701E+02 -0.52673691197E+02  0.61757698595E+02  0.00000000000E+00 0. -1.
</event>
<event>
 7    1  0.2499014E-009  0.7618958E+02  0.7561462E-02  0.1340226E+00
         -2   -1    0    0    0  501 -0.00000000000E+00  0.00000000000E+00  0.14689782879E+03  0.14689782879E+03  0.00000000000E+00 0.  1.
          2   -1    0    0  501    0  0.00000000000E+00 -0.00000000000E+00 -0.16952228404E+03  0.16952228404E+03  0.00000000000E+00 0. -1.
         25    2    1    2    0    0  0.18144063657E+02 -0.29218955486E+02  0.96613509336E+02  0.16175356834E+03  0.12508833791E+03 0.  0.
          5    1    3    3  502    0  0.29781133337E-01  0.16256061630E+02  0.10964832081E+03  0.11092559255E+03  0.41800000000E+01 0.  1.
         -5    1    3    3    0  502  0.18114282524E+02 -0.45475017116E+02 -0.13034811473E+02  0.50827975793E+02  0.41800000000E+01 0.  1.
        -11    1    1    2    0    0 -0.45460614658E+02 -0.13366427965E+01 -0.99020196648E+02  0.10896537727E+03  0.00000000000E+00 0.  1.
         11    1    1    2    0    0  0.27316551001E+02  0.30555598282E+02 -0.20217767932E+02  0.45701167219E+02  0.00000000000E+00 0. -1.
</event>
<event>
 7    1  0.2499014E-009  0.1252698E+03  0.7561462E-02  0.1234648E+00
         -3   -1    0    0    0  501 -0.00000000000E+00  0.00000000000E+00  0.63029235520E+03  0.63029235520E+03  0.00000000000E+00 0.  1.
          3   -1    0    0  501    0  0.00000000000E+00 -0.00000000000E+00 -0.28410064534E+02  0.28410064534E+02  0.00000000000E+00 0. -1.
         25    2    1    2    0    0  0.69496773489E+02  0.47872443437E+00  0.24582964040E+03  0.28444120462E+03  0.12507819987E+03 0.  0.
          5    1    3    3  502    0 -0.27046166844E+02  0.23490428230E+02  0.30236364099E+02  0.47063844650E+02  0.41800000000E+01 0.  1.
         -5    1    3    3    0  502  0.96542940333E+02 -0.23011703796E+02  0.21559327630E+03  0.23737735997E+03  0.41800000000E+01 0.  1.
        -11    1    1    2    0    0 -0.54003799889E+02  0.42967601672E+02  0.20308858710E+03  0.21449382137E+03  0.00000000000E+00 0.  1.
         11    1    1    2    0    0 -0.15492973600E+02 -0.43446326106E+02  0.15296406317E+03  0.15976739374E+03  0.00000000000E+00 0. -1.
</event>
<event>
 7    1  0.2499014E-009  0.1707303E+03  0.7561462E-02  0.1177088E+00
         -1   -1    0    0    0  501 -0.00000000000E+00  0.00000000000E+00  0.45244121101E+02  0.45244121101E+02  0.00000000000E+00 0.  1.
          1   -1    0    0  501    0  0.00000000000E+00 -0.00000000000E+00 -0.90144646064E+03  0.90144646064E+03  0.00000000000E+00 0. -1.
         25    2    1    2    0    0  0.14941608853E+03 -0.42785648107E+02 -0.60456445784E+03  0.63663305874E+03  0.12509072150E+03 0.  0.
          5    1    3    3  502    0  0.15084553005E+03 -0.27728661087E+02 -0.60135113852E+03  0.62061575615E+03  0.41800000000E+01 0. -1.
         -5    1    3    3    0  502 -0.14294415238E+01 -0.15056987020E+02 -0.32133193160E+01  0.16017302589E+02  0.41800000000E+01 0. -1.
        -11    1    1    2    0    0 -0.44211453779E+02  0.50176097028E+02 -0.53663624670E+02  0.85744259114E+02  0.00000000000E+00 0. -1.
         11    1    1    2    0    0 -0.10520463475E+03 -0.73904489212E+01 -0.19797425703E+03  0.22431326389E+03  0.00000000000E+00 0.  1.
</event>
<event>
 7    1  0.2499014E-009  0.1476245E+03  0.7561462E-02  0.1203423E+00
          1   -1    0    0  501    0  0.00000000000E+00  0.00000000000E+00  0.45143456466E+03  0.45143456466E+03  0.00000000000E+00 0.  1.
         -1   -1    0    0    0  501 -0.00000000000E+00 -0.00000000000E+00 -0.60407612829E+02  0.60407612829E+02  0.00000000000E+00 0. -1.
         25    2    1    2    0    0 -0.95492030922E+01 -0.12300667041E+03  0.21105462120E+03  0.27461541173E+03  0.12509093885E+03 0.  0.
          5    1    3    3  502    0  0.32594906406E+02 -0.17524036121E+02  0.12941794109E+03  0.13466995078E+03  0.41800000000E+01 0.  1.
         -5    1    3    3    0  502 -0.42144109498E+02 -0.10548263429E+03  0.81636680112E+02  0.13994546096E+03  0.41800000000E+01 0.  1.
        -11    1    1    2    0    0 -0.28216161325E+02  0.89535669486E+02  0.72897443653E+02  0.11885632150E+03  0.00000000000E+00 0. -1.
         11    1    1    2    0    0  0.37765364417E+02  0.33471000926E+02  0.10707488698E+03  0.11837044426E+03  0.00000000000E+00 0.  1.
</event>
<event>
 7    1  0.2499014E-009  0.9842706E+02  0.7561462E-02  0.1283639E+00
          1   -1    0    0  501    0  0.00000000000E+00  0.00000000000E+00  0.95006096231E+02  0.95006096231E+02  0.00000000000E+00 0. -1.
         -1   -1    0    0    0  501 -0.00000000000E+00 -0.00000000000E+00 -0.13780865296E+03  0.13780865296E+03  0.00000000000E+00 0.  1.
         25    2    1    2    0    0 -0.24131382734E+02 -0.21166539080E+02 -0.43619103132E+02  0.13631100817E+03  0.12509084212E+03 0.  0.
          5    1    3    3  502    0  0.24367445919E+02 -0.60563705946E+02 -0.31167985726E+02  0.72461373384E+02  0.41800000000E+01 0. -1.
         -5    1    3    3    0  502 -0.48498828652E+02  0.39397166866E+02 -0.12451117406E+02  0.63849634786E+02  0.41800000000E+01 0. -1.
        -11    1    1    2    0    0  0.36335590340E+02  0.34942106842E+02  0.32417449699E+02  0.59934272340E+02  0.00000000000E+00 0. -1.
         11    1    1    2    0    0 -0.12204207607E+02 -0.13775567762E+02 -0.31600903301E+02  0.36569468685E+02  0.00000000000E+00 0.  1.
</event>
<event>
 7    1  0.2499014E-009  0.1086376E+03  0.7561462E-02  0.1263114E+00
         -2   -1    0    0    0  501 -0.00000000000E+00  0.00000000000E+00  0.22367729404E+02  0.22367729404E+02  0.00000000000E+00 0.  1.
          2   -1    0    0  501    0  0.00000000000E+00 -0.00000000000E+00 -0.64414737743E+03  0.64414737743E+03  0.00000000000E+00 0. -1.
         25    2    1    2    0    0 -0.18706028447E+02  0.24456279934E+01 -0.42386773126E+03  0.44234454150E+03  0.12509573612E+03 0.  0.
          5    1    3    3  502    0  0.35103576636E+02 -0.32373483793E+02 -0.86284721738E+02  0.98705770606E+02  0.41800000000E+01 0.  1.
         -5    1    3    3    0  502 -0.53809605083E+02  0.34819111786E+02 -0.33758300952E+03  0.34363877089E+03  0.41800000000E+01 0.  1.
        -11    1    1    2    0    0  0.39608279913E+02 -0.43629592059E+02 -0.11715878720E+03  0.13114319867E+03  0.00000000000E+00 0.  1.
         11    1    1    2    0    0 -0.20902251466E+02  0.41183964065E+02 -0.80753129570E+02  0.93027366661E+02  0.00000000000E+00 0. -1.
</event>
<event>
 7    1  0.2499014E-009  0.1755713E+03  0.7561462E-02  0.1172159E+00
         -1   -1    0    0    0  501 -0.00000000000E+00  0.00000000000E+00  0.69346961302E+02  0.69346961302E+02  0.00000000000E+00 0.  1.
          1   -1    0    0  501    0  0.00000000000E+00 -0.00000000000E+00 -0.66235351527E+03  0.66235351527E+03  0.00000000000E+00 0. -1.
         25    2    1    2    0    0  0.51833195550E+02 -0.15966349008E+03 -0.39629513941E+03  0.44819241201E+03  0.12508992940E+03 0.  0.
          5    1    3    3  502    0  0.69970354617E+02 -0.11650837242E+03 -0.37032341363E+03  0.39449582311E+03  0.41800000000E+01 0.  1.
         -5    1    3    3    0  502 -0.18137159067E+02 -0.43155117663E+02 -0.25971725782E+02  0.53696588902E+02  0.41800000000E+01 0.  1.
        -11    1    1    2    0    0 -0.36847929118E+02  0.12703004598E+03 -0.65739799472E+02  0.14770282224E+03  0.00000000000E+00 0.  1.
         11    1    1    2    0    0 -0.14985266431E+02  0.32633444100E+02 -0.13097161508E+03  0.13580524231E+03  0.00000000000E+00 0. -1.
</event>
<event>
 7    1  0.2499014E-009  0.1027892E+03  0.7561462E-02  0.1274538E+00
         -3   -1    0    0    0  501 -0.00000000000E+00  0.00000000000E+00  0.18050081973E+03  0.18050081973E+03  0.00000000000E+00 0.  1.
          3   -1    0    0  501    0  0.00000000000E+00 -0.00000000000E+00 -0.71386574688E+02  0.71386574688E+02  0.00000000000E+00 0. -1.
         25    2    1    2    0    0  0.61569675345E+01 -0.65145970490E+01  0.10754871612E+03  0.16521135567E+03  0.12509083691E+03 0.  0.
          5    1    3    3  502    0 -0.23777774792E+02  0.53193998447E+02  0.47328376295E+02  0.75182655231E+02  0.41800000000E+01 0. -1.
         -5    1    3    3    0  502  0.29934742327E+02 -0.59708595496E+02  0.60220339829E+02  0.90028700443E+02  0.41800000000E+01 0. -1.
        -11    1    1    2    0    0  0.15612711706E+02 -0.32221629917E+02  0.17002170507E+02  0.39636649749E+02  0.00000000000E+00 0.  1.
         11    1    1    2    0    0 -0.21769679240E+02  0.38736226966E+02 -0.15436641588E+02  0.47039388998E+02  0.00000000000E+00 0. -1.
</event>
<event>
 7    1  0.2499014E-009  0.9627498E+02  0.7561462E-02  0.1288330E+00
          2   -1    0    0  501    0  0.00000000000E+00  0.00000000000E+00  0.34105203013E+02  0.34105203013E+02  0.00000000000E+00 0. -1.
         -2   -1    0    0    0  501 -0.00000000000E+00 -0.00000000000E+00 -0.44500988996E+03  0.44500988996E+03  0.00000000000E+00 0.  1.
         25    2    1    2    0    0 -0.45279370500E+02  0.41503948883E+02 -0.23569554928E+03  0.27381193122E+03  0.12509109704E+03 0.  0.
          5    1    3    3  502    0 -0.78289731449E+02  0.20806931297E+02 -0.21436075290E+03  0.22919471028E+03  0.41800000000E+01 0. -1.
         -5    1    3    3    0  502  0.33010360950E+02  0.20697017585E+02 -0.21334796389E+02  0.44617220935E+02  0.41800000000E+01 0. -1.
        -11    1    1    2    0    0  0.44978135796E+02 -0.17530622985E+02 -0.17478007727E+03  0.18132410444E+03  0.00000000000E+00 0.  1.
         11    1    1    2    0    0  0.30123470337E+00 -0.23973325898E+02 -0.42906040008E+00  0.23979057317E+02  0.00000000000E+00 0. -1.
</event>
<event>
 7    1  0.2499014E-009  0.1441566E+03  0.7561462E-02  0.1207843E+00
         -1   -1    0    0    0  501 -0.00000000000E+00  0.00000000000E+00  0.25882797539E+03  0.25882797539E+03  0.00000000000E+00 0.  1.
          1   -1    0    0  501    0  0.00000000000E+00 -0.00000000000E+00 -0.10269208421E+03  0.10269208421E+03  0.00000000000E+00 0. -1.
         25    2    1    2    0    0 -0.82680551344E+01  0.11854667837E+03  0.11755230844E+03  0.20877717805E+03  0.12509072375E+03 0.  0.
          5    1    3    3  502    0 -0.26048113229E+02  0.35028135467E+01  0.83170109695E+02  0.87324185952E+02  0.41800000000E+01 0.  1.
         -5    1    3    3    0  502  0.17780058095E+02  0.11504386482E+03  0.34382198743E+02  0.12145299210E+03  0.41800000000E+01 0.  1.
        -11    1    1    2    0    0  0.89138052080E+01 -0.13172256426E+03  0.26096274141E+02  0.13457825003E+03  0.00000000000E+00 0. -1.
         11    1    1    2    0    0 -0.64575007356E+00  0.13175885890E+02  0.12487308599E+02  0.18164631518E+02  0.00000000000E+00 0.  1.
</event>
<event>
 7    1  0.2499014E-009  0.1033823E+03  0.7561462E-02  0.1273340E+00
         -1   -1    0    0    0  501 -0.00000000000E+00  0.00000000000E+00  0.56745349996E+02  0.56745349996E+02  0.00000000000E+00 0.  1.
          1   -1    0    0  501    0  0.00000000000E+00 -0.00000000000E+00 -0.20875506882E+03  0.20875506882E+03  0.00000000000E+00 0. -1.
         25    2    1    2    0    0 -0.35697667904E+01  0.48022671649E+01 -0.75364059781E+02  0.14616056516E+03  0.12508942520E+03 0.  0.
          5    1    3    3  502    0 -0.58923637435E+02 -0.57851874324E+01 -0.66196711890E+02  0.88909732354E+02  0.41800000000E+01 0. -1.
         -5    1    3    3    0  502  0.55353870644E+02  0.10587454597E+02 -0.91673478907E+01  0.57250832810E+02  0.41800000000E+01 0. -1.
        -11    1    1    2    0    0  0.18628938232E+01  0.43012546307E+02 -0.29653492356E+02  0.52276946373E+02  0.00000000000E+00 0.  1.
         11    1    1    2    0    0  0.17068729671E+01 -0.47814813472E+02 -0.46992166688E+02  0.67062907279E+02  0.00000000000E+00 0. -1.
</event>
<event>
 7    1  0.2499014E-009  0.9489518E+02  0.7561462E-02  0.1291412E+00
         -2   -1    0    0    0  501 -0.00000000000E+00  0.00000000000E+00  0.44536615651E+02  0.44536615651E+02  0.00000000000E+00 0.  1.
          2   -1    0    0  501    0  0.00000000000E+00 -0.00000000000E+00 -0.27142733140E+03  0.27142733140E+03  0.00000000000E+00 0. -1.
         25    2    1    2    0    0  0.40351451892E+01  0.45931824930E+01 -0.14735907460E+03  0.19339120519E+03  0.12509229255E+03 0.  0.
          5    1    3    3  502    0 -0.22940599603E+02 -0.38939999217E+02 -0.96425487273E+01  0.46400924507E+02  0.41800000000E+01 0. -1.
         -5    1    3    3    0  502  0.26975744792E+02  0.43533181710E+02 -0.13771652587E+03  0.14699028068E+03  0.41800000000E+01 0. -1.
        -11    1    1    2    0    0 -0.19537209599E+02 -0.45368196640E+02 -0.46685860733E+02  0.67967237826E+02  0.00000000000E+00 0.  1.
         11    1    1    2    0    0  0.15502064410E+02  0.40775014147E+02 -0.32845780416E+02  0.54605504034E+02  0.00000000000E+00 0. -1.
</event>
<event>
 7    1  0.2499014E-009  0.1313504E+03  0.7561462E-02  0.1225466E+00
         -2   -1    0    0    0  501 -0.00000000000E+00  0.00000000000E+00  0.49351221531E+02  0.49351221531E+02  0.00000000000E+00 0. -1.
          2   -1    0    0  501    0  0.00000000000E+00 -0.00000000000E+00 -0.40065144008E+03  0.40065144008E+03  0.00000000000E+00 0.  1.
         25    2    1    2    0    0  0.78668151248E+02  0.18307256600E+02 -0.13850332045E+03  0.20335738128E+03  0.12508885275E+03 0.  0.
          5    1    3    3  502    0  0.72942198421E+02 -0.37262529750E+02 -0.11800012305E+03  0.14370303363E+03  0.41800000000E+01 0. -1.
         -5    1    3    3    0  502  0.57259528269E+01  0.55569786350E+02 -0.20503197401E+02  0.59654347657E+02  0.41800000000E+01 0. -1.
        -11    1    1    2    0    0  0.12608480269E+02 -0.30096019500E+02 -0.58475840655E+02  0.66963931372E+02  0.00000000000E+00 0. -1.
         11    1    1    2    0    0 -0.91276631517E+02  0.11788762900E+02 -0.15432105745E+03  0.17968134896E+03  0.00000000000E+00 0.  1.
</event>
<event>
 7    1  0.2499014E-009  0.2072984E+03  0.7561462E-02  0.1143723E+00
          1   -1    0    0  501    0  0.00000000000E+00  0.00000000000E+00  0.16294726882E+03  0.16294726882E+03  0.00000000000E+00 0. -1.
         -1   -1    0    0    0  501 -0.00000000000E+00 -0.00000000000E+00 -0.36111419494E+03  0.36111419494E+03  0.00000000000E+00 0.  1.
         25    2    1    2    0    0  0.19331490910E+03 -0.20439380753E+02 -0.18440269572E+03  0.29570291287E+03  0.12508971231E+03 0.  0.
          5    1    3    3  502    0  0.17253459655E+03 -0.22243722668E+02 -0.84285717583E+02  0.19335078172E+03  0.41800000000E+01 0.  1.
         -5    1    3    3    0  502  0.20780312550E+02  0.18043419150E+01 -0.10011697814E+03  0.10235213115E+03  0.41800000000E+01 0.  1.
        -11    1    1    2    0    0 -0.91193888947E+02  0.60691150069E+02  0.24249149042E+02  0.11219519734E+03  0.00000000000E+00 0. -1.
         11    1    1    2    0    0 -0.10212102015E+03 -0.40251769315E+02 -0.38013379440E+02  0.11616335354E+03  0.00000000000E+00 0.  1.
</event>
<event>
 7    1  0.2499014E-009  0.7090238E+02  0.7561462E-02  0.1357051E+00
          2   -1    0    0  501    0  0.00000000000E+00  0.00000000000E+00  0.38530830702E+03  0.38530830702E+03  0.00000000000E+00 0. -1.
         -2   -1    0    0    0  501 -0.00000000000E+00 -0.00000000000E+00 -0.34234003136E+02  0.34234003136E+02  0.00000000000E+00 0.  1.
         25    2    1    2    0    0 -0.17957885736E+02  0.40753591053E+01  0.26622624312E+03  0.29472953945E+03  0.12509993880E+03 0.  0.
          5    1    3    3  502    0  0.29188480551E+02  0.16979001213E+02  0.12413510976E+02  0.36219076932E+02  0.41800000000E+01 0.  1.
         -5    1    3    3    0  502 -0.47146366286E+02 -0.12903642107E+02  0.25381273215E+03  0.25851046252E+03  0.41800000000E+01 0.  1.
        -11    1    1    2    0    0 -0.11133943480E+02 -0.21924548607E+02 -0.80255071565E+01  0.25866180509E+02  0.00000000000E+00 0.  1.
         11    1    1    2    0    0  0.29091829215E+02  0.17849189501E+02  0.92873567922E+02  0.98946590197E+02  0.00000000000E+00 0. -1.
</event>
<event>
 7    1  0.2499014E-009  0.1408221E+03  0.7561462E-02  0.1212227E+00
          1   -1    0    0  501    0  0.00000000000E+00  0.00000000000E+00  0.66508919457E+03  0.66508919457E+03  0.00000000000E+00 0. -1.
         -1   -1    0    0    0  501 -0.00000000000E+00 -0.00000000000E+00 -0.33154883707E+02  0.33154883707E+02  0.00000000000E+00 0.  1.
         25    2    1    2    0    0 -0.94002073301E+02 -0.27904091897E+02  0.30601193313E+03  0.34482930977E+03  0.12509564952E+03 0.  0.
          5    1    3    3  502    0 -0.66384086564E+02 -0.76881153125E+02  0.21393305375E+03  0.23685941515E+03  0.41800000000E+01 0. -1.
         -5    1    3    3    0  502 -0.27617986737E+02  0.48977061228E+02  0.92078879379E+02  0.10796989463E+03  0.41800000000E+01 0. -1.
        -11    1    1    2    0    0  0.49220467674E+02 -0.24240433141E+02  0.73002864891E+02  0.91321800897E+02  0.00000000000E+00 0.  1.
         11    1    1    2    0    0  0.44781605627E+02  0.52144525038E+02  0.25291951284E+03  0.26209296760E+03  0.00000000000E+00 0. -1.
</event>
<event>
 7    1  0.2499014E-009  0.1172539E+03  0.7561462E-02  0.1247697E+00
         -1   -1    0    0    0  501 -0.00000000000E+00  0.00000000000E+00  0.31614502549E+02  0.31614502549E+02  0.00000000000E+00 0.  1.
          1   -1    0    0  501    0  0.00000000000E+00 -0.00000000000E+00 -0.10078895314E+04  0.10078895314E+04  0.00000000000E+00 0. -1.
         25    2    1    2    0    0 -0.83733695369E+02  0.21603024300E+02 -0.84411255008E+03  0.85770164209E+03  0.12509231491E+03 0.  0.
          5    1    3    3  502    0 -0.66991573077E+02  0.53708753686E+02 -0.29210130389E+03  0.30448833347E+03  0.41800000000E+01 0. -1.
         -5    1    3    3    0  502 -0.16742122292E+02 -0.32105729386E+02 -0.55201124619E+03  0.55321330862E+03  0.41800000000E+01 0. -1.
        -11    1    1    2    0    0  0.17243516180E+02  0.25376722654E+02 -0.54068077246E+01  0.31153659058E+02  0.00000000000E+00 0.  1.
         11    1    1    2    0    0  0.66490179189E+02 -0.46979746955E+02 -0.12675567109E+03  0.15064873284E+03  0.00000000000E+00 0. -1.
</event>
<event>
 7    1  0.2499014E-009  0.1766767E+03  0.7561462E-02  0.1171059E+00
          2   -1    0    0  501    0  0.00000000000E+00  0.00000000000E+00  0.11294964139E+03  0.11294964139E+03  0.00000000000E+00 0. -1.
         -2   -1    0    0    0  501 -0.00000000000E+00 -0.00000000000E+00 -0.33584495860E+03  0.33584495860E+03  0.00000000000E+00 0.  1.
         25    2    1    2    0    0 -0.38639567085E+02 -0.15211765169E+03 -0.77152596126E+02  0.21501826020E+03  0.12509009965E+03 0.  0.
          5    1    3    3  502    0 -0.35435304481E+02 -0.26636426297E+01  0.15610631091E+02  0.39037417931E+02  0.41800000000E+01 0.  1.
         -5    1    3    3    0  502 -0.32042626042E+01 -0.14945400906E+03 -0.92763227217E+02  0.17598084227E+03  0.41800000000E+01 0.  1.
        -11    1    1    2    0    0  0.48494356939E+02  0.69059185019E+02 -0.27130125559E+02  0.88639254302E+02  0.00000000000E+00 0. -1.
         11    1    1    2    0    0 -0.98547898544E+01  0.83058466666E+02 -0.11861259552E+03  0.14513708549E+03  0.00000000000E+00 0.  1.
</event>
<event>
 7    1  0.2499014E-009  0.1588879E+03  0.7561462E-02  0.1189958E+00
         -2   -1    0    0    0  501 -0.00000000000E+00  0.00000000000E+00  0.17298712493E+02  0.17298712493E+02  0.00000000000E+00 0.  1.
          2   -1    0    0  501    0  0.00000000000E+00 -0.00000000000E+00 -0.18121066118E+04  0.18121066118E+04  0.00000000000E+00 0. -1.
         25    2    1    2    0    0  0.11493054518E+03 -0.83878794443E+02 -0.10191351114E+04  0.10365933844E+04  0.12507912278E+03 0.  0.
          5    1    3    3  502    0  0.19444325042E+02 -0.55299249016E+02 -0.14024714154E+03  0.15206190130E+03  0.41800000000E+01 0.  1.
         -5    1    3    3    0  502  0.95486220138E+02 -0.28579545426E+02 -0.87888796988E+03  0.88453148313E+03  0.41800000000E+01 0.  1.
        -11    1    1    2    0    0 -0.42022168181E+02 -0.71463570159E+01 -0.13365374012E+03  0.14028633321E+03  0.00000000000E+00 0.  1.
         11    1    1    2    0    0 -0.72908376998E+02  0.91025151459E+02 -0.64201904777E+03  0.65252560665E+03  0.00000000000E+00 0. -1.
</event>
<event>
 7    1  0.2499014E-009  0.5539544E+02  0.7561462E-02  0.1418238E+00
         -1   -1    0    0    0  501 -0.00000000000E+00  0.00000000000E+00  0.44304210556E+02  0.44304210556E+02  0.00000000000E+00 0.  1.
          1   -1    0    0  501    0  0.00000000000E+00 -0.00000000000E+00 -0.26617655213E+03  0.26617655213E+03  0.00000000000E+00 0. -1.
         25    2    1    2    0    0 -0.99471488156E+01  0.13207440156E+02 -0.12595720134E+03  0.17828629957E+03  0.12508959110E+03 0.  0.
          5    1    3    3  502    0 -0.96393716951E+01 -0.21965768712E+02 -0.13856445177E+03  0.14068756938E+03  0.41800000000E+01 0. -1.
         -5    1    3    3    0  502 -0.30777712048E+00  0.35173208867E+02  0.12607250434E+02  0.37598730195E+02  0.41800000000E+01 0. -1.
        -11    1    1    2    0    0 -0.75197116324E+01 -0.27462958572E+02  0.48971052746E+01  0.28891898461E+02  0.00000000000E+00 0.  1.
         11    1    1    2    0    0  0.17466860448E+02  0.14255518417E+02 -0.10081224550E+03  0.10330256465E+03  0.00000000000E+00 0. -1.
</event>
<event>
 7    1  0.2499014E-009  0.3323755E+03  0.7561462E-02  0.1070091E+00
         -2   -1    0    0    0  501 -0.00000000000E+00  0.00000000000E+00  0.23267600278E+03  0.23267600278E+03  0.00000000000E+00 0.  1.
          2   -1    0    0  501    0  0.00000000000E+00 -0.00000000000E+00 -0.53992488758E+03  0.53992488758E+03  0.00000000000E+00 0. -1.
         25    2    1    2    0    0 -0.31358184873E+03  0.18422578046E+02 -0.28845039842E+03  0.44444062035E+03  0.12510341895E+03 0.  0.
          5    1    3    3  502    0 -0.92210817100E+02 -0.50625981881E+02 -0.75213030636E+02  0.12938430047E+03  0.41800000000E+01 0.  1.
         -5    1    3    3    0  502 -0.22137103163E+03  0.69048559927E+02 -0.21323736779E+03  0.31505631988E+03  0.41800000000E+01 0.  1.
        -11    1    1    2    0    0  0.24687536848E+03 -0.52865993939E+02 -0.11533799174E+02  0.25273561166E+03  0.00000000000E+00 0.  1.
         11    1    1    2    0    0  0.66706480254E+02  0.34443415893E+02 -0.72646872091E+01  0.75424658345E+02  0.00000000000E+00 0. -1.
</event>
<event>
 7    1  0.2499014E-009  0.6007169E+02  0.7561462E-02  0.1397531E+00
          2   -1    0    0  501    0  0.00000000000E+00  0.00000000000E+00  0.98795457053E+02  0.98795457053E+02  0.00000000000E+00 0. -1.
         -2   -1    0    0    0  501 -0.00000000000E+00 -0.00000000000E+00 -0.12519719841E+03  0.12519719841E+03  0.00000000000E+00 0.  1.
         25    2    1    2    0    0  0.69853039130E+01 -0.24918118136E+02 -0.30099144831E+02  0.13123723213E+03  0.12509014947E+03 0.  0.
          5    1    3    3  502    0  0.10131864358E+02  0.15353219868E+02 -0.71081658415E+02  0.73542168847E+02  0.41800000000E+01 0. -1.
         -5    1    3    3    0  502 -0.31465604452E+01 -0.40271338004E+02  0.40982513584E+02  0.57695063280E+02  0.41800000000E+01 0. -1.
        -11    1    1    2    0    0 -0.25316121321E+02 -0.47861944965E+01 -0.33160037956E+02  0.41992877655E+02  0.00000000000E+00 0. -1.
         11    1    1    2    0    0  0.18330817408E+02  0.29704312632E+02  0.36857441427E+02  0.50762545684E+02  0.00000000000E+00 0.  1.
</event>
<event>
 7    1  0.2499014E-009  0.1032256E+03  0.7561462E-02  0.1273656E+00
          1   -1    0    0  501    0  0.00000000000E+00  0.00000000000E+00  0.18026290123E+03  0.18026290123E+03  0.00000000000E+00 0. -1.
         -1   -1    0    0    0  501 -0.00000000000E+00 -0.00000000000E+00 -0.67235642305E+02  0.67235642305E+02  0.00000000000E+00 0.  1.
         25    2    1    2    0    0  0.11571467506E+02  0.73125803414E+01  0.78319442960E+02  0.14821956923E+03  0.12509089842E+03 0.  0.
          5    1    3    3  502    0 -0.13967063551E+02  0.62566754506E+02  0.33050872332E+02  0.72246177722E+02  0.41800000000E+01 0. -1.
         -5    1    3    3    0  502  0.25538531058E+02 -0.55254174164E+02  0.45268570628E+02  0.75973391512E+02  0.41800000000E+01 0. -1.
        -11    1    1    2    0    0  0.33997987588E+02  0.40253425980E+01 -0.87078417730E+01  0.35325529740E+02  0.00000000000E+00 0.  1.
         11    1    1    2    0    0 -0.45569455095E+02 -0.11337922939E+02  0.43415657735E+02  0.63953444558E+02  0.00000000000E+00 0. -1.
</event>
<event>
 7    1  0.2499014E-009  0.8624131E+02  0.7561462E-02  0.1312218E+00
          2   -1    0    0  501    0  0.00000000000E+00  0.00000000000E+00  0.29973213177E+03  0.29973213177E+03  0.00000000000E+00 0. -1.
         -2   -1    0    0    0  501 -0.00000000000E+00 -0.00000000000E+00 -0.36227663244E+02  0.36227663244E+02  0.00000000000E+00 0.  1.
         25    2    1    2    0    0  0.13005751916E+02 -0.35443162668E+01  0.11838104332E+03  0.17274874936E+03  0.12508535976E+03 0.  0.
          5    1    3    3  502    0  0.54955533372E+02  0.85527007812E+01  0.11613379874E+03  0.12883241420E+03  0.41800000000E+01 0. -1.
         -5    1    3    3    0  502 -0.41949781456E+02 -0.12097017048E+02  0.22472445802E+01  0.43916335160E+02  0.41800000000E+01 0. -1.
        -11    1    1    2    0    0 -0.11604417613E+02 -0.33667715588E+02  0.53070635419E+02  0.63911422491E+02  0.00000000000E+00 0.  1.
         11    1    1    2    0    0 -0.14013343022E+01  0.37212031855E+02  0.92052789783E+02  0.99299623158E+02  0.00000000000E+00 0. -1.
</event>
<event>
 7    1  0.2499014E-009  0.8241138E+02  0.7561462E-02  0.1322344E+00
         -2   -1    0    0    0  501 -0.00000000000E+00  0.00000000000E+00  0.29037882720E+02  0.29037882720E+02  0.00000000000E+00 0.  1.
          2   -1    0    0  501    0  0.00000000000E+00 -0.00000000000E+00 -0.59621124180E+03  0.59621124180E+03  0.00000000000E+00 0. -1.
         25    2    1    2    0    0  0.69018293724E+02 -0.20913971248E+02 -0.31566542933E+03  0.34711531299E+03  0.12507381090E+03 0.  0.
          5    1    3    3  502    0  0.32784026846E+02 -0.52759572010E+00 -0.47365549214E+01  0.33391288175E+02  0.41800000000E+01 0. -1.
         -5    1    3    3    0  502  0.36234266878E+02 -0.20386375527E+02 -0.31092887441E+03  0.31372402481E+03  0.41800000000E+01 0. -1.
        -11    1    1    2    0    0  0.77426565192E+01  0.96952833739E+01  0.24015352470E+01  0.12637825019E+02  0.00000000000E+00 0.  1.
         11    1    1    2    0    0 -0.76760950243E+02  0.11218687874E+02 -0.25390946500E+03  0.26549598652E+03  0.00000000000E+00 0. -1.
</event>
<event>
 7    1  0.2499014E-009  0.1109405E+03  0.7561462E-02  0.1258838E+00
          3   -1    0    0  501    0  0.00000000000E+00  0.00000000000E+00  0.22523965463E+02  0.22523965463E+02  0.00000000000E+00 0. -1.
         -3   -1    0    0    0  501 -0.00000000000E+00 -0.00000000000E+00 -0.92617971744E+03  0.92617971744E+03  0.00000000000E+00 0.  1.
         25    2    1    2    0    0  0.86246773645E+02 -0.28906650442E+02 -0.40185552411E+03  0.43059216736E+03  0.12509057492E+03 0.  0.
          5    1    3    3  502    0  0.44572491057E+02  0.14304344085E+02 -0.34401595396E+02  0.58243140236E+02  0.41800000000E+01 0. -1.
         -5    1    3    3    0  502  0.41674282588E+02 -0.43210994527E+02 -0.36745392871E+03  0.37234902713E+03  0.41800000000E+01 0. -1.
        -11    1    1    2    0    0  0.35332082001E+01 -0.14541444856E+02 -0.14962290340E+02  0.21161458147E+02  0.00000000000E+00 0. -1.
         11    1    1    2    0    0 -0.89779981845E+02  0.43448095298E+02 -0.48683793753E+03  0.49695005739E+03  0.00000000000E+00 0.  1.
</event>
<event>
 7    1  0.2499014E-009  0.1312144E+03  0.7561462E-02  0.1225665E+00
         -1   -1    0    0    0  501 -0.00000000000E+00  0.00000000000E+00  0.41059964831E+02  0.41059964831E+02  0.00000000000E+00 0.  1.
          1   -1    0    0  501    0  0.00000000000E+00 -0.00000000000E+00 -0.54990110627E+03  0.54990110627E+03  0.00000000000E+00 0. -1.
         25    2    1    2    0    0 -0.73938616071E+02  0.30753496582E+02 -0.41940059903E+03  0.44492443693E+03  0.12509274806E+03 0.  0.
          5    1    3    3  502    0 -0.68700741146E+02 -0.37671676794E+02 -0.25274770737E+03  0.26464660030E+03  0.41800000000E+01 0.  1.
         -5    1    3    3    0  502 -0.52378749249E+01  0.68425173376E+02 -0.16665289166E+03  0.18027783664E+03  0.41800000000E+01 0.  1.
        -11    1    1    2    0    0 -0.66717778561E+01 -0.33891414505E+02 -0.22665832800E+02  0.41314411207E+02  0.00000000000E+00 0. -1.
         11    1    1    2    0    0  0.80610393927E+02  0.31379179233E+01 -0.66774709610E+02  0.10472222296E+03  0.00000000000E+00 0.  1.
</event>
<event>
 7    1  0.2499014E-009  0.1101662E+03  0.7561462E-02  0.1260262E+00
         -1   -1    0    0    0  501 -0.00000000000E+00  0.00000000000E+00  0.37365693843E+02  0.37365693843E+02  0.00000000000E+00 0.  1.
          1   -1    0    0  501    0  0.00000000000E+00 -0.00000000000E+00 -0.49957253243E+03  0.49957253243E+03  0.00000000000E+00 0. -1.
         25    2    1    2    0    0  0.19607148994E+02  0.67114742911E+02 -0.34447497934E+03  0.37309310960E+03  0.12508648221E+03 0.  0.
          5    1    3    3  502    0 -0.14783794423E+02 -0.12371865549E+02 -0.22286790189E+03  0.22373912874E+03  0.41800000000E+01 0.  1.
         -5    1    3    3    0  502  0.34390943417E+02  0.79486608460E+02 -0.12160707745E+03  0.14935398087E+03  0.41800000000E+01 0.  1.
        -11    1    1    2    0    0  0.34984643554E+02 -0.39346517438E+02 -0.51992313896E+02  0.73995097292E+02  0.00000000000E+00 0.  1.
         11    1    1    2    0    0 -0.54591792548E+02 -0.27768225473E+02 -0.65739545343E+02  0.89850019374E+02  0.00000000000E+00 0. -1.
</event>
<event>
 7    1  0.2499014E-009  0.1506360E+03  0.7561462E-02  0.1199694E+00
          2   -1    0    0  501    0  0.00000000000E+00  0.00000000000E+00  0.42754421091E+03  0.42754421091E+03  0.00000000000E+00 0. -1.
         -2   -1    0    0    0  501 -0.00000000000E+00 -0.00000000000E+00 -0.81145979925E+02  0.81145979925E+02  0.00000000000E+00 0.  1.
         25    2    1    2    0    0  0.16338696646E+02  0.10863437263E+03  0.32929848299E+03  0.36899142443E+03  0.12509516569E+03 0.  0.
          5    1    3    3  502    0 -0.50510531909E+02  0.74352511340E+02  0.15657020763E+03  0.18058602408E+03  0.41800000000E+01 0. -1.
         -5    1    3    3    0  502  0.66849228555E+02  0.34281861291E+02  0.17272827535E+03  0.18840540034E+03  0.41800000000E+01 0. -1.
        -11    1    1    2    0    0 -0.48999795568E+02 -0.70162668133E+02  0.23707045391E+02  0.88802049337E+02  0.00000000000E+00 0. -1.
         11    1    1    2    0    0  0.32661098922E+02 -0.38471704498E+02 -0.66072973914E+01  0.50896717071E+02  0.00000000000E+00 0.  1.
</event>
<event>
 7    1  0.2499014E-009  0.1406713E+03  0.7561462E-02  0.1212429E+00
         -2   -1    0    0    0  501 -0.00000000000E+00  0.00000000000E+00  0.84326517996E+03  0.84326517996E+03  0.00000000000E+00 0.  1.
          2   -1    0    0  501    0  0.00000000000E+00 -0.00000000000E+00 -0.32851396143E+02  0.32851396143E+02  0.00000000000E+00 0. -1.
         25    2    1    2    0    0 -0.93762922061E+02 -0.83029033752E+02  0.48335624384E+03  0.51474887232E+03  0.12509131504E+03 0.  0.
          5    1    3    3  502    0 -0.41941723898E+02  0.10050338122E+02  0.40747620278E+02  0.59480740229E+02  0.41800000000E+01 0. -1.
         -5    1    3    3    0  502 -0.51821198162E+02 -0.93079371874E+02  0.44260862356E+03  0.45526813209E+03  0.41800000000E+01 0. -1.
        -11    1    1    2    0    0  0.32731470210E+02  0.62615867411E+01  0.19631186066E+02  0.38677384567E+02  0.00000000000E+00 0. -1.
         11    1    1    2    0    0  0.61031451851E+02  0.76767447011E+02  0.30742635391E+03  0.32269031922E+03  0.00000000000E+00 0.  1.
</event>
<event>
 7    1  0.2499014E-009  0.9913941E+02  0.7561462E-02  0.1282116E+00
         -4   -1    0    0    0  501 -0.00000000000E+00  0.00000000000E+00  0.29694597998E+03  0.29694597998E+03  0.00000000000E+00 0. -1.
          4   -1    0    0  501    0  0.00000000000E+00 -0.00000000000E+00 -0.45996368276E+02  0.45996368276E+02  0.00000000000E+00 0.  1.
         25    2    1    2    0    0 -0.26493604688E+01 -0.29879584351E+02  0.94697894743E+02  0.15973478832E+03  0.12509077767E+03 0.  0.
          5    1    3    3  502    0 -0.63864617787E+01  0.36056973052E+02  0.85267182983E+02  0.92891641678E+02  0.41800000000E+01 0. -1.
         -5    1    3    3    0  502  0.37371013100E+01 -0.65936557403E+02  0.94307117593E+01  0.66843146640E+02  0.41800000000E+01 0. -1.
        -11    1    1    2    0    0  0.14528903925E+02  0.60596665611E+02  0.93960766466E+02  0.11274604457E+03  0.00000000000E+00 0.  1.
         11    1    1    2    0    0 -0.11879543456E+02 -0.30717081259E+02  0.62290950498E+02  0.70461515366E+02  0.00000000000E+00 0. -1.
</event>
<event>
 7    1  0.2499014E-009  0.9059851E+02  0.7561462E-02  0.1301409E+00
         -2   -1    0    0    0  501 -0.00000000000E+00  0.00000000000E+00  0.26455450828E+03  0.26455450828E+03  0.00000000000E+00 0. -1.
          2   -1    0    0  501    0  0.00000000000E+00 -0.00000000000E+00 -0.53717340562E+02  0.53717340562E+02  0.00000000000E+00 0.  1.
         25    2    1    2    0    0 -0.34143206891E+02  0.21106603330E+02  0.16065071483E+03  0.20752663030E+03  0.12508957920E+03 0.  0.
          5    1    3    3  502    0  0.61296167432E+01  0.58539363577E+02  0.13371887018E+03  0.14615963167E+03  0.41800000000E+01 0.  1.
         -5    1    3    3    0  502 -0.40272823634E+02 -0.37432760247E+02  0.26931844656E+02  0.61366998621E+02  0.41800000000E+01 0.  1.
        -11    1    1    2    0    0 -0.14031163052E+02 -0.10989755224E+02  0.58203770572E+02  0.60871398581E+02  0.00000000000E+00 0. -1.
         11    1    1    2    0    0  0.48174369944E+02 -0.10116848106E+02 -0.80173176867E+01  0.49873819966E+02  0.00000000000E+00 0.  1.
</event>
<event>
 7    1  0.2737109E-009  0.1679055E+03  0.7561462E-02  0.1180050E+00
          1   -1    0    0  501    0  0.00000000000E+00  0.00000000000E+00  0.28514717270E+03  0.28514717270E+03  0.00000000000E+00 0. -1.
         -1   -1    0    0    0  501 -0.00000000000E+00 -0.00000000000E+00 -0.15914424227E+03  0.15914424227E+03  0.00000000000E+00 0.  1.
         25    2    1    2    0    0 -0.16178425825E+03  0.26811480497E+02 -0.18809192590E+02  0.20710670480E+03  0.12508556969E+03 0.  0.
          5    1    3    3  502    0 -0.11132784135E+03  0.38957075879E+01  0.46994701507E+02  0.12097536595E+03  0.41800000000E+01 0. -1.
         -5    1    3    3    0  502 -0.50456416900E+02  0.22915772909E+02 -0.65803894097E+02  0.86131338854E+02  0.41800000000E+01 0. -1.
        -11    1    1    2    0    0  0.64658384623E+02  0.89243452747E+01  0.81796117627E+01  0.65781887243E+02  0.00000000000E+00 0.  1.
         11    1    1    2    0    0  0.97125873626E+02 -0.35735825771E+02  0.13663251126E+03  0.17140282292E+03  0.00000000000E+00 0. -1.
</event>
<event>
 7    1  0.2499014E-009  0.2486466E+03  0.7561462E-02  0.1114163E+00
         -1   -1    0    0    0  501 -0.00000000000E+00  0.00000000000E+00  0.74132056028E+02  0.74132056028E+02  0.00000000000E+00 0.  1.
          1   -1    0    0  501    0  0.00000000000E+00 -0.00000000000E+00 -0.89596555508E+03  0.89596555508E+03  0.00000000000E+00 0. -1.
         25    2    1    2    0    0  0.22565790955E+03  0.53414493384E+02 -0.37344859464E+03  0.45703986624E+03  0.12508791409E+03 0.  0.
          5    1    3    3  502    0  0.23646357432E+03  0.31565914163E+02 -0.33367574556E+03  0.41020531992E+03  0.41800000000E+01 0. -1.
         -5    1    3    3    0  502 -0.10805664771E+02  0.21848579221E+02 -0.39772849075E+02  0.46834546316E+02  0.41800000000E+01 0. -1.
        -11    1    1    2    0    0 -0.17672026671E+03 -0.28342650357E+02 -0.25180366056E+03  0.30893112819E+03  0.00000000000E+00 0.  1.
         11    1    1    2    0    0 -0.48937642845E+02 -0.25071843027E+02 -0.19658124386E+03  0.20412661668E+03  0.00000000000E+00 0. -1.
</event>
<event>
 7    1  0.2499014E-009  0.1754609E+03  0.7561462E-02  0.1172270E+00
         -1   -1    0    0    0  501 -0.00000000000E+00  0.00000000000E+00  0.55424065243E+03  0.55424065243E+03  0.00000000000E+00 0.  1.
          1   -1    0    0  501    0  0.00000000000E+00 -0.00000000000E+00 -0.62997311520E+02  0.62997311520E+02  0.00000000000E+00 0. -1.
         25    2    1    2    0    0  0.68310598874E+02  0.12666100513E+03  0.33021238572E+03  0.38131103859E+03  0.12509412588E+03 0.  0.
          5    1    3    3  502    0  0.38135406653E+02  0.14820807955E+03  0.27329260212E+03  0.31325111789E+03  0.41800000000E+01 0. -1.
         -5    1    3    3    0  502  0.30175192221E+02 -0.21547074414E+02  0.56919783593E+02  0.68059920700E+02  0.41800000000E+01 0. -1.
        -11    1    1    2    0    0  0.64170473314E+01 -0.60103014252E+02  0.21361974094E+02  0.64108382883E+02  0.00000000000E+00 0. -1.
         11    1    1    2    0    0 -0.74727646206E+02 -0.66557990881E+02  0.13966898110E+03  0.17181854248E+03  0.00000000000E+00 0.  1.
</event>
<event>
 7    1  0.2499014E-009  0.7109958E+02  0.7561462E-02  0.1356393E+00
         -1   -1    0    0    0  501 -0.00000000000E+00  0.00000000000E+00  0.21849765354E+02  0.21849765354E+02  0.00000000000E+00 0.  1.
          1   -1    0    0  501    0  0.00000000000E+00 -0.00000000000E+00 -0.67849660819E+03  0.67849660819E+03  0.00000000000E+00 0. -1.
         25    2    1    2    0    0  0.47960829468E+02  0.11506467238E+02 -0.43493691973E+03  0.45524826950E+03  0.12509285663E+03 0.  0.
          5    1    3    3  502    0  0.50112041241E+02 -0.21885660634E+01 -0.43763465892E+03  0.44051966311E+03  0.41800000000E+01 0. -1.
         -5    1    3    3    0  502 -0.21512117729E+01  0.13695033301E+02  0.26977391893E+01  0.14728606382E+02  0.41800000000E+01 0. -1.
        -11    1    1    2    0    0  0.30479175323E+01  0.18135586943E+02 -0.30774085004E+01  0.18645636436E+02  0.00000000000E+00 0.  1.
         11    1    1    2    0    0 -0.51008747000E+02 -0.29642054181E+02 -0.21863251460E+03  0.22645246761E+03  0.00000000000E+00 0. -1.
</event>
<event>
 7    1  0.2499014E-009  0.1114109E+03  0.7561462E-02  0.1257979E+00
          2   -1    0    0  501    0  0.00000000000E+00  0.00000000000E+00  0.12132853777E+03  0.12132853777E+03  0.00000000000E+00 0. -1.
         -2   -1    0    0    0  501 -0.00000000000E+00 -0.00000000000E+00 -0.35921933017E+03  0.35921933017E+03  0.00000000000E+00 0.  1.
         25    2    1    2    0    0  0.60859646302E+02  0.67964112520E+02  0.51519261196E+02  0.16317489585E+03  0.12509514468E+03 0.  0.
          5    1    3    3  502    0  0.34903613897E+02  0.75318767507E+02 -0.20963769804E+02  0.85721240345E+02  0.41800000000E+01 0. -1.
         -5    1    3    3    0  502  0.25956032405E+02 -0.73546549868E+01  0.72483031001E+02  0.77453655506E+02  0.41800000000E+01 0. -1.
        -11    1    1    2    0    0 -0.29293190325E+02 -0.74601927394E+02 -0.26518689517E+03  0.27703362240E+03  0.00000000000E+00 0.  1.
         11    1    1    2    0    0 -0.31566455977E+02  0.66378148743E+01 -0.24223158417E+02  0.40339349684E+02  0.00000000000E+00 0. -1.
</event>
<event>
 7    1  0.2499014E-009  0.1046545E+03  0.7561462E-02  0.1270802E+00
         -2   -1    0    0    0  501 -0.00000000000E+00  0.00000000000E+00  0.16603010329E+03  0.16603010329E+03  0.00000000000E+00 0.  1.
          2   -1    0    0  501    0  0.00000000000E+00 -0.00000000000E+00 -0.82182026118E+02  0.82182026118E+02  0.00000000000E+00 0. -1.
         25    2    1    2    0    0 -0.18302681805E+02  0.34423659045E+02  0.53302881253E+02  0.14145002237E+03  0.12508771009E+03 0.  0.
          5    1    3    3  502    0 -0.10905935489E+02  0.69887491700E+02 -0.67650740752E+01  0.71178926321E+02  0.41800000000E+01 0.  1.
         -5    1    3    3    0  502 -0.73967463164E+01 -0.35463832655E+02  0.60067955328E+02  0.70271096049E+02  0.41800000000E+01 0.  1.
        -11    1    1    2    0    0 -0.18136341989E+02  0.25835025530E+02  0.56218161978E+01  0.32062131281E+02  0.00000000000E+00 0.  1.
         11    1    1    2    0    0  0.36439023794E+02 -0.60258684575E+02  0.24923379724E+02  0.74699975761E+02  0.00000000000E+00 0. -1.
</event>
<event>
 7    1  0.2499014E-009  0.8784473E+02  0.7561462E-02  0.1308157E+00
          1   -1    0    0  501    0  0.00000000000E+00  0.00000000000E+00  0.22760219261E+03  0.22760219261E+03  0.00000000000E+00 0. -1.
         -1   -1    0    0    0  501 -0.00000000000E+00 -0.00000000000E+00 -0.90407524318E+02  0.90407524318E+02  0.00000000000E+00 0.  1.
         25    2    1    2    0    0 -0.74176837654E+01 -0.21942177566E+02  0.17791037064E+03  0.21871485633E+03  0.12509039615E+03 0.  0.
          5    1    3    3  502    0 -0.41665936480E+02  0.25481790017E+02  0.14134298181E+03  0.14960174729E+03  0.41800000000E+01 0. -1.
         -5    1    3    3    0  502  0.34248252714E+02 -0.47423967583E+02  0.36567388829E+02  0.69113109040E+02  0.41800000000E+01 0. -1.
        -11    1    1    2    0    0 -0.25520412707E+02 -0.43378569505E+01 -0.49857510865E+02  0.56177218312E+02  0.00000000000E+00 0.  1.
         11    1    1    2    0    0  0.32938096472E+02  0.26280034516E+02  0.91418085169E+01  0.43117642287E+02  0.00000000000E+00 0. -1.
</event>
<event>
 7    1  0.2499014E-009  0.1032433E+03  0.7561462E-02  0.1273620E+00
         -2   -1    0    0    0  501 -0.00000000000E+00  0.00000000000E+00  0.66886332951E+03  0.66886332951E+03  0.00000000000E+00 0.  1.
          2   -1    0    0  501    0  0.00000000000E+00 -0.00000000000E+00 -0.26489592694E+02  0.26489592694E+02  0.00000000000E+00 0. -1.
         25    2    1    2    0    0 -0.14424423092E+02  0.65630316954E+02  0.26072493378E+03  0.29688391227E+03  0.12508862373E+03 0.  0.
          5    1    3    3  502    0  0.32706487191E+02  0.13021213169E+02  0.20155042996E+03  0.20464436106E+03  0.41800000000E+01 0. -1.
         -5    1    3    3    0  502 -0.47130910284E+02  0.52609103785E+02  0.59174503816E+02  0.92239551209E+02  0.41800000000E+01 0. -1.
        -11    1    1    2    0    0  0.17639264758E+02  0.12793101125E+02  0.24460008317E+02  0.32758191410E+02  0.00000000000E+00 0. -1.
         11    1    1    2    0    0 -0.32148416653E+01 -0.78423418079E+02  0.35718879472E+03  0.36571081852E+03  0.00000000000E+00 0.  1.
</event>
<event>
 7    1  0.2499014E-009  0.9948468E+02  0.7561462E-02  0.1281383E+00
          2   -1    0    0  501    0  0.00000000000E+00  0.00000000000E+00  0.36881958486E+03  0.36881958486E+03  0.00000000000E+00 0.  1.
         -2   -1    0    0    0  501 -0.00000000000E+00 -0.00000000000E+00 -0.41009683483E+02  0.41009683483E+02  0.00000000000E+00 0. -1.
         25    2    1    2    0    0  0.38749805612E+02 -0.73232502275E+01  0.24762628438E+03  0.28021471619E+03  0.12508530299E+03 0.  0.
          5    1    3    3  502    0  0.35265935154E+02  0.39306970041E+02  0.21880674839E+03  0.22512794055E+03  0.41800000000E+01 0.  1.
         -5    1    3    3    0  502  0.34838704580E+01 -0.46630220268E+02  0.28819535991E+02  0.55086775639E+02  0.41800000000E+01 0.  1.
        -11    1    1    2    0    0  0.28806729402E+02 -0.77509735300E+01  0.11124926413E+02  0.31838172642E+02  0.00000000000E+00 0.  1.
         11    1    1    2    0    0 -0.67556535013E+02  0.15074223757E+02  0.69058690585E+02  0.97776379511E+02  0.00000000000E+00 0. -1.
</event>
<event>
 7    1  0.2499014E-009  0.1117073E+03  0.7561462E-02  0.1257441E+00
          1   -1    0    0  501    0  0.00000000000E+00  0.00000000000E+00  0.51917747016E+02  0.51917747016E+02  0.00000000000E+00 0. -1.
         -1   -1    0    0    0  501 -0.00000000000E+00 -0.00000000000E+00 -0.41148105804E+03  0.41148105804E+03  0.00000000000E+00 0.  1.
         25    2    1    2    0    0  0.79280028442E+02  0.46199978221E+02 -0.24623550840E+03  0.29103083097E+03  0.12508900063E+03 0.  0.
          5    1    3    3  502    0  0.81656016005E+02  0.63259897937E+02 -0.10035256139E+03  0.14407507978E+03  0.41800000000E+01 0. -1.
         -5    1    3    3    0  502 -0.23759875623E+01 -0.17059919716E+02 -0.14588294701E+03  0.14695575119E+03  0.41800000000E+01 0. -1.
        -11    1    1    2    0    0 -0.42910978314E+02  0.75738902366E+00 -0.10365816064E+03  0.11219153250E+03  0.00000000000E+00 0.  1.
         11    1    1    2    0    0 -0.36369050128E+02 -0.46957367244E+02 -0.96696419804E+01  0.60176441585E+02  0.00000000000E+00 0. -1.
</event>
<event>
 7    1  0.2499014E-009  0.1043722E+03  0.7561462E-02  0.1271361E+00
         -2   -1    0    0    0  501 -0.00000000000E+00  0.00000000000E+00  0.60642242794E+02  0.60642242794E+02  0.00000000000E+00 0.  1.
          2   -1    0    0  501    0  0.00000000000E+00 -0.00000000000E+00 -0.24016124791E+03  0.24016124791E+03  0.00000000000E+00 0. -1.
         25    2    1    2    0    0 -0.26515536516E+02 -0.18324237533E+02 -0.49363763055E+02  0.13828709431E+03  0.12509071905E+03 0.  0.
          5    1    3    3  502    0  0.42586808567E+02 -0.28818300747E+02  0.17108088112E+01  0.51619085508E+02  0.41800000000E+01 0.  1.
         -5    1    3    3    0  502 -0.69102345083E+02  0.10494063214E+02 -0.51074571867E+02  0.86668008804E+02  0.41800000000E+01 0.  1.
        -11    1    1    2    0    0 -0.87768014462E+01  0.43118696288E+02 -0.10178948179E+03  0.11089343000E+03  0.00000000000E+00 0.  1.
         11    1    1    2    0    0  0.35292337962E+02 -0.24794458755E+02 -0.28365760269E+02  0.51622966395E+02  0.00000000000E+00 0. -1.
</event>
<event>
 7    1  0.2499014E-009  0.7921718E+02  0.7561462E-02  0.1331288E+00
          1   -1    0    0  501    0  0.00000000000E+00  0.00000000000E+00  0.37183618456E+03  0.37183618456E+03  0.00000000000E+00 0. -1.
         -1   -1    0    0    0  501 -0.00000000000E+00 -0.00000000000E+00 -0.35923938969E+02  0.35923938969E+02  0.00000000000E+00 0.  1.
         25    2    1    2    0    0 -0.17886213694E+02 -0.25654273949E+02  0.24091417334E+03  0.27324911295E+03  0.12508948956E+03 0.  0.
          5    1    3    3  502    0 -0.37395840516E+02 -0.20278893235E+02  0.24780652424E+03  0.25146615728E+03  0.41800000000E+01 0. -1.
         -5    1    3    3    0  502  0.19509626822E+02 -0.53753807138E+01 -0.68923509080E+01  0.21782955667E+02  0.41800000000E+01 0. -1.
        -11    1    1    2    0    0  0.54648445012E+02  0.17354045117E+02  0.61581828142E+02  0.84142361397E+02  0.00000000000E+00 0. -1.
         11    1    1    2    0    0 -0.36762231318E+02  0.83002288320E+01  0.33416244111E+02  0.50368649184E+02  0.00000000000E+00 0.  1.
</event>
<event>
 7    1  0.2499014E-009  0.9324299E+02  0.7561462E-02  0.1295183E+00
         -1   -1    0    0    0  501 -0.00000000000E+00  0.00000000000E+00  0.18383054640E+02  0.18383054640E+02  0.00000000000E+00 0.  1.
          1   -1    0    0  501    0  0.00000000000E+00 -0.00000000000E+00 -0.67486285349E+03  0.67486285349E+03  0.00000000000E+00 0. -1.
         25    2    1    2    0    0 -0.22252557948E+01 -0.81398906897E+01 -0.44399280851E+03  0.46135387205E+03  0.12508625686E+03 0.  0.
          5    1    3    3  502    0  0.25377911487E+02  0.39680869961E+02 -0.34240313824E+03  0.34565299262E+03  0.41800000000E+01 0. -1.
         -5    1    3    3    0  502 -0.27603167282E+02 -0.47820760650E+02 -0.10158967028E+03  0.11570087943E+03  0.41800000000E+01 0. -1.
        -11    1    1    2    0    0  0.26348521499E+02 -0.29225433963E+02 -0.15076259304E+03  0.15581312536E+03  0.00000000000E+00 0. -1.
         11    1    1    2    0    0 -0.24123265704E+02  0.37365324652E+02 -0.61724397295E+02  0.76078910718E+02  0.00000000000E+00 0.  1.
</event>
<event>
 7    1  0.2499014E-009  0.1133586E+03  0.7561462E-02  0.1254474E+00
         -1   -1    0    0    0  501 -0.00000000000E+00  0.00000000000E+00  0.29339208621E+02  0.29339208621E+02  0.00000000000E+00 0. -1.
          1   -1    0    0  501    0  0.00000000000E+00 -0.00000000000E+00 -0.48968929246E+03  0.48968929246E+03  0.00000000000E+00 0.  1.
         25    2    1    2    0    0  0.32380934362E+02  0.18470553503E+02 -0.17913022970E+03  0.22164000692E+03  0.12508783801E+03 0.  0.
          5    1    3    3  502    0 -0.34932128591E+02  0.45780062741E+02 -0.77078116227E+02  0.96304600895E+02  0.41800000000E+01 0.  1.
         -5    1    3    3    0  502  0.67313062952E+02 -0.27309509238E+02 -0.10205211347E+03  0.12533540603E+03  0.41800000000E+01 0.  1.
        -11    1    1    2    0    0 -0.39282790670E+02  0.28633730487E+02 -0.15722985842E+03  0.16457295204E+03  0.00000000000E+00 0. -1.
         11    1    1    2    0    0  0.69018563089E+01 -0.47104283989E+02 -0.12398999571E+03  0.13281554211E+03  0.00000000000E+00 0.  1.
</event>
<event>
 7    1  0.2499014E-009  0.1090424E+03  0.7561462E-02  0.1262354E+00
         -1   -1    0    0    0  501 -0.00000000000E+00  0.00000000000E+00  0.27602755823E+02  0.27602755823E+02  0.00000000000E+00 0.  1.
          1   -1    0    0  501    0  0.00000000000E+00 -0.00000000000E+00 -0.52074456195E+03  0.52074456195E+03  0.00000000000E+00 0. -1.
         25    2    1    2    0    0 -0.42084035723E+02 -0.34186514695E+02 -0.24293024639E+03  0.27857237591E+03  0.12509068775E+03 0.  0.
          5    1    3    3  502    0 -0.61473817810E+02  0.29420417354E+02 -0.10281123670E+03  0.12341885604E+03  0.41800000000E+01 0.  1.
         -5    1    3    3    0  502  0.19389782087E+02 -0.63606932049E+02 -0.14011900968E+03  0.15515351987E+03  0.41800000000E+01 0.  1.
        -11    1    1    2    0    0  0.58806486426E+02  0.23476624829E+02 -0.23840888297E+03  0.24667417830E+03  0.00000000000E+00 0. -1.
         11    1    1    2    0    0 -0.16722450702E+02  0.10709889867E+02 -0.11802676772E+02  0.23100763568E+02  0.00000000000E+00 0.  1.
</event>
<event>
 7    1  0.2499014E-009  0.1250725E+03  0.7561462E-02  0.1234956E+00
          2   -1    0    0  501    0  0.00000000000E+00  0.00000000000E+00  0.68528126796E+03  0.68528126796E+03  0.00000000000E+00 0.  1.
         -2   -1    0    0    0  501 -0.00000000000E+00 -0.00000000000E+00 -0.30504734044E+02  0.30504734044E+02  0.00000000000E+00 0. -1.
         25    2    1    2    0    0  0.26415861834E+02  0.73746107318E+02  0.48016946413E+03  0.50234084758E+03  0.12508927516E+03 0.  0.
          5    1    3    3  502    0 -0.31209787319E+02  0.72087746041E+02  0.36617871920E+03  0.37453307030E+03  0.41800000000E+01 0.  1.
         -5    1    3    3    0  502  0.57625649153E+02  0.16583612762E+01  0.11399074493E+03  0.12780777728E+03  0.41800000000E+01 0.  1.
        -11    1    1    2    0    0  0.32360819736E+01 -0.82654694679E+02  0.15792255003E+03  0.17827451469E+03  0.00000000000E+00 0.  1.
         11    1    1    2    0    0 -0.29651943808E+02  0.89085873609E+01  0.16684519757E+02  0.35170639742E+02  0.00000000000E+00 0. -1.
</event>
<event>
 7    1  0.2499014E-009  0.1133020E+03  0.7561462E-02  0.1254575E+00
          2   -1    0    0  501    0  0.00000000000E+00  0.00000000000E+00  0.12025204024E+04  0.12025204024E+04  0.00000000000E+00 0.  1.
         -2   -1    0    0    0  501 -0.00000000000E+00 -0.00000000000E+00 -0.12192079817E+02  0.12192079817E+02  0.00000000000E+00 0. -1.
         25    2    1    2    0    0  0.70267148218E+01  0.42545646147E+02  0.82973551668E+03  0.84021836695E+03  0.12508544990E+03 0.  0.
          5    1    3    3  502    0 -0.53380328122E+02  0.37169052351E+02  0.29956102099E+03  0.30657018051E+03  0.41800000000E+01 0.  1.
         -5    1    3    3    0  502  0.60407042944E+02  0.53765937962E+01  0.53017449570E+03  0.53364818644E+03  0.41800000000E+01 0.  1.
        -11    1    1    2    0    0 -0.47024130488E+02 -0.37844431199E+02  0.19860088587E+03  0.20757114850E+03  0.00000000000E+00 0. -1.
         11    1    1    2    0    0  0.39997415666E+02 -0.47012149486E+01  0.16199192007E+03  0.16692296681E+03  0.00000000000E+00 0.  1.
</event>
<event>
 7    1  0.2499014E-009  0.1649683E+03  0.7561462E-02  0.1183199E+00
          2   -1    0    0  501    0  0.00000000000E+00  0.00000000000E+00  0.11656829834E+04  0.11656829834E+04  0.00000000000E+00 0. -1.
         -2   -1    0    0    0  501 -0.00000000000E+00 -0.00000000000E+00 -0.36885942526E+02  0.36885942526E+02  0.00000000000E+00 0.  1.
         25    2    1    2    0    0  0.12699215479E+03 -0.71047976786E+02  0.87570001574E+03  0.89647801863E+03  0.12508995938E+03 0.  0.
          5    1    3    3  502    0  0.13075933136E+03 -0.37511130759E+02  0.82000330064E+03  0.83122077280E+03  0.41800000000E+01 0. -1.
         -5    1    3    3    0  502 -0.37671765784E+01 -0.33536846027E+02  0.55696715102E+02  0.65257245834E+02  0.41800000000E+01 0. -1.
        -11    1    1    2    0    0 -0.85290147323E+02  0.99616801520E+01  0.19137507195E+03  0.20975715117E+03  0.00000000000E+00 0. -1.
         11    1    1    2    0    0 -0.41702007462E+02  0.61086296634E+02  0.61721953152E+02  0.96333756097E+02  0.00000000000E+00 0.  1.
</event>
<event>
 7    1  0.2499014E-009  0.1613975E+03  0.7561462E-02  0.1187128E+00
          2   -1    0    0  501    0  0.00000000000E+00  0.00000000000E+00  0.70776428824E+03  0.70776428824E+03  0.00000000000E+00 0. -1.
         -2   -1    0    0    0  501 -0.00000000000E+00 -0.00000000000E+00 -0.65421474092E+02  0.65421474092E+02  0.00000000000E+00 0.  1.
         25    2    1    2    0    0 -0.11242251305E+03 -0.81145513860E+02  0.55463427243E+03  0.58522616090E+03  0.12508823842E+03 0.  0.
          5    1    3    3  502    0 -0.12746845309E+03 -0.41540425464E+02  0.48844969007E+03  0.50653172221E+03  0.41800000000E+01 0.  1.
         -5    1    3    3    0  502  0.15045940033E+02 -0.39605088397E+02  0.66184582360E+02  0.78694438689E+02  0.41800000000E+01 0.  1.
        -11    1    1    2    0    0  0.46572736259E+02  0.61943518690E+02  0.90702457190E+02  0.11930194890E+03  0.00000000000E+00 0. -1.
         11    1    1    2    0    0  0.65849776793E+02  0.19201995170E+02 -0.29939154652E+01  0.68657652538E+02  0.00000000000E+00 0.  1.
</event>
<event>
 7    1  0.2781158E-009  0.1206591E+03  0.7561462E-02  0.1242014E+00
          1   -1    0    0  501    0  0.00000000000E+00  0.00000000000E+00  0.48208643272E+03  0.48208643272E+03  0.00000000000E+00 0. -1.
         -1   -1    0    0    0  501 -0.00000000000E+00 -0.00000000000E+00 -0.61217695836E+02  0.61217695836E+02  0.00000000000E+00 0.  1.
         25    2    1    2    0    0 -0.48820028948E+02  0.79118982712E+02  0.37363688517E+03  0.40484015765E+03  0.12509125725E+03 0.  0.
          5    1    3    3  502    0 -0.85183335760E+02  0.41904599138E+02  0.17143318365E+03  0.19600766560E+03  0.41800000000E+01 0.  1.
         -5    1    3    3    0  502  0.36363306812E+02  0.37214383574E+02  0.20220370152E+03  0.20883249205E+03  0.41800000000E+01 0.  1.
        -11    1    1    2    0    0  0.34248449253E+02 -0.41841581757E+02 -0.22096531396E+02  0.58411736319E+02  0.00000000000E+00 0.  1.
         11    1    1    2    0    0  0.14571579695E+02 -0.37277400956E+02  0.69328383118E+02  0.80052234588E+02  0.00000000000E+00 0. -1.
</event>
<event>
 7    1  0.2499014E-009  0.1630270E+03  0.7561462E-02  0.1185321E+00
          2   -1    0    0  501    0  0.00000000000E+00  0.00000000000E+00  0.71530656199E+03  0.71530656199E+03  0.00000000000E+00 0. -1.
         -2   -1    0    0    0  501 -0.00000000000E+00 -0.00000000000E+00 -0.51527475210E+02  0.51527475210E+02  0.00000000000E+00 0.  1.
         25    2    1    2    0    0 -0.10082107393E+03 -0.11590624561E+03  0.43061333463E+03  0.47400101345E+03  0.12509984038E+03 0.  0.
          5    1    3    3  502    0  0.13049181364E+02 -0.11541855150E+02  0.17061264746E+03  0.17155070221E+03  0.41800000000E+01 0.  1.
         -5    1    3    3    0  502 -0.11387025530E+03 -0.10436439046E+03  0.26000068717E+03  0.30245031124E+03  0.41800000000E+01 0.  1.
        -11    1    1    2    0    0  0.36863268261E+02  0.42542030591E+02  0.16410715160E+03  0.17349317600E+03  0.00000000000E+00 0. -1.
         11    1    1    2    0    0  0.63957805672E+02  0.73364215018E+02  0.69058600547E+02  0.11933984775E+03  0.00000000000E+00 0.  1.
</event>
<event>
 7    1  0.2499014E-009  0.8400641E+02  0.7561462E-02  0.1318052E+00
         -1   -1    0    0    0  501 -0.00000000000E+00  0.00000000000E+00  0.15392323232E+03  0.15392323232E+03  0.00000000000E+00 0.  1.
          1   -1    0    0  501    0  0.00000000000E+00 -0.00000000000E+00 -0.89814796756E+02  0.89814796756E+02  0.00000000000E+00 0. -1.
         25    2    1    2    0    0 -0.11877812114E+02 -0.28875754619E+02 -0.16533121864E+01  0.12893918780E+03  0.12509072341E+03 0.  0.
          5    1    3    3  502    0  0.21637213913E+02  0.93255484505E+01  0.50572926598E+02  0.55948442199E+02  0.41800000000E+01 0. -1.
         -5    1    3    3    0  502 -0.33515026026E+02 -0.38201303070E+02 -0.52226238784E+02  0.72990745600E+02  0.41800000000E+01 0. -1.
        -11    1    1    2    0    0 -0.28548033394E+02 -0.15973524600E+02  0.31308569343E+02  0.45281013826E+02  0.00000000000E+00 0. -1.
         11    1    1    2    0    0  0.40425845507E+02  0.44849279219E+02  0.34453178412E+02  0.69517827456E+02  0.00000000000E+00 0.  1.
</event>
<event>
 7    1  0.2499014E-009  0.1075348E+03  0.7561462E-02  0.1265204E+00
          1   -1    0    0  501    0  0.00000000000E+00  0.00000000000E+00  0.62713044809E+03  0.62713044809E+03  0.00000000000E+00 0. -1.
         -1   -1    0    0    0  501 -0.00000000000E+00 -0.00000000000E+00 -0.33715681009E+02  0.33715681009E+02  0.00000000000E+00 0.  1.
         25    2    1    2    0    0 -0.57278908397E+02 -0.11584321742E+02  0.49817865300E+03  0.51695670480E+03  0.12508874640E+03 0.  0.
          5    1    3    3  502    0 -0.45256985262E+02 -0.67084549819E+02  0.30192628752E+03  0.31261075963E+03  0.41800000000E+01 0.  1.
         -5    1    3    3    0  502 -0.12021923135E+02  0.55500228076E+02  0.19625236548E+03  0.20434594518E+03  0.41800000000E+01 0.  1.
        -11    1    1    2    0    0 -0.57735884036E+01  0.12791129128E+02  0.76962059332E+02  0.78231105604E+02  0.00000000000E+00 0. -1.
         11    1    1    2    0    0  0.63052496801E+02 -0.12068073853E+01  0.18274054749E+02  0.65658318695E+02  0.00000000000E+00 0.  1.
</event>
<event>
 7    1  0.2499014E-009  0.1889143E+03  0.7561462E-02  0.1159444E+00
         -2   -1    0    0    0  501 -0.00000000000E+00  0.00000000000E+00  0.32993253667E+02  0.32993253667E+02  0.00000000000E+00 0.  1.
          2   -1    0    0  501    0  0.00000000000E+00 -0.00000000000E+00 -0.27150933277E+04  0.27150933277E+04  0.00000000000E+00 0. -1.
         25    2    1    2    0    0 -0.18110205957E+03 -0.88476179935E+01 -0.23432737618E+04  0.23536046230E+04  0.12508621977E+03 0.  0.
          5    1    3    3  502    0 -0.15928302528E+03 -0.10414001265E+02 -0.22937780872E+04  0.22993292325E+04  0.41800000000E+01 0. -1.
         -5    1    3    3    0  502 -0.21819034283E+02  0.15663832713E+01 -0.49495674558E+02  0.54275390496E+02  0.41800000000E+01 0. -1.
        -11    1    1    2    0    0  0.86565342103E+02  0.41320221390E+02 -0.21438694234E+03  0.23486736724E+03  0.00000000000E+00 0. -1.
         11    1    1    2    0    0  0.94536717462E+02 -0.32472603396E+02 -0.12443936991E+03  0.15961459114E+03  0.00000000000E+00 0.  1.
</event>
<event>
 7    1  0.2499014E-009  0.9640547E+02  0.7561462E-02  0.1288042E+00
         -1   -1    0    0    0  501 -0.00000000000E+00  0.00000000000E+00  0.35672052199E+02  0.35672052199E+02  0.00000000000E+00 0.  1.
          1   -1    0    0  501    0  0.00000000000E+00 -0.00000000000E+00 -0.37825780254E+03  0.37825780254E+03  0.00000000000E+00 0. -1.
         25    2    1    2    0    0  0.94863385120E+01 -0.20908280644E+02 -0.25968521143E+03  0.28915336120E+03  0.12508441327E+03 0.  0.
          5    1    3    3  502    0  0.63137913678E+02  0.79453657983E+01 -0.10496154037E+03  0.12281662077E+03  0.41800000000E+01 0. -1.
         -5    1    3    3    0  502 -0.53651575166E+02 -0.28853646442E+02 -0.15472367106E+03  0.16633674043E+03  0.41800000000E+01 0. -1.
        -11    1    1    2    0    0  0.22346416810E+02 -0.91948269362E+01  0.66674796615E+01  0.25067159226E+02  0.00000000000E+00 0.  1.
         11    1    1    2    0    0 -0.31832755322E+02  0.30103107580E+02 -0.89568018576E+02  0.99709334312E+02  0.00000000000E+00 0. -1.
</event>
<event>
 7    1  0.2499014E-009  0.1122356E+03  0.7561462E-02  0.1256485E+00
          2   -1    0    0  501    0  0.00000000000E+00  0.00000000000E+00  0.12212792855E+04  0.12212792855E+04  0.00000000000E+00 0. -1.
         -2   -1    0    0    0  501 -0.00000000000E+00 -0.00000000000E+00 -0.12682902033E+02  0.12682902033E+02  0.00000000000E+00 0.  1.
         25    2    1    2    0    0  0.31327967314E+02  0.30366128799E+02  0.88313472111E+03  0.89301552558E+03  0.12508497107E+03 0.  0.
          5    1    3    3  502    0  0.13513138523E+02  0.74975965534E+02  0.38056481664E+03  0.38813792959E+03  0.41800000000E+01 0.  1.
         -5    1    3    3    0  502  0.17814828791E+02 -0.44609836735E+02  0.50256990447E+03  0.50487759599E+03  0.41800000000E+01 0.  1.
        -11    1    1    2    0    0 -0.39193511281E+02 -0.58682360135E+02  0.19984784638E+03  0.21194082292E+03  0.00000000000E+00 0. -1.
         11    1    1    2    0    0  0.78655439673E+01  0.28316231336E+02  0.12561381593E+03  0.12900583899E+03  0.00000000000E+00 0.  1.
</event>
<event>
 7    1  0.2499014E-009  0.1625586E+03  0.7561462E-02  0.1185838E+00
          2   -1    0    0  501    0  0.00000000000E+00  0.00000000000E+00  0.32173107433E+03  0.32173107433E+03  0.00000000000E+00 0. -1.
         -2   -1    0    0    0  501 -0.00000000000E+00 -0.00000000000E+00 -0.10391237653E+03  0.10391237653E+03  0.00000000000E+00 0.  1.
         25    2    1    2    0    0 -0.85661592643E+02  0.87406984990E+02  0.21316365121E+02  0.17629580419E+03  0.12509170106E+03 0.  0.
          5    1    3    3  502    0 -0.42087090445E+02  0.11521019296E+03  0.20521311574E+02  0.12443194274E+03  0.41800000000E+01 0. -1.
         -5    1    3    3    0  502 -0.43574502198E+02 -0.27803207971E+02  0.79505354665E+00  0.51863861459E+02  0.41800000000E+01 0. -1.
        -11    1    1    2    0    0 -0.11494855633E+02 -0.41523563387E+02  0.35711700028E+02  0.55961268224E+02  0.00000000000E+00 0.  1.
         11    1    1    2    0    0  0.97156448277E+02 -0.45883421603E+02  0.16079063265E+03  0.19338637844E+03  0.00000000000E+00 0. -1.
</event>
<event>
 7    1  0.2499014E-009  0.9074759E+02  0.7561462E-02  0.1301051E+00
          2   -1    0    0  501    0  0.00000000000E+00  0.00000000000E+00  0.14640373766E+03  0.14640373766E+03  0.00000000000E+00 0. -1.
         -2   -1    0    0    0  501 -0.00000000000E+00 -0.00000000000E+00 -0.90611736235E+02  0.90611736235E+02  0.00000000000E+00 0.  1.
         25    2    1    2    0    0 -0.22698573914E+02  0.25197595800E+02  0.14395099704E+02  0.13039921075E+03  0.12508633489E+03 0.  0.
          5    1    3    3  502    0  0.66845668585E+01 -0.46653829793E+02  0.22207941855E+02  0.52267851973E+02  0.41800000000E+01 0.  1.
         -5    1    3    3    0  502 -0.29383140773E+02  0.71851425593E+02 -0.78128421512E+01  0.78131358775E+02  0.41800000000E+01 0.  1.
        -11    1    1    2    0    0  0.77371572043E+01  0.13161127499E+02  0.59654107429E+02  0.61576711603E+02  0.00000000000E+00 0. -1.
         11    1    1    2    0    0  0.14961416710E+02 -0.38358723300E+02 -0.18257205707E+02  0.45039551545E+02  0.00000000000E+00 0.  1.
</event>
<event>
 7    1  0.2499014E-009  0.8879082E+02  0.7561462E-02  0.1305807E+00
          1   -1    0    0  501    0  0.00000000000E+00  0.00000000000E+00  0.39154709233E+03  0.39154709233E+03  0.00000000000E+00 0. -1.
         -1   -1    0    0    0  501 -0.00000000000E+00 -0.00000000000E+00 -0.47884348599E+02  0.47884348599E+02  0.00000000000E+00 0.  1.
         25    2    1    2    0    0  0.55341745942E+02  0.62615667698E+02  0.20330080710E+03  0.25290306812E+03  0.12508122566E+03 0.  0.
          5    1    3    3  502    0  0.61588077715E+02  0.59523127416E+02  0.49754257612E+02  0.99141578384E+02  0.41800000000E+01 0.  1.
         -5    1    3    3    0  502 -0.62463317734E+01  0.30925402813E+01  0.15354654949E+03  0.15376148974E+03  0.41800000000E+01 0.  1.
        -11    1    1    2    0    0 -0.33750957061E+02 -0.34649875843E+02  0.73768863314E+01  0.48930148686E+02  0.00000000000E+00 0.  1.
         11    1    1    2    0    0 -0.21590788881E+02 -0.27965791854E+02  0.13298505030E+03  0.13759822412E+03  0.00000000000E+00 0. -1.
</event>
<event>
 7    1  0.2925233E-009  0.1133429E+03  0.7561462E-02  0.1254502E+00
          3   -1    0    0  501    0  0.00000000000E+00  0.00000000000E+00  0.83939332605E+03  0.83939332605E+03  0.00000000000E+00 0. -1.
         -3   -1    0    0    0  501 -0.00000000000E+00 -0.00000000000E+00 -0.16843113939E+02  0.16843113939E+02  0.00000000000E+00 0.  1.
         25    2    1    2    0    0 -0.45768442609E+01  0.47914174094E+02  0.48619708635E+03  0.50433276272E+03  0.12508882124E+03 0.  0.
          5    1    3    3  502    0 -0.30840363569E+02  0.83732309138E+02  0.33281095427E+03  0.34459081720E+03  0.41800000000E+01 0.  1.
         -5    1    3    3    0  502  0.26263519309E+02 -0.35818135044E+02  0.15338613208E+03  0.15974194552E+03  0.41800000000E+01 0.  1.
        -11    1    1    2    0    0  0.32519589917E+02  0.50043042231E+01  0.53645435047E+02  0.62931704970E+02  0.00000000000E+00 0.  1.
         11    1    1    2    0    0 -0.27942745656E+02 -0.52918478317E+02  0.28270769072E+03  0.28897197230E+03  0.00000000000E+00 0. -1.
</event>
<event>
 7    1  0.2499014E-009  0.2586232E+03  0.7561462E-02  0.1107973E+00
          1   -1    0    0  501    0  0.00000000000E+00  0.00000000000E+00  0.32752371606E+03  0.32752371606E+03  0.00000000000E+00 0. -1.
         -1   -1    0    0    0  501 -0.00000000000E+00 -0.00000000000E+00 -0.23064725121E+03  0.23064725121E+03  0.00000000000E+00 0.  1.
         25    2    1    2    0    0 -0.11065452181E+03 -0.22436744330E+03  0.17662970644E+02  0.28025862546E+03  0.12509094213E+03 0.  0.
          5    1    3    3  502    0 -0.18648918797E+02 -0.24430123136E+02 -0.41975709002E+02  0.52192390585E+02  0.41800000000E+01 0.  1.
         -5    1    3    3    0  502 -0.92005603015E+02 -0.19993732016E+03  0.59638679646E+02  0.22806623487E+03  0.41800000000E+01 0.  1.
        -11    1    1    2    0    0  0.83275550316E+02  0.68455140410E+02  0.38424252550E+02  0.11444363990E+03  0.00000000000E+00 0.  1.
         11    1    1    2    0    0  0.27378971496E+02  0.15591230289E+03  0.40789241648E+02  0.16346870192E+03  0.00000000000E+00 0. -1.
</event>
<event>
 7    1  0.2499014E-009  0.6785504E+02  0.7561462E-02  0.1367543E+00
         -2   -1    0    0    0  501 -0.00000000000E+00  0.00000000000E+00  0.30594393536E+02  0.30594393536E+02  0.00000000000E+00 0.  1.
          2   -1    0    0  501    0  0.00000000000E+00 -0.00000000000E+00 -0.47448068367E+03  0.47448068367E+03  0.00000000000E+00 0. -1.
         25    2    1    2    0    0  0.11827675305E+02  0.31238159222E+02 -0.16452710204E+03  0.20936047914E+03  0.12508767495E+03 0.  0.
          5    1    3    3  502    0  0.19473854439E+02  0.15295164756E+02  0.14777324738E+02  0.29137858501E+02  0.41800000000E+01 0. -1.
         -5    1    3    3    0  502 -0.76461791338E+01  0.15942994465E+02 -0.17930442678E+03  0.18022262064E+03  0.41800000000E+01 0. -1.
        -11    1    1    2    0    0  0.23208416802E+02  0.19810102982E+02 -0.13894124562E+03  0.14225238319E+03  0.00000000000E+00 0.  1.
         11    1    1    2    0    0 -0.35036092107E+02 -0.51048262204E+02 -0.14041794248E+03  0.15346221488E+03  0.00000000000E+00 0. -1.
</event>
<event>
 7    1  0.2499014E-009  0.1616102E+03  0.7561462E-02  0.1186891E+00
         -1   -1    0    0    0  501 -0.00000000000E+00  0.00000000000E+00  0.55708857791E+03  0.55708857791E+03  0.00000000000E+00 0.  1.
          1   -1    0    0  501    0  0.00000000000E+00 -0.00000000000E+00 -0.82367999477E+02  0.82367999477E+02  0.00000000000E+00 0. -1.
         25    2    1    2    0    0  0.82299447811E+02  0.12062584964E+03  0.41567801190E+03  0.45799448677E+03  0.12508775168E+03 0.  0.
          5    1    3    3  502    0  0.82062220278E+02  0.80534348453E+02  0.14881696528E+03  0.18810622221E+03  0.41800000000E+01 0.  1.
         -5    1    3    3    0  502  0.23722753295E+00  0.40091501190E+02  0.26686104662E+03  0.26988826456E+03  0.41800000000E+01 0.  1.
        -11    1    1    2    0    0 -0.38929700153E+02  0.77947911699E+00 -0.16464175652E+01  0.38972295705E+02  0.00000000000E+00 0. -1.
         11    1    1    2    0    0 -0.43369747658E+02 -0.12140532876E+03  0.60688984092E+02  0.14248979491E+03  0.00000000000E+00 0.  1.
</event>
<event>
 7    1  0.2499014E-009  0.1051212E+03  0.7561462E-02  0.1269881E+00
          1   -1    0    0  501    0  0.00000000000E+00  0.00000000000E+00  0.43871682278E+02  0.43871682278E+02  0.00000000000E+00 0. -1.
         -1   -1    0    0    0  501 -0.00000000000E+00 -0.00000000000E+00 -0.27261563372E+03  0.27261563372E+03  0.00000000000E+00 0.  1.
         25    2    1    2    0    0  0.85817072291E+01 -0.12373915719E+02 -0.12441139878E+03  0.17706842866E+03  0.12509305654E+03 0.  0.
          5    1    3    3  502    0 -0.54999991602E+02 -0.16817589986E+02 -0.82560322573E+02  0.10070506279E+03  0.41800000000E+01 0.  1.
         -5    1    3    3    0  502  0.63581698831E+02  0.44436742679E+01 -0.41851076205E+02  0.76363365869E+02  0.41800000000E+01 0.  1.
        -11    1    1    2    0    0  0.39559238496E+02  0.31300244032E+01 -0.66728526682E+02  0.77636503504E+02  0.00000000000E+00 0.  1.
         11    1    1    2    0    0 -0.48140945725E+02  0.92438913153E+01 -0.37604025985E+02  0.61782383834E+02  0.00000000000E+00 0. -1.
</event>
<event>
 7    1  0.2499014E-009  0.6441910E+02  0.7561462E-02  0.1380170E+00
         -4   -1    0    0    0  501 -0.00000000000E+00  0.00000000000E+00  0.30369367001E+03  0.30369367001E+03  0.00000000000E+00 0.  1.
          4   -1    0    0  501    0  0.00000000000E+00 -0.00000000000E+00 -0.42209155661E+02  0.42209155661E+02  0.00000000000E+00 0. -1.
         25    2    1    2    0    0 -0.61637000707E+01  0.45969618160E+01  0.20146418270E+03  0.23726565653E+03  0.12509217244E+03 0.  0.
          5    1    3    3  502    0  0.10570852256E+02  0.34102304316E+02  0.19984272563E+03  0.20304998760E+03  0.41800000000E+01 0.  1.
         -5    1    3    3    0  502 -0.16734552326E+02 -0.29505342500E+02  0.16214570640E+01  0.34215668934E+02  0.41800000000E+01 0.  1.
        -11    1    1    2    0    0  0.31895090288E+02  0.25834959647E+01 -0.10136169687E+02  0.33566548405E+02  0.00000000000E+00 0. -1.
         11    1    1    2    0    0 -0.25731390217E+02 -0.71804577807E+01  0.70156501343E+02  0.75070620733E+02  0.00000000000E+00 0.  1.
</event>
<event>
 7    1  0.2499014E-009  0.8116832E+02  0.7561462E-02  0.1325768E+00
         -3   -1    0    0    0  501 -0.00000000000E+00  0.00000000000E+00  0.65121735079E+02  0.65121735079E+02  0.00000000000E+00 0.  1.
          3   -1    0    0  501    0  0.00000000000E+00 -0.00000000000E+00 -0.27004916176E+03  0.27004916176E+03  0.00000000000E+00 0. -1.
         25    2    1    2    0    0 -0.61016185285E+02  0.12326451520E+01 -0.61532333323E+02  0.15217950028E+03  0.12509147845E+03 0.  0.
          5    1    3    3  502    0 -0.39109655085E+02 -0.38886377276E+02  0.19834337743E+02  0.58758733923E+02  0.41800000000E+01 0. -1.
         -5    1    3    3    0  502 -0.21906530201E+02  0.40119022428E+02 -0.81366671066E+02  0.93420766355E+02  0.41800000000E+01 0. -1.
        -11    1    1    2    0    0  0.30320660034E+02  0.11093538781E+01  0.55963985540E+01  0.30852759483E+02  0.00000000000E+00 0.  1.
         11    1    1    2    0    0  0.30695525251E+02 -0.23419990300E+01 -0.14899149191E+03  0.15213863708E+03  0.00000000000E+00 0. -1.
</event>
<event>
 7    1  0.2499014E-009  0.1389201E+03  0.7561462E-02  0.1214789E+00
         -1   -1    0    0    0  501 -0.00000000000E+00  0.00000000000E+00  0.38720870596E+02  0.38720870596E+02  0.00000000000E+00 0.  1.
          1   -1    0    0  501    0  0.00000000000E+00 -0.00000000000E+00 -0.59632517215E+03  0.59632517215E+03  0.00000000000E+00 0. -1.
         25    2    1    2    0    0 -0.73836007496E+02 -0.66137284275E+02 -0.21884020415E+03  0.27085895560E+03  0.12509053722E+03 0.  0.
          5    1    3    3  502    0 -0.49262038016E+01  0.29042517966E+02 -0.97319014746E+02  0.10176540849E+03  0.41800000000E+01 0.  1.
         -5    1    3    3    0  502 -0.68909803694E+02 -0.95179802241E+02 -0.12152118940E+03  0.16909354711E+03  0.41800000000E+01 0.  1.
        -11    1    1    2    0    0 -0.16915581169E+02  0.26586543787E+02 -0.51849353857E+02  0.60674019911E+02  0.00000000000E+00 0. -1.
         11    1    1    2    0    0  0.90751588665E+02  0.39550740488E+02 -0.28691474354E+03  0.30351306723E+03  0.00000000000E+00 0.  1.
</event>
<event>
 7    1  0.2499014E-009  0.1657226E+03  0.7561462E-02  0.1182383E+00
         -2   -1    0    0    0  501 -0.00000000000E+00  0.00000000000E+00  0.31343614968E+02  0.31343614968E+02  0.00000000000E+00 0.  1.
          2   -1    0    0  501    0  0.00000000000E+00 -0.00000000000E+00 -0.94735008488E+03  0.94735008488E+03  0.00000000000E+00 0. -1.
         25    2    1    2    0    0  0.59340954129E+02  0.11184781030E+03 -0.59962744100E+03  0.62548551038E+03  0.12509106357E+03 0.  0.
          5    1    3    3  502    0  0.66747926622E+01 -0.25866389772E+02 -0.55738133231E+02  0.61950261283E+02  0.41800000000E+01 0.  1.
         -5    1    3    3    0  502  0.52666161466E+02  0.13771420007E+03 -0.54388930777E+03  0.56353524909E+03  0.41800000000E+01 0.  1.
        -11    1    1    2    0    0 -0.84690138977E+02 -0.86637973249E+02 -0.25018430566E+03  0.27797615877E+03  0.00000000000E+00 0. -1.
         11    1    1    2    0    0  0.25349184848E+02 -0.25209837050E+02 -0.66194723251E+02  0.75232030697E+02  0.00000000000E+00 0.  1.
</event>
<event>
 7    1  0.2711493E-009  0.1957762E+03  0.7561462E-02  0.1153352E+00
          2   -1    0    0  501    0  0.00000000000E+00  0.00000000000E+00  0.10820468418E+04  0.10820468418E+04  0.00000000000E+00 0. -1.
         -2   -1    0    0    0  501 -0.00000000000E+00 -0.00000000000E+00 -0.40381540852E+02  0.40381540852E+02  0.00000000000E+00 0.  1.
         25    2    1    2    0    0  0.87056505889E+02  0.15573935292E+03  0.53307967814E+03  0.57589582193E+03  0.12509385755E+03 0.  0.
          5    1    3    3  502    0  0.12145997343E+02 -0.13791673016E+02  0.10875874585E+02  0.21759883824E+02  0.41800000000E+01 0.  1.
         -5    1    3    3    0  502  0.74910508546E+02  0.16953102594E+03  0.52220380356E+03  0.55413593810E+03  0.41800000000E+01 0.  1.
        -11    1    1    2    0    0 -0.12692803308E+02 -0.80618028438E+02  0.32103351532E+03  0.33124445915E+03  0.00000000000E+00 0. -1.
         11    1    1    2    0    0 -0.74363702581E+02 -0.75121324485E+02  0.18755210748E+03  0.21528810156E+03  0.00000000000E+00 0.  1.
</event>
<event>
 7    1  0.2499014E-009  0.1047482E+03  0.7561462E-02  0.1270617E+00
          2   -1    0    0  501    0  0.00000000000E+00  0.00000000000E+00  0.13189232997E+03  0.13189232997E+03  0.00000000000E+00 0. -1.
         -2   -1    0    0    0  501 -0.00000000000E+00 -0.00000000000E+00 -0.10342852914E+03  0.10342852914E+03  0.00000000000E+00 0.  1.
         25    2    1    2    0    0  0.36069018100E+02  0.14303149448E+02 -0.39991321015E+01  0.13102931091E+03  0.12508850111E+03 0.  0.
          5    1    3    3  502    0 -0.35176260519E+02  0.16602704313E+02 -0.35646006255E+02  0.52925695617E+02  0.41800000000E+01 0. -1.
         -5    1    3    3    0  502  0.71245278619E+02 -0.22995548656E+01  0.31646874154E+02  0.78103615293E+02  0.41800000000E+01 0. -1.
        -11    1    1    2    0    0 -0.50093985881E+02  0.25898090592E+02  0.21239066830E+02  0.60259575816E+02  0.00000000000E+00 0.  1.
         11    1    1    2    0    0  0.14024967781E+02 -0.40201240040E+02  0.11223866097E+02  0.44031972386E+02  0.00000000000E+00 0. -1.
</event>
<event>
 7    1  0.2499014E-009  0.1583596E+03  0.7561462E-02  0.1190561E+00
          1   -1    0    0  501    0  0.00000000000E+00  0.00000000000E+00  0.18404084180E+03  0.18404084180E+03  0.00000000000E+00 0. -1.
         -1   -1    0    0    0  501 -0.00000000000E+00 -0.00000000000E+00 -0.15440340544E+03  0.15440340544E+03  0.00000000000E+00 0.  1.
         25    2    1    2    0    0  0.12689858176E+03 -0.15599585798E+00  0.35233521604E+02  0.18164559242E+03  0.12510174184E+03 0.  0.
          5    1    3    3  502    0  0.28410860956E+02 -0.44033673855E+02  0.50227953712E+02  0.72708054488E+02  0.41800000000E+01 0. -1.
         -5    1    3    3    0  502  0.98487720806E+02  0.43877677997E+02 -0.14994432108E+02  0.10893753793E+03  0.41800000000E+01 0. -1.
        -11    1    1    2    0    0 -0.13827588133E+03 -0.12964323582E+02 -0.87112912937E+01  0.13915523576E+03  0.00000000000E+00 0.  1.
         11    1    1    2    0    0  0.11377299565E+02  0.13120319440E+02  0.31152060534E+01  0.17643419067E+02  0.00000000000E+00 0. -1.
</event>
<event>
 7    1  0.2499014E-009  0.3532038E+03  0.7561462E-02  0.1061308E+00
          1   -1    0    0  501    0  0.00000000000E+00  0.00000000000E+00  0.13664329212E+04  0.13664329212E+04  0.00000000000E+00 0. -1.
         -1   -1    0    0    0  501 -0.00000000000E+00 -0.00000000000E+00 -0.11866720144E+03  0.11866720144E+03  0.00000000000E+00 0.  1.
         25    2    1    2    0    0 -0.14696164029E+03  0.30947825975E+03  0.96409013316E+03  0.10307723379E+04  0.12508921080E+03 0.  0.
          5    1    3    3  502    0  0.10756321620E+02  0.15659134244E+02  0.14328527977E+02  0.24159595486E+02  0.41800000000E+01 0.  1.
         -5    1    3    3    0  502 -0.15771796191E+03  0.29381912551E+03  0.94976160518E+03  0.10066127424E+04  0.41800000000E+01 0.  1.
        -11    1    1    2    0    0  0.58941840882E+02 -0.22071719496E+03  0.20248488393E+03  0.30527094355E+03  0.00000000000E+00 0.  1.
         11    1    1    2    0    0  0.88019799411E+02 -0.88761064792E+02  0.81190702655E+02  0.14905684120E+03  0.00000000000E+00 0. -1.
</event>
<event>
 7    1  0.3665721E-009  0.1243781E+03  0.7561462E-02  0.1236044E+00
          1   -1    0    0  501    0  0.00000000000E+00  0.00000000000E+00  0.12646857002E+04  0.12646857002E+04  0.00000000000E+00 0. -1.
         -1   -1    0    0    0  501 -0.00000000000E+00 -0.00000000000E+00 -0.19766435911E+02  0.19766435911E+02  0.00000000000E+00 0.  1.
         25    2    1    2    0    0  0.33618441042E+02 -0.92078888390E+02  0.91368556569E+03  0.92740275738E+03  0.12508333293E+03 0.  0.
          5    1    3    3  502    0  0.36629842891E+02 -0.99818587303E+02  0.91170863714E+03  0.91789738380E+03  0.41800000000E+01 0. -1.
         -5    1    3    3    0  502 -0.30114018481E+01  0.77396989127E+01  0.19769285552E+01  0.95053735783E+01  0.41800000000E+01 0. -1.
        -11    1    1    2    0    0  0.30074884788E+02  0.43776714669E+02  0.14304020684E+03  0.15258243744E+03  0.00000000000E+00 0.  1.
         11    1    1    2    0    0 -0.63693325831E+02  0.48302173721E+02  0.18819349177E+03  0.20446694130E+03  0.00000000000E+00 0. -1.
</event>
<event>
 7    1  0.2499014E-009  0.1282396E+03  0.7561462E-02  0.1230091E+00
         -2   -1    0    0    0  501 -0.00000000000E+00  0.00000000000E+00  0.12573993395E+03  0.12573993395E+03  0.00000000000E+00 0.  1.
          2   -1    0    0  501    0  0.00000000000E+00 -0.00000000000E+00 -0.24288365672E+03  0.24288365672E+03  0.00000000000E+00 0. -1.
         25    2    1    2    0    0 -0.24248452091E+02  0.10585620997E+03  0.25452160320E+02  0.16759725616E+03  0.12508998037E+03 0.  0.
          5    1    3    3  502    0 -0.41844746844E+02  0.82684278888E+02  0.68610220304E+02  0.11537984028E+03  0.41800000000E+01 0. -1.
         -5    1    3    3    0  502  0.17596294753E+02  0.23171931086E+02 -0.43158059985E+02  0.52217415878E+02  0.41800000000E+01 0. -1.
        -11    1    1    2    0    0 -0.28297411955E+02 -0.51221497359E+02 -0.31285726555E+02  0.66356476708E+02  0.00000000000E+00 0. -1.
         11    1    1    2    0    0  0.52545864045E+02 -0.54634712615E+02 -0.11131015653E+03  0.13466985779E+03  0.00000000000E+00 0.  1.
</event>
<event>
 7    1  0.2499014E-009  0.9684220E+02  0.7561462E-02  0.1287080E+00
         -1   -1    0    0    0  501 -0.00000000000E+00  0.00000000000E+00  0.56502494515E+02  0.56502494515E+02  0.00000000000E+00 0.  1.
          1   -1    0    0  501    0  0.00000000000E+00 -0.00000000000E+00 -0.24760599683E+03  0.24760599683E+03  0.00000000000E+00 0. -1.
         25    2    1    2    0    0 -0.37682584809E+02  0.13803203282E+02 -0.73697538508E+02  0.15062502736E+03  0.12508423588E+03 0.  0.
          5    1    3    3  502    0 -0.74536206414E+02  0.17189984384E+02 -0.82262379369E+02  0.11240868778E+03  0.41800000000E+01 0. -1.
         -5    1    3    3    0  502  0.36853621605E+02 -0.33867811028E+01  0.85648408614E+01  0.38216339576E+02  0.41800000000E+01 0. -1.
        -11    1    1    2    0    0  0.54417846018E+02 -0.24806048722E+02 -0.11921376200E+03  0.13337377205E+03  0.00000000000E+00 0. -1.
         11    1    1    2    0    0 -0.16735261209E+02  0.11002845441E+02  0.18077981983E+01  0.20109691938E+02  0.00000000000E+00 0.  1.
</event>
<event>
 7    1  0.2499014E-009  0.1055319E+03  0.7561462E-02  0.1269075E+00
         -1   -1    0    0    0  501 -0.00000000000E+00  0.00000000000E+00  0.36070707010E+02  0.36070707010E+02  0.00000000000E+00 0.  1.
          1   -1    0    0  501    0  0.00000000000E+00 -0.00000000000E+00 -0.40963449889E+03  0.40963449889E+03  0.00000000000E+00 0. -1.
         25    2    1    2    0    0 -0.23470998593E+02  0.43811892097E+02 -0.25279362838E+03  0.28639458153E+03  0.12508744188E+03 0.  0.
          5    1    3    3  502    0  0.11655890976E+02  0.78703794218E+02 -0.11488158282E+03  0.13980485503E+03  0.41800000000E+01 0. -1.
         -5    1    3    3    0  502 -0.35126889569E+02 -0.34891902121E+02 -0.13791204556E+03  0.14658972650E+03  0.41800000000E+01 0. -1.
        -11    1    1    2    0    0  0.46215382934E+02 -0.29830205390E+02 -0.25981348391E+02  0.60833652179E+02  0.00000000000E+00 0.  1.
         11    1    1    2    0    0 -0.22744384340E+02 -0.13981686707E+02 -0.94788815112E+02  0.98476972194E+02  0.00000000000E+00 0. -1.
</event>
<event>
 7    1  0.2499014E-009  0.1114146E+03  0.7561462E-02  0.1257972E+00
          2   -1    0    0  501    0  0.00000000000E+00  0.00000000000E+00  0.18256041400E+03  0.18256041400E+03  0.00000000000E+00 0. -1.
         -2   -1    0    0    0  501 -0.00000000000E+00 -0.00000000000E+00 -0.15360783785E+03  0.15360783785E+03  0.00000000000E+00 0.  1.
         25    2    1    2    0    0  0.51191891949E+02  0.70704465818E+01  0.13207077423E+03  0.18910656424E+03  0.12509197502E+03 0.  0.
          5    1    3    3  502    0 -0.23673360967E+02 -0.35844579511E+02  0.71775694841E+02  0.83752520378E+02  0.41800000000E+01 0. -1.
         -5    1    3    3    0  502  0.74865252916E+02  0.42915026093E+02  0.60295079394E+02  0.10535404386E+03  0.41800000000E+01 0. -1.
        -11    1    1    2    0    0 -0.69675593142E+02  0.70273142947E+01 -0.10208049540E+03  0.12379216036E+03  0.00000000000E+00 0.  1.
         11    1    1    2    0    0  0.18483701193E+02 -0.14097760877E+02 -0.10377026885E+01  0.23269527249E+02  0.00000000000E+00 0. -1.
</event>
<event>
 7    1  0.2499014E-009  0.8728284E+02  0.7561462E-02  0.1309568E+00
         -2   -1    0    0    0  501 -0.00000000000E+00  0.00000000000E+00  0.49038253374E+02  0.49038253374E+02  0.00000000000E+00 0.  1.
          2   -1    0    0  501    0  0.00000000000E+00 -0.00000000000E+00 -0.36807133481E+03  0.36807133481E+03  0.00000000000E+00 0. -1.
         25    2    1    2    0    0 -0.19098861924E+01  0.54366463595E+02 -0.86553513383E+02  0.16154595388E+03  0.12508486921E+03 0.  0.
          5    1    3    3  502    0 -0.15267664292E+02  0.57473194347E+02  0.12959318960E+02  0.61005622604E+02  0.41800000000E+01 0. -1.
         -5    1    3    3    0  502  0.13357778099E+02 -0.31067307523E+01 -0.99512832342E+02  0.10054033127E+03  0.41800000000E+01 0. -1.
        -11    1    1    2    0    0 -0.23358600526E+02 -0.68002319189E+02 -0.19824833476E+03  0.21088466485E+03  0.00000000000E+00 0.  1.
         11    1    1    2    0    0  0.25268486719E+02  0.13635855594E+02 -0.34231233286E+02  0.44678969450E+02  0.00000000000E+00 0. -1.
</event>
<event>
 7    1  0.2499014E-009  0.7485341E+02  0.7561462E-02  0.1344326E+00
          2   -1    0    0  501    0  0.00000000000E+00  0.00000000000E+00  0.18223408266E+03  0.18223408266E+03  0.00000000000E+00 0.  1.
         -2   -1    0    0    0  501 -0.00000000000E+00 -0.00000000000E+00 -0.84240976315E+02  0.84240976315E+02  0.00000000000E+00 0. -1.
         25    2    1    2    0    0  0.36235161130E+02 -0.15626868794E+02  0.39420732900E+01  0.13122651394E+03  0.12509065548E+03 0.  0.
          5    1    3    3  502    0  0.25610061087E+02 -0.45370012080E+02  0.51895671436E+02  0.73654235036E+02  0.41800000000E+01 0.  1.
         -5    1    3    3    0  502  0.10625100044E+02  0.29743143286E+02 -0.47953598146E+02  0.57572278908E+02  0.41800000000E+01 0.  1.
        -11    1    1    2    0    0  0.13400625099E+02  0.72730478414E+01 -0.10973532823E+02  0.18785430540E+02  0.00000000000E+00 0. -1.
         11    1    1    2    0    0 -0.49635786229E+02  0.83538209527E+01  0.10502456588E+03  0.11646311449E+03  0.00000000000E+00 0.  1.
</event>
<event>
 7    1  0.2499014E-009  0.9246212E+02  0.7561462E-02  0.1296997E+00
         -3   -1    0    0    0  501 -0.00000000000E+00  0.00000000000E+00  0.62410304903E+03  0.62410304903E+03  0.00000000000E+00 0.  1.
          3   -1    0    0  501    0  0.00000000000E+00 -0.00000000000E+00 -0.27347609939E+02  0.27347609939E+02  0.00000000000E+00 0. -1.
         25    2    1    2    0    0 -0.97292866517E+01 -0.33362878136E+02  0.45109897489E+03  0.46940856683E+03  0.12508547803E+03 0.  0.
          5    1    3    3  502    0 -0.18982304247E+02 -0.60395061178E+02  0.10920739531E+03  0.12629971845E+03  0.41800000000E+01 0. -1.
         -5    1    3    3    0  502  0.92530175949E+01  0.27032183042E+02  0.34189157958E+03  0.34310884839E+03  0.41800000000E+01 0. -1.
        -11    1    1    2    0    0 -0.37648699278E+02  0.67099029936E+01  0.11141704687E+03  0.11779730765E+03  0.00000000000E+00 0.  1.
         11    1    1    2    0    0  0.47377985930E+02  0.26652975143E+02  0.34239417328E+02  0.64244784486E+02  0.00000000000E+00 0. -1.
</event>
<event>
 7    1  0.2499014E-009  0.8089432E+02  0.7561462E-02  0.1326532E+00
          1   -1    0    0  501    0  0.00000000000E+00  0.00000000000E+00  0.68458025550E+03  0.68458025550E+03  0.00000000000E+00 0. -1.
         -1   -1    0    0    0  501 -0.00000000000E+00 -0.00000000000E+00 -0.17223844194E+02  0.17223844194E+02  0.00000000000E+00 0.  1.
         25    2    1    2    0    0 -0.32435155189E+02 -0.10696608051E+02  0.41448466258E+03  0.43429366839E+03  0.12508796174E+03 0.  0.
          5    1    3    3  502    0 -0.51128407370E+02  0.17246851432E+02  0.71668885095E+02  0.89807958530E+02  0.41800000000E+01 0.  1.
         -5    1    3    3    0  502  0.18693252180E+02 -0.27943459483E+02  0.34281577749E+03  0.34448570986E+03  0.41800000000E+01 0.  1.
        -11    1    1    2    0    0 -0.13814007384E+01 -0.24756434019E+02  0.28163832726E+02  0.37523203050E+02  0.00000000000E+00 0.  1.
         11    1    1    2    0    0  0.33816555928E+02  0.35453042070E+02  0.22470791600E+03  0.22998722825E+03  0.00000000000E+00 0. -1.
</event>
<event>
 7    1  0.2499014E-009  0.2000728E+03  0.7561462E-02  0.1149678E+00
         -2   -1    0    0    0  501 -0.00000000000E+00  0.00000000000E+00  0.11262805894E+03  0.11262805894E+03  0.00000000000E+00 0.  1.
          2   -1    0    0  501    0  0.00000000000E+00 -0.00000000000E+00 -0.62138435093E+03  0.62138435093E+03  0.00000000000E+00 0. -1.
         25    2    1    2    0    0  0.10719948713E+03 -0.10820304792E+03 -0.23632715220E+02  0.19850881110E+03  0.12509042024E+03 0.  0.
          5    1    3    3  502    0 -0.10849327391E+02 -0.47918629738E+02 -0.41814370541E+02  0.64651503962E+02  0.41800000000E+01 0. -1.
         -5    1    3    3    0  502  0.11804881452E+03 -0.60284418186E+02  0.18181655321E+02  0.13385730714E+03  0.41800000000E+01 0. -1.
        -11    1    1    2    0    0 -0.68876368329E+01  0.11729475608E+03 -0.33241144314E+03  0.35256611703E+03  0.00000000000E+00 0. -1.
         11    1    1    2    0    0 -0.10031185029E+03 -0.90917081573E+01 -0.15271213363E+03  0.18293748174E+03  0.00000000000E+00 0.  1.
</event>
<event>
 7    1  0.2499014E-009  0.1058424E+03  0.7561462E-02  0.1268469E+00
          1   -1    0    0  501    0  0.00000000000E+00  0.00000000000E+00  0.23253666974E+02  0.23253666974E+02  0.00000000000E+00 0. -1.
         -1   -1    0    0    0  501 -0.00000000000E+00 -0.00000000000E+00 -0.75370033281E+03  0.75370033281E+03  0.00000000000E+00 0.  1.
         25    2    1    2    0    0  0.69176036998E+02 -0.20103091058E+02 -0.33900457191E+03  0.36846141776E+03  0.12510099214E+03 0.  0.
          5    1    3    3  502    0  0.12042694711E+01 -0.39380021779E+02 -0.25743901153E+03  0.26046987050E+03  0.41800000000E+01 0.  1.
         -5    1    3    3    0  502  0.67971767527E+02  0.19276930720E+02 -0.81565560375E+02  0.10799154725E+03  0.41800000000E+01 0.  1.
        -11    1    1    2    0    0 -0.26849233134E+02  0.44840177335E+02 -0.30206123569E+03  0.30654936459E+03  0.00000000000E+00 0.  1.
         11    1    1    2    0    0 -0.42326803864E+02 -0.24737086277E+02 -0.89380858242E+02  0.10194321744E+03  0.00000000000E+00 0. -1.
</event>
<event>
 7    1  0.2499014E-009  0.1105898E+03  0.7561462E-02  0.1259482E+00
         -3   -1    0    0    0  501 -0.00000000000E+00  0.00000000000E+00  0.12125453308E+03  0.12125453308E+03  0.00000000000E+00 0.  1.
          3   -1    0    0  501    0  0.00000000000E+00 -0.00000000000E+00 -0.12909799388E+03  0.12909799388E+03  0.00000000000E+00 0. -1.
         25    2    1    2    0    0  0.45574598435E+02  0.40919275850E+02  0.97376080369E+00  0.13928572261E+03  0.12509249840E+03 0.  0.
          5    1    3    3  502    0  0.76266612236E+02  0.30121974838E+02 -0.36179209085E+02  0.89723670679E+02  0.41800000000E+01 0.  1.
         -5    1    3    3    0  502 -0.30692013801E+02  0.10797301012E+02  0.37152969889E+02  0.49562051933E+02  0.41800000000E+01 0.  1.
        -11    1    1    2    0    0  0.23871117445E+02  0.30654459040E+01 -0.15445156164E+02  0.28596853946E+02  0.00000000000E+00 0. -1.
         11    1    1    2    0    0 -0.69445715880E+02 -0.43984721754E+02  0.66279345605E+01  0.82469950396E+02  0.00000000000E+00 0.  1.
</event>
<event>
 7    1  0.2499014E-009  0.2843650E+03  0.7561462E-02  0.1093328E+00
         -2   -1    0    0    0  501 -0.00000000000E+00  0.00000000000E+00  0.21461019694E+03  0.21461019694E+03  0.00000000000E+00 0.  1.
          2   -1    0    0  501    0  0.00000000000E+00 -0.00000000000E+00 -0.38472497725E+03  0.38472497725E+03  0.00000000000E+00 0. -1.
         25    2    1    2    0    0  0.24290321664E+03 -0.10035997078E+03 -0.46505806668E+02  0.29476413702E+03  0.12509600324E+03 0.  0.
          5    1    3    3  502    0  0.15891846223E+03 -0.12624954131E+03 -0.29221632105E+02  0.20509851414E+03  0.41800000000E+01 0.  1.
         -5    1    3    3    0  502  0.83984754411E+02  0.25889570530E+02 -0.17284174563E+02  0.89665622878E+02  0.41800000000E+01 0.  1.
        -11    1    1    2    0    0 -0.37082652897E+02  0.56045270251E+02 -0.38760811509E+02  0.77579610544E+02  0.00000000000E+00 0. -1.
         11    1    1    2    0    0 -0.20582056375E+03  0.44314700530E+02 -0.84848162132E+02  0.22699142663E+03  0.00000000000E+00 0.  1.
</event>
<event>
 7    1  0.2499014E-009  0.1419697E+03  0.7561462E-02  0.1210703E+00
          1   -1    0    0  501    0  0.00000000000E+00  0.00000000000E+00  0.76754631463E+02  0.76754631463E+02  0.00000000000E+00 0. -1.
         -1   -1    0    0    0  501 -0.00000000000E+00 -0.00000000000E+00 -0.27372120153E+03  0.27372120153E+03  0.00000000000E+00 0.  1.
         25    2    1    2    0    0  0.26270025619E+02 -0.88527591163E+02 -0.73732580453E+02  0.17208037272E+03  0.12509161687E+03 0.  0.
          5    1    3    3  502    0 -0.33869613077E+02  0.13724124507E+02 -0.17187530933E+02  0.40600319002E+02  0.41800000000E+01 0. -1.
         -5    1    3    3    0  502  0.60139638696E+02 -0.10225171567E+03 -0.56545049520E+02  0.13148005372E+03  0.41800000000E+01 0. -1.
        -11    1    1    2    0    0 -0.59027521407E+02  0.46337473744E+02 -0.79890834133E+02  0.10960818918E+03  0.00000000000E+00 0. -1.
         11    1    1    2    0    0  0.32757495788E+02  0.42190117419E+02 -0.43343155483E+02  0.68787271100E+02  0.00000000000E+00 0.  1.
</event>
<event>
 7    1  0.2499014E-009  0.9636110E+02  0.7561462E-02  0.1288140E+00
         -2   -1    0    0    0  501 -0.00000000000E+00  0.00000000000E+00  0.27267294438E+02  0.27267294438E+02  0.00000000000E+00 0.  1.
          2   -1    0    0  501    0  0.00000000000E+00 -0.00000000000E+00 -0.63457672346E+03  0.63457672346E+03  0.00000000000E+00 0. -1.
         25    2    1    2    0    0  0.66376423748E+02  0.24559739527E+02 -0.37473174174E+03  0.40134806137E+03  0.12508947863E+03 0.  0.
          5    1    3    3  502    0 -0.16241023478E+02  0.14861205852E+02 -0.25217155684E+03  0.25316514918E+03  0.41800000000E+01 0.  1.
         -5    1    3    3    0  502  0.82617447226E+02  0.96985336749E+01 -0.12256018490E+03  0.14818291219E+03  0.41800000000E+01 0.  1.
        -11    1    1    2    0    0 -0.53571541738E+01 -0.25441379774E+02 -0.71648053014E+01  0.26968450839E+02  0.00000000000E+00 0.  1.
         11    1    1    2    0    0 -0.61019269574E+02  0.88164024740E+00 -0.22541288198E+03  0.23352750568E+03  0.00000000000E+00 0. -1.
</event>
<event>
 7    1  0.2499014E-009  0.8606590E+02  0.7561462E-02  0.1312668E+00
         -2   -1    0    0    0  501 -0.00000000000E+00  0.00000000000E+00  0.14783334208E+03  0.14783334208E+03  0.00000000000E+00 0. -1.
          2   -1    0    0  501    0  0.00000000000E+00 -0.00000000000E+00 -0.99445996456E+02  0.99445996456E+02  0.00000000000E+00 0.  1.
         25    2    1    2    0    0  0.22736030018E+02 -0.42154045944E+02  0.63605349263E+01  0.13409542335E+03  0.12508891042E+03 0.  0.
          5    1    3    3  502    0  0.47587287126E+02 -0.26649748030E+01  0.50617314885E+02  0.69650821624E+02  0.41800000000E+01 0. -1.
         -5    1    3    3    0  502 -0.24851257109E+02 -0.39489071141E+02 -0.44256779959E+02  0.64444601727E+02  0.41800000000E+01 0. -1.
        -11    1    1    2    0    0 -0.43760616338E+02  0.31122309126E+02 -0.11242042675E+02  0.54863222573E+02  0.00000000000E+00 0.  1.
         11    1    1    2    0    0  0.21024586320E+02  0.11031736818E+02  0.53268853376E+02  0.58320692615E+02  0.00000000000E+00 0. -1.
</event>
<event>
 7    1  0.2499014E-009  0.8078305E+02  0.7561462E-02  0.1326844E+00
          2   -1    0    0  501    0  0.00000000000E+00  0.00000000000E+00  0.12006191118E+04  0.12006191118E+04  0.00000000000E+00 0. -1.
         -2   -1    0    0    0  501 -0.00000000000E+00 -0.00000000000E+00 -0.10311554803E+02  0.10311554803E+02  0.00000000000E+00 0.  1.
         25    2    1    2    0    0  0.32249386561E+01 -0.19209064465E+02  0.78100089801E+03  0.79119516772E+03  0.12509197553E+03 0.  0.
          5    1    3    3  502    0  0.12211993200E+02 -0.43585402670E+02  0.74611125398E+03  0.74749467946E+03  0.41800000000E+01 0.  1.
         -5    1    3    3    0  502 -0.89870545436E+01  0.24376338205E+02  0.34889644031E+02  0.43700488261E+02  0.41800000000E+01 0.  1.
        -11    1    1    2    0    0 -0.37696285269E+02 -0.15608540189E+02  0.13296031426E+03  0.13907940760E+03  0.00000000000E+00 0.  1.
         11    1    1    2    0    0  0.34471346613E+02  0.34817604655E+02  0.27634634472E+03  0.28065609128E+03  0.00000000000E+00 0. -1.
</event>
<event>
 7    1  0.2812294E-009  0.1320897E+03  0.7561462E-02  0.1224388E+00
          2   -1    0    0  501    0  0.00000000000E+00  0.00000000000E+00  0.97396655625E+03  0.97396655625E+03  0.00000000000E+00 0. -1.
         -2   -1    0    0    0  501 -0.00000000000E+00 -0.00000000000E+00 -0.19812804054E+02  0.19812804054E+02  0.00000000000E+00 0.  1.
         25    2    1    2    0    0  0.20324002879E+01 -0.86123601403E+02  0.51174184929E+03  0.53380929549E+03  0.12510490902E+03 0.  0.
          5    1    3    3  502    0 -0.27989448759E+01 -0.11324280226E+03  0.30849233144E+03  0.32865902896E+03  0.41800000000E+01 0.  1.
         -5    1    3    3    0  502  0.48313451638E+01  0.27119200856E+02  0.20324951785E+03  0.20515026653E+03  0.41800000000E+01 0.  1.
        -11    1    1    2    0    0  0.37901216618E+02  0.13777400647E+02  0.10226635638E+03  0.10993055370E+03  0.00000000000E+00 0.  1.
         11    1    1    2    0    0 -0.39933616906E+02  0.72346200756E+02  0.34014554652E+03  0.35003951112E+03  0.00000000000E+00 0. -1.
</event>
<event>
 7    1  0.2499014E-009  0.1054042E+03  0.7561462E-02  0.1269325E+00
          1   -1    0    0  501    0  0.00000000000E+00  0.00000000000E+00  0.10835710741E+03  0.10835710741E+03  0.00000000000E+00 0. -1.
         -1   -1    0    0    0  501 -0.00000000000E+00 -0.00000000000E+00 -0.28467205644E+03  0.28467205644E+03  0.00000000000E+00 0.  1.
         25    2    1    2    0    0  0.83088609904E+02  0.50308618142E+02  0.15927488858E+02  0.15917289569E+03  0.12509057385E+03 0.  0.
          5    1    3    3  502    0  0.76430023161E+02  0.41484516822E+02  0.65029640723E+02  0.10866848738E+03  0.41800000000E+01 0. -1.
         -5    1    3    3    0  502  0.66585867427E+01  0.88241013199E+01 -0.49102151865E+02  0.50504408316E+02  0.41800000000E+01 0. -1.
        -11    1    1    2    0    0 -0.50401190552E+02 -0.59494228351E+02 -0.63046316623E+02  0.10027303354E+03  0.00000000000E+00 0. -1.
         11    1    1    2    0    0 -0.32687419352E+02  0.91856102091E+01 -0.12919612127E+03  0.13358323461E+03  0.00000000000E+00 0.  1.
</event>
<event>
 7    1  0.3529956E-009  0.1088052E+03  0.7561462E-02  0.1262799E+00
          2   -1    0    0  501    0  0.00000000000E+00  0.00000000000E+00  0.12687123646E+04  0.12687123646E+04  0.00000000000E+00 0. -1.
         -2   -1    0    0    0  501 -0.00000000000E+00 -0.00000000000E+00 -0.16296785762E+02  0.16296785762E+02  0.00000000000E+00 0.  1.
         25    2    1    2    0    0 -0.66692788713E+02 -0.54344413364E+02  0.85439257042E+03  0.86777609833E+03  0.12508976421E+03 0.  0.
          5    1    3    3  502    0 -0.38945065927E+02  0.19505062353E+02  0.98689463672E+02  0.10795484360E+03  0.41800000000E+01 0. -1.
         -5    1    3    3    0  502 -0.27747722786E+02 -0.73849475717E+02  0.75570310675E+03  0.75982125473E+03  0.41800000000E+01 0. -1.
        -11    1    1    2    0    0  0.37627624716E+02  0.53961672109E+02  0.37336281578E+03  0.37911408890E+03  0.00000000000E+00 0. -1.
         11    1    1    2    0    0  0.29065163997E+02  0.38274125412E+00  0.24660192633E+02  0.38118963125E+02  0.00000000000E+00 0.  1.
</event>
<event>
 7    1  0.2499014E-009  0.1357967E+03  0.7561462E-02  0.1219099E+00
          2   -1    0    0  501    0  0.00000000000E+00  0.00000000000E+00  0.12645071697E+03  0.12645071697E+03  0.00000000000E+00 0.  1.
         -2   -1    0    0    0  501 -0.00000000000E+00 -0.00000000000E+00 -0.33657352620E+03  0.33657352620E+03  0.00000000000E+00 0. -1.
         25    2    1    2    0    0  0.10167937320E+03  0.69877812601E+02  0.29917307969E+02  0.17822361492E+03  0.12508800090E+03 0.  0.
          5    1    3    3  502    0  0.54358712228E+02  0.48886010482E+02 -0.45826327543E+02  0.86384236478E+02  0.41800000000E+01 0. -1.
         -5    1    3    3    0  502  0.47320660973E+02  0.20991802120E+02  0.75743635512E+02  0.91839378438E+02  0.41800000000E+01 0. -1.
        -11    1    1    2    0    0 -0.75517639403E+02 -0.86969139919E+02 -0.14760822430E+03  0.18722909240E+03  0.00000000000E+00 0.  1.
         11    1    1    2    0    0 -0.26161733798E+02  0.17091327318E+02 -0.92431892899E+02  0.97571535858E+02  0.00000000000E+00 0. -1.
</event>
<event>
 7    1  0.2499014E-009  0.1028635E+03  0.7561462E-02  0.1274387E+00
         -2   -1    0    0    0  501 -0.00000000000E+00  0.00000000000E+00  0.71250784290E+02  0.71250784290E+02  0.00000000000E+00 0.  1.
          2   -1    0    0  501    0  0.00000000000E+00 -0.00000000000E+00 -0.36344575265E+03  0.36344575265E+03  0.00000000000E+00 0. -1.
         25    2    1    2    0    0  0.14169979129E+01 -0.31880852071E+02 -0.14350719104E+01  0.12910366222E+03  0.12508916642E+03 0.  0.
          5    1    3    3  502    0 -0.97288249639E+01 -0.71736256388E+02  0.28440374967E+02  0.77891384915E+02  0.41800000000E+01 0. -1.
         -5    1    3    3    0  502  0.11145822877E+02  0.39855404317E+02 -0.29875446877E+02  0.51212277307E+02  0.41800000000E+01 0. -1.
        -11    1    1    2    0    0  0.34360579029E+02  0.42164682456E+02 -0.13727762774E+03  0.14766061397E+03  0.00000000000E+00 0.  1.
         11    1    1    2    0    0 -0.35777576942E+02 -0.10283830385E+02 -0.15348226870E+03  0.15793226075E+03  0.00000000000E+00 0. -1.
</event>
<event>
 7    1  0.3006323E-009  0.1981771E+03  0.7561462E-02  0.1151286E+00
          1   -1    0    0  501    0  0.00000000000E+00  0.00000000000E+00  0.14820866375E+04  0.14820866375E+04  0.00000000000E+00 0. -1.
         -1   -1    0    0    0  501 -0.00000000000E+00 -0.00000000000E+00 -0.31461383890E+02  0.31461383890E+02  0.00000000000E+00 0.  1.
         25    2    1    2    0    0 -0.16657141391E+02  0.18144526528E+03  0.61531718533E+03  0.65380735205E+03  0.12509584479E+03 0.  0.
          5    1    3    3  502    0  0.10667327913E+02  0.15616741691E+03  0.32142987552E+03  0.35754257266E+03  0.41800000000E+01 0.  1.
         -5    1    3    3    0  502 -0.27324469304E+02  0.25277848379E+02  0.29388730980E+03  0.29626477939E+03  0.41800000000E+01 0.  1.
        -11    1    1    2    0    0 -0.36115109067E+02 -0.85368813122E+02  0.33675499680E+03  0.34927934841E+03  0.00000000000E+00 0.  1.
         11    1    1    2    0    0  0.52772250458E+02 -0.96076452163E+02  0.49855307150E+03  0.51046132095E+03  0.00000000000E+00 0. -1.
</event>
<event>
 7    1  0.2499014E-009  0.1250349E+03  0.7561462E-02  0.1235015E+00
         -2   -1    0    0    0  501 -0.00000000000E+00  0.00000000000E+00  0.95694405430E+02  0.95694405430E+02  0.00000000000E+00 0.  1.
          2   -1    0    0  501    0  0.00000000000E+00 -0.00000000000E+00 -0.23645292737E+03  0.23645292737E+03  0.00000000000E+00 0. -1.
         25    2    1    2    0    0 -0.82884447830E+02  0.65268282957E+02 -0.72878602481E+02  0.17913277322E+03  0.12508988484E+03 0.  0.
          5    1    3    3  502    0 -0.76325236826E+02  0.90324655238E+02 -0.89245523104E+02  0.14821039408E+03  0.41800000000E+01 0.  1.
         -5    1    3    3    0  502 -0.65592110038E+01 -0.25056372281E+02  0.16366920623E+02  0.30922379138E+02  0.41800000000E+01 0.  1.
        -11    1    1    2    0    0  0.69585755489E+02 -0.54181615121E+02 -0.55964420549E+01  0.88369366569E+02  0.00000000000E+00 0.  1.
         11    1    1    2    0    0  0.13298692342E+02 -0.11086667836E+02 -0.62283477405E+02  0.64645193011E+02  0.00000000000E+00 0. -1.
</event>
<event>
 7    1  0.2499014E-009  0.8391325E+02  0.7561462E-02  0.1318299E+00
          1   -1    0    0  501    0  0.00000000000E+00  0.00000000000E+00  0.66453702943E+02  0.66453702943E+02  0.00000000000E+00 0. -1.
         -1   -1    0    0    0  501 -0.00000000000E+00 -0.00000000000E+00 -0.23649811782E+03  0.23649811782E+03  0.00000000000E+00 0.  1.
         25    2    1    2    0    0  0.42505855708E+01 -0.16375006412E+02 -0.16624663357E+03  0.20873852349E+03  0.12509044609E+03 0.  0.
          5    1    3    3  502    0 -0.54187705717E+02  0.78199767846E+01 -0.41555097459E+02  0.68860424139E+02  0.41800000000E+01 0.  1.
         -5    1    3    3    0  502  0.58438291288E+02 -0.24194983196E+02 -0.12469153611E+03  0.13987809935E+03  0.41800000000E+01 0.  1.
        -11    1    1    2    0    0 -0.24414127786E+02  0.14730242067E+01 -0.41950275956E+02  0.48559706431E+02  0.00000000000E+00 0.  1.
         11    1    1    2    0    0  0.20163542215E+02  0.14901982205E+02  0.38152494651E+02  0.45653590838E+02  0.00000000000E+00 0. -1.
</event>
<event>
 7    1  0.2499014E-009  0.9337441E+02  0.7561462E-02  0.1294880E+00
          1   -1    0    0  501    0  0.00000000000E+00  0.00000000000E+00  0.41289310394E+02  0.41289310394E+02  0.00000000000E+00 0. -1.
         -1   -1    0    0    0  501 -0.00000000000E+00 -0.00000000000E+00 -0.34528554190E+03  0.34528554190E+03  0.00000000000E+00 0.  1.
         25    2    1    2    0    0  0.26824603489E+02  0.37312236870E+02 -0.21073831745E+03  0.24933868949E+03  0.12508949302E+03 0.  0.
          5    1    3    3  502    0 -0.49349115422E+02  0.39479490761E+01 -0.87174192681E+02  0.10033809727E+03  0.41800000000E+01 0.  1.
         -5    1    3    3    0  502  0.76173718911E+02  0.33364287794E+02 -0.12356412477E+03  0.14900059222E+03  0.41800000000E+01 0.  1.
        -11    1    1    2    0    0 -0.20632807714E+02 -0.54472565045E+01 -0.10152133742E+03  0.10373990220E+03  0.00000000000E+00 0.  1.
         11    1    1    2    0    0 -0.61917957752E+01 -0.31864980366E+02  0.82634233589E+01  0.33496260601E+02  0.00000000000E+00 0. -1.
</event>
<event>
 7    1  0.2499014E-009  0.8034406E+02  0.7561462E-02  0.1328078E+00
         -2   -1    0    0    0  501 -0.00000000000E+00  0.00000000000E+00  0.37335774683E+03  0.37335774683E+03  0.00000000000E+00 0. -1.
          2   -1    0    0  501    0  0.00000000000E+00 -0.00000000000E+00 -0.40449431622E+02  0.40449431622E+02  0.00000000000E+00 0.  1.
         25    2    1    2    0    0 -0.38736374768E+01  0.54611370827E+02  0.22054619436E+03  0.25939476618E+03  0.12509042322E+03 0.  0.
          5    1    3    3  502    0  0.19953473849E+02  0.22528835456E+02 -0.45659676708E+01  0.30724745831E+02  0.41800000000E+01 0. -1.
         -5    1    3    3    0  502 -0.23827111325E+02  0.32082535371E+02  0.22511216204E+03  0.22867002035E+03  0.41800000000E+01 0. -1.
        -11    1    1    2    0    0  0.31650931187E+02 -0.33596948846E+01  0.49645488574E+01  0.32213595579E+02  0.00000000000E+00 0.  1.
         11    1    1    2    0    0 -0.27777293711E+02 -0.51251675942E+02  0.10739757198E+03  0.12219881669E+03  0.00000000000E+00 0. -1.
</event>
<event>
 7    1  0.2499014E-009  0.1451762E+03  0.7561462E-02  0.1206529E+00
          2   -1    0    0  501    0  0.00000000000E+00  0.00000000000E+00  0.47522642301E+03  0.47522642301E+03  0.00000000000E+00 0. -1.
         -2   -1    0    0    0  501 -0.00000000000E+00 -0.00000000000E+00 -0.66525178158E+02  0.66525178158E+02  0.00000000000E+00 0.  1.
         25    2    1    2    0    0  0.65429110823E+01 -0.13688775617E+03  0.26627527898E+03  0.32454795118E+03  0.12509109059E+03 0.  0.
          5    1    3    3  502    0 -0.96159664069E+01 -0.70578250986E+02  0.27990749369E+02  0.76646661848E+02  0.41800000000E+01 0. -1.
         -5    1    3    3    0  502  0.16158877489E+02 -0.66309505179E+02  0.23828452961E+03  0.24790128933E+03  0.41800000000E+01 0. -1.
        -11    1    1    2    0    0  0.50794020566E+01  0.13875709383E+03  0.94754818317E+02  0.16810058598E+03  0.00000000000E+00 0.  1.
         11    1    1    2    0    0 -0.11622313139E+02 -0.18693376620E+01  0.47671147553E+02  0.49103064008E+02  0.00000000000E+00 0. -1.
</event>
<event>
 7    1  0.2499014E-009  0.1259005E+03  0.7561462E-02  0.1233669E+00
          1   -1    0    0  501    0  0.00000000000E+00  0.00000000000E+00  0.11111934358E+04  0.11111934358E+04  0.00000000000E+00 0. -1.
         -1   -1    0    0    0  501 -0.00000000000E+00 -0.00000000000E+00 -0.28895088492E+02  0.28895088492E+02  0.00000000000E+00 0.  1.
         25    2    1    2    0    0 -0.44760202911E+02  0.51183473595E+02  0.96772452659E+03  0.97814392221E+03  0.12510615276E+03 0.  0.
          5    1    3    3  502    0  0.29319391666E+02  0.56496469211E+02  0.56668249095E+03  0.57026133983E+03  0.41800000000E+01 0. -1.
         -5    1    3    3    0  502 -0.74079594577E+02 -0.53129956162E+01  0.40104203564E+03  0.40788258237E+03  0.41800000000E+01 0. -1.
        -11    1    1    2    0    0  0.25436828652E+02  0.24618443261E+02  0.45005385072E+02  0.57258926692E+02  0.00000000000E+00 0. -1.
         11    1    1    2    0    0  0.19323374259E+02 -0.75801916856E+02  0.69568435621E+02  0.10468567536E+03  0.00000000000E+00 0.  1.
</event>
<event>
 7    1  0.2820999E-009  0.9980673E+02  0.7561462E-02  0.1280703E+00
          2   -1    0    0  501    0  0.00000000000E+00  0.00000000000E+00  0.15569924181E+03  0.15569924181E+03  0.00000000000E+00 0. -1.
         -2   -1    0    0    0  501 -0.00000000000E+00 -0.00000000000E+00 -0.82832950148E+02  0.82832950148E+02  0.00000000000E+00 0.  1.
         25    2    1    2    0    0 -0.83189019530E+01 -0.24736476668E+02  0.17429778303E+02  0.12896789048E+03  0.12509125547E+03 0.  0.
          5    1    3    3  502    0  0.48170302689E+00  0.51125079509E+02  0.66352143959E+01  0.51725276825E+02  0.41800000000E+01 0. -1.
         -5    1    3    3    0  502 -0.88006049799E+01 -0.75861556177E+02  0.10794563907E+02  0.77242613650E+02  0.41800000000E+01 0. -1.
        -11    1    1    2    0    0 -0.24225668649E+02 -0.81535707035E+01  0.57835565875E+02  0.63232241908E+02  0.00000000000E+00 0. -1.
         11    1    1    2    0    0  0.32544570602E+02  0.32890047372E+02 -0.23990525116E+01  0.46332059578E+02  0.00000000000E+00 0.  1.
</event>
<event>
 7    1  0.2499014E-009  0.1452427E+03  0.7561462E-02  0.1206444E+00
          2   -1    0    0  501    0  0.00000000000E+00  0.00000000000E+00  0.10448528890E+04  0.10448528890E+04  0.00000000000E+00 0.  1.
         -2   -1    0    0    0  501 -0.00000000000E+00 -0.00000000000E+00 -0.30876501849E+02  0.30876501849E+02  0.00000000000E+00 0. -1.
         25    2    1    2    0    0  0.10272021606E+03 -0.64900905138E+01  0.23971398560E+03  0.28931682691E+03  0.12509143607E+03 0.  0.
          5    1    3    3  502    0  0.85549876074E+02  0.46156302463E+02  0.19534876149E+03  0.21823793568E+03  0.41800000000E+01 0.  1.
         -5    1    3    3    0  502  0.17170339982E+02 -0.52646392977E+02  0.44365224117E+02  0.71078891237E+02  0.41800000000E+01 0.  1.
        -11    1    1    2    0    0  0.10145894706E+02 -0.19368506337E+02  0.13082340927E+03  0.13263801352E+03  0.00000000000E+00 0.  1.
         11    1    1    2    0    0 -0.11286611076E+03  0.25858596850E+02  0.64343899227E+03  0.65377455041E+03  0.00000000000E+00 0. -1.
</event>
<event>
 7    1  0.2499014E-009  0.5165241E+02  0.7561462E-02  0.1436627E+00
          1   -1    0    0  501    0  0.00000000000E+00  0.00000000000E+00  0.12977464330E+03  0.12977464330E+03  0.00000000000E+00 0. -1.
         -1   -1    0    0    0  501 -0.00000000000E+00 -0.00000000000E+00 -0.94359625424E+02  0.94359625424E+02  0.00000000000E+00 0.  1.
         25    2    1    2    0    0 -0.25378673058E+02 -0.18528386672E+02 -0.24504462384E+02  0.13128478870E+03  0.12509136224E+03 0.  0.
          5    1    3    3  502    0 -0.13977868041E+02 -0.16197402389E+02 -0.75617747479E+02  0.78697222142E+02  0.41800000000E+01 0.  1.
         -5    1    3    3    0  502 -0.11400805017E+02 -0.23309842834E+01  0.51113285095E+02  0.52587566553E+02  0.41800000000E+01 0.  1.
        -11    1    1    2    0    0 -0.59032594372E+01 -0.19225355670E+02  0.27506325622E+02  0.34074341107E+02  0.00000000000E+00 0. -1.
         11    1    1    2    0    0  0.31281932495E+02  0.37753742343E+02  0.32413154635E+02  0.58775138919E+02  0.00000000000E+00 0.  1.
</event>
<event>
 7    1  0.2499014E-009  0.1960184E+03  0.7561462E-02  0.1153142E+00
          2   -1    0    0  501    0  0.00000000000E+00  0.00000000000E+00  0.82349082915E+02  0.82349082915E+02  0.00000000000E+00 0. -1.
         -2   -1    0    0    0  501 -0.00000000000E+00 -0.00000000000E+00 -0.68094593788E+03  0.68094593788E+03  0.00000000000E+00 0.  1.
         25    2    1    2    0    0  0.15779753391E+02  0.16688217986E+03 -0.10528408469E+03  0.23415987743E+03  0.12508975632E+03 0.  0.
          5    1    3    3  502    0 -0.47249025910E+02  0.55050119997E+02 -0.70150050490E+02  0.10100241653E+03  0.41800000000E+01 0. -1.
         -5    1    3    3    0  502  0.63028779301E+02  0.11183205986E+03 -0.35134034199E+02  0.13315746090E+03  0.41800000000E+01 0. -1.
        -11    1    1    2    0    0 -0.46202437046E+02 -0.42141914912E+02 -0.17897999839E+03  0.18959020546E+03  0.00000000000E+00 0.  1.
         11    1    1    2    0    0  0.30422683654E+02 -0.12474026495E+03 -0.31433277188E+03  0.33954493791E+03  0.00000000000E+00 0. -1.
</event>
<event>
 7    1  0.2499014E-009  0.1109529E+03  0.7561462E-02  0.1258815E+00
          1   -1    0    0  501    0  0.00000000000E+00  0.00000000000E+00  0.85827516628E+03  0.85827516628E+03  0.00000000000E+00 0. -1.
         -1   -1    0    0    0  501 -0.00000000000E+00 -0.00000000000E+00 -0.63197882210E+02  0.63197882210E+02  0.00000000000E+00 0.  1.
         25    2    1    2    0    0  0.39299611069E+02 -0.71876877631E+02  0.78351384100E+03  0.79765400126E+03  0.12508885525E+03 0.  0.
          5    1    3    3  502    0  0.16199809759E+02  0.25077719209E+02  0.58511545043E+02  0.65820962772E+02  0.41800000000E+01 0.  1.
         -5    1    3    3    0  502  0.23099801310E+02 -0.96954596840E+02  0.72500229596E+03  0.73183303849E+03  0.41800000000E+01 0.  1.
        -11    1    1    2    0    0 -0.19179493401E+02  0.69076213878E+02 -0.29878083685E+02  0.77666441759E+02  0.00000000000E+00 0.  1.
         11    1    1    2    0    0 -0.20120117669E+02  0.28006637523E+01  0.41441526749E+02  0.46152605471E+02  0.00000000000E+00 0. -1.
</event>
<event>
 7    1  0.2499014E-009  0.1992646E+03  0.7561462E-02  0.1150361E+00
         -1   -1    0    0    0  501 -0.00000000000E+00  0.00000000000E+00  0.43054837851E+03  0.43054837851E+03  0.00000000000E+00 0.  1.
          1   -1    0    0  501    0  0.00000000000E+00 -0.00000000000E+00 -0.24190715216E+03  0.24190715216E+03  0.00000000000E+00 0. -1.
         25    2    1    2    0    0 -0.16557962604E+03  0.95322338843E+02 -0.15220441599E+03  0.27443872299E+03  0.12508983806E+03 0.  0.
          5    1    3    3  502    0 -0.53110008575E+02  0.61826238343E+02 -0.13213925777E+03  0.15531069700E+03  0.41800000000E+01 0.  1.
         -5    1    3    3    0  502 -0.11246961747E+03  0.33496100500E+02 -0.20065158219E+02  0.11912802599E+03  0.41800000000E+01 0.  1.
        -11    1    1    2    0    0  0.12468803436E+03 -0.40506263128E+02  0.26649441007E+03  0.29699685834E+03  0.00000000000E+00 0.  1.
         11    1    1    2    0    0  0.40891591686E+02 -0.54816075715E+02  0.74351232257E+02  0.10101994934E+03  0.00000000000E+00 0. -1.
</event>
<event>
 7    1  0.2499014E-009  0.1557238E+03  0.7561462E-02  0.1193611E+00
         -2   -1    0    0    0  501 -0.00000000000E+00  0.00000000000E+00  0.16216892409E+02  0.16216892409E+02  0.00000000000E+00 0.  1.
          2   -1    0    0  501    0  0.00000000000E+00 -0.00000000000E+00 -0.34496807112E+04  0.34496807112E+04  0.00000000000E+00 0. -1.
         25    2    1    2    0    0  0.12032274711E+03  0.58333727799E+02 -0.29490027145E+04  0.29546820100E+04  0.12509349564E+03 0.  0.
          5    1    3    3  502    0  0.12275393857E+03  0.85370742782E+02 -0.27062051148E+04  0.27103358258E+04  0.41800000000E+01 0. -1.
         -5    1    3    3    0  502 -0.24311914588E+01 -0.27037014983E+02 -0.24279759975E+03  0.24434618416E+03  0.41800000000E+01 0. -1.
        -11    1    1    2    0    0 -0.49110282244E+02 -0.16486349021E+02 -0.62178307320E+02  0.80930596361E+02  0.00000000000E+00 0.  1.
         11    1    1    2    0    0 -0.71212464867E+02 -0.41847378778E+02 -0.42228279691E+03  0.43028499722E+03  0.00000000000E+00 0. -1.
</event>
<event>
 7    1  0.2499014E-009  0.2126005E+03  0.7561462E-02  0.1139523E+00
         -1   -1    0    0    0  501 -0.00000000000E+00  0.00000000000E+00  0.31965059686E+03  0.31965059686E+03  0.00000000000E+00 0.  1.
          1   -1    0    0  501    0  0.00000000000E+00 -0.00000000000E+00 -0.15268954429E+03  0.15268954429E+03  0.00000000000E+00 0. -1.
         25    2    1    2    0    0  0.65185633919E+02 -0.17926965999E+03  0.64760115693E+02  0.23712756954E+03  0.12509529883E+03 0.  0.
          5    1    3    3  502    0 -0.11825635862E+02 -0.14178406690E+03  0.42061868311E+02  0.14842250657E+03  0.41800000000E+01 0. -1.
         -5    1    3    3    0  502  0.77011269780E+02 -0.37485593088E+02  0.22698247382E+02  0.88705062970E+02  0.41800000000E+01 0. -1.
        -11    1    1    2    0    0 -0.44184863273E+02  0.52522508578E+02 -0.36723222500E+01  0.68734285480E+02  0.00000000000E+00 0. -1.
         11    1    1    2    0    0 -0.21000770645E+02  0.12674715141E+03  0.10587325912E+03  0.16647828614E+03  0.00000000000E+00 0.  1.
</event>
<event>
 7    1  0.2499014E-009  0.1251696E+03  0.7561462E-02  0.1234804E+00
          2   -1    0    0  501    0  0.00000000000E+00  0.00000000000E+00  0.40768108069E+03  0.40768108069E+03  0.00000000000E+00 0. -1.
         -2   -1    0    0    0  501 -0.00000000000E+00 -0.00000000000E+00 -0.47132141232E+02  0.47132141232E+02  0.00000000000E+00 0.  1.
         25    2    1    2    0    0  0.36705645220E+02  0.64461646143E+02  0.27052797959E+03  0.30714082866E+03  0.12508993833E+03 0.  0.
          5    1    3    3  502    0 -0.57355989766E+01  0.88920282577E+02  0.21615275278E+03  0.23383583704E+03  0.41800000000E+01 0.  1.
         -5    1    3    3    0  502  0.42441244196E+02 -0.24458636434E+02  0.54375226814E+02  0.73304991619E+02  0.41800000000E+01 0.  1.
        -11    1    1    2    0    0  0.18012841319E+02 -0.53121513711E+02  0.23556954054E+02  0.60838209668E+02  0.00000000000E+00 0.  1.
         11    1    1    2    0    0 -0.54718486539E+02 -0.11340132432E+02  0.66464005810E+02  0.86834183598E+02  0.00000000000E+00 0. -1.
</event>
<event>
 7    1  0.2499014E-009  0.1426980E+03  0.7561462E-02  0.1209744E+00
          2   -1    0    0  501    0  0.00000000000E+00  0.00000000000E+00  0.12631073487E+03  0.12631073487E+03  0.00000000000E+00 0. -1.
         -2   -1    0    0    0  501 -0.00000000000E+00 -0.00000000000E+00 -0.18589203540E+03  0.18589203540E+03  0.00000000000E+00 0.  1.
         25    2    1    2    0    0  0.93900431191E+02 -0.37116286221E+02  0.12539032082E+02  0.16125557833E+03  0.12510485416E+03 0.  0.
          5    1    3    3  502    0  0.11223514283E+03 -0.62576331593E+02  0.15335014549E+02  0.12948034458E+03  0.41800000000E+01 0.  1.
         -5    1    3    3    0  502 -0.18334711643E+02  0.25460045372E+02 -0.27959824664E+01  0.31775233742E+02  0.41800000000E+01 0.  1.
        -11    1    1    2    0    0 -0.99274589661E+02  0.50043889089E+02 -0.77952520455E+02  0.13578081762E+03  0.00000000000E+00 0.  1.
         11    1    1    2    0    0  0.53741584707E+01 -0.12927602868E+02  0.58321878486E+01  0.15166374329E+02  0.00000000000E+00 0. -1.
</event>
<event>
 7    1  0.2499014E-009  0.2317868E+03  0.7561462E-02  0.1125388E+00
         -2   -1    0    0    0  501 -0.00000000000E+00  0.00000000000E+00  0.68242069871E+02  0.68242069871E+02  0.00000000000E+00 0. -1.
          2   -1    0    0  501    0  0.00000000000E+00 -0.00000000000E+00 -0.84578925437E+03  0.84578925437E+03  0.00000000000E+00 0.  1.
         25    2    1    2    0    0  0.17887159613E+03  0.11199392666E+03 -0.34306945133E+03  0.42175846333E+03  0.12508343393E+03 0.  0.
          5    1    3    3  502    0  0.18243260169E+03  0.12674475483E+03 -0.33930432688E+03  0.40557463638E+03  0.41800000000E+01 0. -1.
         -5    1    3    3    0  502 -0.35610055597E+01 -0.14750828176E+02 -0.37651244493E+01  0.16183826946E+02  0.41800000000E+01 0. -1.
        -11    1    1    2    0    0 -0.32080146641E+02 -0.63357367949E+02 -0.89738244332E+02  0.11443882373E+03  0.00000000000E+00 0. -1.
         11    1    1    2    0    0 -0.14679144949E+03 -0.48636558708E+02 -0.34473948884E+03  0.37783403718E+03  0.00000000000E+00 0.  1.
</event>
<event>
 7    1  0.2499014E-009  0.9225166E+02  0.7561462E-02  0.1297489E+00
          1   -1    0    0  501    0  0.00000000000E+00  0.00000000000E+00  0.37577349365E+03  0.37577349365E+03  0.00000000000E+00 0. -1.
         -1   -1    0    0    0  501 -0.00000000000E+00 -0.00000000000E+00 -0.32506242573E+02  0.32506242573E+02  0.00000000000E+00 0.  1.
         25    2    1    2    0    0  0.75221868661E+01 -0.19833677153E+02  0.17228211785E+03  0.21395928832E+03  0.12508993117E+03 0.  0.
          5    1    3    3  502    0  0.45173614444E+02 -0.28314100263E+02  0.20468049540E+02  0.57260432828E+02  0.41800000000E+01 0.  1.
         -5    1    3    3    0  502 -0.37651427578E+02  0.84804231094E+01  0.15181406831E+03  0.15669885549E+03  0.41800000000E+01 0.  1.
        -11    1    1    2    0    0 -0.31150412474E+02 -0.26042364506E+02  0.70349508140E+02  0.81225650148E+02  0.00000000000E+00 0.  1.
         11    1    1    2    0    0  0.23628225608E+02  0.45876041659E+02  0.10063562509E+03  0.11309479776E+03  0.00000000000E+00 0. -1.
</event>
<event>
 7    1  0.2499014E-009  0.9289637E+02  0.7561462E-02  0.1295986E+00
          1   -1    0    0  501    0  0.00000000000E+00  0.00000000000E+00  0.73131989222E+03  0.73131989222E+03  0.00000000000E+00 0. -1.
         -1   -1    0    0    0  501 -0.00000000000E+00 -0.00000000000E+00 -0.22797523838E+02  0.22797523838E+02  0.00000000000E+00 0.  1.
         25    2    1    2    0    0  0.26663911432E+02  0.44931614415E+02  0.54529968263E+03  0.56189721672E+03  0.12508766582E+03 0.  0.
          5    1    3    3  502    0 -0.19981618962E+01  0.61279990915E+02  0.11566885516E+03  0.13098086269E+03  0.41800000000E+01 0.  1.
         -5    1    3    3    0  502  0.28662073328E+02 -0.16348376501E+02  0.42963082747E+03  0.43091635403E+03  0.41800000000E+01 0.  1.
        -11    1    1    2    0    0 -0.52707925255E+02 -0.25313897509E+02  0.59203565174E+02  0.83210461609E+02  0.00000000000E+00 0.  1.
         11    1    1    2    0    0  0.26044013823E+02 -0.19617716906E+02  0.10401912058E+03  0.10900973773E+03  0.00000000000E+00 0. -1.
</event>
<event>
 7    1  0.2499014E-009  0.1111236E+03  0.7561462E-02  0.1258503E+00
          2   -1    0    0  501    0  0.00000000000E+00  0.00000000000E+00  0.46151273067E+03  0.46151273067E+03  0.00000000000E+00 0.  1.
         -2   -1    0    0    0  501 -0.00000000000E+00 -0.00000000000E+00 -0.27613772375E+02  0.27613772375E+02  0.00000000000E+00 0. -1.
         25    2    1    2    0    0 -0.29574558365E+02  0.92386766049E+01  0.22851891991E+03  0.26235316302E+03  0.12509307632E+03 0.  0.
          5    1    3    3  502    0 -0.60018751124E+02  0.48820212069E+02  0.12024040400E+03  0.14304157000E+03  0.41800000000E+01 0. -1.
         -5    1    3    3    0  502  0.30444192759E+02 -0.39581535464E+02  0.10827851590E+03  0.11931159302E+03  0.41800000000E+01 0. -1.
        -11    1    1    2    0    0  0.54684955292E+02  0.18037158344E+02  0.14370976249E+03  0.15481692172E+03  0.00000000000E+00 0.  1.
         11    1    1    2    0    0 -0.25110396927E+02 -0.27275834949E+02  0.61670275898E+02  0.71956418305E+02  0.00000000000E+00 0. -1.
</event>
<event>
 7    1  0.2499014E-009  0.1055490E+03  0.7561462E-02  0.1269042E+00
         -2   -1    0    0    0  501 -0.00000000000E+00  0.00000000000E+00  0.17205316897E+03  0.17205316897E+03  0.00000000000E+00 0.  1.
          2   -1    0    0  501    0  0.00000000000E+00 -0.00000000000E+00 -0.75446200062E+02  0.75446200062E+02  0.00000000000E+00 0. -1.
         25    2    1    2    0    0  0.32755634875E+02  0.73057272477E+01  0.52909490458E+02  0.13990165829E+03  0.12508698792E+03 0.  0.
          5    1    3    3  502    0 -0.35165041810E+01  0.61391307107E+02  0.39725055005E+02  0.73326739905E+02  0.41800000000E+01 0.  1.
         -5    1    3    3    0  502  0.36272139056E+02 -0.54085579859E+02  0.13184435452E+02  0.66574918390E+02  0.41800000000E+01 0.  1.
        -11    1    1    2    0    0  0.24928438887E+02  0.44914012985E+01  0.41572489947E+02  0.48681327749E+02  0.00000000000E+00 0.  1.
         11    1    1    2    0    0 -0.57684073763E+02 -0.11797128546E+02  0.21249884992E+01  0.58916382984E+02  0.00000000000E+00 0. -1.
</event>
<event>
 7    1  0.2499014E-009  0.1293595E+03  0.7561462E-02  0.1228409E+00
         -1   -1    0    0    0  501 -0.00000000000E+00  0.00000000000E+00  0.12419692370E+03  0.12419692370E+03  0.00000000000E+00 0.  1.
          1   -1    0    0  501    0  0.00000000000E+00 -0.00000000000E+00 -0.15062643923E+03  0.15062643923E+03  0.00000000000E+00 0. -1.
         25    2    1    2    0    0  0.86559052841E+00 -0.74961103118E+02 -0.49961985608E+02  0.15414979518E+03  0.12508414416E+03 0.  0.
          5    1    3    3  502    0  0.33793030543E+02 -0.99097464673E+02 -0.36449951651E+02  0.11094299344E+03  0.41800000000E+01 0. -1.
         -5    1    3    3    0  502 -0.32927440015E+02  0.24136361555E+02 -0.13512033957E+02  0.43206801741E+02  0.41800000000E+01 0. -1.
        -11    1    1    2    0    0  0.70572769240E+01  0.92961040567E+02  0.45486579190E+01  0.93339437055E+02  0.00000000000E+00 0. -1.
         11    1    1    2    0    0 -0.79228674524E+01 -0.17999937448E+02  0.18983812158E+02  0.27334130696E+02  0.00000000000E+00 0.  1.
</event>
<event>
 7    1  0.2499014E-009  0.1124854E+03  0.7561462E-02  0.1256035E+00
          2   -1    0    0  501    0  0.00000000000E+00  0.00000000000E+00  0.26939852864E+03  0.26939852864E+03  0.00000000000E+00 0. -1.
         -2   -1    0    0    0  501 -0.00000000000E+00 -0.00000000000E+00 -0.69352902889E+02  0.69352902889E+02  0.00000000000E+00 0.  1.
         25    2    1    2    0    0 -0.72170593797E+02  0.35320682777E+02  0.76896297686E+02  0.16737366025E+03  0.12507900026E+03 0.  0.
          5    1    3    3  502    0  0.33064835624E+02  0.11985924359E+02  0.39855961192E+02  0.53319000179E+02  0.41800000000E+01 0. -1.
         -5    1    3    3    0  502 -0.10523542942E+03  0.23334758418E+02  0.37040336494E+02  0.11405466007E+03  0.41800000000E+01 0. -1.
        -11    1    1    2    0    0  0.55916387013E+02 -0.20119983989E+02  0.13402437993E+03  0.14660828936E+03  0.00000000000E+00 0. -1.
         11    1    1    2    0    0  0.16254206785E+02 -0.15200698788E+02 -0.10875051863E+02  0.24769481926E+02  0.00000000000E+00 0.  1.
</event>
<event>
 7    1  0.2499014E-009  0.9801774E+02  0.7561462E-02  0.1284520E+00
          2   -1    0    0  501    0  0.00000000000E+00  0.00000000000E+00  0.14887787488E+03  0.14887787488E+03  0.00000000000E+00 0. -1.
         -2   -1    0    0    0  501 -0.00000000000E+00 -0.00000000000E+00 -0.14125204772E+03  0.14125204772E+03  0.00000000000E+00 0.  1.
         25    2    1    2    0    0 -0.83541551618E+01 -0.20927730950E+02 -0.89136401246E+02  0.15524476543E+03  0.12509147587E+03 0.  0.
          5    1    3    3  502    0  0.28731250974E+02  0.32170996629E+02 -0.78232758272E+02  0.89433185527E+02  0.41800000000E+01 0. -1.
         -5    1    3    3    0  502 -0.37085406136E+02 -0.53098727579E+02 -0.10903642974E+02  0.65811579900E+02  0.41800000000E+01 0. -1.
        -11    1    1    2    0    0 -0.34533559574E+02  0.27838958616E+02  0.72865770822E+02  0.85305304120E+02  0.00000000000E+00 0. -1.
         11    1    1    2    0    0  0.42887714736E+02 -0.69112276657E+01  0.23896457585E+02  0.49579853047E+02  0.00000000000E+00 0.  1.
</event>
<event>
 7    1  0.2499014E-009  0.1066692E+03  0.7561462E-02  0.1266865E+00
         -2   -1    0    0    0  501 -0.00000000000E+00  0.00000000000E+00  0.32836542434E+02  0.32836542434E+02  0.00000000000E+00 0.  1.
          2   -1    0    0  501    0  0.00000000000E+00 -0.00000000000E+00 -0.60027605448E+03  0.60027605448E+03  0.00000000000E+00 0. -1.
         25    2    1    2    0    0 -0.33409621865E+02 -0.97547451713E+01 -0.12495933689E+03  0.18020278811E+03  0.12508737379E+03 0.  0.
          5    1    3    3  502    0 -0.69865887811E+02 -0.29514773877E+02 -0.11420725032E+03  0.13716097325E+03  0.41800000000E+01 0. -1.
         -5    1    3    3    0  502  0.36456265945E+02  0.19760028706E+02 -0.10752086565E+02  0.43041814862E+02  0.41800000000E+01 0. -1.
        -11    1    1    2    0    0  0.90457517207E+01  0.48825833426E+02 -0.19803174408E+03  0.20416258055E+03  0.00000000000E+00 0. -1.
         11    1    1    2    0    0  0.24363870145E+02 -0.39071088254E+02 -0.24444843108E+03  0.24874722825E+03  0.00000000000E+00 0.  1.
</event>
<event>
 7    1  0.2499014E-009  0.1041344E+03  0.7561462E-02  0.1271835E+00
          1   -1    0    0  501    0  0.00000000000E+00  0.00000000000E+00  0.33953560007E+03  0.33953560007E+03  0.00000000000E+00 0. -1.
         -1   -1    0    0    0  501 -0.00000000000E+00 -0.00000000000E+00 -0.50648179725E+02  0.50648179725E+02  0.00000000000E+00 0.  1.
         25    2    1    2    0    0 -0.59812477403E+02 -0.44125071067E+02  0.16851894760E+03  0.22264485257E+03  0.12509012880E+03 0.  0.
          5    1    3    3  502    0 -0.41181656954E+02 -0.81380801998E+02  0.15265583455E+03  0.17787647407E+03  0.41800000000E+01 0.  1.
         -5    1    3    3    0  502 -0.18630820449E+02  0.37255730930E+02  0.15863113052E+02  0.44768378500E+02  0.41800000000E+01 0.  1.
        -11    1    1    2    0    0  0.36564406954E+02  0.33307040716E+02  0.54097733451E+01  0.49755205404E+02  0.00000000000E+00 0.  1.
         11    1    1    2    0    0  0.23248070449E+02  0.10818030351E+02  0.11495869940E+03  0.11778372183E+03  0.00000000000E+00 0. -1.
</event>
<event>
 7    1  0.2499014E-009  0.1044782E+03  0.7561462E-02  0.1271151E+00
          1   -1    0    0  501    0  0.00000000000E+00  0.00000000000E+00  0.58867577308E+03  0.58867577308E+03  0.00000000000E+00 0. -1.
         -1   -1    0    0    0  501 -0.00000000000E+00 -0.00000000000E+00 -0.30873724450E+02  0.30873724450E+02  0.00000000000E+00 0.  1.
         25    2    1    2    0    0  0.22047050768E+02 -0.73793577962E+02  0.25743681672E+03  0.29640151098E+03  0.12509427051E+03 0.  0.
          5    1    3    3  502    0  0.33705020078E+02 -0.27181971011E+02  0.10435138732E+02  0.44735360140E+02  0.41800000000E+01 0.  1.
         -5    1    3    3    0  502 -0.11657969309E+02 -0.46611606951E+02  0.24700167799E+03  0.25166615084E+03  0.41800000000E+01 0.  1.
        -11    1    1    2    0    0 -0.49473846694E+02  0.13959309945E+02  0.10334996304E+03  0.11542850038E+03  0.00000000000E+00 0.  1.
         11    1    1    2    0    0  0.27426795926E+02  0.59834268017E+02  0.19701526888E+03  0.20771948617E+03  0.00000000000E+00 0. -1.
</event>
<event>
 7    1  0.2499014E-009  0.2007588E+03  0.7561462E-02  0.1149100E+00
         -2   -1    0    0    0  501 -0.00000000000E+00  0.00000000000E+00  0.11645760389E+03  0.11645760389E+03  0.00000000000E+00 0.  1.
          2   -1    0    0  501    0  0.00000000000E+00 -0.00000000000E+00 -0.44475249142E+03  0.44475249142E+03  0.00000000000E+00 0. -1.
         25    2    1    2    0    0  0.36573799197E+02 -0.17360518965E+03 -0.28260359428E+03  0.35635429906E+03  0.12508872969E+03 0.  0.
          5    1    3    3  502    0 -0.34956967797E+02 -0.38636928733E+02 -0.27700996494E+02  0.59157581646E+02  0.41800000000E+01 0.  1.
         -5    1    3    3    0  502  0.71530766994E+02 -0.13496826091E+03 -0.25490259779E+03  0.29719671741E+03  0.41800000000E+01 0.  1.
        -11    1    1    2    0    0  0.20450382275E+02  0.10618184493E+03 -0.43411653645E+02  0.11652198934E+03  0.00000000000E+00 0. -1.
         11    1    1    2    0    0 -0.57024181472E+02  0.67423344714E+02 -0.22796396034E+01  0.88333806901E+02  0.00000000000E+00 0.  1.
</event>
<event>
 7    1  0.2499014E-009  0.8835537E+02  0.7561462E-02  0.1306884E+00
         -2   -1    0    0    0  501 -0.00000000000E+00  0.00000000000E+00  0.21495309943E+03  0.21495309943E+03  0.00000000000E+00 0.  1.
          2   -1    0    0  501    0  0.00000000000E+00 -0.00000000000E+00 -0.72279467903E+02  0.72279467903E+02  0.00000000000E+00 0. -1.
         25    2    1    2    0    0 -0.26801900227E+02 -0.41477353098E+00  0.13006688864E+02  0.12858754126E+03  0.12508824054E+03 0.  0.
          5    1    3    3  502    0  0.19218343520E+02  0.42442858960E+02  0.38517559064E+02  0.60595509410E+02  0.41800000000E+01 0.  1.
         -5    1    3    3    0  502 -0.46020243747E+02 -0.42857632491E+02 -0.25510870200E+02  0.67992031854E+02  0.41800000000E+01 0.  1.
        -11    1    1    2    0    0 -0.16468391217E+02 -0.13670047928E+02  0.18910644316E+00  0.21403595046E+02  0.00000000000E+00 0. -1.
         11    1    1    2    0    0  0.43270291444E+02  0.14084821459E+02  0.12947783622E+03  0.13724143103E+03  0.00000000000E+00 0.  1.
</event>
<event>
 7    1  0.2499014E-009  0.1079698E+03  0.7561462E-02  0.1264376E+00
         -3   -1    0    0    0  501 -0.00000000000E+00  0.00000000000E+00  0.73916208641E+02  0.73916208641E+02  0.00000000000E+00 0.  1.
          3   -1    0    0  501    0  0.00000000000E+00 -0.00000000000E+00 -0.23834782774E+03  0.23834782774E+03  0.00000000000E+00 0. -1.
         25    2    1    2    0    0 -0.61486433198E+02 -0.22409323017E+02 -0.34697305826E+02  0.14537502194E+03  0.12508890737E+03 0.  0.
          5    1    3    3  502    0 -0.13146700461E+02 -0.70055363339E+02 -0.29232965114E+02  0.77153278057E+02  0.41800000000E+01 0.  1.
         -5    1    3    3    0  502 -0.48339732737E+02  0.47646040322E+02 -0.54643407118E+01  0.68221743886E+02  0.41800000000E+01 0.  1.
        -11    1    1    2    0    0  0.49513872694E+02  0.33848154683E+02 -0.32425954821E+02  0.68181842969E+02  0.00000000000E+00 0.  1.
         11    1    1    2    0    0  0.11972560504E+02 -0.11438831666E+02 -0.97308358456E+02  0.98707171474E+02  0.00000000000E+00 0. -1.
</event>
<event>
 7    1  0.2499014E-009  0.1415085E+03  0.7561462E-02  0.1211313E+00
          2   -1    0    0  501    0  0.00000000000E+00  0.00000000000E+00  0.63868269036E+03  0.63868269036E+03  0.00000000000E+00 0. -1.
         -2   -1    0    0    0  501 -0.00000000000E+00 -0.00000000000E+00 -0.40555329917E+02  0.40555329917E+02  0.00000000000E+00 0.  1.
         25    2    1    2    0    0  0.11200805127E+03  0.28736854947E+02  0.26249705922E+03  0.31292778601E+03  0.12508989878E+03 0.  0.
          5    1    3    3  502    0  0.69445491975E+02 -0.42298312456E+02  0.17134119530E+03  0.18970266524E+03  0.41800000000E+01 0. -1.
         -5    1    3    3    0  502  0.42562559296E+02  0.71035167403E+02  0.91155863916E+02  0.12322512077E+03  0.41800000000E+01 0. -1.
        -11    1    1    2    0    0 -0.35325580411E+02 -0.22195326954E+02  0.30647124261E+02  0.51766547069E+02  0.00000000000E+00 0.  1.
         11    1    1    2    0    0 -0.76682470860E+02 -0.65415279924E+01  0.30498317696E+03  0.31454368720E+03  0.00000000000E+00 0. -1.
</event>
<event>
 7    1  0.2499014E-009  0.1124602E+03  0.7561462E-02  0.1256081E+00
          1   -1    0    0  501    0  0.00000000000E+00  0.00000000000E+00  0.35661728609E+03  0.35661728609E+03  0.00000000000E+00 0. -1.
         -1   -1    0    0    0  501 -0.00000000000E+00 -0.00000000000E+00 -0.49796617984E+02  0.49796617984E+02  0.00000000000E+00 0.  1.
         25    2    1    2    0    0 -0.40546637368E+02 -0.32644050569E+02  0.82858360708E+02  0.15881378799E+03  0.12508655994E+03 0.  0.
          5    1    3    3  502    0 -0.59013309947E+02  0.20874507262E+02  0.80415276264E+02  0.10199218039E+03  0.41800000000E+01 0. -1.
         -5    1    3    3    0  502  0.18466672579E+02 -0.53518557831E+02  0.24430844440E+01  0.56821607599E+02  0.41800000000E+01 0. -1.
        -11    1    1    2    0    0 -0.26948309352E+02 -0.60454497791E+01  0.52801305695E+02  0.59588058561E+02  0.00000000000E+00 0.  1.
         11    1    1    2    0    0  0.67494946720E+02  0.38689500348E+02  0.17116100170E+03  0.18801205752E+03  0.00000000000E+00 0. -1.
</event>
<event>
 7    1  0.2499014E-009  0.8844631E+02  0.7561462E-02  0.1306658E+00
          1   -1    0    0  501    0  0.00000000000E+00  0.00000000000E+00  0.21837072518E+03  0.21837072518E+03  0.00000000000E+00 0. -1.
         -1   -1    0    0    0  501 -0.00000000000E+00 -0.00000000000E+00 -0.61823355518E+02  0.61823355518E+02  0.00000000000E+00 0.  1.
         25    2    1    2    0    0  0.37876109122E+00  0.12266264722E+02  0.13860819666E+03  0.18710675731E+03  0.12508437848E+03 0.  0.
          5    1    3    3  502    0 -0.50079947381E+02  0.16595731257E+02  0.17454501004E+02  0.55727474651E+02  0.41800000000E+01 0. -1.
         -5    1    3    3    0  502  0.50458708473E+02 -0.43294665349E+01  0.12115369566E+03  0.13137928266E+03  0.41800000000E+01 0. -1.
        -11    1    1    2    0    0 -0.34237161782E+02 -0.18206907697E+02  0.37155856371E+02  0.53705050018E+02  0.00000000000E+00 0. -1.
         11    1    1    2    0    0  0.33858400691E+02  0.59406429741E+01 -0.19216683366E+02  0.39382273371E+02  0.00000000000E+00 0.  1.
</event>
<event>
 7    1  0.2499014E-009  0.1172025E+03  0.7561462E-02  0.1247785E+00
         -1   -1    0    0    0  501 -0.00000000000E+00  0.00000000000E+00  0.50346147383E+02  0.50346147383E+02  0.00000000000E+00 0.  1.
          1   -1    0    0  501    0  0.00000000000E+00 -0.00000000000E+00 -0.33913921785E+03  0.33913921785E+03  0.00000000000E+00 0. -1.
         25    2    1    2    0    0 -0.16969189559E+02 -0.38906386630E+02 -0.74797501200E+02  0.15180190543E+03  0.12508993562E+03 0.  0.
          5    1    3    3  502    0 -0.54941885240E+02  0.21852120739E+02 -0.24384764754E+02  0.64095359322E+02  0.41800000000E+01 0. -1.
         -5    1    3    3    0  502  0.37972695681E+02 -0.60758507369E+02 -0.50412736445E+02  0.87706546112E+02  0.41800000000E+01 0. -1.
        -11    1    1    2    0    0  0.20465313521E+02  0.69559242935E+02 -0.14581514423E+03  0.16284770070E+03  0.00000000000E+00 0.  1.
         11    1    1    2    0    0 -0.34961239615E+01 -0.30652856305E+02 -0.68180425037E+02  0.74835759104E+02  0.00000000000E+00 0. -1.
</event>
<event>
 7    1  0.2499014E-009  0.9875546E+02  0.7561462E-02  0.1282935E+00
          3   -1    0    0  501    0  0.00000000000E+00  0.00000000000E+00  0.17307437201E+03  0.17307437201E+03  0.00000000000E+00 0. -1.
         -3   -1    0    0    0  501 -0.00000000000E+00 -0.00000000000E+00 -0.81629627942E+02  0.81629627942E+02  0.00000000000E+00 0.  1.
         25    2    1    2    0    0  0.30127599894E+02  0.33922510212E+02  0.72527890577E+02  0.15154522060E+03  0.12508896834E+03 0.  0.
          5    1    3    3  502    0 -0.40604371532E+02  0.31483633372E+02  0.20701280586E+01  0.51591588345E+02  0.41800000000E+01 0.  1.
         -5    1    3    3    0  502  0.70731971426E+02  0.24388768401E+01  0.70457762518E+02  0.99953632256E+02  0.41800000000E+01 0.  1.
        -11    1    1    2    0    0 -0.31287505549E+02 -0.49979407168E+02 -0.19012611214E+02  0.61954245452E+02  0.00000000000E+00 0.  1.
         11    1    1    2    0    0  0.11599056548E+01  0.16056896956E+02  0.37929464706E+02  0.41204533900E+02  0.00000000000E+00 0. -1.
</event>
<event>
 7    1  0.2499014E-009  0.1202068E+03  0.7561462E-02  0.1242756E+00
         -3   -1    0    0    0  501 -0.00000000000E+00  0.00000000000E+00  0.13386164838E+03  0.13386164838E+03  0.00000000000E+00 0.  1.
          3   -1    0    0  501    0  0.00000000000E+00 -0.00000000000E+00 -0.15524645691E+03  0.15524645691E+03  0.00000000000E+00 0. -1.
         25    2    1    2    0    0  0.43563822535E+02 -0.76048654410E+02 -0.49001208184E+02  0.16040740746E+03  0.12509281951E+03 0.  0.
          5    1    3    3  502    0 -0.25412928833E+02 -0.65832146006E+02  0.67785923990E+01  0.71014858407E+02  0.41800000000E+01 0.  1.
         -5    1    3    3    0  502  0.68976751368E+02 -0.10216508405E+02 -0.55779800583E+02  0.89392549054E+02  0.41800000000E+01 0.  1.
        -11    1    1    2    0    0 -0.22941673729E+02  0.20305311824E+01 -0.26205790155E+02  0.34888205572E+02  0.00000000000E+00 0.  1.
         11    1    1    2    0    0 -0.20622148805E+02  0.74018123228E+02  0.53822189811E+02  0.93812492258E+02  0.00000000000E+00 0. -1.
</event>
<event>
 7    1  0.2499014E-009  0.9135680E+02  0.7561462E-02  0.1299599E+00
          1   -1    0    0  501    0  0.00000000000E+00  0.00000000000E+00  0.13906888584E+03  0.13906888584E+03  0.00000000000E+00 0. -1.
         -1   -1    0    0    0  501 -0.00000000000E+00 -0.00000000000E+00 -0.11527035156E+03  0.11527035156E+03  0.00000000000E+00 0.  1.
         25    2    1    2    0    0  0.10932104098E+01 -0.16296578687E+02  0.88553775254E+02  0.15412925994E+03  0.12508910453E+03 0.  0.
          5    1    3    3  502    0  0.58776672295E+02  0.14134488557E+02  0.38252721951E+02  0.71660478016E+02  0.41800000000E+01 0. -1.
         -5    1    3    3    0  502 -0.57683461886E+02 -0.30431067244E+02  0.50301053303E+02  0.82468781925E+02  0.41800000000E+01 0. -1.
        -11    1    1    2    0    0  0.24546788582E+02  0.18918348529E+02 -0.67515826051E+02  0.74288865304E+02  0.00000000000E+00 0.  1.
         11    1    1    2    0    0 -0.25639998992E+02 -0.26217698413E+01  0.27605850762E+01  0.25921112155E+02  0.00000000000E+00 0. -1.
</event>
<event>
 7    1  0.2499014E-009  0.1010288E+03  0.7561462E-02  0.1278147E+00
         -4   -1    0    0    0  501 -0.00000000000E+00  0.00000000000E+00  0.24214492555E+03  0.24214492555E+03  0.00000000000E+00 0.  1.
          4   -1    0    0  501    0  0.00000000000E+00 -0.00000000000E+00 -0.48111401601E+02  0.48111401601E+02  0.00000000000E+00 0. -1.
         25    2    1    2    0    0  0.36434136606E+02 -0.19032210679E+01  0.11586418133E+03  0.17436552647E+03  0.12509100584E+03 0.  0.
          5    1    3    3  502    0  0.70389018790E+02 -0.32933486724E+02  0.45358375945E+02  0.90078205924E+02  0.41800000000E+01 0.  1.
         -5    1    3    3    0  502 -0.33954882184E+02  0.31030265656E+02  0.70505805387E+02  0.84287320542E+02  0.41800000000E+01 0.  1.
        -11    1    1    2    0    0 -0.47901452858E+02  0.23679199384E+02  0.28739414902E+02  0.60672956400E+02  0.00000000000E+00 0. -1.
         11    1    1    2    0    0  0.11467316252E+02 -0.21775978316E+02  0.49429927717E+02  0.55217844287E+02  0.00000000000E+00 0.  1.
</event>
<event>
 7    1  0.2499014E-009  0.8964561E+02  0.7561462E-02  0.1303712E+00
          1   -1    0    0  501    0  0.00000000000E+00  0.00000000000E+00  0.13618468226E+03  0.13618468226E+03  0.00000000000E+00 0. -1.
         -1   -1    0    0    0  501 -0.00000000000E+00 -0.00000000000E+00 -0.94250268408E+02  0.94250268408E+02  0.00000000000E+00 0.  1.
         25    2    1    2    0    0  0.77479958795E+01 -0.20773806531E+02  0.33242503016E+01  0.12708242956E+03  0.12508921130E+03 0.  0.
          5    1    3    3  502    0  0.38642080633E+02  0.15527822882E+02 -0.43335763450E+02  0.60247692677E+02  0.41800000000E+01 0. -1.
         -5    1    3    3    0  502 -0.30894084754E+02 -0.36301629413E+02  0.46660013751E+02  0.66834736882E+02  0.41800000000E+01 0. -1.
        -11    1    1    2    0    0  0.34707422079E+02  0.30302189134E+02  0.38182000862E+02  0.59838892065E+02  0.00000000000E+00 0. -1.
         11    1    1    2    0    0 -0.42455417959E+02 -0.95283826034E+01  0.42816268524E+00  0.43513629041E+02  0.00000000000E+00 0.  1.
</event>
<event>
 7    1  0.2499014E-009  0.1110776E+03  0.7561462E-02  0.1258587E+00
         -4   -1    0    0    0  501 -0.00000000000E+00  0.00000000000E+00  0.21146777509E+03  0.21146777509E+03  0.00000000000E+00 0.  1.
          4   -1    0    0  501    0  0.00000000000E+00 -0.00000000000E+00 -0.69248160686E+02  0.69248160686E+02  0.00000000000E+00 0. -1.
         25    2    1    2    0    0  0.89939229693E+01 -0.46564400800E+02  0.48660927530E+02  0.14235115315E+03  0.12508729298E+03 0.  0.
          5    1    3    3  502    0  0.26977839239E+02  0.31978222490E+02 -0.92302847511E+01  0.43047428265E+02  0.41800000000E+01 0. -1.
         -5    1    3    3    0  502 -0.17983916270E+02 -0.78542623290E+02  0.57891212281E+02  0.99303724890E+02  0.41800000000E+01 0. -1.
        -11    1    1    2    0    0 -0.35296295268E+02 -0.10303454848E+02  0.49961484166E+02  0.62033374417E+02  0.00000000000E+00 0.  1.
         11    1    1    2    0    0  0.26302372299E+02  0.56867855648E+02  0.43597202706E+02  0.76331408203E+02  0.00000000000E+00 0. -1.
</event>
<event>
 7    1  0.2499014E-009  0.1186404E+03  0.7561462E-02  0.1245357E+00
         -1   -1    0    0    0  501 -0.00000000000E+00  0.00000000000E+00  0.86665679236E+02  0.86665679236E+02  0.00000000000E+00 0.  1.
          1   -1    0    0  501    0  0.00000000000E+00 -0.00000000000E+00 -0.20336382732E+03  0.20336382732E+03  0.00000000000E+00 0. -1.
         25    2    1    2    0    0  0.53218473681E+01  0.73934863382E+02 -0.82968801253E+02  0.16739858395E+03  0.12507508882E+03 0.  0.
          5    1    3    3  502    0 -0.23645061987E+02 -0.22539345383E+02 -0.52687331554E+02  0.62133230665E+02  0.41800000000E+01 0. -1.
         -5    1    3    3    0  502  0.28966909355E+02  0.96474208765E+02 -0.30281469699E+02  0.10526535328E+03  0.41800000000E+01 0. -1.
        -11    1    1    2    0    0 -0.33843739872E+02 -0.65602587871E+02  0.48008379408E+01  0.73973956963E+02  0.00000000000E+00 0.  1.
         11    1    1    2    0    0  0.28521892504E+02 -0.83322755115E+01 -0.38530184773E+02  0.48656965646E+02  0.00000000000E+00 0. -1.
</event>
<event>
 7    1  0.2499014E-009  0.9906261E+02  0.7561462E-02  0.1282280E+00
         -1   -1    0    0    0  501 -0.00000000000E+00  0.00000000000E+00  0.18995312319E+03  0.18995312319E+03  0.00000000000E+00 0.  1.
          1   -1    0    0  501    0  0.00000000000E+00 -0.00000000000E+00 -0.76595810468E+02  0.76595810468E+02  0.00000000000E+00 0. -1.
         25    2    1    2    0    0 -0.69414462326E+01 -0.48476550399E+02  0.46997602850E+02  0.14232432565E+03  0.12509707984E+03 0.  0.
          5    1    3    3  502    0  0.31067511566E+02  0.79728051477E+01 -0.26687727505E+02  0.41934032673E+02  0.41800000000E+01 0.  1.
         -5    1    3    3    0  502 -0.38008957799E+02 -0.56449355547E+02  0.73685330355E+02  0.10039029298E+03  0.41800000000E+01 0.  1.
        -11    1    1    2    0    0 -0.73042595919E+01 -0.23301990428E+02  0.39168841675E+02  0.46157698428E+02  0.00000000000E+00 0.  1.
         11    1    1    2    0    0  0.14245705825E+02  0.71778540827E+02  0.27190868198E+02  0.78066909578E+02  0.00000000000E+00 0. -1.
</event>
<event>
 7    1  0.2499014E-009  0.8856722E+02  0.7561462E-02  0.1306359E+00
          2   -1    0    0  501    0  0.00000000000E+00  0.00000000000E+00  0.41792521846E+02  0.41792521846E+02  0.00000000000E+00 0. -1.
         -2   -1    0    0    0  501 -0.00000000000E+00 -0.00000000000E+00 -0.34216444749E+03  0.34216444749E+03  0.00000000000E+00 0.  1.
         25    2    1    2    0    0 -0.37574613170E+02  0.29779961227E+02 -0.13445055344E+03  0.18979647335E+03  0.12508817822E+03 0.  0.
          5    1    3    3  502    0 -0.43581279792E+02  0.43504460067E+02 -0.78197392412E+01  0.62214039539E+02  0.41800000000E+01 0. -1.
         -5    1    3    3    0  502  0.60066666219E+01 -0.13724498840E+02 -0.12663081420E+03  0.12758243381E+03  0.41800000000E+01 0. -1.
        -11    1    1    2    0    0 -0.19041628969E+02 -0.38140887147E+02 -0.57717741059E+02  0.71754083780E+02  0.00000000000E+00 0. -1.
         11    1    1    2    0    0  0.56616242139E+02  0.83609259205E+01 -0.10820363114E+03  0.12240641220E+03  0.00000000000E+00 0.  1.
</event>
<event>
 7    1  0.2499014E-009  0.1232087E+03  0.7561462E-02  0.1237896E+00
          4   -1    0    0  501    0  0.00000000000E+00  0.00000000000E+00  0.57643024086E+03  0.57643024086E+03  0.00000000000E+00 0.  1.
         -4   -1    0    0    0  501 -0.00000000000E+00 -0.00000000000E+00 -0.55828253293E+02  0.55828253293E+02  0.00000000000E+00 0. -1.
         25    2    1    2    0    0 -0.71707771180E+02  0.98891901456E+02  0.41430920507E+03  0.44969012669E+03  0.12508988776E+03 0.  0.
          5    1    3    3  502    0 -0.55056738238E+02  0.59045330670E+02  0.39322927763E+03  0.40145277766E+03  0.41800000000E+01 0. -1.
         -5    1    3    3    0  502 -0.16651032942E+02  0.39846570786E+02  0.21079927434E+02  0.48237349036E+02  0.41800000000E+01 0. -1.
        -11    1    1    2    0    0  0.10726829862E+02 -0.16654597410E+02  0.71879609547E+02  0.74559498137E+02  0.00000000000E+00 0.  1.
         11    1    1    2    0    0  0.60980941318E+02 -0.82237304046E+02  0.34413172956E+02  0.10800886933E+03  0.00000000000E+00 0. -1.
</event>
<event>
 7    1  0.2499014E-009  0.1313094E+03  0.7561462E-02  0.1225526E+00
          2   -1    0    0  501    0  0.00000000000E+00  0.00000000000E+00  0.34784855249E+03  0.34784855249E+03  0.00000000000E+00 0. -1.
         -2   -1    0    0    0  501 -0.00000000000E+00 -0.00000000000E+00 -0.53100588388E+02  0.53100588388E+02  0.00000000000E+00 0.  1.
         25    2    1    2    0    0 -0.49498105840E+02  0.56246358055E+02  0.11473276323E+03  0.18553882657E+03  0.12508930381E+03 0.  0.
          5    1    3    3  502    0  0.41161391466E+02  0.86989474875E+01  0.23612495025E+02  0.48424726702E+02  0.41800000000E+01 0. -1.
         -5    1    3    3    0  502 -0.90659497307E+02  0.47547410567E+02  0.91120268206E+02  0.13711409986E+03  0.41800000000E+01 0. -1.
        -11    1    1    2    0    0  0.70417926820E+02 -0.64405964291E+02  0.13818600698E+03  0.16793506239E+03  0.00000000000E+00 0.  1.
         11    1    1    2    0    0 -0.20919820980E+02  0.81596062359E+01  0.41829193893E+02  0.47475251927E+02  0.00000000000E+00 0. -1.
</event>
<event>
 7    1  0.2499014E-009  0.9383361E+02  0.7561462E-02  0.1293825E+00
         -1   -1    0    0    0  501 -0.00000000000E+00  0.00000000000E+00  0.31283181479E+02  0.31283181479E+02  0.00000000000E+00 0.  1.
          1   -1    0    0  501    0  0.00000000000E+00 -0.00000000000E+00 -0.39899055799E+03  0.39899055799E+03  0.00000000000E+00 0. -1.
         25    2    1    2    0    0  0.22915036491E+02 -0.15443236468E+01 -0.23312074715E+03  0.26555738098E+03  0.12509179033E+03 0.  0.
          5    1    3    3  502    0 -0.21290204128E+02 -0.50401707829E+02 -0.14792981914E+03  0.15777930388E+03  0.41800000000E+01 0.  1.
         -5    1    3    3    0  502  0.44205240619E+02  0.48857384182E+02 -0.85190928013E+02  0.10777807710E+03  0.41800000000E+01 0.  1.
        -11    1    1    2    0    0 -0.44775996389E+02 -0.83693879843E+00 -0.21803598992E+02  0.49809509616E+02  0.00000000000E+00 0.  1.
         11    1    1    2    0    0  0.21860959898E+02  0.23812624452E+01 -0.11278303037E+03  0.11490684887E+03  0.00000000000E+00 0. -1.
</event>
<event>
 7    1  0.2499014E-009  0.1844286E+03  0.7561462E-02  0.1163585E+00
         -1   -1    0    0    0  501 -0.00000000000E+00  0.00000000000E+00  0.21248627259E+02  0.21248627259E+02  0.00000000000E+00 0.  1.
          1   -1    0    0  501    0  0.00000000000E+00 -0.00000000000E+00 -0.18962198402E+04  0.18962198402E+04  0.00000000000E+00 0. -1.
         25    2    1    2    0    0 -0.10979972063E+03 -0.11345843834E+03 -0.12487488469E+04  0.12648919216E+04  0.12509634286E+03 0.  0.
          5    1    3    3  502    0 -0.84639221668E+02 -0.13502986930E+02 -0.35568547034E+03  0.36589035886E+03  0.41800000000E+01 0.  1.
         -5    1    3    3    0  502 -0.25160498965E+02 -0.99955451414E+02 -0.89306337652E+03  0.89900156277E+03  0.41800000000E+01 0.  1.
        -11    1    1    2    0    0  0.28330630490E+02  0.91103626482E+02 -0.39637229577E+03  0.40769288961E+03  0.00000000000E+00 0. -1.
         11    1    1    2    0    0  0.81469090143E+02  0.22354811862E+02 -0.22985007034E+03  0.24488365625E+03  0.00000000000E+00 0.  1.
</event>
<event>
 7    1  0.2499014E-009  0.1429403E+03  0.7561462E-02  0.1209426E+00
          1   -1    0    0  501    0  0.00000000000E+00  0.00000000000E+00  0.43430068353E+02  0.43430068353E+02  0.00000000000E+00 0. -1.
         -1   -1    0    0    0  501 -0.00000000000E+00 -0.00000000000E+00 -0.61593413924E+03  0.61593413924E+03  0.00000000000E+00 0.  1.
         25    2    1    2    0    0  0.36600321934E+02  0.10916121272E+03 -0.22699913921E+03  0.28360559786E+03  0.12509105488E+03 0.  0.
          5    1    3    3  502    0  0.36124653311E+02  0.13520597921E+03 -0.16610344081E+03  0.21724058746E+03  0.41800000000E+01 0. -1.
         -5    1    3    3    0  502  0.47566862346E+00 -0.26044766496E+02 -0.60895698396E+02  0.66365010402E+02  0.41800000000E+01 0. -1.
        -11    1    1    2    0    0  0.25481069005E+01 -0.39476004379E+02 -0.28301022671E+02  0.48639445461E+02  0.00000000000E+00 0. -1.
         11    1    1    2    0    0 -0.39148428835E+02 -0.69685208339E+02 -0.31720390901E+03  0.32711916427E+03  0.00000000000E+00 0.  1.
</event>
<event>
 7    1  0.2499014E-009  0.1282621E+03  0.7561462E-02  0.1230057E+00
         -1   -1    0    0    0  501 -0.00000000000E+00  0.00000000000E+00  0.94334991791E+02  0.94334991791E+02  0.00000000000E+00 0.  1.
          1   -1    0    0  501    0  0.00000000000E+00 -0.00000000000E+00 -0.24969438581E+03  0.24969438581E+03  0.00000000000E+00 0. -1.
         25    2    1    2    0    0  0.95885912863E+02  0.48330571736E+02 -0.66546750040E+02  0.17778295470E+03  0.12509339148E+03 0.  0.
          5    1    3    3  502    0 -0.65776781080E+00 -0.14130795022E+02  0.26151377216E+02  0.30024639161E+02  0.41800000000E+01 0.  1.
         -5    1    3    3    0  502  0.96543680673E+02  0.62461366758E+02 -0.92698127255E+02  0.14775831554E+03  0.41800000000E+01 0.  1.
        -11    1    1    2    0    0  0.59068377973E+01 -0.20280728176E+02  0.83914786627E+01  0.22729179094E+02  0.00000000000E+00 0.  1.
         11    1    1    2    0    0 -0.10179275066E+03 -0.28049843559E+02 -0.97204122646E+02  0.14351724381E+03  0.00000000000E+00 0. -1.
</event>
<event>
 7    1  0.2499014E-009  0.1659561E+03  0.7561462E-02  0.1182132E+00
          3   -1    0    0  501    0  0.00000000000E+00  0.00000000000E+00  0.11848446892E+03  0.11848446892E+03  0.00000000000E+00 0. -1.
         -3   -1    0    0    0  501 -0.00000000000E+00 -0.00000000000E+00 -0.24256395434E+03  0.24256395434E+03  0.00000000000E+00 0.  1.
         25    2    1    2    0    0  0.51523246832E+02  0.11554137481E+03 -0.93793147546E+02  0.20112240771E+03  0.12509442073E+03 0.  0.
          5    1    3    3  502    0  0.82697621534E+02  0.11829875489E+03 -0.87764489051E+02  0.16897801619E+03  0.41800000000E+01 0.  1.
         -5    1    3    3    0  502 -0.31174374702E+02 -0.27573800814E+01 -0.60286584943E+01  0.32144391520E+02  0.41800000000E+01 0.  1.
        -11    1    1    2    0    0 -0.74734924430E+02 -0.60328814611E+02 -0.94421032639E+01  0.96509212597E+02  0.00000000000E+00 0. -1.
         11    1    1    2    0    0  0.23211677598E+02 -0.55212560201E+02 -0.20844234613E+02  0.63416802958E+02  0.00000000000E+00 0.  1.
</event>
<event>
 7    1  0.2499014E-009  0.1173425E+03  0.7561462E-02  0.1247547E+00
         -1   -1    0    0    0  501 -0.00000000000E+00  0.00000000000E+00  0.40111757736E+03  0.40111757736E+03  0.00000000000E+00 0.  1.
          1   -1    0    0  501    0  0.00000000000E+00 -0.00000000000E+00 -0.43543930345E+02  0.43543930345E+02  0.00000000000E+00 0. -1.
         25    2    1    2    0    0  0.56732255562E+02  0.10237954221E+02  0.11534709692E+03  0.17965397100E+03  0.12508889639E+03 0.  0.
          5    1    3    3  502    0  0.71028314450E+02  0.54621780479E+02  0.64145500253E+02  0.11027546399E+03  0.41800000000E+01 0.  1.
         -5    1    3    3    0  502 -0.14296058889E+02 -0.44383826258E+02  0.51201596666E+02  0.69378507005E+02  0.41800000000E+01 0.  1.
        -11    1    1    2    0    0 -0.22576137723E+02  0.34899346937E+02  0.15909381812E+03  0.16443384498E+03  0.00000000000E+00 0.  1.
         11    1    1    2    0    0 -0.34156117839E+02 -0.45137301159E+02  0.83132731982E+02  0.10057369173E+03  0.00000000000E+00 0. -1.
</event>
<event>
 7    1  0.2499014E-009  0.1633433E+03  0.7561462E-02  0.1184973E+00
         -2   -1    0    0    0  501 -0.00000000000E+00  0.00000000000E+00  0.57845023715E+03  0.57845023715E+03  0.00000000000E+00 0.  1.
          2   -1    0    0  501    0  0.00000000000E+00 -0.00000000000E+00 -0.68626374605E+02  0.68626374605E+02  0.00000000000E+00 0. -1.
         25    2    1    2    0    0 -0.30139066333E+02 -0.13076980168E+03  0.42636457016E+03  0.46416041722E+03  0.12509613051E+03 0.  0.
          5    1    3    3  502    0  0.42864239892E+02 -0.89701506127E+02  0.22407915324E+03  0.24517879717E+03  0.41800000000E+01 0. -1.
         -5    1    3    3    0  502 -0.73003306225E+02 -0.41068295553E+02  0.20228541692E+03  0.21898162005E+03  0.41800000000E+01 0. -1.
        -11    1    1    2    0    0  0.40665624648E+02  0.64741885475E+02  0.61491280575E+00  0.76456411638E+02  0.00000000000E+00 0. -1.
         11    1    1    2    0    0 -0.10526558315E+02  0.66027916205E+02  0.82844379576E+02  0.10645978290E+03  0.00000000000E+00 0.  1.
</event>
<event>
 7    1  0.2499014E-009  0.6821397E+02  0.7561462E-02  0.1366274E+00
         -2   -1    0    0    0  501 -0.00000000000E+00  0.00000000000E+00  0.24407249289E+02  0.24407249289E+02  0.00000000000E+00 0.  1.
          2   -1    0    0  501    0  0.00000000000E+00 -0.00000000000E+00 -0.53854908870E+03  0.53854908870E+03  0.00000000000E+00 0. -1.
         25    2    1    2    0    0  0.11597615772E+02 -0.30394754392E+02 -0.26470579085E+03  0.29457661248E+03  0.12509148303E+03 0.  0.
          5    1    3    3  502    0 -0.15602588588E+02  0.24221852458E+00 -0.25048965978E+03  0.25101004262E+03  0.41800000000E+01 0.  1.
         -5    1    3    3    0  502  0.27200204360E+02 -0.30636972917E+02 -0.14216131068E+02  0.43566569859E+02  0.41800000000E+01 0.  1.
        -11    1    1    2    0    0 -0.18427612631E+02 -0.20601105026E+02 -0.22372756056E+02  0.35560127237E+02  0.00000000000E+00 0.  1.
         11    1    1    2    0    0  0.68299968594E+01  0.50995859419E+02 -0.22706329251E+03  0.23281959827E+03  0.00000000000E+00 0. -1.
</event>
<event>
 7    1  0.2499014E-009  0.1041724E+03  0.7561462E-02  0.1271759E+00
          2   -1    0    0  501    0  0.00000000000E+00  0.00000000000E+00  0.26136083419E+03  0.26136083419E+03  0.00000000000E+00 0. -1.
         -2   -1    0    0    0  501 -0.00000000000E+00 -0.00000000000E+00 -0.96920346595E+02  0.96920346595E+02  0.00000000000E+00 0.  1.
         25    2    1    2    0    0  0.63701023527E+02 -0.21655528703E+02  0.19531725322E+03  0.24150357922E+03  0.12509343328E+03 0.  0.
          5    1    3    3  502    0 -0.29087116160E+02 -0.57186867381E+01  0.11127993851E+03  0.11523654290E+03  0.41800000000E+01 0.  1.
         -5    1    3    3    0  502  0.92788139687E+02 -0.15936841965E+02  0.84037314713E+02  0.12626703633E+03  0.41800000000E+01 0.  1.
        -11    1    1    2    0    0 -0.14881982002E+02  0.31069402531E+02 -0.52311053055E+02  0.62635672214E+02  0.00000000000E+00 0.  1.
         11    1    1    2    0    0 -0.48819041525E+02 -0.94138738278E+01  0.21434287427E+02  0.54141929346E+02  0.00000000000E+00 0. -1.
</event>
<event>
 7    1  0.2499014E-009  0.8281317E+02  0.7561462E-02  0.1321252E+00
          2   -1    0    0  501    0  0.00000000000E+00  0.00000000000E+00  0.57816872817E+03  0.57816872817E+03  0.00000000000E+00 0. -1.
         -2   -1    0    0    0  501 -0.00000000000E+00 -0.00000000000E+00 -0.53879647075E+02  0.53879647075E+02  0.00000000000E+00 0.  1.
         25    2    1    2    0    0  0.18866012328E+02 -0.43617180948E+01  0.52375795288E+03  0.53883628129E+03  0.12508874377E+03 0.  0.
          5    1    3    3  502    0  0.13394123042E+02  0.58439648399E+02  0.31678209814E+03  0.32243288471E+03  0.41800000000E+01 0. -1.
         -5    1    3    3    0  502  0.54718892855E+01 -0.62801366494E+02  0.20697585474E+03  0.21640339658E+03  0.41800000000E+01 0. -1.
        -11    1    1    2    0    0 -0.69785810466E+00 -0.15450816939E+02 -0.40954984071E+02  0.43778139182E+02  0.00000000000E+00 0.  1.
         11    1    1    2    0    0 -0.18168154223E+02  0.19812535034E+02  0.41486112286E+02  0.49433954777E+02  0.00000000000E+00 0. -1.
</event>
<event>
 7    1  0.2499014E-009  0.1510581E+03  0.7561462E-02  0.1199179E+00
          1   -1    0    0  501    0  0.00000000000E+00  0.00000000000E+00  0.14895501605E+03  0.14895501605E+03  0.00000000000E+00 0. -1.
         -1   -1    0    0    0  501 -0.00000000000E+00 -0.00000000000E+00 -0.23087124308E+03  0.23087124308E+03  0.00000000000E+00 0.  1.
         25    2    1    2    0    0 -0.14570028531E+03  0.21528909822E+02 -0.70570408265E+02  0.20571399635E+03  0.12508396650E+03 0.  0.
          5    1    3    3  502    0 -0.13309653468E+03  0.25264106644E+02 -0.17749130245E+01  0.13554919898E+03  0.41800000000E+01 0. -1.
         -5    1    3    3    0  502 -0.12603750629E+02 -0.37351968223E+01 -0.68795495240E+02  0.70164797374E+02  0.41800000000E+01 0. -1.
        -11    1    1    2    0    0  0.59542182261E+02  0.11261070251E+02 -0.45525110697E+02  0.75793264051E+02  0.00000000000E+00 0.  1.
         11    1    1    2    0    0  0.86158103044E+02 -0.32789980073E+02  0.34179291933E+02  0.98318998726E+02  0.00000000000E+00 0. -1.
</event>
<event>
 7    1  0.2499014E-009  0.1105448E+03  0.7561462E-02  0.1259564E+00
         -1   -1    0    0    0  501 -0.00000000000E+00  0.00000000000E+00  0.24997334243E+02  0.24997334243E+02  0.00000000000E+00 0.  1.
          1   -1    0    0  501    0  0.00000000000E+00 -0.00000000000E+00 -0.68493761853E+03  0.68493761853E+03  0.00000000000E+00 0. -1.
         25    2    1    2    0    0  0.48251007459E+02  0.25154952738E+02 -0.49820966875E+03  0.51654691596E+03  0.12508761322E+03 0.  0.
          5    1    3    3  502    0  0.79261896305E+02  0.71601788406E+01 -0.44606045523E+03  0.45312373419E+03  0.41800000000E+01 0.  1.
         -5    1    3    3    0  502 -0.31010888847E+02  0.17994773897E+02 -0.52149213517E+02  0.63423181764E+02  0.41800000000E+01 0.  1.
        -11    1    1    2    0    0 -0.97994636389E+01 -0.55473287753E+02 -0.75142773660E+02  0.93913532438E+02  0.00000000000E+00 0. -1.
         11    1    1    2    0    0 -0.38451543820E+02  0.30318335015E+02 -0.86587841877E+02  0.99474504377E+02  0.00000000000E+00 0.  1.
</event>
<event>
 7    1  0.2499014E-009  0.1045621E+03  0.7561462E-02  0.1270985E+00
         -2   -1    0    0    0  501 -0.00000000000E+00  0.00000000000E+00  0.17104341569E+03  0.17104341569E+03  0.00000000000E+00 0.  1.
          2   -1    0    0  501    0  0.00000000000E+00 -0.00000000000E+00 -0.81114296923E+02  0.81114296923E+02  0.00000000000E+00 0. -1.
         25    2    1    2    0    0  0.15630662690E+02  0.48243719458E+02  0.48669832892E+02  0.14348486935E+03  0.12508949202E+03 0.  0.
          5    1    3    3  502    0  0.59655952861E+02 -0.94198518211E+01  0.10644162256E+02  0.61468178029E+02  0.41800000000E+01 0. -1.
         -5    1    3    3    0  502 -0.44025290171E+02  0.57663571279E+02  0.38025670636E+02  0.82016691317E+02  0.41800000000E+01 0. -1.
        -11    1    1    2    0    0 -0.35889506003E+02 -0.19782653922E+02 -0.13992026502E+02  0.43303427612E+02  0.00000000000E+00 0. -1.
         11    1    1    2    0    0  0.20258843313E+02 -0.28461065535E+02  0.55251312378E+02  0.65369415656E+02  0.00000000000E+00 0.  1.
</event>
<event>
 7    1  0.2499014E-009  0.9643098E+02  0.7561462E-02  0.1287985E+00
         -2   -1    0    0    0  501 -0.00000000000E+00  0.00000000000E+00  0.34220779530E+02  0.34220779530E+02  0.00000000000E+00 0.  1.
          2   -1    0    0  501    0  0.00000000000E+00 -0.00000000000E+00 -0.40113328605E+03  0.40113328605E+03  0.00000000000E+00 0. -1.
         25    2    1    2    0    0 -0.35496679996E+02  0.20305795422E+02 -0.22603390690E+03  0.26155489763E+03  0.12508915935E+03 0.  0.
          5    1    3    3  502    0 -0.92154425612E+01  0.70369156372E+02 -0.15609168963E+03  0.17151918412E+03  0.41800000000E+01 0. -1.
         -5    1    3    3    0  502 -0.26281237435E+02 -0.50063360949E+02 -0.69942217278E+02  0.90035713516E+02  0.41800000000E+01 0. -1.
        -11    1    1    2    0    0  0.12597241897E+02 -0.35447575465E+02 -0.84523466374E+01  0.38557272640E+02  0.00000000000E+00 0.  1.
         11    1    1    2    0    0  0.22899438099E+02  0.15141780043E+02 -0.13242625297E+03  0.13524189530E+03  0.00000000000E+00 0. -1.
</event>
<event>
 7    1  0.2499014E-009  0.9205735E+02  0.7561462E-02  0.1297945E+00
         -2   -1    0    0    0  501 -0.00000000000E+00  0.00000000000E+00  0.13374662420E+02  0.13374662420E+02  0.00000000000E+00 0.  1.
          2   -1    0    0  501    0  0.00000000000E+00 -0.00000000000E+00 -0.99486715556E+03  0.99486715556E+03  0.00000000000E+00 0. -1.
         25    2    1    2    0    0  0.25361805221E+01  0.12782565618E+02 -0.70686559389E+03  0.71796700343E+03  0.12509126267E+03 0.  0.
          5    1    3    3  502    0  0.13757072010E+02 -0.38424131458E+02 -0.56796295251E+03  0.56944276159E+03  0.41800000000E+01 0. -1.
         -5    1    3    3    0  502 -0.11220891488E+02  0.51206697075E+02 -0.13890264138E+03  0.14852424184E+03  0.41800000000E+01 0. -1.
        -11    1    1    2    0    0  0.74501005146E+01 -0.50723311880E+02 -0.19324107994E+03  0.19992616973E+03  0.00000000000E+00 0. -1.
         11    1    1    2    0    0 -0.99862810367E+01  0.37940746262E+02 -0.81385819308E+02  0.90348644817E+02  0.00000000000E+00 0.  1.
</event>
<event>
 7    1  0.2499014E-009  0.9992237E+02  0.7561462E-02  0.1280459E+00
         -1   -1    0    0    0  501 -0.00000000000E+00  0.00000000000E+00  0.24590034550E+03  0.24590034550E+03  0.00000000000E+00 0.  1.
          1   -1    0    0  501    0  0.00000000000E+00 -0.00000000000E+00 -0.13628271915E+03  0.13628271915E+03  0.00000000000E+00 0. -1.
         25    2    1    2    0    0 -0.87307648596E+02  0.36233198673E+02 -0.60304642826E+02  0.16798959165E+03  0.12509349610E+03 0.  0.
          5    1    3    3  502    0 -0.89177845880E+02  0.33960518590E+02 -0.93938254243E+02  0.13396967205E+03  0.41800000000E+01 0.  1.
         -5    1    3    3    0  502  0.18701972841E+01  0.22726800824E+01  0.33633611417E+02  0.34019919600E+02  0.41800000000E+01 0.  1.
        -11    1    1    2    0    0  0.58832625966E+02 -0.39032637193E+02  0.17157463338E+03  0.18553349957E+03  0.00000000000E+00 0.  1.
         11    1    1    2    0    0  0.28475022630E+02  0.27994385199E+01 -0.16523642061E+01  0.28659973435E+02  0.00000000000E+00 0. -1.
</event>
<event>
 7    1  0.2499014E-009  0.2322440E+03  0.7561462E-02  0.1125070E+00
          2   -1    0    0  501    0  0.00000000000E+00  0.00000000000E+00  0.69340185186E+03  0.69340185186E+03  0.00000000000E+00 0. -1.
         -2   -1    0    0    0  501 -0.00000000000E+00 -0.00000000000E+00 -0.82196922431E+02  0.82196922431E+02  0.00000000000E+00 0.  1.
         25    2    1    2    0    0  0.79040826444E+01 -0.21181393778E+03  0.32782871516E+03  0.40993620912E+03  0.12509360616E+03 0.  0.
          5    1    3    3  502    0 -0.28629065915E+02 -0.20445731045E+03  0.25593884830E+03  0.32885343495E+03  0.41800000000E+01 0.  1.
         -5    1    3    3    0  502  0.36533148559E+02 -0.73566273335E+01  0.71889866866E+02  0.81082774172E+02  0.41800000000E+01 0.  1.
        -11    1    1    2    0    0  0.19873531790E+02  0.16397487569E+03  0.25412052443E+03  0.30308407755E+03  0.00000000000E+00 0.  1.
         11    1    1    2    0    0 -0.27777614434E+02  0.47839062094E+02  0.29255689837E+02  0.62578487626E+02  0.00000000000E+00 0. -1.
</event>
<event>
 7    1  0.2499014E-009  0.1053918E+03  0.7561462E-02  0.1269350E+00
          2   -1    0    0  501    0  0.00000000000E+00  0.00000000000E+00  0.10332429531E+04  0.10332429531E+04  0.00000000000E+00 0. -1.
         -2   -1    0    0    0  501 -0.00000000000E+00 -0.00000000000E+00 -0.17978496860E+02  0.17978496860E+02  0.00000000000E+00 0.  1.
         25    2    1    2    0    0 -0.66369584214E+02 -0.21254109962E+02  0.73972407094E+03  0.75345870019E+03  0.12510656599E+03 0.  0.
          5    1    3    3  502    0 -0.39171187291E+02  0.37037733158E+02  0.55850938083E+03  0.56112064341E+03  0.41800000000E+01 0.  1.
         -5    1    3    3    0  502 -0.27198396923E+02 -0.58291843120E+02  0.18121469012E+03  0.19233805677E+03  0.41800000000E+01 0.  1.
        -11    1    1    2    0    0  0.12058331992E+02  0.34332568229E+02  0.33844360006E+02  0.49694761453E+02  0.00000000000E+00 0.  1.
         11    1    1    2    0    0  0.54311252222E+02 -0.13078458267E+02  0.24169602530E+03  0.24806798833E+03  0.00000000000E+00 0. -1.
</event>
<event>
 7    1  0.2499014E-009  0.1559365E+03  0.7561462E-02  0.1193362E+00
          3   -1    0    0  501    0  0.00000000000E+00  0.00000000000E+00  0.20153607707E+03  0.20153607707E+03  0.00000000000E+00 0. -1.
         -3   -1    0    0    0  501 -0.00000000000E+00 -0.00000000000E+00 -0.20885566374E+03  0.20885566374E+03  0.00000000000E+00 0.  1.
         25    2    1    2    0    0  0.12286429843E+03 -0.95457580015E+01 -0.12663661539E+03  0.21649697272E+03  0.12508936611E+03 0.  0.
          5    1    3    3  502    0 -0.20394074162E+02  0.20428384745E+02 -0.20211825444E+02  0.35485594993E+02  0.41800000000E+01 0.  1.
         -5    1    3    3    0  502  0.14325837259E+03 -0.29974142746E+02 -0.10642478995E+03  0.18101137773E+03  0.41800000000E+01 0.  1.
        -11    1    1    2    0    0 -0.11444548408E+03  0.26395485987E+02  0.60461776850E+02  0.13209889086E+03  0.00000000000E+00 0. -1.
         11    1    1    2    0    0 -0.84188143485E+01 -0.16849727986E+02  0.58855251873E+02  0.61795877219E+02  0.00000000000E+00 0.  1.
</event>
<event>
 7    1  0.2499014E-009  0.1154389E+03  0.7561462E-02  0.1250817E+00
         -1   -1    0    0    0  501 -0.00000000000E+00  0.00000000000E+00  0.16465210949E+03  0.16465210949E+03  0.00000000000E+00 0. -1.
          1   -1    0    0  501    0  0.00000000000E+00 -0.00000000000E+00 -0.11469607680E+03  0.11469607680E+03  0.00000000000E+00 0.  1.
         25    2    1    2    0    0 -0.18892916690E+02 -0.72718448216E+02 -0.60336697261E+01  0.14603233921E+03  0.12507647226E+03 0.  0.
          5    1    3    3  502    0  0.39375476974E+02  0.78106104842E+01  0.17194772698E+02  0.43869880683E+02  0.41800000000E+01 0. -1.
         -5    1    3    3    0  502 -0.58268393663E+02 -0.80529058700E+02 -0.23228442424E+02  0.10216245853E+03  0.41800000000E+01 0. -1.
        -11    1    1    2    0    0 -0.72594629557E+01  0.62553004236E+02  0.76113507990E+02  0.98786862689E+02  0.00000000000E+00 0. -1.
         11    1    1    2    0    0  0.26152379645E+02  0.10165443979E+02 -0.20123805573E+02  0.34528984392E+02  0.00000000000E+00 0.  1.
</event>
<event>
 7    1  0.2499014E-009  0.1381389E+03  0.7561462E-02  0.1215855E+00
          2   -1    0    0  501    0  0.00000000000E+00  0.00000000000E+00  0.32727280102E+03  0.32727280102E+03  0.00000000000E+00 0. -1.
         -2   -1    0    0    0  501 -0.00000000000E+00 -0.00000000000E+00 -0.81438682313E+02  0.81438682313E+02  0.00000000000E+00 0.  1.
         25    2    1    2    0    0  0.88069178318E+02 -0.14858229576E+02  0.23734716631E+03  0.28277174827E+03  0.12509691085E+03 0.  0.
          5    1    3    3  502    0  0.11578140996E+03  0.55975431228E+01  0.15654040529E+03  0.19483079395E+03  0.41800000000E+01 0.  1.
         -5    1    3    3    0  502 -0.27712231645E+02 -0.20455772699E+02  0.80806761020E+02  0.87940954316E+02  0.41800000000E+01 0.  1.
        -11    1    1    2    0    0 -0.88384962649E+02 -0.20089853500E+02  0.43145418392E+01  0.90742047075E+02  0.00000000000E+00 0. -1.
         11    1    1    2    0    0  0.31578433080E+00  0.34948083076E+02  0.41724105612E+01  0.35197687996E+02  0.00000000000E+00 0.  1.
</event>
<event>
 7    1  0.2499014E-009  0.1078049E+03  0.7561462E-02  0.1264690E+00
          2   -1    0    0  501    0  0.00000000000E+00  0.00000000000E+00  0.71629852067E+03  0.71629852067E+03  0.00000000000E+00 0. -1.
         -2   -1    0    0    0  501 -0.00000000000E+00 -0.00000000000E+00 -0.22955199839E+02  0.22955199839E+02  0.00000000000E+00 0.  1.
         25    2    1    2    0    0  0.66328159802E+02 -0.92091357602E+01  0.35713535813E+03  0.38428865739E+03  0.12509146737E+03 0.  0.
          5    1    3    3  502    0  0.59370037341E+02  0.26893070847E+02  0.33470533166E+03  0.34101784416E+03  0.41800000000E+01 0.  1.
         -5    1    3    3    0  502  0.69581224606E+01 -0.36102206607E+02  0.22430026468E+02  0.43270813228E+02  0.41800000000E+01 0.  1.
        -11    1    1    2    0    0 -0.89588750244E+02  0.89361837849E+01  0.25188036506E+03  0.26748779010E+03  0.00000000000E+00 0. -1.
         11    1    1    2    0    0  0.23260590443E+02  0.27295197526E+00  0.84327597646E+02  0.87477273022E+02  0.00000000000E+00 0.  1.
</event>
<event>
 7    1  0.3962866E-009  0.1027266E+03  0.7561462E-02  0.1274665E+00
         -1   -1    0    0    0  501 -0.00000000000E+00  0.00000000000E+00  0.31870769175E+02  0.31870769175E+02  0.00000000000E+00 0.  1.
          1   -1    0    0  501    0  0.00000000000E+00 -0.00000000000E+00 -0.48699137799E+03  0.48699137799E+03  0.00000000000E+00 0. -1.
         25    2    1    2    0    0 -0.18701397369E+00  0.55948474637E+02 -0.30656337273E+03  0.33579607970E+03  0.12509052265E+03 0.  0.
          5    1    3    3  502    0  0.45556132860E+02  0.57541819191E+02 -0.99598096007E+02  0.12378883360E+03  0.41800000000E+01 0. -1.
         -5    1    3    3    0  502 -0.45743146833E+02 -0.15933445542E+01 -0.20696527672E+03  0.21200724610E+03  0.41800000000E+01 0. -1.
        -11    1    1    2    0    0  0.28857022138E+02 -0.48373249889E+02 -0.36422937705E+02  0.67077040949E+02  0.00000000000E+00 0.  1.
         11    1    1    2    0    0 -0.28670008164E+02 -0.75752247481E+01 -0.11213429838E+03  0.11598902651E+03  0.00000000000E+00 0. -1.
</event>
<event>
 7    1  0.2499014E-009  0.1665125E+03  0.7561462E-02  0.1181534E+00
         -2   -1    0    0    0  501 -0.00000000000E+00  0.00000000000E+00  0.11474198486E+03  0.11474198486E+03  0.00000000000E+00 0.  1.
          2   -1    0    0  501    0  0.00000000000E+00 -0.00000000000E+00 -0.35233163231E+03  0.35233163231E+03  0.00000000000E+00 0. -1.
         25    2    1    2    0    0 -0.99343781268E+02 -0.11640782493E+03 -0.41664970517E+02  0.20199794815E+03  0.12508889922E+03 0.  0.
          5    1    3    3  502    0 -0.59416904148E+02 -0.33580831476E+01 -0.55190425469E+02  0.81271770525E+02  0.41800000000E+01 0. -1.
         -5    1    3    3    0  502 -0.39926877120E+02 -0.11304974178E+03  0.13525454951E+02  0.12072617763E+03  0.41800000000E+01 0. -1.
        -11    1    1    2    0    0  0.79016469244E+02  0.85635980366E+02 -0.19620355280E+03  0.22819499923E+03  0.00000000000E+00 0. -1.
         11    1    1    2    0    0  0.20327312024E+02  0.30771844563E+02  0.27887586578E+00  0.36880669783E+02  0.00000000000E+00 0.  1.
</event>
<event>
 7    1  0.2499014E-009  0.2224994E+03  0.7561462E-02  0.1132033E+00
          1   -1    0    0  501    0  0.00000000000E+00  0.00000000000E+00  0.15962163275E+03  0.15962163275E+03  0.00000000000E+00 0. -1.
         -1   -1    0    0    0  501 -0.00000000000E+00 -0.00000000000E+00 -0.37432363557E+03  0.37432363557E+03  0.00000000000E+00 0.  1.
         25    2    1    2    0    0  0.53783952474E+02 -0.21213288646E+03 -0.99257737558E+02  0.27091101817E+03  0.12509039227E+03 0.  0.
          5    1    3    3  502    0 -0.63856975071E+01 -0.85210607492E+02  0.18547612665E+02  0.87539197491E+02  0.41800000000E+01 0.  1.
         -5    1    3    3    0  502  0.60169649981E+02 -0.12692227897E+03 -0.11780535022E+03  0.18337182068E+03  0.41800000000E+01 0.  1.
        -11    1    1    2    0    0 -0.10210972338E+02  0.50338106358E+02 -0.74593580735E+02  0.90567053583E+02  0.00000000000E+00 0.  1.
         11    1    1    2    0    0 -0.43572980137E+02  0.16179478011E+03 -0.40850684529E+02  0.17246719657E+03  0.00000000000E+00 0. -1.
</event>
<event>
 7    1  0.2499014E-009  0.9502384E+02  0.7561462E-02  0.1291122E+00
         -1   -1    0    0    0  501 -0.00000000000E+00  0.00000000000E+00  0.10722531998E+03  0.10722531998E+03  0.00000000000E+00 0.  1.
          1   -1    0    0  501    0  0.00000000000E+00 -0.00000000000E+00 -0.13394096270E+03  0.13394096270E+03  0.00000000000E+00 0. -1.
         25    2    1    2    0    0  0.29696391912E+02  0.10188911454E+02  0.22573215541E+02  0.13092732975E+03  0.12508687384E+03 0.  0.
          5    1    3    3  502    0  0.36637804122E+02 -0.44879172653E+02  0.42319907825E+02  0.71867348826E+02  0.41800000000E+01 0. -1.
         -5    1    3    3    0  502 -0.69414122102E+01  0.55068084107E+02 -0.19746692284E+02  0.59059980925E+02  0.41800000000E+01 0. -1.
        -11    1    1    2    0    0  0.22943011242E+02 -0.20233536502E+01  0.14435897870E+02  0.27182179312E+02  0.00000000000E+00 0.  1.
         11    1    1    2    0    0 -0.52639403154E+02 -0.81655578036E+01 -0.63724756131E+02  0.83056773610E+02  0.00000000000E+00 0. -1.
</event>
<event>
 7    1  0.2499014E-009  0.1216159E+03  0.7561462E-02  0.1240455E+00
          4   -1    0    0  501    0  0.00000000000E+00  0.00000000000E+00  0.22738043110E+03  0.22738043110E+03  0.00000000000E+00 0. -1.
         -4   -1    0    0    0  501 -0.00000000000E+00 -0.00000000000E+00 -0.82138586368E+02  0.82138586368E+02  0.00000000000E+00 0.  1.
         25    2    1    2    0    0 -0.20953724767E+02 -0.76171437265E+02  0.11194649699E+03  0.18552687962E+03  0.12508820262E+03 0.  0.
          5    1    3    3  502    0 -0.71654425873E+02 -0.50065418292E+02  0.48257744985E+02  0.99935905495E+02  0.41800000000E+01 0. -1.
         -5    1    3    3    0  502  0.50700701107E+02 -0.26106018973E+02  0.63688752002E+02  0.85590974121E+02  0.41800000000E+01 0. -1.
        -11    1    1    2    0    0 -0.13493594346E+02  0.58087196800E+02  0.53533298342E+02  0.80137466592E+02  0.00000000000E+00 0. -1.
         11    1    1    2    0    0  0.34447319113E+02  0.18084240465E+02 -0.20237950594E+02  0.43854671262E+02  0.00000000000E+00 0.  1.
</event>
<event>
 7    1  0.2499014E-009  0.1660679E+03  0.7561462E-02  0.1182012E+00
          1   -1    0    0  501    0  0.00000000000E+00  0.00000000000E+00  0.33873303596E+03  0.33873303596E+03  0.00000000000E+00 0. -1.
         -1   -1    0    0    0  501 -0.00000000000E+00 -0.00000000000E+00 -0.12064033953E+03  0.12064033953E+03  0.00000000000E+00 0.  1.
         25    2    1    2    0    0  0.87015859006E+02  0.11830332659E+03  0.14053017707E+02  0.19342172411E+03  0.12508812593E+03 0.  0.
          5    1    3    3  502    0  0.53365869699E+01  0.63023724704E+02  0.57487339964E+02  0.85572984594E+02  0.41800000000E+01 0.  1.
         -5    1    3    3    0  502  0.81679272036E+02  0.55279601889E+02 -0.43434322257E+02  0.10784873952E+03  0.41800000000E+01 0.  1.
        -11    1    1    2    0    0 -0.85326875770E+02 -0.44543769487E+02  0.10485328739E+03  0.14233423694E+03  0.00000000000E+00 0.  1.
         11    1    1    2    0    0 -0.16889832361E+01 -0.73759557106E+02  0.99186391328E+02  0.12361741444E+03  0.00000000000E+00 0. -1.
</event>
<event>
 7    1  0.2499014E-009  0.1755427E+03  0.7561462E-02  0.1172188E+00
         -2   -1    0    0    0  501 -0.00000000000E+00  0.00000000000E+00  0.41428932009E+02  0.41428932009E+02  0.00000000000E+00 0.  1.
          2   -1    0    0  501    0  0.00000000000E+00 -0.00000000000E+00 -0.10070361156E+04  0.10070361156E+04  0.00000000000E+00 0. -1.
         25    2    1    2    0    0  0.11216323608E+03 -0.12494627798E+03 -0.60595497142E+03  0.64110933907E+03  0.12509034072E+03 0.  0.
          5    1    3    3  502    0  0.15723286517E+02 -0.58783976813E+02 -0.71452233621E+02  0.93945046481E+02  0.41800000000E+01 0. -1.
         -5    1    3    3    0  502  0.96439949565E+02 -0.66162301171E+02 -0.53450273780E+03  0.54716429259E+03  0.41800000000E+01 0. -1.
        -11    1    1    2    0    0 -0.16817076548E+02  0.46976934377E+02 -0.37367715494E+02  0.62337730054E+02  0.00000000000E+00 0. -1.
         11    1    1    2    0    0 -0.95346159534E+02  0.77969343607E+02 -0.32228449668E+03  0.34501797849E+03  0.00000000000E+00 0.  1.
</event>
<event>
 7    1  0.2499014E-009  0.3828886E+03  0.7561462E-02  0.1049871E+00
         -2   -1    0    0    0  501 -0.00000000000E+00  0.00000000000E+00  0.12118275111E+03  0.12118275111E+03  0.00000000000E+00 0.  1.
          2   -1    0    0  501    0  0.00000000000E+00 -0.00000000000E+00 -0.13241868637E+04  0.13241868637E+04  0.00000000000E+00 0. -1.
         25    2    1    2    0    0 -0.14728265138E+03  0.34947965974E+03 -0.48606173159E+03  0.62907232326E+03  0.12509104288E+03 0.  0.
          5    1    3    3  502    0 -0.90458934184E+02  0.27535359425E+03 -0.43447326727E+03  0.52229006597E+03  0.41800000000E+01 0. -1.
         -5    1    3    3    0  502 -0.56823717197E+02  0.74126065491E+02 -0.51588464317E+02  0.10678225729E+03  0.41800000000E+01 0. -1.
        -11    1    1    2    0    0  0.81632872843E+02 -0.13156884502E+03 -0.21283587250E+03  0.26319839576E+03  0.00000000000E+00 0.  1.
         11    1    1    2    0    0  0.65649778537E+02 -0.21791081473E+03 -0.50410650850E+03  0.55309889577E+03  0.00000000000E+00 0. -1.
</event>
<event>
 7    1  0.2499014E-009  0.1151992E+03  0.7561462E-02  0.1251234E+00
         -3   -1    0    0    0  501 -0.00000000000E+00  0.00000000000E+00  0.39458985730E+03  0.39458985730E+03  0.00000000000E+00 0.  1.
          3   -1    0    0  501    0  0.00000000000E+00 -0.00000000000E+00 -0.42098173586E+02  0.42098173586E+02  0.00000000000E+00 0. -1.
         25    2    1    2    0    0  0.58000001888E+02  0.30752518779E+02  0.22258249067E+03  0.26362572303E+03  0.12508332848E+03 0.  0.
          5    1    3    3  502    0  0.88506477599E+02  0.19319499029E+02  0.92807857821E+02  0.12975904783E+03  0.41800000000E+01 0.  1.
         -5    1    3    3    0  502 -0.30506475711E+02  0.11433019750E+02  0.12977463284E+03  0.13386667521E+03  0.41800000000E+01 0.  1.
        -11    1    1    2    0    0 -0.39795854171E+02 -0.60248188357E+02  0.11395733776E+03  0.13490674201E+03  0.00000000000E+00 0.  1.
         11    1    1    2    0    0 -0.18204147717E+02  0.29495669578E+02  0.15951855290E+02  0.38155565848E+02  0.00000000000E+00 0. -1.
</event>
<event>
 7    1  0.2499014E-009  0.1246919E+03  0.7561462E-02  0.1235551E+00
          2   -1    0    0  501    0  0.00000000000E+00  0.00000000000E+00  0.10190863385E+04  0.10190863385E+04  0.00000000000E+00 0. -1.
         -2   -1    0    0    0  501 -0.00000000000E+00 -0.00000000000E+00 -0.17496513408E+02  0.17496513408E+02  0.00000000000E+00 0.  1.
         25    2    1    2    0    0 -0.64077535331E+02 -0.60260029456E+01  0.39006647902E+03  0.41465988196E+03  0.12509482965E+03 0.  0.
          5    1    3    3  502    0  0.28254602297E+02 -0.29237454689E+02  0.17002522042E+03  0.17486909186E+03  0.41800000000E+01 0. -1.
         -5    1    3    3    0  502 -0.92332137628E+02  0.23211451743E+02  0.22004125860E+03  0.23979079010E+03  0.41800000000E+01 0. -1.
        -11    1    1    2    0    0  0.13298109370E+02 -0.41551875067E+02  0.22726321915E+03  0.23141298325E+03  0.00000000000E+00 0. -1.
         11    1    1    2    0    0  0.50779425961E+02  0.47577878013E+02  0.38426012688E+03  0.39050998667E+03  0.00000000000E+00 0.  1.
</event>
<event>
 7    1  0.2499014E-009  0.9466847E+02  0.7561462E-02  0.1291925E+00
          1   -1    0    0  501    0  0.00000000000E+00  0.00000000000E+00  0.10809485176E+04  0.10809485176E+04  0.00000000000E+00 0. -1.
         -1   -1    0    0    0  501 -0.00000000000E+00 -0.00000000000E+00 -0.29553175584E+02  0.29553175584E+02  0.00000000000E+00 0.  1.
         25    2    1    2    0    0 -0.17500286771E+02 -0.29776715300E+02  0.94204436293E+03  0.95094034045E+03  0.12508811519E+03 0.  0.
          5    1    3    3  502    0  0.19025744350E+01  0.45857881585E+02  0.49193941020E+03  0.49409353447E+03  0.41800000000E+01 0.  1.
         -5    1    3    3    0  502 -0.19402861206E+02 -0.75634596886E+02  0.45010495273E+03  0.45684680599E+03  0.41800000000E+01 0.  1.
        -11    1    1    2    0    0 -0.19382175304E+02  0.17691272876E+02 -0.14353555575E+02  0.29911108524E+02  0.00000000000E+00 0.  1.
         11    1    1    2    0    0  0.36882462075E+02  0.12085442425E+02  0.12370453469E+03  0.12965024423E+03  0.00000000000E+00 0. -1.
</event>
<event>
 7    1  0.2499014E-009  0.1228386E+03  0.7561462E-02  0.1238486E+00
          1   -1    0    0  501    0  0.00000000000E+00  0.00000000000E+00  0.44497170749E+03  0.44497170749E+03  0.00000000000E+00 0. -1.
         -1   -1    0    0    0  501 -0.00000000000E+00 -0.00000000000E+00 -0.41946042637E+02  0.41946042637E+02  0.00000000000E+00 0.  1.
         25    2    1    2    0    0  0.16866618699E+01 -0.77910699219E+02  0.17744518914E+03  0.23066783771E+03  0.12509170365E+03 0.  0.
          5    1    3    3  502    0 -0.56740896391E+02 -0.22477660337E+02  0.10854157868E+03  0.12459342374E+03  0.41800000000E+01 0.  1.
         -5    1    3    3    0  502  0.58427558261E+02 -0.55433038882E+02  0.68903610463E+02  0.10607441397E+03  0.41800000000E+01 0.  1.
        -11    1    1    2    0    0 -0.24606446071E+01  0.90854868331E+02  0.22566708367E+03  0.24328233500E+03  0.00000000000E+00 0. -1.
         11    1    1    2    0    0  0.77398273723E+00 -0.12944169113E+02 -0.86607950311E-01  0.12967577423E+02  0.00000000000E+00 0.  1.
</event>
<event>
 7    1  0.2499014E-009  0.9398998E+02  0.7561462E-02  0.1293467E+00
         -1   -1    0    0    0  501 -0.00000000000E+00  0.00000000000E+00  0.97123785883E+02  0.97123785883E+02  0.00000000000E+00 0.  1.
          1   -1    0    0  501    0  0.00000000000E+00 -0.00000000000E+00 -0.13698980889E+03  0.13698980889E+03  0.00000000000E+00 0. -1.
         25    2    1    2    0    0 -0.86930525502E+01  0.24159335999E+02  0.87435609026E+01  0.12800031023E+03  0.12509351256E+03 0.  0.
          5    1    3    3  502    0 -0.64945013218E+02  0.30730772960E+01  0.16698205724E+02  0.67257720898E+02  0.41800000000E+01 0.  1.
         -5    1    3    3    0  502  0.56251960668E+02  0.21086258702E+02 -0.79546448218E+01  0.60742589336E+02  0.41800000000E+01 0.  1.
        -11    1    1    2    0    0 -0.16633287858E+02 -0.32026674027E+02  0.13537692168E+02  0.38544042646E+02  0.00000000000E+00 0.  1.
         11    1    1    2    0    0  0.25326340408E+02  0.78673380288E+01 -0.62147276081E+02  0.67569241896E+02  0.00000000000E+00 0. -1.
</event>
<event>
 7    1  0.2499014E-009  0.4492404E+03  0.7561462E-02  0.1027949E+00
          1   -1    0    0  501    0  0.00000000000E+00  0.00000000000E+00  0.82639114036E+03  0.82639114036E+03  0.00000000000E+00 0. -1.
         -1   -1    0    0    0  501 -0.00000000000E+00 -0.00000000000E+00 -0.34745747412E+03  0.34745747412E+03  0.00000000000E+00 0.  1.
         25    2    1    2    0    0  0.18054404275E+03  0.40390464525E+03 -0.67811867682E+02  0.46473721306E+03  0.12508842462E+03 0.  0.
          5    1    3    3  502    0  0.11636477811E+03  0.13886083447E+03 -0.63323779514E+02  0.19196475298E+03  0.41800000000E+01 0. -1.
         -5    1    3    3    0  502  0.64179264647E+02  0.26504381078E+03 -0.44880881688E+01  0.27277246008E+03  0.41800000000E+01 0. -1.
        -11    1    1    2    0    0 -0.22776609387E+02 -0.94660932488E+02  0.17644018849E+03  0.20152073389E+03  0.00000000000E+00 0.  1.
         11    1    1    2    0    0 -0.15776743337E+03 -0.30924371276E+03  0.37030534543E+03  0.50759066754E+03  0.00000000000E+00 0. -1.
</event>
<event>
 7    1  0.2499014E-009  0.1083724E+03  0.7561462E-02  0.1263614E+00
          2   -1    0    0  501    0  0.00000000000E+00  0.00000000000E+00  0.51827456692E+03  0.51827456692E+03  0.00000000000E+00 0. -1.
         -2   -1    0    0    0  501 -0.00000000000E+00 -0.00000000000E+00 -0.30754035692E+02  0.30754035692E+02  0.00000000000E+00 0.  1.
         25    2    1    2    0    0 -0.50519173374E+02  0.40234500123E+02  0.28970118371E+03  0.32209521874E+03  0.12509017634E+03 0.  0.
          5    1    3    3  502    0 -0.40596334830E+02 -0.19280812068E+02  0.27160536222E+02  0.52678071752E+02  0.41800000000E+01 0. -1.
         -5    1    3    3    0  502 -0.99228385433E+01  0.59515312191E+02  0.26254064748E+03  0.26941714699E+03  0.41800000000E+01 0. -1.
        -11    1    1    2    0    0  0.38814941893E+02 -0.69501987844E+02  0.13785182927E+03  0.15918622070E+03  0.00000000000E+00 0.  1.
         11    1    1    2    0    0  0.11704231480E+02  0.29267487721E+02  0.59967518252E+02  0.67747163168E+02  0.00000000000E+00 0. -1.
</event>
<event>
 7    1  0.2499014E-009  0.8691676E+02  0.7561462E-02  0.1310495E+00
          1   -1    0    0  501    0  0.00000000000E+00  0.00000000000E+00  0.37172720806E+03  0.37172720806E+03  0.00000000000E+00 0. -1.
         -1   -1    0    0    0  501 -0.00000000000E+00 -0.00000000000E+00 -0.36013992537E+02  0.36013992537E+02  0.00000000000E+00 0.  1.
         25    2    1    2    0    0 -0.46536327964E+02 -0.41379751099E+01  0.25694157154E+03  0.28956273457E+03  0.12507938843E+03 0.  0.
          5    1    3    3  502    0 -0.62489800187E+02  0.11037866756E+02  0.48651247995E+02  0.80070131519E+02  0.41800000000E+01 0.  1.
         -5    1    3    3    0  502  0.15953472223E+02 -0.15175841866E+02  0.20829032354E+03  0.20949260305E+03  0.41800000000E+01 0.  1.
        -11    1    1    2    0    0  0.32983122320E+02  0.38613684491E+02  0.40938315345E+02  0.65229200909E+02  0.00000000000E+00 0. -1.
         11    1    1    2    0    0  0.13553205645E+02 -0.34475709381E+02  0.37833328644E+02  0.52949265121E+02  0.00000000000E+00 0.  1.
</event>
<event>
 7    1  0.2499014E-009  0.7920684E+02  0.7561462E-02  0.1331317E+00
         -2   -1    0    0    0  501 -0.00000000000E+00  0.00000000000E+00  0.17270895698E+02  0.17270895698E+02  0.00000000000E+00 0.  1.
          2   -1    0    0  501    0  0.00000000000E+00 -0.00000000000E+00 -0.59150928367E+03  0.59150928367E+03  0.00000000000E+00 0. -1.
         25    2    1    2    0    0 -0.42262750993E+01 -0.13551441303E+02 -0.36066918100E+03  0.38200806586E+03  0.12508557591E+03 0.  0.
          5    1    3    3  502    0  0.37556147092E+02 -0.28076076545E+02 -0.51946952727E+02  0.70104839749E+02  0.41800000000E+01 0.  1.
         -5    1    3    3    0  502 -0.41782422192E+02  0.14524635242E+02 -0.30872222827E+03  0.31190322612E+03  0.41800000000E+01 0.  1.
        -11    1    1    2    0    0 -0.72171449721E+01 -0.25348990238E+02 -0.35909678286E+02  0.44543950007E+02  0.00000000000E+00 0.  1.
         11    1    1    2    0    0  0.11443420071E+02  0.38900431542E+02 -0.17765952869E+03  0.18222816349E+03  0.00000000000E+00 0. -1.
</event>
<event>
 7    1  0.2499014E-009  0.1876550E+03  0.7561462E-02  0.1160594E+00
          1   -1    0    0  501    0  0.00000000000E+00  0.00000000000E+00  0.78106724576E+03  0.78106724576E+03  0.00000000000E+00 0. -1.
         -1   -1    0    0    0  501 -0.00000000000E+00 -0.00000000000E+00 -0.52088486610E+02  0.52088486610E+02  0.00000000000E+00 0.  1.
         25    2    1    2    0    0 -0.10023055861E+03  0.13298072439E+03  0.44968856606E+03  0.49557725341E+03  0.12508784799E+03 0.  0.
          5    1    3    3  502    0  0.14491230898E+02  0.80406602367E+02  0.18746682349E+03  0.20453972668E+03  0.41800000000E+01 0. -1.
         -5    1    3    3    0  502 -0.11472178951E+03  0.52574122020E+02  0.26222174257E+03  0.29103752674E+03  0.41800000000E+01 0. -1.
        -11    1    1    2    0    0  0.72210256955E+02 -0.83671602077E+02  0.25088021436E+03  0.27414620216E+03  0.00000000000E+00 0. -1.
         11    1    1    2    0    0  0.28020301658E+02 -0.49309122310E+02  0.28409978730E+02  0.63432276795E+02  0.00000000000E+00 0.  1.
</event>
<event>
 7    1  0.2499014E-009  0.1090386E+03  0.7561462E-02  0.1262361E+00
         -2   -1    0    0    0  501 -0.00000000000E+00  0.00000000000E+00  0.14750339729E+03  0.14750339729E+03  0.00000000000E+00 0.  1.
          2   -1    0    0  501    0  0.00000000000E+00 -0.00000000000E+00 -0.10077869526E+03  0.10077869526E+03  0.00000000000E+00 0. -1.
         25    2    1    2    0    0 -0.21269731167E+02 -0.17322291633E+02 -0.23918467734E+02  0.13028008305E+03  0.12509333991E+03 0.  0.
          5    1    3    3  502    0  0.47351592929E+02  0.11716531616E+02  0.70815403683E+01  0.49467879276E+02  0.41800000000E+01 0. -1.
         -5    1    3    3    0  502 -0.68621324097E+02 -0.29038823249E+02 -0.31000008103E+02  0.80812203774E+02  0.41800000000E+01 0. -1.
        -11    1    1    2    0    0 -0.14922824740E+02  0.45969430952E+02  0.34622592592E+02  0.59452528946E+02  0.00000000000E+00 0.  1.
         11    1    1    2    0    0  0.36192555907E+02 -0.28647139319E+02  0.36020577168E+02  0.58549480559E+02  0.00000000000E+00 0. -1.
</event>
<event>
 7    1  0.2499014E-009  0.8728292E+02  0.7561462E-02  0.1309568E+00
          4   -1    0    0  501    0  0.00000000000E+00  0.00000000000E+00  0.10796756603E+03  0.10796756603E+03  0.00000000000E+00 0. -1.
         -4   -1    0    0    0  501 -0.00000000000E+00 -0.00000000000E+00 -0.11081283110E+03  0.11081283110E+03  0.00000000000E+00 0.  1.
         25    2    1    2    0    0 -0.74783457767E+01 -0.13257696380E+02 -0.16317716314E+02  0.12707139551E+03  0.12509668070E+03 0.  0.
          5    1    3    3  502    0 -0.58486933325E+01  0.49948758414E+02  0.19714427766E+02  0.54177640618E+02  0.41800000000E+01 0. -1.
         -5    1    3    3    0  502 -0.16296524442E+01 -0.63206454794E+02 -0.36032144080E+02  0.72893754889E+02  0.41800000000E+01 0. -1.
        -11    1    1    2    0    0 -0.25091092389E+02 -0.11624075450E+01 -0.27616402968E+02  0.37330682039E+02  0.00000000000E+00 0.  1.
         11    1    1    2    0    0  0.32569438165E+02  0.14420103925E+02  0.41088854220E+02  0.54378319584E+02  0.00000000000E+00 0. -1.
</event>
<event>
 7    1  0.2499014E-009  0.7086130E+02  0.7561462E-02  0.1357188E+00
         -2   -1    0    0    0  501 -0.00000000000E+00  0.00000000000E+00  0.22621007428E+02  0.22621007428E+02  0.00000000000E+00 0.  1.
          2   -1    0    0  501    0  0.00000000000E+00 -0.00000000000E+00 -0.71490309421E+03  0.71490309421E+03  0.00000000000E+00 0. -1.
         25    2    1    2    0    0  0.66285588290E+02  0.32486755531E+01 -0.38860619017E+03  0.41360213077E+03  0.12509044102E+03 0.  0.
          5    1    3    3  502    0  0.53538656634E+02  0.37227157059E+00 -0.45969385939E+02  0.70690757415E+02  0.41800000000E+01 0. -1.
         -5    1    3    3    0  502  0.12746931656E+02  0.28764039825E+01 -0.34263680423E+03  0.34291137336E+03  0.41800000000E+01 0. -1.
        -11    1    1    2    0    0 -0.60530962585E+02  0.85894039177E+01 -0.30464935268E+03  0.31072335506E+03  0.00000000000E+00 0. -1.
         11    1    1    2    0    0 -0.57546257042E+01 -0.11838079471E+02  0.97345606272E+00  0.13198615809E+02  0.00000000000E+00 0.  1.
</event>
<event>
 7    1  0.2499014E-009  0.1489610E+03  0.7561462E-02  0.1201756E+00
         -2   -1    0    0    0  501 -0.00000000000E+00  0.00000000000E+00  0.31651956368E+02  0.31651956368E+02  0.00000000000E+00 0.  1.
          2   -1    0    0  501    0  0.00000000000E+00 -0.00000000000E+00 -0.11757827601E+04  0.11757827601E+04  0.00000000000E+00 0. -1.
         25    2    1    2    0    0  0.25996967723E+02  0.13682845693E+03 -0.83640200373E+03  0.85709559057E+03  0.12508665226E+03 0.  0.
          5    1    3    3  502    0  0.16022232846E+02  0.14270927410E+03 -0.49385900794E+03  0.51433145051E+03  0.41800000000E+01 0.  1.
         -5    1    3    3    0  502  0.99747348765E+01 -0.58808171673E+01 -0.34254299579E+03  0.34276414006E+03  0.41800000000E+01 0.  1.
        -11    1    1    2    0    0  0.18806046869E+01 -0.63001422372E+02 -0.48978434656E+02  0.79822321165E+02  0.00000000000E+00 0.  1.
         11    1    1    2    0    0 -0.27877572410E+02 -0.73827034563E+02 -0.25875036531E+03  0.27051680470E+03  0.00000000000E+00 0. -1.
</event>
<event>
 7    1  0.2499014E-009  0.1248214E+03  0.7561462E-02  0.1235349E+00
          1   -1    0    0  501    0  0.00000000000E+00  0.00000000000E+00  0.90892025901E+02  0.90892025901E+02  0.00000000000E+00 0. -1.
         -1   -1    0    0    0  501 -0.00000000000E+00 -0.00000000000E+00 -0.18545176055E+03  0.18545176055E+03  0.00000000000E+00 0.  1.
         25    2    1    2    0    0  0.67596782274E+02 -0.15022385710E+02 -0.68852586231E+02  0.15868395040E+03  0.12507965638E+03 0.  0.
          5    1    3    3  502    0  0.20652794266E+02 -0.64874196796E+02 -0.57364292823E+02  0.89125382535E+02  0.41800000000E+01 0.  1.
         -5    1    3    3    0  502  0.46943988008E+02  0.49851811086E+02 -0.11488293408E+02  0.69558567870E+02  0.41800000000E+01 0.  1.
        -11    1    1    2    0    0 -0.70330479181E+02 -0.23543317433E+02 -0.27125810588E+02  0.78971347321E+02  0.00000000000E+00 0.  1.
         11    1    1    2    0    0  0.27336969068E+01  0.38565703144E+02  0.14186621664E+01  0.38688488728E+02  0.00000000000E+00 0. -1.
</event>
<event>
 7    1  0.2499014E-009  0.1640795E+03  0.7561462E-02  0.1184167E+00
          2   -1    0    0  501    0  0.00000000000E+00  0.00000000000E+00  0.52594331310E+03  0.52594331310E+03  0.00000000000E+00 0. -1.
         -2   -1    0    0    0  501 -0.00000000000E+00 -0.00000000000E+00 -0.91483806871E+02  0.91483806871E+02  0.00000000000E+00 0.  1.
         25    2    1    2    0    0  0.18828850544E+02 -0.14971304313E+03  0.61972404509E+02  0.20556213754E+03  0.12508674020E+03 0.  0.
          5    1    3    3  502    0  0.31061322557E+02 -0.44015717402E+02  0.81021746883E+02  0.97386780445E+02  0.41800000000E+01 0.  1.
         -5    1    3    3    0  502 -0.12232472012E+02 -0.10569732573E+03 -0.19049342374E+02  0.10817535709E+03  0.41800000000E+01 0.  1.
        -11    1    1    2    0    0  0.19159126307E+02  0.11367320014E+03  0.30755846708E+03  0.32845224801E+03  0.00000000000E+00 0. -1.
         11    1    1    2    0    0 -0.37987976851E+02  0.36039842994E+02  0.64928634648E+02  0.83412734433E+02  0.00000000000E+00 0.  1.
</event>
<event>
 7    1  0.2499014E-009  0.1025817E+03  0.7561462E-02  0.1274959E+00
          2   -1    0    0  501    0  0.00000000000E+00  0.00000000000E+00  0.58556411121E+03  0.58556411121E+03  0.00000000000E+00 0. -1.
         -2   -1    0    0    0  501 -0.00000000000E+00 -0.00000000000E+00 -0.19258948948E+02  0.19258948948E+02  0.00000000000E+00 0.  1.
         25    2    1    2    0    0 -0.75247777726E+01  0.36854115590E+01  0.31933859103E+03  0.34306702341E+03  0.12509053640E+03 0.  0.
          5    1    3    3  502    0 -0.65729158496E+02  0.25139134374E+00  0.19117215466E+03  0.20219953163E+03  0.41800000000E+01 0. -1.
         -5    1    3    3    0  502  0.58204380723E+02  0.34340202152E+01  0.12816643637E+03  0.14086749178E+03  0.41800000000E+01 0. -1.
        -11    1    1    2    0    0  0.36347084463E+02 -0.25752795790E+02  0.18162961778E+03  0.18701239289E+03  0.00000000000E+00 0.  1.
         11    1    1    2    0    0 -0.28822306690E+02  0.22067384231E+02  0.65336953459E+02  0.74743643857E+02  0.00000000000E+00 0. -1.
</event>
<event>
 7    1  0.2499014E-009  0.1209410E+03  0.7561462E-02  0.1241553E+00
          3   -1    0    0  501    0  0.00000000000E+00  0.00000000000E+00  0.10574778088E+03  0.10574778088E+03  0.00000000000E+00 0. -1.
         -3   -1    0    0    0  501 -0.00000000000E+00 -0.00000000000E+00 -0.17755407620E+03  0.17755407620E+03  0.00000000000E+00 0.  1.
         25    2    1    2    0    0  0.28530900612E+02  0.56732519936E+02 -0.94732496933E+02  0.16927527553E+03  0.12508909554E+03 0.  0.
          5    1    3    3  502    0  0.65636701889E+02  0.73949928840E+02 -0.62750476039E+02  0.11718303313E+03  0.41800000000E+01 0.  1.
         -5    1    3    3    0  502 -0.37105801277E+02 -0.17217408905E+02 -0.31982020894E+02  0.52092242400E+02  0.41800000000E+01 0.  1.
        -11    1    1    2    0    0 -0.41175565254E+02 -0.71406064420E+02  0.36730698932E+02  0.90240774897E+02  0.00000000000E+00 0. -1.
         11    1    1    2    0    0  0.12644664643E+02  0.14673544484E+02 -0.13804497319E+02  0.23785806648E+02  0.00000000000E+00 0.  1.
</event>
<event>
 7    1  0.2499014E-009  0.7243225E+02  0.7561462E-02  0.1352012E+00
          1   -1    0    0  501    0  0.00000000000E+00  0.00000000000E+00  0.30478557618E+03  0.30478557618E+03  0.00000000000E+00 0. -1.
         -1   -1    0    0    0  501 -0.00000000000E+00 -0.00000000000E+00 -0.40079212402E+02  0.40079212402E+02  0.00000000000E+00 0.  1.
         25    2    1    2    0    0  0.20299304810E+02  0.15748652075E+02  0.15515487762E+03  0.20095054041E+03  0.12509197345E+03 0.  0.
          5    1    3    3  502    0  0.25934427026E+02 -0.74712424574E+01 -0.13566185759E+02  0.30494717002E+02  0.41800000000E+01 0.  1.
         -5    1    3    3    0  502 -0.56351222160E+01  0.23219894533E+02  0.16872106338E+03  0.17045582341E+03  0.41800000000E+01 0.  1.
        -11    1    1    2    0    0 -0.46669698521E+02  0.18387437366E+02  0.57097087306E+02  0.76001552562E+02  0.00000000000E+00 0. -1.
         11    1    1    2    0    0  0.26370393712E+02 -0.34136089441E+02  0.52454398853E+02  0.67912695616E+02  0.00000000000E+00 0.  1.
</event>
<event>
 7    1  0.2713576E-009  0.2349387E+03  0.7561462E-02  0.1123211E+00
          1   -1    0    0  501    0  0.00000000000E+00  0.00000000000E+00  0.25895802578E+03  0.25895802578E+03  0.00000000000E+00 0. -1.
         -1   -1    0    0    0  501 -0.00000000000E+00 -0.00000000000E+00 -0.24841800632E+03  0.24841800632E+03  0.00000000000E+00 0.  1.
         25    2    1    2    0    0 -0.22196580999E+03  0.42105045815E+01 -0.50251649559E+02  0.25972933258E+03  0.12509016255E+03 0.  0.
          5    1    3    3  502    0 -0.23418089268E+03  0.32130408729E+00 -0.31051736178E+02  0.23626780664E+03  0.41800000000E+01 0. -1.
         -5    1    3    3    0  502  0.12215082696E+02  0.38892004942E+01 -0.19199913380E+02  0.23461525943E+02  0.41800000000E+01 0. -1.
        -11    1    1    2    0    0  0.13499740611E+03 -0.67996444717E+01  0.81994236414E+02  0.15809361033E+03  0.00000000000E+00 0. -1.
         11    1    1    2    0    0  0.86968403879E+02  0.25891398903E+01 -0.21202567397E+02  0.89553089187E+02  0.00000000000E+00 0.  1.
</event>
<event>
 7    1  0.2499014E-009  0.1777446E+03  0.7561462E-02  0.1170004E+00
          2   -1    0    0  501    0  0.00000000000E+00  0.00000000000E+00  0.10740634692E+03  0.10740634692E+03  0.00000000000E+00 0. -1.
         -2   -1    0    0    0  501 -0.00000000000E+00 -0.00000000000E+00 -0.34381713215E+03  0.34381713215E+03  0.00000000000E+00 0.  1.
         25    2    1    2    0    0 -0.77442451306E+02  0.11873978571E+03 -0.20579729804E+03  0.27945751493E+03  0.12508998679E+03 0.  0.
          5    1    3    3  502    0 -0.11104519602E+03  0.84318452116E+02 -0.13796541284E+03  0.19619522029E+03  0.41800000000E+01 0.  1.
         -5    1    3    3    0  502  0.33602744711E+02  0.34421333594E+02 -0.67831885194E+02  0.83262294632E+02  0.41800000000E+01 0.  1.
        -11    1    1    2    0    0  0.62771455760E+01 -0.91180946650E+02 -0.60566751080E+01  0.91597221039E+02  0.00000000000E+00 0.  1.
         11    1    1    2    0    0  0.71165305730E+02 -0.27558839059E+02 -0.24556812087E+02  0.80168743097E+02  0.00000000000E+00 0. -1.
</event>
<event>
 7    1  0.2499014E-009  0.1290338E+03  0.7561462E-02  0.1228896E+00
         -1   -1    0    0    0  501 -0.00000000000E+00  0.00000000000E+00  0.32299407520E+02  0.32299407520E+02  0.00000000000E+00 0.  1.
          1   -1    0    0  501    0  0.00000000000E+00 -0.00000000000E+00 -0.65265292687E+03  0.65265292687E+03  0.00000000000E+00 0. -1.
         25    2    1    2    0    0 -0.87571617668E+02 -0.22827688136E+02 -0.40854167860E+03  0.43674181111E+03  0.12508882784E+03 0.  0.
          5    1    3    3  502    0 -0.94451592885E+02  0.20596614218E+02 -0.35165132280E+03  0.36472105662E+03  0.41800000000E+01 0.  1.
         -5    1    3    3    0  502  0.68799752175E+01 -0.43424302354E+02 -0.56890355807E+02  0.72020754493E+02  0.41800000000E+01 0.  1.
        -11    1    1    2    0    0  0.69785140843E+02 -0.18460434246E+02 -0.74537379614E+02  0.10376210520E+03  0.00000000000E+00 0.  1.
         11    1    1    2    0    0  0.17786476825E+02  0.41288122382E+02 -0.13727446113E+03  0.14444841809E+03  0.00000000000E+00 0. -1.
</event>
<event>
 7    1  0.2499014E-009  0.1055001E+03  0.7561462E-02  0.1269137E+00
          2   -1    0    0  501    0  0.00000000000E+00  0.00000000000E+00  0.54100275063E+03  0.54100275063E+03  0.00000000000E+00 0. -1.
         -2   -1    0    0    0  501 -0.00000000000E+00 -0.00000000000E+00 -0.30610086913E+02  0.30610086913E+02  0.00000000000E+00 0.  1.
         25    2    1    2    0    0  0.18003562272E+02  0.36969494944E+02  0.40817899820E+03  0.42889070599E+03  0.12508505628E+03 0.  0.
          5    1    3    3  502    0  0.60526282637E+02  0.46926500841E+02  0.33413202195E+03  0.34282241447E+03  0.41800000000E+01 0. -1.
         -5    1    3    3    0  502 -0.42522720365E+02 -0.99570058971E+01  0.74046976256E+02  0.86068291527E+02  0.41800000000E+01 0. -1.
        -11    1    1    2    0    0  0.57862023857E+00  0.25370208031E+02  0.51778208550E+01  0.25899654162E+02  0.00000000000E+00 0.  1.
         11    1    1    2    0    0 -0.18582182510E+02 -0.62339702975E+02  0.97035844657E+02  0.11682247738E+03  0.00000000000E+00 0. -1.
</event>
<event>
 7    1  0.2499014E-009  0.1128901E+03  0.7561462E-02  0.1255309E+00
          1   -1    0    0  501    0  0.00000000000E+00  0.00000000000E+00  0.55021070166E+03  0.55021070166E+03  0.00000000000E+00 0. -1.
         -1   -1    0    0    0  501 -0.00000000000E+00 -0.00000000000E+00 -0.36256046526E+02  0.36256046526E+02  0.00000000000E+00 0.  1.
         25    2    1    2    0    0  0.64939445193E+02  0.53356220732E+02  0.34331868608E+03  0.37493694491E+03  0.12508387034E+03 0.  0.
          5    1    3    3  502    0  0.67328587662E+02  0.18639050006E+02  0.68629107906E+02  0.98020302763E+02  0.41800000000E+01 0. -1.
         -5    1    3    3    0  502 -0.23891424692E+01  0.34717170726E+02  0.27468957817E+03  0.27691664215E+03  0.41800000000E+01 0. -1.
        -11    1    1    2    0    0  0.19402611461E+02 -0.25248664533E+02  0.72085082556E+02  0.78804920654E+02  0.00000000000E+00 0. -1.
         11    1    1    2    0    0 -0.84342056653E+02 -0.28107556198E+02  0.98550886506E+02  0.13272488262E+03  0.00000000000E+00 0.  1.
</event>
<event>
 7    1  0.2499014E-009  0.2482252E+03  0.7561462E-02  0.1114432E+00
         -1   -1    0    0    0  501 -0.00000000000E+00  0.00000000000E+00  0.72906087327E+03  0.72906087327E+03  0.00000000000E+00 0.  1.
          1   -1    0    0  501    0  0.00000000000E+00 -0.00000000000E+00 -0.11873980273E+03  0.11873980273E+03  0.00000000000E+00 0. -1.
         25    2    1    2    0    0  0.76038147503E+02 -0.22047163294E+03  0.51261549570E+03  0.57689827995E+03  0.12508972050E+03 0.  0.
          5    1    3    3  502    0  0.81339745813E+02 -0.56524834027E+02  0.16482134779E+03  0.19234021992E+03  0.41800000000E+01 0. -1.
         -5    1    3    3    0  502 -0.53015983105E+01 -0.16394679891E+03  0.34779414791E+03  0.38455806003E+03  0.41800000000E+01 0. -1.
        -11    1    1    2    0    0 -0.24766069090E+02  0.68835371624E+02  0.82268468699E+02  0.11008981564E+03  0.00000000000E+00 0.  1.
         11    1    1    2    0    0 -0.51272078413E+02  0.15163626132E+03  0.15437106145E+02  0.16081258041E+03  0.00000000000E+00 0. -1.
</event>
<event>
 7    1  0.2499014E-009  0.1697202E+03  0.7561462E-02  0.1178140E+00
          2   -1    0    0  501    0  0.00000000000E+00  0.00000000000E+00  0.10386327344E+04  0.10386327344E+04  0.00000000000E+00 0. -1.
         -2   -1    0    0    0  501 -0.00000000000E+00 -0.00000000000E+00 -0.35829066359E+02  0.35829066359E+02  0.00000000000E+00 0.  1.
         25    2    1    2    0    0 -0.22073105176E+02  0.14334271653E+03  0.67727516518E+03  0.70383636189E+03  0.12509843565E+03 0.  0.
          5    1    3    3  502    0 -0.49025080046E+02  0.70725425092E+01  0.12965579727E+03  0.13885812002E+03  0.41800000000E+01 0. -1.
         -5    1    3    3    0  502  0.26951974870E+02  0.13627017402E+03  0.54761936791E+03  0.56497824187E+03  0.41800000000E+01 0. -1.
        -11    1    1    2    0    0  0.33112259951E+02 -0.82040714202E+02  0.86935298293E+02  0.12403566679E+03  0.00000000000E+00 0.  1.
         11    1    1    2    0    0 -0.11039154776E+02 -0.61302002324E+02  0.23859320455E+03  0.24658977206E+03  0.00000000000E+00 0. -1.
</event>
<event>
 7    1  0.2499014E-009  0.1200136E+03  0.7561462E-02  0.1243075E+00
          1   -1    0    0  501    0  0.00000000000E+00  0.00000000000E+00  0.18022594656E+04  0.18022594656E+04  0.00000000000E+00 0. -1.
         -1   -1    0    0    0  501 -0.00000000000E+00 -0.00000000000E+00 -0.20011411045E+02  0.20011411045E+02  0.00000000000E+00 0.  1.
         25    2    1    2    0    0  0.33199672277E+02 -0.56621441964E+02  0.16148157704E+04  0.16209836017E+04  0.12509859531E+03 0.  0.
          5    1    3    3  502    0  0.67987785387E+02  0.63786488174E+01  0.70204619769E+03  0.70537179006E+03  0.41800000000E+01 0.  1.
         -5    1    3    3    0  502 -0.34788113109E+02 -0.63000090781E+02  0.91276957273E+03  0.91561181160E+03  0.41800000000E+01 0.  1.
        -11    1    1    2    0    0 -0.57271321653E+02  0.34674531627E+02  0.63143507798E+02  0.92029506163E+02  0.00000000000E+00 0.  1.
         11    1    1    2    0    0  0.24071649376E+02  0.21946910337E+02  0.10428877636E+03  0.10925776884E+03  0.00000000000E+00 0. -1.
</event>
<event>
 7    1  0.2499014E-009  0.1908868E+03  0.7561462E-02  0.1157664E+00
         -1   -1    0    0    0  501 -0.00000000000E+00  0.00000000000E+00  0.79052501269E+03  0.79052501269E+03  0.00000000000E+00 0.  1.
          1   -1    0    0  501    0  0.00000000000E+00 -0.00000000000E+00 -0.55502950778E+02  0.55502950778E+02  0.00000000000E+00 0. -1.
         25    2    1    2    0    0  0.16508832754E+01  0.17628215716E+03  0.32388377312E+03  0.38939024036E+03  0.12508371778E+03 0.  0.
          5    1    3    3  502    0  0.38562312155E+02  0.10925887966E+03  0.10121318494E+03  0.15390300812E+03  0.41800000000E+01 0.  1.
         -5    1    3    3    0  502 -0.36911428880E+02  0.67023277494E+02  0.22267058818E+03  0.23548723224E+03  0.41800000000E+01 0.  1.
        -11    1    1    2    0    0  0.15054194499E+02 -0.32924060678E+01  0.74259134024E+01  0.17105931708E+02  0.00000000000E+00 0.  1.
         11    1    1    2    0    0 -0.16705077775E+02 -0.17298975109E+03  0.40371237539E+03  0.43953179139E+03  0.00000000000E+00 0. -1.
</event>
<event>
 7    1  0.2499014E-009  0.2226696E+03  0.7561462E-02  0.1131908E+00
         -3   -1    0    0    0  501 -0.00000000000E+00  0.00000000000E+00  0.38760577523E+03  0.38760577523E+03  0.00000000000E+00 0.  1.
          3   -1    0    0  501    0  0.00000000000E+00 -0.00000000000E+00 -0.15312667737E+03  0.15312667737E+03  0.00000000000E+00 0. -1.
         25    2    1    2    0    0 -0.17730089534E+03 -0.11378300733E+03  0.63458220147E+02  0.25309338547E+03  0.12508851194E+03 0.  0.
          5    1    3    3  502    0 -0.52696037296E+02  0.14384373219E+02  0.49350417124E+02  0.73734107507E+02  0.41800000000E+01 0.  1.
         -5    1    3    3    0  502 -0.12460485804E+03 -0.12816738055E+03  0.14107803023E+02  0.17935927796E+03  0.41800000000E+01 0.  1.
        -11    1    1    2    0    0  0.69892706759E+02  0.32638708601E+02  0.12207225318E+03  0.14440190703E+03  0.00000000000E+00 0.  1.
         11    1    1    2    0    0  0.10740818858E+03  0.81144298730E+02  0.48948624532E+02  0.14323716010E+03  0.00000000000E+00 0. -1.
</event>
<event>
 7    1  0.2499014E-009  0.1945615E+03  0.7561462E-02  0.1154410E+00
         -3   -1    0    0    0  501 -0.00000000000E+00  0.00000000000E+00  0.11711988642E+04  0.11711988642E+04  0.00000000000E+00 0.  1.
          3   -1    0    0  501    0  0.00000000000E+00 -0.00000000000E+00 -0.43758320410E+02  0.43758320410E+02  0.00000000000E+00 0. -1.
         25    2    1    2    0    0 -0.35017313037E+02  0.19049245998E+03  0.46710160508E+03  0.52090879384E+03  0.12509385481E+03 0.  0.
          5    1    3    3  502    0 -0.24859726487E+02  0.73090009849E+02  0.62327363437E+02  0.99309255227E+02  0.41800000000E+01 0.  1.
         -5    1    3    3    0  502 -0.10157586550E+02  0.11740245013E+03  0.40477424165E+03  0.42159953862E+03  0.41800000000E+01 0.  1.
        -11    1    1    2    0    0  0.23398719791E+02 -0.14809190322E+03  0.60537637436E+03  0.62366598954E+03  0.00000000000E+00 0.  1.
         11    1    1    2    0    0  0.11618593245E+02 -0.42400556763E+02  0.54962564378E+02  0.70382401250E+02  0.00000000000E+00 0. -1.
</event>
<event>
 7    1  0.2499014E-009  0.1448505E+03  0.7561462E-02  0.1206947E+00
          2   -1    0    0  501    0  0.00000000000E+00  0.00000000000E+00  0.16551658075E+04  0.16551658075E+04  0.00000000000E+00 0.  1.
         -2   -1    0    0    0  501 -0.00000000000E+00 -0.00000000000E+00 -0.28264367168E+02  0.28264367168E+02  0.00000000000E+00 0. -1.
         25    2    1    2    0    0 -0.10792191681E+03 -0.65354201549E+02  0.13816253674E+04  0.13930010922E+04  0.12508027512E+03 0.  0.
          5    1    3    3  502    0 -0.20547459883E+02 -0.36500131634E+02  0.98183547161E+03  0.98273741326E+03  0.41800000000E+01 0.  1.
         -5    1    3    3    0  502 -0.87374456923E+02 -0.28854069915E+02  0.39978989576E+03  0.41026367890E+03  0.41800000000E+01 0.  1.
        -11    1    1    2    0    0  0.35849205174E+02 -0.22143838517E+02  0.69055946131E+02  0.80896469589E+02  0.00000000000E+00 0.  1.
         11    1    1    2    0    0  0.72072711633E+02  0.87498040066E+02  0.17622012688E+03  0.20953261296E+03  0.00000000000E+00 0. -1.
</event>
<event>
 7    1  0.2499014E-009  0.1491878E+03  0.7561462E-02  0.1201475E+00
         -1   -1    0    0    0  501 -0.00000000000E+00  0.00000000000E+00  0.20319350104E+03  0.20319350104E+03  0.00000000000E+00 0.  1.
          1   -1    0    0  501    0  0.00000000000E+00 -0.00000000000E+00 -0.16215697138E+03  0.16215697138E+03  0.00000000000E+00 0. -1.
         25    2    1    2    0    0  0.13086482243E+03  0.78467390461E+01 -0.22683596883E+02  0.18261379868E+03  0.12508429493E+03 0.  0.
          5    1    3    3  502    0  0.10101370477E+03 -0.28991545110E+02 -0.60933436592E+02  0.12155095365E+03  0.41800000000E+01 0. -1.
         -5    1    3    3    0  502  0.29851117668E+02  0.36838284156E+02  0.38249839708E+02  0.61062845031E+02  0.41800000000E+01 0. -1.
        -11    1    1    2    0    0 -0.80530604343E+02 -0.35684764506E+02 -0.10643693255E+02  0.88723553016E+02  0.00000000000E+00 0. -1.
         11    1    1    2    0    0 -0.50334218091E+02  0.27838025460E+02  0.74363819802E+02  0.94013120722E+02  0.00000000000E+00 0.  1.
</event>
<event>
 7    1  0.2499014E-009  0.1005866E+03  0.7561462E-02  0.1279067E+00
         -2   -1    0    0    0  501 -0.00000000000E+00  0.00000000000E+00  0.23027864537E+02  0.23027864537E+02  0.00000000000E+00 0.  1.
          2   -1    0    0  501    0  0.00000000000E+00 -0.00000000000E+00 -0.80135628954E+03  0.80135628954E+03  0.00000000000E+00 0. -1.
         25    2    1    2    0    0  0.32584393572E+02 -0.43292075137E+02 -0.60751415205E+03  0.62262125316E+03  0.12509130054E+03 0.  0.
          5    1    3    3  502    0  0.15288873668E+02  0.35483200307E+02 -0.79762649072E+02  0.88726319371E+02  0.41800000000E+01 0. -1.
         -5    1    3    3    0  502  0.17295519904E+02 -0.78775275445E+02 -0.52775150297E+03  0.53389493379E+03  0.41800000000E+01 0. -1.
        -11    1    1    2    0    0 -0.47354654883E+02  0.46574638187E+02 -0.17404755922E+03  0.18629066840E+03  0.00000000000E+00 0. -1.
         11    1    1    2    0    0  0.14770261311E+02 -0.32825630499E+01  0.32332862584E+01  0.15472232528E+02  0.00000000000E+00 0.  1.
</event>
<event>
 7    1  0.2499014E-009  0.1028762E+03  0.7561462E-02  0.1274361E+00
         -3   -1    0    0    0  501 -0.00000000000E+00  0.00000000000E+00  0.44607032787E+03  0.44607032787E+03  0.00000000000E+00 0.  1.
          3   -1    0    0  501    0  0.00000000000E+00 -0.00000000000E+00 -0.45163049050E+02  0.45163049050E+02  0.00000000000E+00 0. -1.
         25    2    1    2    0    0  0.86392684870E+02 -0.25440530129E+02  0.26351467099E+03  0.30528381638E+03  0.12508920873E+03 0.  0.
          5    1    3    3  502    0  0.42225310827E+01 -0.11524391908E+02  0.19999117232E+03  0.20041103459E+03  0.41800000000E+01 0.  1.
         -5    1    3    3    0  502  0.82170153788E+02 -0.13916138221E+02  0.63523498668E+02  0.10487278179E+03  0.41800000000E+01 0.  1.
        -11    1    1    2    0    0 -0.70830569787E+02  0.45325205052E+02  0.56757054317E+02  0.10145297947E+03  0.00000000000E+00 0. -1.
         11    1    1    2    0    0 -0.15562115083E+02 -0.19884674923E+02  0.80635553513E+02  0.84496581073E+02  0.00000000000E+00 0.  1.
</event>
<event>
 7    1  0.2499014E-009  0.1855840E+03  0.7561462E-02  0.1162506E+00
         -2   -1    0    0    0  501 -0.00000000000E+00  0.00000000000E+00  0.52464753372E+02  0.52464753372E+02  0.00000000000E+00 0. -1.
          2   -1    0    0  501    0  0.00000000000E+00 -0.00000000000E+00 -0.69397629104E+03  0.69397629104E+03  0.00000000000E+00 0.  1.
         25    2    1    2    0    0 -0.32697415881E+02 -0.14869137155E+03 -0.41315971627E+03  0.45774142968E+03  0.12509204737E+03 0.  0.
          5    1    3    3  502    0 -0.17687620350E+01 -0.16257062252E+03 -0.34989318471E+03  0.38584329583E+03  0.41800000000E+01 0.  1.
         -5    1    3    3    0  502 -0.30928653846E+02  0.13879250965E+02 -0.63266531557E+02  0.71898133851E+02  0.41800000000E+01 0.  1.
        -11    1    1    2    0    0  0.53789248012E+02  0.49938558674E+02 -0.11934129732E+03  0.14010527503E+03  0.00000000000E+00 0.  1.
         11    1    1    2    0    0 -0.21091832131E+02  0.98752812877E+02 -0.10901052408E+03  0.14859433971E+03  0.00000000000E+00 0. -1.
</event>
<event>
 7    1  0.2499014E-009  0.1104032E+03  0.7561462E-02  0.1259825E+00
         -1   -1    0    0    0  501 -0.00000000000E+00  0.00000000000E+00  0.30719492901E+02  0.30719492901E+02  0.00000000000E+00 0. -1.
          1   -1    0    0  501    0  0.00000000000E+00 -0.00000000000E+00 -0.68985979404E+03  0.68985979404E+03  0.00000000000E+00 0.  1.
         25    2    1    2    0    0 -0.39370483364E+02 -0.78984617977E+02 -0.45371054626E+03  0.47884129100E+03  0.12508843807E+03 0.  0.
          5    1    3    3  502    0 -0.29229305189E+02 -0.76969582379E+02 -0.45910847959E+03  0.46645121644E+03  0.41800000000E+01 0. -1.
         -5    1    3    3    0  502 -0.10141178176E+02 -0.20150355975E+01  0.53979333259E+01  0.12390074553E+02  0.41800000000E+01 0. -1.
        -11    1    1    2    0    0  0.45947086026E+02 -0.19744837536E+01 -0.67773141545E+02  0.81903797319E+02  0.00000000000E+00 0.  1.
         11    1    1    2    0    0 -0.65766026617E+01  0.80959101731E+02 -0.13765661333E+03  0.15983419862E+03  0.00000000000E+00 0. -1.
</event>
<event>
 7    1  0.2499014E-009  0.1287816E+03  0.7561462E-02  0.1229275E+00
          2   -1    0    0  501    0  0.00000000000E+00  0.00000000000E+00  0.36873203601E+03  0.36873203601E+03  0.00000000000E+00 0. -1.
         -2   -1    0    0    0  501 -0.00000000000E+00 -0.00000000000E+00 -0.66700142129E+02  0.66700142129E+02  0.00000000000E+00 0.  1.
         25    2    1    2    0    0 -0.10074043766E+03 -0.98057251311E+00  0.92299900544E+02  0.18524841700E+03  0.12509239409E+03 0.  0.
          5    1    3    3  502    0 -0.11431949046E+03  0.31174230700E+02  0.46144920387E+02  0.12723051771E+03  0.41800000000E+01 0.  1.
         -5    1    3    3    0  502  0.13579052802E+02 -0.32154803213E+02  0.46154980157E+02  0.58017899290E+02  0.41800000000E+01 0.  1.
        -11    1    1    2    0    0  0.14553033511E+02 -0.89490975295E+01 -0.56423915665E+01  0.17992045841E+02  0.00000000000E+00 0.  1.
         11    1    1    2    0    0  0.86187404149E+02  0.99296700426E+01  0.21537438490E+03  0.23219171529E+03  0.00000000000E+00 0. -1.
</event>
<event>
 7    1  0.2499014E-009  0.2848621E+03  0.7561462E-02  0.1093063E+00
          1   -1    0    0  501    0  0.00000000000E+00  0.00000000000E+00  0.38524239117E+03  0.38524239117E+03  0.00000000000E+00 0. -1.
         -1   -1    0    0    0  501 -0.00000000000E+00 -0.00000000000E+00 -0.22913402166E+03  0.22913402166E+03  0.00000000000E+00 0.  1.
         25    2    1    2    0    0 -0.23045315958E+02 -0.27546628538E+03  0.89986601466E+02  0.31647626217E+03  0.12508746980E+03 0.  0.
          5    1    3    3  502    0  0.20818401068E+02 -0.53903109103E+02  0.68260787491E+02  0.89531885398E+02  0.41800000000E+01 0.  1.
         -5    1    3    3    0  502 -0.43863717026E+02 -0.22156317628E+03  0.21725813975E+02  0.22694437677E+03  0.41800000000E+01 0.  1.
        -11    1    1    2    0    0  0.49712752518E+02  0.18631268336E+03  0.19489819691E+02  0.19381338141E+03  0.00000000000E+00 0.  1.
         11    1    1    2    0    0 -0.26667436560E+02  0.89153602027E+02  0.46631948355E+02  0.10408676926E+03  0.00000000000E+00 0. -1.
</event>
<event>
 7    1  0.2499014E-009  0.1240585E+03  0.7561462E-02  0.1236548E+00
         -1   -1    0    0    0  501 -0.00000000000E+00  0.00000000000E+00  0.10797764513E+03  0.10797764513E+03  0.00000000000E+00 0.  1.
          1   -1    0    0  501    0  0.00000000000E+00 -0.00000000000E+00 -0.20233854896E+03  0.20233854896E+03  0.00000000000E+00 0. -1.
         25    2    1    2    0    0  0.73455865126E+02 -0.40689895444E+02  0.58656924930E+01  0.15077496142E+03  0.12508897206E+03 0.  0.
          5    1    3    3  502    0  0.23372843675E+02  0.37638302277E+02  0.31168988917E+02  0.54331481573E+02  0.41800000000E+01 0. -1.
         -5    1    3    3    0  502  0.50083021451E+02 -0.78328197721E+02 -0.25303296424E+02  0.96443479851E+02  0.41800000000E+01 0. -1.
        -11    1    1    2    0    0  0.12741800165E+02 -0.41327197374E+01 -0.46770516385E+02  0.48650940863E+02  0.00000000000E+00 0. -1.
         11    1    1    2    0    0 -0.86197665291E+02  0.44822615181E+02 -0.53456079941E+02  0.11089029180E+03  0.00000000000E+00 0.  1.
</event>
<event>
 7    1  0.2499014E-009  0.1205974E+03  0.7561462E-02  0.1242115E+00
         -1   -1    0    0    0  501 -0.00000000000E+00  0.00000000000E+00  0.45036430111E+02  0.45036430111E+02  0.00000000000E+00 0.  1.
          1   -1    0    0  501    0  0.00000000000E+00 -0.00000000000E+00 -0.38712111497E+03  0.38712111497E+03  0.00000000000E+00 0. -1.
         25    2    1    2    0    0 -0.72751994307E+02  0.17059802993E+02 -0.19666909480E+03  0.24477245848E+03  0.12510369309E+03 0.  0.
          5    1    3    3  502    0 -0.94948160880E+02  0.35222126003E+02 -0.94516400045E+02  0.13858778334E+03  0.41800000000E+01 0. -1.
         -5    1    3    3    0  502  0.22196166573E+02 -0.18162323010E+02 -0.10215269475E+03  0.10618467513E+03  0.41800000000E+01 0. -1.
        -11    1    1    2    0    0 -0.17341712297E+02  0.50998236951E+01 -0.44307843116E+01  0.18611153557E+02  0.00000000000E+00 0.  1.
         11    1    1    2    0    0  0.90093706603E+02 -0.22159626688E+02 -0.14098480575E+03  0.16877393305E+03  0.00000000000E+00 0. -1.
</event>
<event>
 7    1  0.2499014E-009  0.1367953E+03  0.7561462E-02  0.1217707E+00
          1   -1    0    0  501    0  0.00000000000E+00  0.00000000000E+00  0.70275584233E+03  0.70275584233E+03  0.00000000000E+00 0. -1.
         -1   -1    0    0    0  501 -0.00000000000E+00 -0.00000000000E+00 -0.38927997703E+02  0.38927997703E+02  0.00000000000E+00 0.  1.
         25    2    1    2    0    0 -0.17067108592E+02  0.87153186488E+02  0.15620640911E+03  0.21893150493E+03  0.12507436786E+03 0.  0.
          5    1    3    3  502    0  0.40864240501E+02  0.84748045281E+02  0.83685238051E+02  0.12598733586E+03  0.41800000000E+01 0.  1.
         -5    1    3    3    0  502 -0.57931349093E+02  0.24051412066E+01  0.72521171059E+02  0.92944169068E+02  0.41800000000E+01 0.  1.
        -11    1    1    2    0    0 -0.27909249961E+02 -0.65836983557E+02  0.23552295687E+03  0.24613918390E+03  0.00000000000E+00 0.  1.
         11    1    1    2    0    0  0.44976358553E+02 -0.21316202931E+02  0.27209847865E+03  0.27661315120E+03  0.00000000000E+00 0. -1.
</event>
<event>
 7    1  0.2499014E-009  0.1336393E+03  0.7561462E-02  0.1222154E+00
          3   -1    0    0  501    0  0.00000000000E+00  0.00000000000E+00  0.11779885627E+03  0.11779885627E+03  0.00000000000E+00 0. -1.
         -3   -1    0    0    0  501 -0.00000000000E+00 -0.00000000000E+00 -0.17344493853E+03  0.17344493853E+03  0.00000000000E+00 0.  1.
         25    2    1    2    0    0 -0.89356149949E+02 -0.18990056612E+02 -0.23560037823E+02  0.15667854664E+03  0.12509175757E+03 0.  0.
          5    1    3    3  502    0 -0.92460085199E+01  0.46308550219E+02  0.89689352470E+01  0.48248157440E+02  0.41800000000E+01 0. -1.
         -5    1    3    3    0  502 -0.80110141429E+02 -0.65298606831E+02 -0.32528973070E+02  0.10843038920E+03  0.41800000000E+01 0. -1.
        -11    1    1    2    0    0  0.71434699442E+02 -0.19439345288E+02  0.10139807277E+02  0.74723624920E+02  0.00000000000E+00 0. -1.
         11    1    1    2    0    0  0.17921450507E+02  0.38429401900E+02 -0.42225851716E+02  0.59841623238E+02  0.00000000000E+00 0.  1.
</event>
<event>
 7    1  0.2499014E-009  0.1075901E+03  0.7561462E-02  0.1265099E+00
         -1   -1    0    0    0  501 -0.00000000000E+00  0.00000000000E+00  0.53516981050E+02  0.53516981050E+02  0.00000000000E+00 0.  1.
          1   -1    0    0  501    0  0.00000000000E+00 -0.00000000000E+00 -0.24806466305E+03  0.24806466305E+03  0.00000000000E+00 0. -1.
         25    2    1    2    0    0  0.30850002854E+02 -0.37774655904E+01 -0.12488641885E+03  0.17947054782E+03  0.12508824085E+03 0.  0.
          5    1    3    3  502    0 -0.97222592248E+01 -0.51462706798E+02 -0.18020612116E+02  0.55544102986E+02  0.41800000000E+01 0. -1.
         -5    1    3    3    0  502  0.40572262079E+02  0.47685241208E+02 -0.10686580674E+03  0.12392644483E+03  0.41800000000E+01 0. -1.
        -11    1    1    2    0    0 -0.58353158416E+02 -0.21839454356E+02 -0.38099913139E+02  0.73031885125E+02  0.00000000000E+00 0.  1.
         11    1    1    2    0    0  0.27503155562E+02  0.25616919946E+02 -0.31561350007E+02  0.49079211156E+02  0.00000000000E+00 0. -1.
</event>
<event>
 7    1  0.2499014E-009  0.1009737E+03  0.7561462E-02  0.1278262E+00
         -4   -1    0    0    0  501 -0.00000000000E+00  0.00000000000E+00  0.13923906916E+03  0.13923906916E+03  0.00000000000E+00 0.  1.
          4   -1    0    0  501    0  0.00000000000E+00 -0.00000000000E+00 -0.10973676677E+03  0.10973676677E+03  0.00000000000E+00 0. -1.
         25    2    1    2    0    0  0.50363337257E+02 -0.26742999579E+02 -0.13993068628E+01  0.13748054505E+03  0.12508912199E+03 0.  0.
          5    1    3    3  502    0 -0.41924977470E+02 -0.96417236879E+01 -0.46535964921E+01  0.43471771666E+02  0.41800000000E+01 0.  1.
         -5    1    3    3    0  502  0.92288314726E+02 -0.17101275891E+02  0.32542896293E+01  0.94008773384E+02  0.41800000000E+01 0.  1.
        -11    1    1    2    0    0 -0.34757967527E+02  0.11249995310E+01  0.60226531464E+02  0.69545790834E+02  0.00000000000E+00 0.  1.
         11    1    1    2    0    0 -0.15605369730E+02  0.25618000048E+02 -0.29324922213E+02  0.41949500040E+02  0.00000000000E+00 0. -1.
</event>
<event>
 7    1  0.2499014E-009  0.2114878E+03  0.7561462E-02  0.1140393E+00
         -2   -1    0    0    0  501 -0.00000000000E+00  0.00000000000E+00  0.75596525932E+02  0.75596525932E+02  0.00000000000E+00 0.  1.
          2   -1    0    0  501    0  0.00000000000E+00 -0.00000000000E+00 -0.86728930533E+03  0.86728930533E+03  0.00000000000E+00 0. -1.
         25    2    1    2    0    0 -0.20353530210E+03 -0.10494877743E+02 -0.61141772811E+03  0.65651857833E+03  0.12509294063E+03 0.  0.
          5    1    3    3  502    0 -0.65270633781E+02 -0.36733013250E+02 -0.36577026688E+03  0.37338308804E+03  0.41800000000E+01 0.  1.
         -5    1    3    3    0  502 -0.13826466832E+03  0.26238135507E+02 -0.24564746122E+03  0.28313549030E+03  0.41800000000E+01 0.  1.
        -11    1    1    2    0    0  0.14837082917E+03 -0.90412504530E+01 -0.76373723982E+02  0.16711849950E+03  0.00000000000E+00 0.  1.
         11    1    1    2    0    0  0.55164472925E+02  0.19536128196E+02 -0.10390132731E+03  0.11924875343E+03  0.00000000000E+00 0. -1.
</event>
<event>
 7    1  0.2499014E-009  0.7379731E+02  0.7561462E-02  0.1347636E+00
         -1   -1    0    0    0  501 -0.00000000000E+00  0.00000000000E+00  0.17426022917E+03  0.17426022917E+03  0.00000000000E+00 0.  1.
          1   -1    0    0  501    0  0.00000000000E+00 -0.00000000000E+00 -0.76190190710E+02  0.76190190710E+02  0.00000000000E+00 0. -1.
         25    2    1    2    0    0 -0.15850123842E+02 -0.27832529239E+02  0.34364856010E+02  0.13361970129E+03  0.12508958843E+03 0.  0.
          5    1    3    3  502    0 -0.43190529571E+02  0.14284206101E+02  0.61327945726E+02  0.76472542233E+02  0.41800000000E+01 0. -1.
         -5    1    3    3    0  502  0.27340405730E+02 -0.42116735340E+02 -0.26963089716E+02  0.57147159056E+02  0.41800000000E+01 0. -1.
        -11    1    1    2    0    0 -0.38768879842E+01  0.31262757104E+02 -0.15517608216E+02  0.35116753935E+02  0.00000000000E+00 0.  1.
         11    1    1    2    0    0  0.19727011826E+02 -0.34302278657E+01  0.79222790670E+02  0.81713964659E+02  0.00000000000E+00 0. -1.
</event>
<event>
 7    1  0.2499014E-009  0.1037349E+03  0.7561462E-02  0.1272632E+00
          2   -1    0    0  501    0  0.00000000000E+00  0.00000000000E+00  0.61249915456E+03  0.61249915456E+03  0.00000000000E+00 0. -1.
         -2   -1    0    0    0  501 -0.00000000000E+00 -0.00000000000E+00 -0.21210239800E+02  0.21210239800E+02  0.00000000000E+00 0.  1.
         25    2    1    2    0    0  0.14488129386E+02  0.25350902133E+02  0.39194116762E+03  0.41245575770E+03  0.12509715845E+03 0.  0.
          5    1    3    3  502    0  0.44242099742E+02 -0.28543377845E+02  0.90676765864E+02  0.10493729592E+03  0.41800000000E+01 0. -1.
         -5    1    3    3    0  502 -0.29753970356E+02  0.53894279977E+02  0.30126440175E+03  0.30751846177E+03  0.41800000000E+01 0. -1.
        -11    1    1    2    0    0  0.36421088644E+02 -0.20539751238E+02  0.62817937417E+02  0.75461714400E+02  0.00000000000E+00 0.  1.
         11    1    1    2    0    0 -0.50909218030E+02 -0.48111508946E+01  0.13652980972E+03  0.14579192226E+03  0.00000000000E+00 0. -1.
</event>
<event>
 7    1  0.2499014E-009  0.9059434E+02  0.7561462E-02  0.1301419E+00
          2   -1    0    0  501    0  0.00000000000E+00  0.00000000000E+00  0.62079876072E+03  0.62079876072E+03  0.00000000000E+00 0. -1.
         -2   -1    0    0    0  501 -0.00000000000E+00 -0.00000000000E+00 -0.24773903250E+02  0.24773903250E+02  0.00000000000E+00 0.  1.
         25    2    1    2    0    0  0.28226919459E+02 -0.26709118431E+02  0.47926512895E+03  0.49684180375E+03  0.12508628279E+03 0.  0.
          5    1    3    3  502    0  0.58789563385E+02  0.19686235720E+02  0.35848772267E+03  0.36383331396E+03  0.41800000000E+01 0. -1.
         -5    1    3    3    0  502 -0.30562643925E+02 -0.46395354151E+02  0.12077740628E+03  0.13300848980E+03  0.41800000000E+01 0. -1.
        -11    1    1    2    0    0 -0.62052519728E+01 -0.14965194817E+02 -0.59664610210E+01  0.17264439321E+02  0.00000000000E+00 0.  1.
         11    1    1    2    0    0 -0.22021667487E+02  0.41674313248E+02  0.12272618955E+03  0.13146642090E+03  0.00000000000E+00 0. -1.
</event>
<event>
 7    1  0.2499014E-009  0.7511171E+02  0.7561462E-02  0.1343525E+00
          2   -1    0    0  501    0  0.00000000000E+00  0.00000000000E+00  0.34174685348E+03  0.34174685348E+03  0.00000000000E+00 0. -1.
         -2   -1    0    0    0  501 -0.00000000000E+00 -0.00000000000E+00 -0.39273604736E+02  0.39273604736E+02  0.00000000000E+00 0.  1.
         25    2    1    2    0    0  0.22498311164E+02  0.33561810176E+02  0.21560268479E+03  0.25251790783E+03  0.12509279347E+03 0.  0.
          5    1    3    3  502    0  0.42436919218E+02  0.47937138257E+02  0.40991717325E+02  0.76135764435E+02  0.41800000000E+01 0. -1.
         -5    1    3    3    0  502 -0.19938608054E+02 -0.14375328081E+02  0.17461096747E+03  0.17638214339E+03  0.41800000000E+01 0. -1.
        -11    1    1    2    0    0 -0.27275898598E+02 -0.45095445835E-01 -0.74623596197E+01  0.28278321892E+02  0.00000000000E+00 0.  1.
         11    1    1    2    0    0  0.47775874339E+01 -0.33516714730E+02  0.94332923574E+02  0.10022422850E+03  0.00000000000E+00 0. -1.
</event>
<event>
 7    1  0.2499014E-009  0.1028370E+03  0.7561462E-02  0.1274441E+00
         -1   -1    0    0    0  501 -0.00000000000E+00  0.00000000000E+00  0.51862411861E+02  0.51862411861E+02  0.00000000000E+00 0. -1.
          1   -1    0    0  501    0  0.00000000000E+00 -0.00000000000E+00 -0.32975867300E+03  0.32975867300E+03  0.00000000000E+00 0.  1.
         25    2    1    2    0    0 -0.54419650052E+02  0.46784496319E+02 -0.13799285738E+03  0.19959885694E+03  0.12508951833E+03 0.  0.
          5    1    3    3  502    0 -0.54294260368E+02  0.72490211635E+02 -0.14642679860E+03  0.17222362567E+03  0.41800000000E+01 0. -1.
         -5    1    3    3    0  502 -0.12538968316E+00 -0.25705715317E+02  0.84339412169E+01  0.27375231268E+02  0.41800000000E+01 0. -1.
        -11    1    1    2    0    0  0.64865635043E+02 -0.43141545053E+02 -0.14871189679E+03  0.16788082608E+03  0.00000000000E+00 0.  1.
         11    1    1    2    0    0 -0.10445984991E+02 -0.36429512655E+01  0.88084930356E+01  0.14141401837E+02  0.00000000000E+00 0. -1.
</event>
<event>
 7    1  0.2499014E-009  0.1191413E+03  0.7561462E-02  0.1244520E+00
         -2   -1    0    0    0  501 -0.00000000000E+00  0.00000000000E+00  0.37764903778E+02  0.37764903778E+02  0.00000000000E+00 0.  1.
          2   -1    0    0  501    0  0.00000000000E+00 -0.00000000000E+00 -0.40973483068E+03  0.40973483068E+03  0.00000000000E+00 0. -1.
         25    2    1    2    0    0  0.43927218687E+02  0.43070242063E+02 -0.20657719641E+03  0.24921010600E+03  0.12508753961E+03 0.  0.
          5    1    3    3  502    0 -0.43551810774E+02  0.19423471458E+02 -0.84508880268E+02  0.97124943806E+02  0.41800000000E+01 0. -1.
         -5    1    3    3    0  502  0.87479029461E+02  0.23646770605E+02 -0.12206831614E+03  0.15208516220E+03  0.41800000000E+01 0. -1.
        -11    1    1    2    0    0 -0.64321681552E+02 -0.46022639927E+02 -0.88535383340E+02  0.11871763225E+03  0.00000000000E+00 0.  1.
         11    1    1    2    0    0  0.20394462865E+02  0.29523978638E+01 -0.76857347158E+02  0.79571996210E+02  0.00000000000E+00 0. -1.
</event>
<event>
 7    1  0.2499014E-009  0.8866077E+02  0.7561462E-02  0.1306128E+00
         -2   -1    0    0    0  501 -0.00000000000E+00  0.00000000000E+00  0.32782090841E+02  0.32782090841E+02  0.00000000000E+00 0.  1.
          2   -1    0    0  501    0  0.00000000000E+00 -0.00000000000E+00 -0.52224885208E+03  0.52224885208E+03  0.00000000000E+00 0. -1.
         25    2    1    2    0    0  0.32218468824E+02  0.13403021423E+02 -0.13571998704E+03  0.18784260281E+03  0.12508899964E+03 0.  0.
          5    1    3    3  502    0  0.27993263027E+02  0.49685757728E+02 -0.11540725704E+02  0.58334878466E+02  0.41800000000E+01 0.  1.
         -5    1    3    3    0  502  0.42252057975E+01 -0.36282736305E+02 -0.12417926134E+03  0.12950772434E+03  0.41800000000E+01 0.  1.
        -11    1    1    2    0    0 -0.54536890378E+02 -0.22859717902E+02 -0.32125011008E+03  0.32664732103E+03  0.00000000000E+00 0. -1.
         11    1    1    2    0    0  0.22318421554E+02  0.94566964789E+01 -0.32496664122E+02  0.40541019079E+02  0.00000000000E+00 0.  1.
</event>
<event>
 7    1  0.2499014E-009  0.1210351E+03  0.7561462E-02  0.1241399E+00
         -4   -1    0    0    0  501 -0.00000000000E+00  0.00000000000E+00  0.84092392904E+02  0.84092392904E+02  0.00000000000E+00 0.  1.
          4   -1    0    0  501    0  0.00000000000E+00 -0.00000000000E+00 -0.27270137670E+03  0.27270137670E+03  0.00000000000E+00 0. -1.
         25    2    1    2    0    0  0.96980273489E+02 -0.23166010233E+02 -0.65321428011E+02  0.17278935443E+03  0.12508970609E+03 0.  0.
          5    1    3    3  502    0  0.49255147611E+02 -0.48121221372E+02  0.19980696657E+02  0.71822156410E+02  0.41800000000E+01 0. -1.
         -5    1    3    3    0  502  0.47725125878E+02  0.24955211139E+02 -0.85302124669E+02  0.10096719802E+03  0.41800000000E+01 0. -1.
        -11    1    1    2    0    0 -0.61705344772E+02 -0.18551136770E+02 -0.20527385122E+02  0.67624461468E+02  0.00000000000E+00 0.  1.
         11    1    1    2    0    0 -0.35274928717E+02  0.41717147003E+02 -0.10276017066E+03  0.11637995371E+03  0.00000000000E+00 0. -1.
</event>
<event>
 7    1  0.2499014E-009  0.1332450E+03  0.7561462E-02  0.1222719E+00
         -3   -1    0    0    0  501 -0.00000000000E+00  0.00000000000E+00  0.14500849496E+03  0.14500849496E+03  0.00000000000E+00 0.  1.
          3   -1    0    0  501    0  0.00000000000E+00 -0.00000000000E+00 -0.15274115872E+03  0.15274115872E+03  0.00000000000E+00 0. -1.
         25    2    1    2    0    0  0.42325413857E+02  0.70651431510E+02  0.49540374341E+02  0.15774879212E+03  0.12508943717E+03 0.  0.
          5    1    3    3  502    0  0.30363160016E+02 -0.26702180998E+02 -0.11374692094E+02  0.42211183073E+02  0.41800000000E+01 0. -1.
         -5    1    3    3    0  502  0.11962253841E+02  0.97353612508E+02  0.60915066435E+02  0.11553760905E+03  0.41800000000E+01 0. -1.
        -11    1    1    2    0    0 -0.55579035588E+02  0.20580096618E+00 -0.22416092320E+02  0.59929564873E+02  0.00000000000E+00 0. -1.
         11    1    1    2    0    0  0.13253621732E+02 -0.70857232476E+02 -0.34856945781E+02  0.80071296682E+02  0.00000000000E+00 0.  1.
</event>
<event>
 7    1  0.2499014E-009  0.7835494E+02  0.7561462E-02  0.1333786E+00
         -2   -1    0    0    0  501 -0.00000000000E+00  0.00000000000E+00  0.21620321998E+02  0.21620321998E+02  0.00000000000E+00 0. -1.
          2   -1    0    0  501    0  0.00000000000E+00 -0.00000000000E+00 -0.61688036214E+03  0.61688036214E+03  0.00000000000E+00 0.  1.
         25    2    1    2    0    0 -0.20852393458E+02 -0.31352343286E+02 -0.33947725154E+03  0.36374555365E+03  0.12509289248E+03 0.  0.
          5    1    3    3  502    0  0.10044653205E+02  0.22377551066E+02 -0.26755583814E+03  0.26871034363E+03  0.41800000000E+01 0. -1.
         -5    1    3    3    0  502 -0.30897046663E+02 -0.53729894352E+02 -0.71921413397E+02  0.95035210025E+02  0.41800000000E+01 0. -1.
        -11    1    1    2    0    0 -0.16930878178E+02 -0.46075472536E+01 -0.44981392209E+01  0.18114010711E+02  0.00000000000E+00 0. -1.
         11    1    1    2    0    0  0.37783271636E+02  0.35959890539E+02 -0.25128464939E+03  0.25664111978E+03  0.00000000000E+00 0.  1.
</event>
<event>
 7    1  0.2499014E-009  0.2030410E+03  0.7561462E-02  0.1147198E+00
          1   -1    0    0  501    0  0.00000000000E+00  0.00000000000E+00  0.11590797891E+03  0.11590797891E+03  0.00000000000E+00 0. -1.
         -1   -1    0    0    0  501 -0.00000000000E+00 -0.00000000000E+00 -0.65043590703E+03  0.65043590703E+03  0.00000000000E+00 0.  1.
         25    2    1    2    0    0 -0.10906263601E+03  0.14380215574E+03 -0.52017466872E+03  0.56462569058E+03  0.12508703338E+03 0.  0.
          5    1    3    3  502    0  0.87981831800E+01 -0.13399738880E+02 -0.92337899055E+02  0.93812158227E+02  0.41800000000E+01 0.  1.
         -5    1    3    3    0  502 -0.11786081919E+03  0.15720189462E+03 -0.42783676966E+03  0.47081353235E+03  0.41800000000E+01 0.  1.
        -11    1    1    2    0    0  0.80279583207E+01 -0.63305583061E+02  0.22035359322E+02  0.67510014235E+02  0.00000000000E+00 0.  1.
         11    1    1    2    0    0  0.10103467768E+03 -0.80496572679E+02 -0.36388618726E+02  0.13420818112E+03  0.00000000000E+00 0. -1.
</event>
<event>
 7    1  0.2499014E-009  0.9623587E+02  0.7561462E-02  0.1288417E+00
         -3   -1    0    0    0  501 -0.00000000000E+00  0.00000000000E+00  0.13789665071E+03  0.13789665071E+03  0.00000000000E+00 0.  1.
          3   -1    0    0  501    0  0.00000000000E+00 -0.00000000000E+00 -0.87373129348E+02  0.87373129348E+02  0.00000000000E+00 0. -1.
         25    2    1    2    0    0 -0.14297288794E+02  0.21160653335E+01  0.80499446038E+01  0.12617479947E+03  0.12508552359E+03 0.  0.
          5    1    3    3  502    0  0.39183451212E+02  0.32665533949E+02  0.31542507660E+02  0.60123058360E+02  0.41800000000E+01 0. -1.
         -5    1    3    3    0  502 -0.53480740006E+02 -0.30549468615E+02 -0.23492563057E+02  0.66051741107E+02  0.41800000000E+01 0. -1.
        -11    1    1    2    0    0 -0.71502140513E+01  0.35522021586E+02 -0.29149149891E+01  0.36351565412E+02  0.00000000000E+00 0.  1.
         11    1    1    2    0    0  0.21447502845E+02 -0.37638086919E+02  0.45388491746E+02  0.62743415178E+02  0.00000000000E+00 0. -1.
</event>
<event>
 7    1  0.2499014E-009  0.8694350E+02  0.7561462E-02  0.1310427E+00
          2   -1    0    0  501    0  0.00000000000E+00  0.00000000000E+00  0.48913606035E+03  0.48913606035E+03  0.00000000000E+00 0. -1.
         -2   -1    0    0    0  501 -0.00000000000E+00 -0.00000000000E+00 -0.30554090119E+02  0.30554090119E+02  0.00000000000E+00 0.  1.
         25    2    1    2    0    0 -0.20754625447E+02 -0.52547597488E+02  0.26387522083E+03  0.29743847841E+03  0.12509001476E+03 0.  0.
          5    1    3    3  502    0  0.78302023320E+01 -0.29936817124E+01 -0.12248531656E+02  0.15419893854E+02  0.41800000000E+01 0. -1.
         -5    1    3    3    0  502 -0.28584827779E+02 -0.49553915775E+02  0.27612375248E+03  0.28201858455E+03  0.41800000000E+01 0. -1.
        -11    1    1    2    0    0 -0.77279600210E+01  0.72163415127E+02  0.13054001855E+03  0.14935854945E+03  0.00000000000E+00 0. -1.
         11    1    1    2    0    0  0.28482585468E+02 -0.19615817639E+02  0.64166730852E+02  0.72893122617E+02  0.00000000000E+00 0.  1.
</event>
<event>
 7    1  0.2499014E-009  0.9146049E+02  0.7561462E-02  0.1299353E+00
         -2   -1    0    0    0  501 -0.00000000000E+00  0.00000000000E+00  0.70279379681E+02  0.70279379681E+02  0.00000000000E+00 0.  1.
          2   -1    0    0  501    0  0.00000000000E+00 -0.00000000000E+00 -0.17449846863E+03  0.17449846863E+03  0.00000000000E+00 0. -1.
         25    2    1    2    0    0  0.61827300110E+01  0.24312806002E+02 -0.70389697663E+02  0.14570927414E+03  0.12508854603E+03 0.  0.
          5    1    3    3  502    0 -0.33260994601E+02 -0.36356937591E+02 -0.50194626803E+02  0.70463420530E+02  0.41800000000E+01 0.  1.
         -5    1    3    3    0  502  0.39443724612E+02  0.60669743594E+02 -0.20195070860E+02  0.75245853614E+02  0.41800000000E+01 0.  1.
        -11    1    1    2    0    0 -0.31043910952E+02 -0.12656834222E+02 -0.54989518171E+02  0.64403159615E+02  0.00000000000E+00 0. -1.
         11    1    1    2    0    0  0.24861180941E+02 -0.11655971780E+02  0.21160126888E+02  0.34665414549E+02  0.00000000000E+00 0.  1.
</event>
<event>
 7    1  0.2499014E-009  0.1298100E+03  0.7561462E-02  0.1227738E+00
          1   -1    0    0  501    0  0.00000000000E+00  0.00000000000E+00  0.28621640552E+02  0.28621640552E+02  0.00000000000E+00 0. -1.
         -1   -1    0    0    0  501 -0.00000000000E+00 -0.00000000000E+00 -0.75854214485E+03  0.75854214485E+03  0.00000000000E+00 0.  1.
         25    2    1    2    0    0 -0.89002356376E+02  0.31900409493E+02 -0.47157016802E+03  0.49695771491E+03  0.12509792752E+03 0.  0.
          5    1    3    3  502    0 -0.49975664840E+01  0.54160963474E+02 -0.29631122693E+03  0.30129089140E+03  0.41800000000E+01 0.  1.
         -5    1    3    3    0  502 -0.84004789892E+02 -0.22260553981E+02 -0.17525894109E+03  0.19566682351E+03  0.41800000000E+01 0.  1.
        -11    1    1    2    0    0  0.74338741659E+02 -0.53760520009E+02 -0.24298460928E+03  0.25972670708E+03  0.00000000000E+00 0.  1.
         11    1    1    2    0    0  0.14663614717E+02  0.21860110515E+02 -0.15365726996E+02  0.30479363419E+02  0.00000000000E+00 0. -1.
</event>
<event>
 7    1  0.2499014E-009  0.1230705E+03  0.7561462E-02  0.1238116E+00
          1   -1    0    0  501    0  0.00000000000E+00  0.00000000000E+00  0.10467523211E+03  0.10467523211E+03  0.00000000000E+00 0.  1.
         -1   -1    0    0    0  501 -0.00000000000E+00 -0.00000000000E+00 -0.20242812433E+03  0.20242812433E+03  0.00000000000E+00 0. -1.
         25    2    1    2    0    0  0.14217703092E+02  0.84795291533E+02 -0.69808254461E+01  0.15194955263E+03  0.12509016777E+03 0.  0.
          5    1    3    3  502    0 -0.95009226218E+01  0.11362011373E+03 -0.80019201405E+01  0.11437351485E+03  0.41800000000E+01 0. -1.
         -5    1    3    3    0  502  0.23718625714E+02 -0.28824822195E+02  0.10210946943E+01  0.37576037773E+02  0.41800000000E+01 0. -1.
        -11    1    1    2    0    0 -0.27008768694E+02 -0.43016946139E+02 -0.98460528744E+02  0.11078992266E+03  0.00000000000E+00 0. -1.
         11    1    1    2    0    0  0.12791065602E+02 -0.41778345394E+02  0.76884619694E+01  0.44363881149E+02  0.00000000000E+00 0.  1.
</event>
<event>
 7    1  0.2499014E-009  0.1157242E+03  0.7561462E-02  0.1250322E+00
         -1   -1    0    0    0  501 -0.00000000000E+00  0.00000000000E+00  0.21722131627E+02  0.21722131627E+02  0.00000000000E+00 0.  1.
          1   -1    0    0  501    0  0.00000000000E+00 -0.00000000000E+00 -0.65235955929E+03  0.65235955929E+03  0.00000000000E+00 0. -1.
         25    2    1    2    0    0  0.45016279886E+02 -0.20754671683E+02 -0.33820131513E+03  0.36398916745E+03  0.12510300799E+03 0.  0.
          5    1    3    3  502    0  0.82961340927E+02 -0.33770537813E+02 -0.27272186993E+03  0.28708487255E+03  0.41800000000E+01 0. -1.
         -5    1    3    3    0  502 -0.37945061041E+02  0.13015866130E+02 -0.65479445206E+02  0.76904294893E+02  0.41800000000E+01 0. -1.
        -11    1    1    2    0    0 -0.37623980409E+02  0.54875400538E+02 -0.21696232277E+03  0.22693506337E+03  0.00000000000E+00 0. -1.
         11    1    1    2    0    0 -0.73922994773E+01 -0.34120728855E+02 -0.75473789761E+02  0.83157460098E+02  0.00000000000E+00 0.  1.
</event>
<event>
 7    1  0.2499014E-009  0.1590503E+03  0.7561462E-02  0.1189773E+00
          2   -1    0    0  501    0  0.00000000000E+00  0.00000000000E+00  0.32535627765E+03  0.32535627765E+03  0.00000000000E+00 0. -1.
         -2   -1    0    0    0  501 -0.00000000000E+00 -0.00000000000E+00 -0.99569003542E+02  0.99569003542E+02  0.00000000000E+00 0.  1.
         25    2    1    2    0    0 -0.52468973968E+02 -0.10927494537E+03  0.28868442565E+02  0.17656931966E+03  0.12509728516E+03 0.  0.
          5    1    3    3  502    0  0.15554240728E+02 -0.10198449379E+03  0.29452680026E+01  0.10329045640E+03  0.41800000000E+01 0.  1.
         -5    1    3    3    0  502 -0.68023214696E+02 -0.72904515776E+01  0.25923174562E+02  0.73278863264E+02  0.41800000000E+01 0.  1.
        -11    1    1    2    0    0 -0.15716139048E+02  0.60420649232E+02  0.53546746833E+02  0.82249048485E+02  0.00000000000E+00 0.  1.
         11    1    1    2    0    0  0.68185113017E+02  0.48854296138E+02  0.14337208471E+03  0.16610691305E+03  0.00000000000E+00 0. -1.
</event>
<event>
 7    1  0.2499014E-009  0.2265699E+03  0.7561462E-02  0.1129078E+00
          2   -1    0    0  501    0  0.00000000000E+00  0.00000000000E+00  0.42520444958E+03  0.42520444958E+03  0.00000000000E+00 0. -1.
         -2   -1    0    0    0  501 -0.00000000000E+00 -0.00000000000E+00 -0.12679517223E+03  0.12679517223E+03  0.00000000000E+00 0.  1.
         25    2    1    2    0    0  0.20107129037E+03  0.37371530627E+02  0.17350246381E+03  0.29593427285E+03  0.12509074220E+03 0.  0.
          5    1    3    3  502    0  0.37563910238E+02 -0.42062066329E+02  0.28257413490E+02  0.63215651490E+02  0.41800000000E+01 0. -1.
         -5    1    3    3    0  502  0.16350738013E+03  0.79433596956E+02  0.14524505032E+03  0.23271862136E+03  0.41800000000E+01 0. -1.
        -11    1    1    2    0    0 -0.98842340570E+02  0.14876094010E+02  0.93904276885E+02  0.13714634403E+03  0.00000000000E+00 0. -1.
         11    1    1    2    0    0 -0.10222894980E+03 -0.52247624637E+02  0.31002536655E+02  0.11891900494E+03  0.00000000000E+00 0.  1.
</event>
<event>
 7    1  0.2499014E-009  0.1809485E+03  0.7561462E-02  0.1166888E+00
          1   -1    0    0  501    0  0.00000000000E+00  0.00000000000E+00  0.13221960593E+03  0.13221960593E+03  0.00000000000E+00 0. -1.
         -1   -1    0    0    0  501 -0.00000000000E+00 -0.00000000000E+00 -0.30576636712E+03  0.30576636712E+03  0.00000000000E+00 0.  1.
         25    2    1    2    0    0  0.12100928113E+03  0.11483219349E+03 -0.50827969606E+02  0.21461717449E+03  0.12508944923E+03 0.  0.
          5    1    3    3  502    0  0.87023516579E+02  0.11249553223E+03  0.12241941381E+02  0.14281342633E+03  0.41800000000E+01 0. -1.
         -5    1    3    3    0  502  0.33985764553E+02  0.23366612573E+01 -0.63069910987E+02  0.71803748162E+02  0.41800000000E+01 0. -1.
        -11    1    1    2    0    0 -0.51548947219E+01 -0.54353902567E+02 -0.48768762429E+02  0.73207321032E+02  0.00000000000E+00 0.  1.
         11    1    1    2    0    0 -0.11585438641E+03 -0.60478290924E+02 -0.73950029150E+02  0.15016147753E+03  0.00000000000E+00 0. -1.
</event>
<event>
 7    1  0.2499014E-009  0.8492426E+02  0.7561462E-02  0.1315631E+00
          1   -1    0    0  501    0  0.00000000000E+00  0.00000000000E+00  0.77198589834E+02  0.77198589834E+02  0.00000000000E+00 0. -1.
         -1   -1    0    0    0  501 -0.00000000000E+00 -0.00000000000E+00 -0.18790025458E+03  0.18790025458E+03  0.00000000000E+00 0.  1.
         25    2    1    2    0    0 -0.25876003022E+02 -0.44770470972E+02 -0.76140504048E+02  0.15530226630E+03  0.12508978758E+03 0.  0.
          5    1    3    3  502    0  0.25817100546E+01 -0.40730898733E+02 -0.10599021748E+03  0.11365328829E+03  0.41800000000E+01 0.  1.
         -5    1    3    3    0  502 -0.28457713077E+02 -0.40395722396E+01  0.29849713427E+02  0.41648978008E+02  0.41800000000E+01 0.  1.
        -11    1    1    2    0    0  0.20609842617E+02  0.70532661474E+02 -0.10639337349E+02  0.74248349790E+02  0.00000000000E+00 0. -1.
         11    1    1    2    0    0  0.52661604049E+01 -0.25762190502E+02 -0.23921823354E+02  0.35548228331E+02  0.00000000000E+00 0.  1.
</event>
<event>
 7    1  0.2499014E-009  0.8781620E+02  0.7561462E-02  0.1308228E+00
          2   -1    0    0  501    0  0.00000000000E+00  0.00000000000E+00  0.56283670169E+03  0.56283670169E+03  0.00000000000E+00 0. -1.
         -2   -1    0    0    0  501 -0.00000000000E+00 -0.00000000000E+00 -0.54017318621E+02  0.54017318621E+02  0.00000000000E+00 0.  1.
         25    2    1    2    0    0  0.22825695531E+02  0.66570588976E+02  0.47606786787E+03  0.49723305759E+03  0.12508974000E+03 0.  0.
          5    1    3    3  502    0  0.17754762830E+02  0.43994295811E+02  0.44994069617E+02  0.65518458221E+02  0.41800000000E+01 0.  1.
         -5    1    3    3    0  502  0.50709327017E+01  0.22576293165E+02  0.43107379825E+03  0.43171459937E+03  0.41800000000E+01 0.  1.
        -11    1    1    2    0    0  0.22187185180E+02  0.22056421979E+01  0.29999668959E+02  0.37378017355E+02  0.00000000000E+00 0. -1.
         11    1    1    2    0    0 -0.45012880711E+02 -0.68776231174E+02  0.27518462423E+01  0.82242945364E+02  0.00000000000E+00 0.  1.
</event>
<event>
 7    1  0.2499014E-009  0.9220655E+02  0.7561462E-02  0.1297595E+00
         -1   -1    0    0    0  501 -0.00000000000E+00  0.00000000000E+00  0.69652047022E+02  0.69652047022E+02  0.00000000000E+00 0.  1.
          1   -1    0    0  501    0  0.00000000000E+00 -0.00000000000E+00 -0.26679036050E+03  0.26679036050E+03  0.00000000000E+00 0. -1.
         25    2    1    2    0    0  0.82538619745E+01  0.72366535562E+02 -0.16361630109E+03  0.21845757007E+03  0.12509346199E+03 0.  0.
          5    1    3    3  502    0 -0.14368447938E+02  0.29782884558E+02  0.12662356375E+02  0.35655016164E+02  0.41800000000E+01 0. -1.
         -5    1    3    3    0  502  0.22622309912E+02  0.42583651004E+02 -0.17627865746E+03  0.18280255391E+03  0.41800000000E+01 0. -1.
        -11    1    1    2    0    0  0.15062186515E+02  0.93336485889E+01  0.12188433551E+02  0.21506844748E+02  0.00000000000E+00 0.  1.
         11    1    1    2    0    0 -0.23316048490E+02 -0.81700184151E+02 -0.45710445943E+02  0.96477992701E+02  0.00000000000E+00 0. -1.
</event>
<event>
 7    1  0.2499014E-009  0.1342040E+03  0.7561462E-02  0.1221348E+00
         -1   -1    0    0    0  501 -0.00000000000E+00  0.00000000000E+00  0.14557856447E+03  0.14557856447E+03  0.00000000000E+00 0.  1.
          1   -1    0    0  501    0  0.00000000000E+00 -0.00000000000E+00 -0.15271199610E+03  0.15271199610E+03  0.00000000000E+00 0. -1.
         25    2    1    2    0    0 -0.98788922220E+02  0.62187623215E+00 -0.36732183247E+02  0.16357464578E+03  0.12509106112E+03 0.  0.
          5    1    3    3  502    0  0.20505867617E+02  0.20018680579E+02 -0.31120071002E+02  0.42510815071E+02  0.41800000000E+01 0. -1.
         -5    1    3    3    0  502 -0.11929478984E+03 -0.19396804346E+02 -0.56121122451E+01  0.12106383070E+03  0.41800000000E+01 0. -1.
        -11    1    1    2    0    0  0.25747782358E+02  0.29807010872E+02 -0.16986749998E+02  0.42894706771E+02  0.00000000000E+00 0. -1.
         11    1    1    2    0    0  0.73041139862E+02 -0.30428887104E+02  0.46585501613E+02  0.91821208026E+02  0.00000000000E+00 0.  1.
</event>
<event>
 7    1  0.2499014E-009  0.7349736E+02  0.7561462E-02  0.1348588E+00
         -1   -1    0    0    0  501 -0.00000000000E+00  0.00000000000E+00  0.17875228869E+03  0.17875228869E+03  0.00000000000E+00 0.  1.
          1   -1    0    0  501    0  0.00000000000E+00 -0.00000000000E+00 -0.98278438200E+02  0.98278438200E+02  0.00000000000E+00 0. -1.
         25    2    1    2    0    0  0.58054102140E+02 -0.17688030592E+02  0.93110744745E+02  0.16733481513E+03  0.12509270309E+03 0.  0.
          5    1    3    3  502    0  0.59300739886E+02 -0.62805986438E+01 -0.12457092827E+02  0.61062879330E+02  0.41800000000E+01 0.  1.
         -5    1    3    3    0  502 -0.12466377453E+01 -0.11407431949E+02  0.10556783757E+03  0.10627193580E+03  0.41800000000E+01 0.  1.
        -11    1    1    2    0    0 -0.56439684982E+02  0.29084445283E+02  0.26574660648E+02  0.68829903289E+02  0.00000000000E+00 0.  1.
         11    1    1    2    0    0 -0.16144171586E+01 -0.11396414690E+02 -0.39211554902E+02  0.40866008471E+02  0.00000000000E+00 0. -1.
</event>
<event>
 7    1  0.2499014E-009  0.1010262E+03  0.7561462E-02  0.1278153E+00
          2   -1    0    0  501    0  0.00000000000E+00  0.00000000000E+00  0.15738781492E+03  0.15738781492E+03  0.00000000000E+00 0. -1.
         -2   -1    0    0    0  501 -0.00000000000E+00 -0.00000000000E+00 -0.81587025842E+02  0.81587025842E+02  0.00000000000E+00 0.  1.
         25    2    1    2    0    0 -0.86430958811E+01  0.66576334378E+01  0.49320245816E+02  0.13490032395E+03  0.12508630447E+03 0.  0.
          5    1    3    3  502    0  0.46591938074E+02 -0.89708038656E+01 -0.13690500625E+02  0.49559925574E+02  0.41800000000E+01 0.  1.
         -5    1    3    3    0  502 -0.55235033956E+02  0.15628437303E+02  0.63010746441E+02  0.85340398380E+02  0.41800000000E+01 0.  1.
        -11    1    1    2    0    0 -0.78359648198E+00  0.44671295762E+02 -0.18050748186E+01  0.44714617114E+02  0.00000000000E+00 0.  1.
         11    1    1    2    0    0  0.94266923631E+01 -0.51328929200E+02  0.28285618082E+02  0.59359899697E+02  0.00000000000E+00 0. -1.
</event>
<event>
 7    1  0.2499014E-009  0.1682848E+03  0.7561462E-02  0.1179648E+00
          1   -1    0    0  501    0  0.00000000000E+00  0.00000000000E+00  0.79220896632E+02  0.79220896632E+02  0.00000000000E+00 0. -1.
         -1   -1    0    0    0  501 -0.00000000000E+00 -0.00000000000E+00 -0.45593636175E+03  0.45593636175E+03  0.00000000000E+00 0.  1.
         25    2    1    2    0    0 -0.82469338412E+02  0.13160129136E+03 -0.18566864788E+03  0.27247124466E+03  0.12509052999E+03 0.  0.
          5    1    3    3  502    0 -0.91071335372E+02  0.89116351739E+02 -0.62805465111E+02  0.14211865156E+03  0.41800000000E+01 0. -1.
         -5    1    3    3    0  502  0.86019969604E+01  0.42484939622E+02 -0.12286318277E+03  0.13035259309E+03  0.41800000000E+01 0. -1.
        -11    1    1    2    0    0  0.16975705375E+02 -0.81026432982E+02 -0.14758599408E+03  0.16921903871E+03  0.00000000000E+00 0.  1.
         11    1    1    2    0    0  0.65493633037E+02 -0.50574858379E+02 -0.43460823160E+02  0.93466975013E+02  0.00000000000E+00 0. -1.
</event>
<event>
 7    1  0.2499014E-009  0.1714284E+03  0.7561462E-02  0.1176366E+00
         -1   -1    0    0    0  501 -0.00000000000E+00  0.00000000000E+00  0.16507572732E+03  0.16507572732E+03  0.00000000000E+00 0.  1.
          1   -1    0    0  501    0  0.00000000000E+00 -0.00000000000E+00 -0.23714388445E+03  0.23714388445E+03  0.00000000000E+00 0. -1.
         25    2    1    2    0    0 -0.11758667432E+03  0.95788608237E+02  0.27570206629E+02  0.19851976912E+03  0.12509156244E+03 0.  0.
          5    1    3    3  502    0 -0.23227276140E+01  0.35048032437E+02  0.54919996799E+02  0.65325631185E+02  0.41800000000E+01 0. -1.
         -5    1    3    3    0  502 -0.11526394670E+03  0.60740575800E+02 -0.27349790170E+02  0.13319413793E+03  0.41800000000E+01 0. -1.
        -11    1    1    2    0    0  0.52040745596E+02  0.96973712829E+01 -0.22633752273E+02  0.57572258545E+02  0.00000000000E+00 0. -1.
         11    1    1    2    0    0  0.65545928719E+02 -0.10548597952E+03 -0.77004611485E+02  0.14612758411E+03  0.00000000000E+00 0.  1.
</event>
<event>
 7    1  0.2499014E-009  0.1148633E+03  0.7561462E-02  0.1251820E+00
         -1   -1    0    0    0  501 -0.00000000000E+00  0.00000000000E+00  0.13181720782E+03  0.13181720782E+03  0.00000000000E+00 0.  1.
          1   -1    0    0  501    0  0.00000000000E+00 -0.00000000000E+00 -0.17779851607E+03  0.17779851607E+03  0.00000000000E+00 0. -1.
         25    2    1    2    0    0 -0.42396656375E+02  0.66920815641E+02  0.46138443685E+02  0.15508437235E+03  0.12508610843E+03 0.  0.
          5    1    3    3  502    0 -0.44724428859E+01 -0.36818068164E+02  0.81246879608E+01  0.38197589494E+02  0.41800000000E+01 0.  1.
         -5    1    3    3    0  502 -0.37924213489E+02  0.10373888380E+03  0.38013755724E+02  0.11688678285E+03  0.41800000000E+01 0.  1.
        -11    1    1    2    0    0  0.23754118745E+02 -0.54547632923E+02  0.24418750012E+00  0.59495899374E+02  0.00000000000E+00 0.  1.
         11    1    1    2    0    0  0.18642537630E+02 -0.12373182718E+02 -0.92363939441E+02  0.95035452168E+02  0.00000000000E+00 0. -1.
</event>
<event>
 7    1  0.2499014E-009  0.1039469E+03  0.7561462E-02  0.1272208E+00
          1   -1    0    0  501    0  0.00000000000E+00  0.00000000000E+00  0.25461892291E+02  0.25461892291E+02  0.00000000000E+00 0. -1.
         -1   -1    0    0    0  501 -0.00000000000E+00 -0.00000000000E+00 -0.59548784534E+03  0.59548784534E+03  0.00000000000E+00 0.  1.
         25    2    1    2    0    0  0.25118769382E+02 -0.92760706359E+01 -0.19051594366E+03  0.22947947438E+03  0.12508999285E+03 0.  0.
          5    1    3    3  502    0 -0.98569444395E+01  0.47016723014E+02 -0.13354715095E+03  0.14198607510E+03  0.41800000000E+01 0. -1.
         -5    1    3    3    0  502  0.34975713821E+02 -0.56292793650E+02 -0.56968792716E+02  0.87493399281E+02  0.41800000000E+01 0. -1.
        -11    1    1    2    0    0  0.33518911321E+02  0.86926761684E+01 -0.18876418421E+03  0.19191403616E+03  0.00000000000E+00 0.  1.
         11    1    1    2    0    0 -0.58637680703E+02  0.58339446754E+00 -0.19074582518E+03  0.19955622709E+03  0.00000000000E+00 0. -1.
</event>
<event>
 7    1  0.2499014E-009  0.1625019E+03  0.7561462E-02  0.1185901E+00
          2   -1    0    0  501    0  0.00000000000E+00  0.00000000000E+00  0.88084790172E+03  0.88084790172E+03  0.00000000000E+00 0. -1.
         -2   -1    0    0    0  501 -0.00000000000E+00 -0.00000000000E+00 -0.36306756872E+02  0.36306756872E+02  0.00000000000E+00 0.  1.
         25    2    1    2    0    0 -0.11588380669E+03  0.50033084560E+02  0.61503835885E+03  0.64019702453E+03  0.12509069172E+03 0.  0.
          5    1    3    3  502    0  0.21933230509E+02  0.19731267798E+02  0.54055500951E+02  0.61724056190E+02  0.41800000000E+01 0. -1.
         -5    1    3    3    0  502 -0.13781703720E+03  0.30301816761E+02  0.56098285790E+03  0.57847296834E+03  0.41800000000E+01 0. -1.
        -11    1    1    2    0    0 -0.60711249490E+00 -0.36789720791E+02  0.42210063865E+02  0.55995907288E+02  0.00000000000E+00 0.  1.
         11    1    1    2    0    0  0.11649091918E+03 -0.13243363769E+02  0.18729272213E+03  0.22096172677E+03  0.00000000000E+00 0. -1.
</event>
<event>
 7    1  0.2499014E-009  0.1270537E+03  0.7561462E-02  0.1231894E+00
         -2   -1    0    0    0  501 -0.00000000000E+00  0.00000000000E+00  0.52937980991E+02  0.52937980991E+02  0.00000000000E+00 0.  1.
          2   -1    0    0  501    0  0.00000000000E+00 -0.00000000000E+00 -0.42589514442E+03  0.42589514442E+03  0.00000000000E+00 0. -1.
         25    2    1    2    0    0 -0.95154727337E+02 -0.40371834289E+02 -0.23404957895E+03  0.28480021952E+03  0.12509057716E+03 0.  0.
          5    1    3    3  502    0 -0.44369714081E+02  0.35373649002E+02 -0.37669020590E+02  0.68237776074E+02  0.41800000000E+01 0.  1.
         -5    1    3    3    0  502 -0.50785013256E+02 -0.75745483292E+02 -0.19638055836E+03  0.21656244345E+03  0.41800000000E+01 0.  1.
        -11    1    1    2    0    0  0.81938998089E+02  0.25046092151E+02 -0.14864811006E+03  0.17157379393E+03  0.00000000000E+00 0. -1.
         11    1    1    2    0    0  0.13215729248E+02  0.15325742138E+02  0.97405255746E+01  0.22459111962E+02  0.00000000000E+00 0.  1.
</event>
<event>
 7    1  0.2499014E-009  0.9384654E+02  0.7561462E-02  0.1293795E+00
         -2   -1    0    0    0  501 -0.00000000000E+00  0.00000000000E+00  0.81502112407E+02  0.81502112407E+02  0.00000000000E+00 0.  1.
          2   -1    0    0  501    0  0.00000000000E+00 -0.00000000000E+00 -0.14990589004E+03  0.14990589004E+03  0.00000000000E+00 0. -1.
         25    2    1    2    0    0 -0.22202442706E+02 -0.14013888224E+02 -0.37638953300E+02  0.13324285328E+03  0.12509048573E+03 0.  0.
          5    1    3    3  502    0 -0.14171985760E+02 -0.61626696655E+02  0.11292813858E+02  0.64371538477E+02  0.41800000000E+01 0.  1.
         -5    1    3    3    0  502 -0.80304569464E+01  0.47612808431E+02 -0.48931767158E+02  0.68871314803E+02  0.41800000000E+01 0.  1.
        -11    1    1    2    0    0  0.41626540412E+02  0.29493659388E+02  0.84846820651E+01  0.51716869980E+02  0.00000000000E+00 0.  1.
         11    1    1    2    0    0 -0.19424097706E+02 -0.15479771164E+02 -0.39249506401E+02  0.46448279190E+02  0.00000000000E+00 0. -1.
</event>
<event>
 7    1  0.2499014E-009  0.1360430E+03  0.7561462E-02  0.1218755E+00
          1   -1    0    0  501    0  0.00000000000E+00  0.00000000000E+00  0.44820861239E+03  0.44820861239E+03  0.00000000000E+00 0. -1.
         -1   -1    0    0    0  501 -0.00000000000E+00 -0.00000000000E+00 -0.83088235758E+02  0.83088235758E+02  0.00000000000E+00 0.  1.
         25    2    1    2    0    0  0.84981360506E+02  0.10154843486E+03  0.70782666585E+02  0.19542693827E+03  0.12509031159E+03 0.  0.
          5    1    3    3  502    0  0.69743993960E+02  0.72878969001E+02  0.10665626182E+03  0.14686251871E+03  0.41800000000E+01 0.  1.
         -5    1    3    3    0  502  0.15237366547E+02  0.28669465861E+02 -0.35873595233E+02  0.48564419558E+02  0.41800000000E+01 0.  1.
        -11    1    1    2    0    0 -0.13980476510E+02 -0.46479215598E+02  0.30918981308E+02  0.57547846277E+02  0.00000000000E+00 0.  1.
         11    1    1    2    0    0 -0.71000883996E+02 -0.55069219265E+02  0.26341872874E+03  0.27832206361E+03  0.00000000000E+00 0. -1.
</event>
<event>
 7    1  0.2499014E-009  0.9431482E+02  0.7561462E-02  0.1292727E+00
         -2   -1    0    0    0  501 -0.00000000000E+00  0.00000000000E+00  0.21024008081E+02  0.21024008081E+02  0.00000000000E+00 0.  1.
          2   -1    0    0  501    0  0.00000000000E+00 -0.00000000000E+00 -0.81350795489E+03  0.81350795489E+03  0.00000000000E+00 0. -1.
         25    2    1    2    0    0 -0.32625686774E+02 -0.42935519485E+02 -0.59434038508E+03  0.60975061591E+03  0.12508967181E+03 0.  0.
          5    1    3    3  502    0  0.10091244678E+02  0.96762683615E+01 -0.34797125933E+01  0.15001472870E+02  0.41800000000E+01 0.  1.
         -5    1    3    3    0  502 -0.42716931452E+02 -0.52611787846E+02 -0.59086067249E+03  0.59474914304E+03  0.41800000000E+01 0.  1.
        -11    1    1    2    0    0  0.50229404717E+02 -0.92412383553E+01 -0.94729270416E+02  0.10761983208E+03  0.00000000000E+00 0. -1.
         11    1    1    2    0    0 -0.17603717942E+02  0.52176757840E+02 -0.10341429131E+03  0.11716151498E+03  0.00000000000E+00 0.  1.
</event>
<event>
 7    1  0.2499014E-009  0.9393484E+02  0.7561462E-02  0.1293593E+00
          1   -1    0    0  501    0  0.00000000000E+00  0.00000000000E+00  0.11403917945E+04  0.11403917945E+04  0.00000000000E+00 0. -1.
         -1   -1    0    0    0  501 -0.00000000000E+00 -0.00000000000E+00 -0.28477612091E+02  0.28477612091E+02  0.00000000000E+00 0.  1.
         25    2    1    2    0    0  0.83994300659E+01 -0.39593081351E+02  0.10304751879E+04  0.10388289026E+04  0.12509281927E+03 0.  0.
          5    1    3    3  502    0  0.44720370379E+02 -0.16114873336E+01  0.83974557095E+03  0.84094744470E+03  0.41800000000E+01 0. -1.
         -5    1    3    3    0  502 -0.36320940313E+02 -0.37981594017E+02  0.19072961700E+03  0.19788145792E+03  0.41800000000E+01 0. -1.
        -11    1    1    2    0    0 -0.42691661728E+02  0.35780597613E+02  0.19276192755E+02  0.58944047654E+02  0.00000000000E+00 0. -1.
         11    1    1    2    0    0  0.34292231662E+02  0.38124837381E+01  0.62162801704E+02  0.71096456313E+02  0.00000000000E+00 0.  1.
</event>
<event>
 7    1  0.2499014E-009  0.1524470E+03  0.7561462E-02  0.1197498E+00
         -2   -1    0    0    0  501 -0.00000000000E+00  0.00000000000E+00  0.38283657001E+02  0.38283657001E+02  0.00000000000E+00 0.  1.
          2   -1    0    0  501    0  0.00000000000E+00 -0.00000000000E+00 -0.78155488044E+03  0.78155488044E+03  0.00000000000E+00 0. -1.
         25    2    1    2    0    0  0.10641480911E+03 -0.85512851113E+02 -0.53609196549E+03  0.56716763238E+03  0.12509184007E+03 0.  0.
          5    1    3    3  502    0  0.17420758034E+02 -0.68152099765E+02 -0.10386842845E+03  0.12551619155E+03  0.41800000000E+01 0.  1.
         -5    1    3    3    0  502  0.88994051072E+02 -0.17360751348E+02 -0.43222353705E+03  0.44165144083E+03  0.41800000000E+01 0.  1.
        -11    1    1    2    0    0 -0.10362675749E+03  0.63638515012E+02 -0.16378052533E+03  0.20399123986E+03  0.00000000000E+00 0. -1.
         11    1    1    2    0    0 -0.27880516189E+01  0.21874336101E+02 -0.43398732610E+02  0.48679665199E+02  0.00000000000E+00 0.  1.
</event>
<event>
 7    1  0.2499014E-009  0.1438212E+03  0.7561462E-02  0.1208278E+00
         -2   -1    0    0    0  501 -0.00000000000E+00  0.00000000000E+00  0.84126594178E+02  0.84126594178E+02  0.00000000000E+00 0.  1.
          2   -1    0    0  501    0  0.00000000000E+00 -0.00000000000E+00 -0.25711883388E+03  0.25711883388E+03  0.00000000000E+00 0. -1.
         25    2    1    2    0    0  0.54705879349E+02  0.80396272462E+02 -0.69015409686E+02  0.17282306503E+03  0.12509352969E+03 0.  0.
          5    1    3    3  502    0  0.17280239220E+02  0.10937253412E+03 -0.51369993573E+02  0.12213642588E+03  0.41800000000E+01 0. -1.
         -5    1    3    3    0  502  0.37425640129E+02 -0.28976261654E+02 -0.17645416113E+02  0.50686639150E+02  0.41800000000E+01 0. -1.
        -11    1    1    2    0    0 -0.20861321100E+02  0.16553294104E+02 -0.78518593384E+01  0.27764328891E+02  0.00000000000E+00 0.  1.
         11    1    1    2    0    0 -0.33844558249E+02 -0.96949566565E+02 -0.96124970677E+02  0.14065803414E+03  0.00000000000E+00 0. -1.
</event>
<event>
 7    1  0.2499014E-009  0.1554998E+03  0.7561462E-02  0.1193873E+00
         -2   -1    0    0    0  501 -0.00000000000E+00  0.00000000000E+00  0.15536088444E+03  0.15536088444E+03  0.00000000000E+00 0.  1.
          2   -1    0    0  501    0  0.00000000000E+00 -0.00000000000E+00 -0.17018015312E+03  0.17018015312E+03  0.00000000000E+00 0. -1.
         25    2    1    2    0    0 -0.41822017220E+02  0.10548567887E+03 -0.48466923230E+02  0.17570513814E+03  0.12508774260E+03 0.  0.
          5    1    3    3  502    0 -0.80809569233E+02  0.10089749706E+03 -0.39310423231E+02  0.13517867127E+03  0.41800000000E+01 0.  1.
         -5    1    3    3    0  502  0.38987552013E+02  0.45881818149E+01 -0.91564999997E+01  0.40526466865E+02  0.41800000000E+01 0.  1.
        -11    1    1    2    0    0 -0.26593122601E+02 -0.24383068347E+02  0.23914458620E+02  0.43285442388E+02  0.00000000000E+00 0. -1.
         11    1    1    2    0    0  0.68415139822E+02 -0.81102610527E+02  0.97331959392E+01  0.10655045703E+03  0.00000000000E+00 0.  1.
</event>
<event>
 7    1  0.2499014E-009  0.8609278E+02  0.7561462E-02  0.1312599E+00
         -1   -1    0    0    0  501 -0.00000000000E+00  0.00000000000E+00  0.42674286830E+02  0.42674286830E+02  0.00000000000E+00 0. -1.
          1   -1    0    0  501    0  0.00000000000E+00 -0.00000000000E+00 -0.53859924462E+03  0.53859924462E+03  0.00000000000E+00 0.  1.
         25    2    1    2    0    0  0.32116241557E+02  0.42656692066E+02 -0.44348369460E+03  0.46387208854E+03  0.12509388794E+03 0.  0.
          5    1    3    3  502    0  0.10280874158E+02 -0.81017594001E+01  0.29155359456E+01  0.14046623390E+02  0.41800000000E+01 0.  1.
         -5    1    3    3    0  502  0.21835367400E+02  0.50758451467E+02 -0.44639923054E+03  0.44982546514E+03  0.41800000000E+01 0.  1.
        -11    1    1    2    0    0  0.26887316962E+02 -0.34077091076E+02 -0.10966507852E+02  0.44770975465E+02  0.00000000000E+00 0. -1.
         11    1    1    2    0    0 -0.59003558519E+02 -0.85796009902E+01 -0.41474755341E+02  0.72630467447E+02  0.00000000000E+00 0.  1.
</event>
<event>
 7    1  0.2499014E-009  0.1912102E+03  0.7561462E-02  0.1157374E+00
         -1   -1    0    0    0  501 -0.00000000000E+00  0.00000000000E+00  0.28970683777E+02  0.28970683777E+02  0.00000000000E+00 0.  1.
          1   -1    0    0  501    0  0.00000000000E+00 -0.00000000000E+00 -0.12827758014E+04  0.12827758014E+04  0.00000000000E+00 0. -1.
         25    2    1    2    0    0 -0.13344311633E+03  0.87132223457E+02 -0.63611538923E+03  0.66759999681E+03  0.12509147717E+03 0.  0.
          5    1    3    3  502    0 -0.40212152844E+02  0.10022978427E+03 -0.32209413018E+03  0.33974273794E+03  0.41800000000E+01 0.  1.
         -5    1    3    3    0  502 -0.93230963486E+02 -0.13097560814E+02 -0.31402125906E+03  0.32785725887E+03  0.41800000000E+01 0.  1.
        -11    1    1    2    0    0  0.69657101979E+02 -0.92837403264E+02 -0.34354450450E+03  0.36262063078E+03  0.00000000000E+00 0.  1.
         11    1    1    2    0    0  0.63786014351E+02  0.57051798069E+01 -0.27414522385E+03  0.28152585754E+03  0.00000000000E+00 0. -1.
</event>
<event>
 7    1  0.4811424E-009  0.8541025E+02  0.7561462E-02  0.1314363E+00
         -4   -1    0    0    0  501 -0.00000000000E+00  0.00000000000E+00  0.14928489696E+02  0.14928489696E+02  0.00000000000E+00 0.  1.
          4   -1    0    0  501    0  0.00000000000E+00 -0.00000000000E+00 -0.10807996061E+04  0.10807996061E+04  0.00000000000E+00 0. -1.
         25    2    1    2    0    0 -0.24803071037E+02 -0.49861402315E+02 -0.74321171739E+03  0.75572123491E+03  0.12509826640E+03 0.  0.
          5    1    3    3  502    0  0.54545034366E+00 -0.48569713108E+02 -0.71816619504E+03  0.71981905410E+03  0.41800000000E+01 0. -1.
         -5    1    3    3    0  502 -0.25348521380E+02 -0.12916892078E+01 -0.25045522349E+02  0.35902180810E+02  0.41800000000E+01 0. -1.
        -11    1    1    2    0    0 -0.11038272122E+02  0.58454705203E+02 -0.11901500807E+03  0.13305400466E+03  0.00000000000E+00 0.  1.
         11    1    1    2    0    0  0.35841343159E+02 -0.85933028873E+01 -0.20364439097E+03  0.20695285625E+03  0.00000000000E+00 0. -1.
</event>
<event>
 7    1  0.2499014E-009  0.1100823E+03  0.7561462E-02  0.1260418E+00
         -2   -1    0    0    0  501 -0.00000000000E+00  0.00000000000E+00  0.10312841625E+03  0.10312841625E+03  0.00000000000E+00 0.  1.
          2   -1    0    0  501    0  0.00000000000E+00 -0.00000000000E+00 -0.16994704363E+03  0.16994704363E+03  0.00000000000E+00 0. -1.
         25    2    1    2    0    0  0.30054414100E+02  0.19757835181E+02 -0.10257611579E+03  0.16571904255E+03  0.12508917489E+03 0.  0.
          5    1    3    3  502    0  0.20321853538E+02  0.67335260131E+02 -0.26317084847E+02  0.75213538296E+02  0.41800000000E+01 0. -1.
         -5    1    3    3    0  502  0.97325605622E+01 -0.47577424950E+02 -0.76259030941E+02  0.90505504252E+02  0.41800000000E+01 0. -1.
        -11    1    1    2    0    0 -0.24580272227E+02  0.36738126063E+02  0.19505227222E+02  0.48314941564E+02  0.00000000000E+00 0.  1.
         11    1    1    2    0    0 -0.54741418738E+01 -0.56495961244E+02  0.16252261185E+02  0.59041475759E+02  0.00000000000E+00 0. -1.
</event>
<event>
 7    1  0.2499014E-009  0.2781614E+03  0.7561462E-02  0.1096697E+00
         -4   -1    0    0    0  501 -0.00000000000E+00  0.00000000000E+00  0.35125578641E+03  0.35125578641E+03  0.00000000000E+00 0.  1.
          4   -1    0    0  501    0  0.00000000000E+00 -0.00000000000E+00 -0.27816726618E+03  0.27816726618E+03  0.00000000000E+00 0. -1.
         25    2    1    2    0    0  0.20095106862E+03 -0.17784294047E+03  0.15562629021E+03  0.33447983483E+03  0.12509106383E+03 0.  0.
          5    1    3    3  502    0  0.92968627367E+00 -0.34186645429E+02  0.62107752646E+02  0.71024195744E+02  0.41800000000E+01 0.  1.
         -5    1    3    3    0  502  0.20002138234E+03 -0.14365629504E+03  0.93518537567E+02  0.26345563909E+03  0.41800000000E+01 0.  1.
        -11    1    1    2    0    0 -0.18017831815E+03  0.12640594417E+03 -0.37026245453E+02  0.22318967697E+03  0.00000000000E+00 0. -1.
         11    1    1    2    0    0 -0.20772750463E+02  0.51436996298E+02 -0.45511524531E+02  0.71753540784E+02  0.00000000000E+00 0.  1.
</event>
<event>
 7    1  0.2499014E-009  0.2957379E+03  0.7561462E-02  0.1087391E+00
          2   -1    0    0  501    0  0.00000000000E+00  0.00000000000E+00  0.49806799592E+03  0.49806799592E+03  0.00000000000E+00 0. -1.
         -2   -1    0    0    0  501 -0.00000000000E+00 -0.00000000000E+00 -0.18529798093E+03  0.18529798093E+03  0.00000000000E+00 0.  1.
         25    2    1    2    0    0 -0.27538188139E+03 -0.50376681017E+02  0.21096409225E+03  0.37219152414E+03  0.12509073441E+03 0.  0.
          5    1    3    3  502    0 -0.17742291228E+03  0.26347975787E+02  0.14850020636E+03  0.23290102902E+03  0.41800000000E+01 0.  1.
         -5    1    3    3    0  502 -0.97958969119E+02 -0.76724656804E+02  0.62463885891E+02  0.13929049513E+03  0.41800000000E+01 0.  1.
        -11    1    1    2    0    0  0.19470421384E+03  0.45136388040E+01  0.98655234164E+02  0.21831848078E+03  0.00000000000E+00 0.  1.
         11    1    1    2    0    0  0.80677667551E+02  0.45863042213E+02  0.31506885743E+01  0.92855971919E+02  0.00000000000E+00 0. -1.
</event>
<event>
 7    1  0.3111717E-009  0.1912577E+03  0.7561462E-02  0.1157332E+00
         -2   -1    0    0    0  501 -0.00000000000E+00  0.00000000000E+00  0.17273472501E+03  0.17273472501E+03  0.00000000000E+00 0. -1.
          2   -1    0    0  501    0  0.00000000000E+00 -0.00000000000E+00 -0.21709188285E+03  0.21709188285E+03  0.00000000000E+00 0.  1.
         25    2    1    2    0    0  0.71523480770E+02  0.14305833414E+03 -0.29182581177E+02  0.20513537908E+03  0.12509038907E+03 0.  0.
          5    1    3    3  502    0  0.10480229888E+03  0.82825350870E+02 -0.25785602588E+02  0.13610999338E+03  0.41800000000E+01 0.  1.
         -5    1    3    3    0  502 -0.33278818105E+02  0.60232983267E+02 -0.33969785884E+01  0.69025385702E+02  0.41800000000E+01 0.  1.
        -11    1    1    2    0    0 -0.81057895012E+02 -0.72565936076E+02 -0.28164206437E+02  0.11238069205E+03  0.00000000000E+00 0.  1.
         11    1    1    2    0    0  0.95344142418E+01 -0.70492398062E+02  0.12989629773E+02  0.72310536723E+02  0.00000000000E+00 0. -1.
</event>
<event>
 7    1  0.2499014E-009  0.1291285E+03  0.7561462E-02  0.1228755E+00
          1   -1    0    0  501    0  0.00000000000E+00  0.00000000000E+00  0.13474113989E+04  0.13474113989E+04  0.00000000000E+00 0. -1.
         -1   -1    0    0    0  501 -0.00000000000E+00 -0.00000000000E+00 -0.17201442408E+02  0.17201442408E+02  0.00000000000E+00 0.  1.
         25    2    1    2    0    0 -0.96521277891E+02  0.40381799880E+02  0.80643356100E+03  0.82275902874E+03  0.12510109601E+03 0.  0.
          5    1    3    3  502    0 -0.10500005032E+03  0.30604125588E+02  0.36357812018E+03  0.37969480500E+03  0.41800000000E+01 0. -1.
         -5    1    3    3    0  502  0.84787724321E+01  0.97776742923E+01  0.44285544082E+03  0.44306422374E+03  0.41800000000E+01 0. -1.
        -11    1    1    2    0    0  0.70555934126E+02  0.16693495622E+02  0.34093973978E+03  0.34856379444E+03  0.00000000000E+00 0. -1.
         11    1    1    2    0    0  0.25965343764E+02 -0.57075295502E+02  0.18283665572E+03  0.19329001813E+03  0.00000000000E+00 0.  1.
</event>
<event>
 7    1  0.2499014E-009  0.1056725E+03  0.7561462E-02  0.1268800E+00
          1   -1    0    0  501    0  0.00000000000E+00  0.00000000000E+00  0.29483260664E+02  0.29483260664E+02  0.00000000000E+00 0. -1.
         -1   -1    0    0    0  501 -0.00000000000E+00 -0.00000000000E+00 -0.42355790655E+03  0.42355790655E+03  0.00000000000E+00 0.  1.
         25    2    1    2    0    0 -0.33609040913E+00 -0.22313496929E+02 -0.21909175424E+03  0.25327078473E+03  0.12508752343E+03 0.  0.
          5    1    3    3  502    0  0.17718804037E+02  0.43343720144E+02 -0.40355642787E+02  0.61957117405E+02  0.41800000000E+01 0. -1.
         -5    1    3    3    0  502 -0.18054894446E+02 -0.65657217073E+02 -0.17873611145E+03  0.19131366732E+03  0.41800000000E+01 0. -1.
        -11    1    1    2    0    0  0.42251493072E+02  0.32106768549E+02 -0.10399291832E+03  0.11674999063E+03  0.00000000000E+00 0.  1.
         11    1    1    2    0    0 -0.41915402663E+02 -0.97932716198E+01 -0.70989973331E+02  0.83020391850E+02  0.00000000000E+00 0. -1.
</event>
<event>
 7    1  0.2499014E-009  0.1799281E+03  0.7561462E-02  0.1167873E+00
          2   -1    0    0  501    0  0.00000000000E+00  0.00000000000E+00  0.17849128490E+04  0.17849128490E+04  0.00000000000E+00 0. -1.
         -2   -1    0    0    0  501 -0.00000000000E+00 -0.00000000000E+00 -0.18616794951E+02  0.18616794951E+02  0.00000000000E+00 0.  1.
         25    2    1    2    0    0  0.14347154066E+03  0.38886743278E+02  0.86913286882E+03  0.89058127147E+03  0.12508715219E+03 0.  0.
          5    1    3    3  502    0  0.28423436705E+02 -0.43151467071E+02  0.27686544142E+03  0.28167691762E+03  0.41800000000E+01 0. -1.
         -5    1    3    3    0  502  0.11504810396E+03  0.82038210349E+02  0.59226742740E+03  0.60890435385E+03  0.41800000000E+01 0. -1.
        -11    1    1    2    0    0 -0.11731614588E+03  0.29028364482E+01  0.69655196670E+03  0.70636827991E+03  0.00000000000E+00 0.  1.
         11    1    1    2    0    0 -0.26155394786E+02 -0.41789579727E+02  0.20061121852E+03  0.20658009257E+03  0.00000000000E+00 0. -1.
</event>
<event>
 7    1  0.2499014E-009  0.1899522E+03  0.7561462E-02  0.1158504E+00
         -3   -1    0    0    0  501 -0.00000000000E+00  0.00000000000E+00  0.19160173022E+03  0.19160173022E+03  0.00000000000E+00 0.  1.
          3   -1    0    0  501    0  0.00000000000E+00 -0.00000000000E+00 -0.31615720685E+03  0.31615720685E+03  0.00000000000E+00 0. -1.
         25    2    1    2    0    0  0.86630025929E+00 -0.16701381067E+03 -0.21318534895E+03  0.29831080920E+03  0.12508789889E+03 0.  0.
          5    1    3    3  502    0 -0.58879131592E+02 -0.11494659605E+03 -0.13628313523E+03  0.18780318802E+03  0.41800000000E+01 0.  1.
         -5    1    3    3    0  502  0.59745431852E+02 -0.52067214621E+02 -0.76902213710E+02  0.11050762118E+03  0.41800000000E+01 0.  1.
        -11    1    1    2    0    0  0.18403985521E+02  0.95872319557E+02  0.94033363190E+02  0.13554512803E+03  0.00000000000E+00 0.  1.
         11    1    1    2    0    0 -0.19270285781E+02  0.71141491113E+02 -0.54034908788E+01  0.73902999841E+02  0.00000000000E+00 0. -1.
</event>
<event>
 7    1  0.2954967E-009  0.2064687E+03  0.7561462E-02  0.1144393E+00
         -2   -1    0    0    0  501 -0.00000000000E+00  0.00000000000E+00  0.36924648173E+02  0.36924648173E+02  0.00000000000E+00 0. -1.
          2   -1    0    0  501    0  0.00000000000E+00 -0.00000000000E+00 -0.13051762774E+04  0.13051762774E+04  0.00000000000E+00 0.  1.
         25    2    1    2    0    0 -0.18615086156E+03 -0.41133115752E+02 -0.65891130797E+03  0.69724893168E+03  0.12509150448E+03 0.  0.
          5    1    3    3  502    0 -0.10933091958E+03  0.26418686364E+02 -0.22704665048E+03  0.25341438566E+03  0.41800000000E+01 0. -1.
         -5    1    3    3    0  502 -0.76819941977E+02 -0.67551802116E+02 -0.43186465749E+03  0.44383454603E+03  0.41800000000E+01 0. -1.
        -11    1    1    2    0    0  0.99665756890E+02 -0.53611807231E+01 -0.19528291165E+03  0.21931124216E+03  0.00000000000E+00 0. -1.
         11    1    1    2    0    0  0.86485104665E+02  0.46494296475E+02 -0.41405740962E+03  0.42554075175E+03  0.00000000000E+00 0.  1.
</event>
<event>
 7    1  0.2499014E-009  0.8527204E+02  0.7561462E-02  0.1314723E+00
          2   -1    0    0  501    0  0.00000000000E+00  0.00000000000E+00  0.36853471983E+02  0.36853471983E+02  0.00000000000E+00 0. -1.
         -2   -1    0    0    0  501 -0.00000000000E+00 -0.00000000000E+00 -0.39124380127E+03  0.39124380127E+03  0.00000000000E+00 0.  1.
         25    2    1    2    0    0 -0.44979130761E+02  0.22040057363E+02 -0.23267641946E+03  0.26887685953E+03  0.12509021977E+03 0.  0.
          5    1    3    3  502    0 -0.17682365309E+02 -0.16165540251E+02  0.64397560745E+01  0.25158171492E+02  0.41800000000E+01 0.  1.
         -5    1    3    3    0  502 -0.27296765451E+02  0.38205597614E+02 -0.23911617554E+03  0.24371868803E+03  0.41800000000E+01 0.  1.
        -11    1    1    2    0    0 -0.13202323745E+02  0.22311473500E+02 -0.52295083714E+02  0.58368475932E+02  0.00000000000E+00 0.  1.
         11    1    1    2    0    0  0.58181454506E+02 -0.44351530862E+02 -0.69418826109E+02  0.10085193779E+03  0.00000000000E+00 0. -1.
</event>
<event>
 7    1  0.2499014E-009  0.1098095E+03  0.7561462E-02  0.1260923E+00
         -1   -1    0    0    0  501 -0.00000000000E+00  0.00000000000E+00  0.67346277616E+02  0.67346277616E+02  0.00000000000E+00 0. -1.
          1   -1    0    0  501    0  0.00000000000E+00 -0.00000000000E+00 -0.25735473130E+03  0.25735473130E+03  0.00000000000E+00 0.  1.
         25    2    1    2    0    0  0.71451564257E+02 -0.13439921414E+02 -0.88977724718E+02  0.16985501785E+03  0.12509090323E+03 0.  0.
          5    1    3    3  502    0  0.21149322778E+02  0.35275497257E+02  0.15381194346E+02  0.44110181366E+02  0.41800000000E+01 0.  1.
         -5    1    3    3    0  502  0.50302241479E+02 -0.48715418671E+02 -0.10435891906E+03  0.12574483648E+03  0.41800000000E+01 0.  1.
        -11    1    1    2    0    0 -0.71397174803E+02  0.39817853951E+02 -0.45959050874E+02  0.93783007099E+02  0.00000000000E+00 0.  1.
         11    1    1    2    0    0 -0.54389453087E-01 -0.26377932537E+02 -0.55071678092E+02  0.61062983967E+02  0.00000000000E+00 0. -1.
</event>
<event>
 7    1  0.2499014E-009  0.1090224E+03  0.7561462E-02  0.1262391E+00
         -2   -1    0    0    0  501 -0.00000000000E+00  0.00000000000E+00  0.46805750257E+02  0.46805750257E+02  0.00000000000E+00 0.  1.
          2   -1    0    0  501    0  0.00000000000E+00 -0.00000000000E+00 -0.34613199470E+03  0.34613199470E+03  0.00000000000E+00 0. -1.
         25    2    1    2    0    0  0.34942154208E+02  0.30619221937E+02 -0.92726704251E+02  0.16249397914E+03  0.12509021018E+03 0.  0.
          5    1    3    3  502    0 -0.41398627683E+02  0.45882730381E+01 -0.32950838625E+01  0.41990815677E+02  0.41800000000E+01 0. -1.
         -5    1    3    3    0  502  0.76340781891E+02  0.26030948899E+02 -0.89431620388E+02  0.12050316347E+03  0.41800000000E+01 0. -1.
        -11    1    1    2    0    0  0.34624852037E+01 -0.51559636342E+02 -0.69976922983E+02  0.86989393915E+02  0.00000000000E+00 0.  1.
         11    1    1    2    0    0 -0.38404639411E+02  0.20940414405E+02 -0.13662261721E+03  0.14345437190E+03  0.00000000000E+00 0. -1.
</event>
<event>
 7    1  0.2499014E-009  0.1071201E+03  0.7561462E-02  0.1265998E+00
          1   -1    0    0  501    0  0.00000000000E+00  0.00000000000E+00  0.26101390284E+02  0.26101390284E+02  0.00000000000E+00 0. -1.
         -1   -1    0    0    0  501 -0.00000000000E+00 -0.00000000000E+00 -0.52209302102E+03  0.52209302102E+03  0.00000000000E+00 0.  1.
         25    2    1    2    0    0  0.18861089830E+02 -0.91761073110E+01 -0.29954339260E+03  0.32528850992E+03  0.12508568654E+03 0.  0.
          5    1    3    3  502    0 -0.65274249295E+01  0.50974988558E+02 -0.19713321630E+03  0.20376465371E+03  0.41800000000E+01 0.  1.
         -5    1    3    3    0  502  0.25388514760E+02 -0.60151095869E+02 -0.10241017630E+03  0.12152385620E+03  0.41800000000E+01 0.  1.
        -11    1    1    2    0    0  0.33556415393E+02  0.25731235926E+02 -0.12979497391E+03  0.13650957757E+03  0.00000000000E+00 0.  1.
         11    1    1    2    0    0 -0.52417505224E+02 -0.16555128615E+02 -0.66653264227E+02  0.86396323819E+02  0.00000000000E+00 0. -1.
</event>
<event>
 7    1  0.2499014E-009  0.7792183E+02  0.7561462E-02  0.1335055E+00
          1   -1    0    0  501    0  0.00000000000E+00  0.00000000000E+00  0.35158980321E+03  0.35158980321E+03  0.00000000000E+00 0. -1.
         -1   -1    0    0    0  501 -0.00000000000E+00 -0.00000000000E+00 -0.55400939136E+02  0.55400939136E+02  0.00000000000E+00 0.  1.
         25    2    1    2    0    0 -0.29531465583E+02  0.10383848494E+01  0.28207062347E+03  0.30997524752E+03  0.12509049423E+03 0.  0.
          5    1    3    3  502    0 -0.44267562840E+02 -0.52576527084E+02  0.19273529019E+03  0.20466624735E+03  0.41800000000E+01 0.  1.
         -5    1    3    3    0  502  0.14736097257E+02  0.53614911934E+02  0.89335333278E+02  0.10530900017E+03  0.41800000000E+01 0.  1.
        -11    1    1    2    0    0  0.15529279022E+02 -0.55865771416E+01 -0.38759336524E+02  0.42126648560E+02  0.00000000000E+00 0.  1.
         11    1    1    2    0    0  0.14002186561E+02  0.45481922922E+01  0.52877577131E+02  0.54888846270E+02  0.00000000000E+00 0. -1.
</event>
<event>
 7    1  0.2499014E-009  0.1227219E+03  0.7561462E-02  0.1238673E+00
          1   -1    0    0  501    0  0.00000000000E+00  0.00000000000E+00  0.31555687643E+03  0.31555687643E+03  0.00000000000E+00 0. -1.
         -1   -1    0    0    0  501 -0.00000000000E+00 -0.00000000000E+00 -0.50282939476E+02  0.50282939476E+02  0.00000000000E+00 0.  1.
         25    2    1    2    0    0  0.20036490221E+02 -0.58630732560E+02  0.18014531810E+03  0.22790242090E+03  0.12509258203E+03 0.  0.
          5    1    3    3  502    0  0.67097826245E+02 -0.53437755578E+01  0.74453092796E+02  0.10045600854E+03  0.41800000000E+01 0.  1.
         -5    1    3    3    0  502 -0.47061336024E+02 -0.53286957002E+02  0.10569222530E+03  0.12744641236E+03  0.41800000000E+01 0.  1.
        -11    1    1    2    0    0  0.30972170788E+02  0.43841626671E+02  0.30458284554E+02  0.61717669192E+02  0.00000000000E+00 0. -1.
         11    1    1    2    0    0 -0.51008661009E+02  0.14789105889E+02  0.54670334305E+02  0.76219725819E+02  0.00000000000E+00 0.  1.
</event>
<event>
 7    1  0.2499014E-009  0.1044630E+03  0.7561462E-02  0.1271181E+00
         -4   -1    0    0    0  501 -0.00000000000E+00  0.00000000000E+00  0.30506818796E+03  0.30506818796E+03  0.00000000000E+00 0. -1.
          4   -1    0    0  501    0  0.00000000000E+00 -0.00000000000E+00 -0.45718678925E+02  0.45718678925E+02  0.00000000000E+00 0.  1.
         25    2    1    2    0    0  0.45340950827E+02 -0.67487981511E+00  0.17600187290E+03  0.22062675904E+03  0.12507297972E+03 0.  0.
          5    1    3    3  502    0  0.63753782564E+02 -0.36141460247E+02  0.51147846104E+02  0.89466890530E+02  0.41800000000E+01 0.  1.
         -5    1    3    3    0  502 -0.18412831736E+02  0.35466580432E+02  0.12485402680E+03  0.13115986851E+03  0.41800000000E+01 0.  1.
        -11    1    1    2    0    0 -0.66164393365E+02  0.17648100534E+02  0.40413224228E+02  0.79513590626E+02  0.00000000000E+00 0. -1.
         11    1    1    2    0    0  0.20823442537E+02 -0.16973220719E+02  0.42934411909E+02  0.50646517221E+02  0.00000000000E+00 0.  1.
</event>
<event>
 7    1  0.2499014E-009  0.9082338E+02  0.7561462E-02  0.1300870E+00
         -1   -1    0    0    0  501 -0.00000000000E+00  0.00000000000E+00  0.20239499582E+03  0.20239499582E+03  0.00000000000E+00 0.  1.
          1   -1    0    0  501    0  0.00000000000E+00 -0.00000000000E+00 -0.71994973937E+02  0.71994973937E+02  0.00000000000E+00 0. -1.
         25    2    1    2    0    0  0.34192086917E+02  0.28167463584E+02  0.11596795408E+03  0.17623520092E+03  0.12509106625E+03 0.  0.
          5    1    3    3  502    0 -0.34053851503E+02  0.10799313039E+02 -0.48851399101E+01  0.36299131618E+02  0.41800000000E+01 0. -1.
         -5    1    3    3    0  502  0.68245938419E+02  0.17368150546E+02  0.12085309399E+03  0.13993606930E+03  0.41800000000E+01 0. -1.
        -11    1    1    2    0    0  0.48213085270E+01  0.15701731920E+02  0.32765004698E+02  0.36651533857E+02  0.00000000000E+00 0.  1.
         11    1    1    2    0    0 -0.39013395444E+02 -0.43869195505E+02 -0.18332936894E+02  0.61503234983E+02  0.00000000000E+00 0. -1.
</event>
<event>
 7    1  0.2499014E-009  0.1506665E+03  0.7561462E-02  0.1199656E+00
         -2   -1    0    0    0  501 -0.00000000000E+00  0.00000000000E+00  0.41184368873E+02  0.41184368873E+02  0.00000000000E+00 0.  1.
          2   -1    0    0  501    0  0.00000000000E+00 -0.00000000000E+00 -0.84165048539E+03  0.84165048539E+03  0.00000000000E+00 0. -1.
         25    2    1    2    0    0 -0.76704818784E+02 -0.87470994986E+02 -0.19257976426E+03  0.25742983112E+03  0.12509335778E+03 0.  0.
          5    1    3    3  502    0  0.15975762490E+02  0.20058077382E+02 -0.49089207758E+02  0.55540743367E+02  0.41800000000E+01 0.  1.
         -5    1    3    3    0  502 -0.92680581275E+02 -0.10752907237E+03 -0.14349055650E+03  0.20188908776E+03  0.41800000000E+01 0.  1.
        -11    1    1    2    0    0 -0.11952257569E+02  0.11259246286E+02 -0.19392332947E+02  0.25410424338E+02  0.00000000000E+00 0.  1.
         11    1    1    2    0    0  0.88657076353E+02  0.76211748700E+02 -0.58849401931E+03  0.59999459880E+03  0.00000000000E+00 0. -1.
</event>
<event>
 7    1  0.2499014E-009  0.1168579E+03  0.7561462E-02  0.1248372E+00
          2   -1    0    0  501    0  0.00000000000E+00  0.00000000000E+00  0.46389835917E+03  0.46389835917E+03  0.00000000000E+00 0. -1.
         -2   -1    0    0    0  501 -0.00000000000E+00 -0.00000000000E+00 -0.70650983098E+02  0.70650983098E+02  0.00000000000E+00 0.  1.
         25    2    1    2    0    0  0.28684255286E+02 -0.58461530035E+02  0.39653766100E+03  0.42086977833E+03  0.12509483092E+03 0.  0.
          5    1    3    3  502    0  0.10055593051E+02  0.30185235253E+02  0.22076596167E+03  0.22308596014E+03  0.41800000000E+01 0.  1.
         -5    1    3    3    0  502  0.18628662235E+02 -0.88646765288E+02  0.17577169933E+03  0.19778381819E+03  0.41800000000E+01 0.  1.
        -11    1    1    2    0    0 -0.61033854520E+02  0.45365698303E+02  0.92225411093E+01  0.76604394421E+02  0.00000000000E+00 0. -1.
         11    1    1    2    0    0  0.32349599234E+02  0.13095831732E+02 -0.12512826038E+02  0.37075169518E+02  0.00000000000E+00 0.  1.
</event>
<event>
 7    1  0.2499014E-009  0.1967814E+03  0.7561462E-02  0.1152483E+00
          2   -1    0    0  501    0  0.00000000000E+00  0.00000000000E+00  0.14537340536E+04  0.14537340536E+04  0.00000000000E+00 0.  1.
         -2   -1    0    0    0  501 -0.00000000000E+00 -0.00000000000E+00 -0.30426675224E+02  0.30426675224E+02  0.00000000000E+00 0. -1.
         25    2    1    2    0    0  0.17789141060E+03  0.16196571363E+02  0.67728156580E+03  0.71152125617E+03  0.12507795862E+03 0.  0.
          5    1    3    3  502    0  0.11321356552E+03  0.47222010546E+02  0.56527793595E+03  0.57844951981E+03  0.41800000000E+01 0. -1.
         -5    1    3    3    0  502  0.64677845071E+02 -0.31025439183E+02  0.11200362985E+03  0.13307173636E+03  0.41800000000E+01 0. -1.
        -11    1    1    2    0    0 -0.15470220150E+03  0.19990965740E+02  0.53477610870E+03  0.55706184243E+03  0.00000000000E+00 0.  1.
         11    1    1    2    0    0 -0.23189209092E+02 -0.36187537103E+02  0.21124970389E+03  0.21557763022E+03  0.00000000000E+00 0. -1.
</event>
<event>
 7    1  0.2499014E-009  0.7813136E+02  0.7561462E-02  0.1334440E+00
         -2   -1    0    0    0  501 -0.00000000000E+00  0.00000000000E+00  0.38512701943E+02  0.38512701943E+02  0.00000000000E+00 0.  1.
          2   -1    0    0  501    0  0.00000000000E+00 -0.00000000000E+00 -0.44801199251E+03  0.44801199251E+03  0.00000000000E+00 0. -1.
         25    2    1    2    0    0  0.43825090412E+02 -0.33594764309E+02 -0.31610250095E+03  0.34440892879E+03  0.12508985726E+03 0.  0.
          5    1    3    3  502    0 -0.40294266436E+01 -0.39704032680E+01  0.10680372268E+02  0.12788398374E+02  0.41800000000E+01 0.  1.
         -5    1    3    3    0  502  0.47854517055E+02 -0.29624361041E+02 -0.32678287322E+03  0.33162053042E+03  0.41800000000E+01 0.  1.
        -11    1    1    2    0    0 -0.40933472593E+02 -0.15383347190E+02 -0.80138093568E+02  0.91292445416E+02  0.00000000000E+00 0. -1.
         11    1    1    2    0    0 -0.28916178187E+01  0.48978111499E+02 -0.13258696053E+02  0.50823320244E+02  0.00000000000E+00 0.  1.
</event>
<event>
 7    1  0.2858954E-009  0.1639542E+03  0.7561462E-02  0.1184303E+00
          2   -1    0    0  501    0  0.00000000000E+00  0.00000000000E+00  0.26292320282E+03  0.26292320282E+03  0.00000000000E+00 0.  1.
         -2   -1    0    0    0  501 -0.00000000000E+00 -0.00000000000E+00 -0.11578362986E+03  0.11578362986E+03  0.00000000000E+00 0. -1.
         25    2    1    2    0    0  0.20547619013E+02 -0.12947154657E+03  0.37937187552E+02  0.18512671706E+03  0.12509030799E+03 0.  0.
          5    1    3    3  502    0  0.51184168869E+02 -0.14341831654E+02 -0.13950210412E+02  0.55114318000E+02  0.41800000000E+01 0.  1.
         -5    1    3    3    0  502 -0.30636549857E+02 -0.11512971491E+03  0.51887397964E+02  0.13001239906E+03  0.41800000000E+01 0.  1.
        -11    1    1    2    0    0  0.31485495574E+02  0.67341763111E+02  0.29694317279E+02  0.80049996684E+02  0.00000000000E+00 0.  1.
         11    1    1    2    0    0 -0.52033114587E+02  0.62129783454E+02  0.79508068133E+02  0.11353011893E+03  0.00000000000E+00 0. -1.
</event>
<event>
 7    1  0.2499014E-009  0.1375730E+03  0.7561462E-02  0.1216632E+00
          2   -1    0    0  501    0  0.00000000000E+00  0.00000000000E+00  0.40016673853E+03  0.40016673853E+03  0.00000000000E+00 0. -1.
         -2   -1    0    0    0  501 -0.00000000000E+00 -0.00000000000E+00 -0.55271124318E+02  0.55271124318E+02  0.00000000000E+00 0.  1.
         25    2    1    2    0    0  0.96508516876E+02  0.28544490023E+02  0.19919843496E+03  0.25584511498E+03  0.12509206461E+03 0.  0.
          5    1    3    3  502    0  0.12408322034E+03  0.92088960297E+01  0.17214444915E+03  0.21244442358E+03  0.41800000000E+01 0. -1.
         -5    1    3    3    0  502 -0.27574703464E+02  0.19335593994E+02  0.27053985813E+02  0.43400691407E+02  0.41800000000E+01 0. -1.
        -11    1    1    2    0    0 -0.45290955580E+02  0.16802273874E+02  0.12566015045E+02  0.49914845475E+02  0.00000000000E+00 0.  1.
         11    1    1    2    0    0 -0.51217561296E+02 -0.45346763897E+02  0.13313116421E+03  0.14967790239E+03  0.00000000000E+00 0. -1.
</event>
<event>
 7    1  0.2499014E-009  0.3725872E+03  0.7561462E-02  0.1053708E+00
         -2   -1    0    0    0  501 -0.00000000000E+00  0.00000000000E+00  0.34617492554E+03  0.34617492554E+03  0.00000000000E+00 0. -1.
          2   -1    0    0  501    0  0.00000000000E+00 -0.00000000000E+00 -0.43517803454E+03  0.43517803454E+03  0.00000000000E+00 0.  1.
         25    2    1    2    0    0  0.17496746657E+03 -0.32857560049E+03 -0.44978717815E+02  0.39527911530E+03  0.12508778654E+03 0.  0.
          5    1    3    3  502    0  0.15357562025E+03 -0.27858570914E+03  0.93819349980E+01  0.31827811985E+03  0.41800000000E+01 0. -1.
         -5    1    3    3    0  502  0.21391846323E+02 -0.49989891354E+02 -0.54360652813E+02  0.77000995454E+02  0.41800000000E+01 0. -1.
        -11    1    1    2    0    0 -0.10255340376E+03  0.20646595040E+03  0.17821706023E+02  0.23122067922E+03  0.00000000000E+00 0. -1.
         11    1    1    2    0    0 -0.72414062819E+02  0.12210965009E+03 -0.61846097217E+02  0.15485316555E+03  0.00000000000E+00 0.  1.
</event>
<event>
 7    1  0.2499014E-009  0.1091057E+03  0.7561462E-02  0.1262235E+00
          2   -1    0    0  501    0  0.00000000000E+00  0.00000000000E+00  0.55934773325E+03  0.55934773325E+03  0.00000000000E+00 0. -1.
         -2   -1    0    0    0  501 -0.00000000000E+00 -0.00000000000E+00 -0.27441537239E+02  0.27441537239E+02  0.00000000000E+00 0.  1.
         25    2    1    2    0    0  0.47322153361E+02 -0.99169307838E+01  0.21581648108E+03  0.25409410239E+03  0.12509727275E+03 0.  0.
          5    1    3    3  502    0  0.71556079792E+02  0.27625127150E+02  0.79367735276E+02  0.11045419869E+03  0.41800000000E+01 0.  1.
         -5    1    3    3    0  502 -0.24233926431E+02 -0.37542057934E+02  0.13644874580E+03  0.14363990370E+03  0.41800000000E+01 0.  1.
        -11    1    1    2    0    0 -0.64449675752E+02 -0.15101346176E+02  0.26626974475E+03  0.27437454024E+03  0.00000000000E+00 0. -1.
         11    1    1    2    0    0  0.17127522390E+02  0.25018276960E+02  0.49819970188E+02  0.58320627867E+02  0.00000000000E+00 0.  1.
</event>
<event>
 7    1  0.2499014E-009  0.1889822E+03  0.7561462E-02  0.1159383E+00
         -2   -1    0    0    0  501 -0.00000000000E+00  0.00000000000E+00  0.13615888925E+03  0.13615888925E+03  0.00000000000E+00 0.  1.
          2   -1    0    0  501    0  0.00000000000E+00 -0.00000000000E+00 -0.34246567848E+03  0.34246567848E+03  0.00000000000E+00 0. -1.
         25    2    1    2    0    0  0.37491330598E+01  0.16328627842E+03 -0.97822043759E+01  0.20595742751E+03  0.12508519379E+03 0.  0.
          5    1    3    3  502    0 -0.32887895032E+02  0.15112264693E+02 -0.35781384555E+02  0.51066369212E+02  0.41800000000E+01 0. -1.
         -5    1    3    3    0  502  0.36637028092E+02  0.14817401373E+03  0.25999180179E+02  0.15489105830E+03  0.41800000000E+01 0. -1.
        -11    1    1    2    0    0  0.42035541036E+02 -0.11430269692E+03 -0.12107431291E+03  0.17172967851E+03  0.00000000000E+00 0.  1.
         11    1    1    2    0    0 -0.45784674096E+02 -0.48983581499E+02 -0.75450271941E+02  0.10093746170E+03  0.00000000000E+00 0. -1.
</event>
<event>
 7    1  0.2499014E-009  0.7857820E+02  0.7561462E-02  0.1333135E+00
         -2   -1    0    0    0  501 -0.00000000000E+00  0.00000000000E+00  0.98013027557E+02  0.98013027557E+02  0.00000000000E+00 0.  1.
          2   -1    0    0  501    0  0.00000000000E+00 -0.00000000000E+00 -0.18943805917E+03  0.18943805917E+03  0.00000000000E+00 0. -1.
         25    2    1    2    0    0  0.29614176281E+02  0.51895543161E+01  0.74978936369E+01  0.12886691234E+03  0.12508609746E+03 0.  0.
          5    1    3    3  502    0  0.11059887534E+02  0.11986326201E+02 -0.57964195775E+02  0.60359866798E+02  0.41800000000E+01 0.  1.
         -5    1    3    3    0  502  0.18554288747E+02 -0.67967718846E+01  0.65462089412E+02  0.68507045543E+02  0.41800000000E+01 0.  1.
        -11    1    1    2    0    0 -0.63782405845E+02 -0.36747208341E+02 -0.40866464256E+02  0.84193945846E+02  0.00000000000E+00 0.  1.
         11    1    1    2    0    0  0.34168229564E+02  0.31557654025E+02 -0.58056460992E+02  0.74390228538E+02  0.00000000000E+00 0. -1.
</event>
<event>
 7    1  0.2499014E-009  0.9545046E+02  0.7561462E-02  0.1290165E+00
          1   -1    0    0  501    0  0.00000000000E+00  0.00000000000E+00  0.52686704663E+02  0.52686704663E+02  0.00000000000E+00 0. -1.
         -1   -1    0    0    0  501 -0.00000000000E+00 -0.00000000000E+00 -0.22940797324E+03  0.22940797324E+03  0.00000000000E+00 0.  1.
         25    2    1    2    0    0 -0.31564602598E+01 -0.20281244083E+02 -0.10209371128E+03  0.16276273392E+03  0.12508912650E+03 0.  0.
          5    1    3    3  502    0 -0.48386958134E+02 -0.24273425977E+02 -0.10378895433E+03  0.11713290044E+03  0.41800000000E+01 0.  1.
         -5    1    3    3    0  502  0.45230497874E+02  0.39921818937E+01  0.16952430498E+01  0.45629833478E+02  0.41800000000E+01 0.  1.
        -11    1    1    2    0    0 -0.23757165837E+02 -0.27393625378E+02 -0.42451916698E+02  0.55829910185E+02  0.00000000000E+00 0. -1.
         11    1    1    2    0    0  0.26913626096E+02  0.47674869461E+02 -0.32175640597E+02  0.63502033791E+02  0.00000000000E+00 0.  1.
</event>
<event>
 7    1  0.2499014E-009  0.5690993E+02  0.7561462E-02  0.1411277E+00
          2   -1    0    0  501    0  0.00000000000E+00  0.00000000000E+00  0.73659539243E+03  0.73659539243E+03  0.00000000000E+00 0. -1.
         -2   -1    0    0    0  501 -0.00000000000E+00 -0.00000000000E+00 -0.17583486580E+02  0.17583486580E+02  0.00000000000E+00 0.  1.
         25    2    1    2    0    0  0.17716998710E+02  0.35018245356E+01  0.49703559696E+03  0.51285269477E+03  0.12508935637E+03 0.  0.
          5    1    3    3  502    0 -0.76745763972E+01  0.69015648196E+01  0.48340737085E+03  0.48353561328E+03  0.41800000000E+01 0.  1.
         -5    1    3    3    0  502  0.25391575107E+02 -0.33997402840E+01  0.13628226107E+02  0.29317081492E+02  0.41800000000E+01 0.  1.
        -11    1    1    2    0    0  0.13544222769E+02  0.28768883756E+02  0.28497026796E+02  0.42698655473E+02  0.00000000000E+00 0.  1.
         11    1    1    2    0    0 -0.31261221479E+02 -0.32270708291E+02  0.19347928210E+03  0.19862752877E+03  0.00000000000E+00 0. -1.
</event>
<event>
 7    1  0.2499014E-009  0.2110311E+03  0.7561462E-02  0.1140752E+00
          2   -1    0    0  501    0  0.00000000000E+00  0.00000000000E+00  0.12679586722E+04  0.12679586722E+04  0.00000000000E+00 0. -1.
         -2   -1    0    0    0  501 -0.00000000000E+00 -0.00000000000E+00 -0.36599149030E+02  0.36599149030E+02  0.00000000000E+00 0.  1.
         25    2    1    2    0    0 -0.13885066219E+03 -0.12365680061E+03  0.66663830261E+03  0.70329580371E+03  0.12509136777E+03 0.  0.
          5    1    3    3  502    0 -0.13863182899E+03 -0.47655782181E+02  0.40138051378E+03  0.42733318011E+03  0.41800000000E+01 0. -1.
         -5    1    3    3    0  502 -0.21883319934E+00 -0.76001018433E+02  0.26525778883E+03  0.27596262360E+03  0.41800000000E+01 0. -1.
        -11    1    1    2    0    0  0.18550859272E+02  0.60787458611E+02  0.11369003447E+03  0.13024850649E+03  0.00000000000E+00 0.  1.
         11    1    1    2    0    0  0.12029980292E+03  0.62869342003E+02  0.45103118610E+03  0.47101351104E+03  0.00000000000E+00 0. -1.
</event>
<event>
 7    1  0.2499014E-009  0.1347345E+03  0.7561462E-02  0.1220595E+00
          3   -1    0    0  501    0  0.00000000000E+00  0.00000000000E+00  0.31116336361E+02  0.31116336361E+02  0.00000000000E+00 0. -1.
         -3   -1    0    0    0  501 -0.00000000000E+00 -0.00000000000E+00 -0.12340338579E+04  0.12340338579E+04  0.00000000000E+00 0.  1.
         25    2    1    2    0    0  0.12941951584E+03  0.47249412561E+01 -0.94893235839E+03  0.96586340718E+03  0.12509102437E+03 0.  0.
          5    1    3    3  502    0  0.75265204615E+02  0.78326752845E+01 -0.84644613218E+03  0.84983217691E+03  0.41800000000E+01 0. -1.
         -5    1    3    3    0  502  0.54154311228E+02 -0.31077340283E+01 -0.10248622621E+03  0.11603123027E+03  0.41800000000E+01 0. -1.
        -11    1    1    2    0    0 -0.60485940967E+02  0.23363329270E+02 -0.19123866746E+03  0.20193222165E+03  0.00000000000E+00 0.  1.
         11    1    1    2    0    0 -0.68933574876E+02 -0.28088270526E+02 -0.62746495652E+02  0.97354565393E+02  0.00000000000E+00 0. -1.
</event>
<event>
 7    1  0.2499014E-009  0.1032572E+03  0.7561462E-02  0.1273592E+00
          2   -1    0    0  501    0  0.00000000000E+00  0.00000000000E+00  0.43900198811E+03  0.43900198811E+03  0.00000000000E+00 0. -1.
         -2   -1    0    0    0  501 -0.00000000000E+00 -0.00000000000E+00 -0.28522432170E+02  0.28522432170E+02  0.00000000000E+00 0.  1.
         25    2    1    2    0    0  0.16027783063E+02 -0.13404978516E+02  0.19736227943E+03  0.23459426916E+03  0.12508404574E+03 0.  0.
          5    1    3    3  502    0 -0.47087424947E+02  0.19292774979E+02  0.11432377262E+03  0.12520716489E+03  0.41800000000E+01 0. -1.
         -5    1    3    3    0  502  0.63115208010E+02 -0.32697753494E+02  0.83038506819E+02  0.10938710427E+03  0.41800000000E+01 0. -1.
        -11    1    1    2    0    0 -0.48230637899E+02 -0.25801383181E+01  0.67884425223E+02  0.83313544719E+02  0.00000000000E+00 0.  1.
         11    1    1    2    0    0  0.32202854835E+02  0.15985116834E+02  0.14523285129E+03  0.14961660641E+03  0.00000000000E+00 0. -1.
</event>
<event>
 7    1  0.2499014E-009  0.9689617E+02  0.7561462E-02  0.1286962E+00
         -1   -1    0    0    0  501 -0.00000000000E+00  0.00000000000E+00  0.40524256795E+03  0.40524256795E+03  0.00000000000E+00 0.  1.
          1   -1    0    0  501    0  0.00000000000E+00 -0.00000000000E+00 -0.36729253022E+02  0.36729253022E+02  0.00000000000E+00 0. -1.
         25    2    1    2    0    0  0.12386724457E+02 -0.36714049242E+02  0.12716463491E+03  0.18253567995E+03  0.12508827974E+03 0.  0.
          5    1    3    3  502    0  0.22707642010E+02  0.31446997534E+02  0.10169986784E+03  0.10892605831E+03  0.41800000000E+01 0. -1.
         -5    1    3    3    0  502 -0.10320917554E+02 -0.68161046776E+02  0.25464767071E+02  0.73609621645E+02  0.41800000000E+01 0. -1.
        -11    1    1    2    0    0  0.24084087336E+02  0.42439548512E+02  0.78303939066E+02  0.92264106856E+02  0.00000000000E+00 0. -1.
         11    1    1    2    0    0 -0.36470811793E+02 -0.57254992695E+01  0.16304474095E+03  0.16717203416E+03  0.00000000000E+00 0.  1.
</event>
<event>
 7    1  0.2499014E-009  0.1475149E+03  0.7561462E-02  0.1203560E+00
          1   -1    0    0  501    0  0.00000000000E+00  0.00000000000E+00  0.38183334154E+03  0.38183334154E+03  0.00000000000E+00 0. -1.
         -1   -1    0    0    0  501 -0.00000000000E+00 -0.00000000000E+00 -0.83834837950E+02  0.83834837950E+02  0.00000000000E+00 0.  1.
         25    2    1    2    0    0  0.11809189043E+03 -0.32878516414E+02  0.25006685550E+03  0.30529776684E+03  0.12508638131E+03 0.  0.
          5    1    3    3  502    0  0.12716611947E+02  0.41335716756E+02  0.88393402539E+02  0.98494769971E+02  0.41800000000E+01 0. -1.
         -5    1    3    3    0  502  0.10537527849E+03 -0.74214233170E+02  0.16167345296E+03  0.20680299687E+03  0.41800000000E+01 0. -1.
        -11    1    1    2    0    0 -0.24891342218E+02  0.55599824104E+01  0.57377170938E+02  0.62790381960E+02  0.00000000000E+00 0. -1.
         11    1    1    2    0    0 -0.93200548216E+02  0.27318534003E+02 -0.94455228478E+01  0.97580030691E+02  0.00000000000E+00 0.  1.
</event>
<event>
 7    1  0.2499014E-009  0.1013790E+03  0.7561462E-02  0.1277423E+00
          1   -1    0    0  501    0  0.00000000000E+00  0.00000000000E+00  0.76403257469E+03  0.76403257469E+03  0.00000000000E+00 0. -1.
         -1   -1    0    0    0  501 -0.00000000000E+00 -0.00000000000E+00 -0.21534024506E+02  0.21534024506E+02  0.00000000000E+00 0.  1.
         25    2    1    2    0    0 -0.18720366808E+01  0.60972833265E+02  0.49299626026E+03  0.51226473525E+03  0.12509458596E+03 0.  0.
          5    1    3    3  502    0 -0.40220038412E+02 -0.14162825666E+02  0.80307229942E+02  0.91021759495E+02  0.41800000000E+01 0.  1.
         -5    1    3    3    0  502  0.38348001731E+02  0.75135658931E+02  0.41268903032E+03  0.42124297576E+03  0.41800000000E+01 0.  1.
        -11    1    1    2    0    0  0.22002787949E+02 -0.43705487279E+02  0.24029636618E+03  0.24522772253E+03  0.00000000000E+00 0. -1.
         11    1    1    2    0    0 -0.20130751268E+02 -0.17267345986E+02  0.92059237357E+01  0.28074141409E+02  0.00000000000E+00 0.  1.
</event>
<event>
 7    1  0.2499014E-009  0.9242305E+02  0.7561462E-02  0.1297088E+00
         -1   -1    0    0    0  501 -0.00000000000E+00  0.00000000000E+00  0.95401069551E+02  0.95401069551E+02  0.00000000000E+00 0.  1.
          1   -1    0    0  501    0  0.00000000000E+00 -0.00000000000E+00 -0.19583578445E+03  0.19583578445E+03  0.00000000000E+00 0. -1.
         25    2    1    2    0    0 -0.66553649266E+02 -0.26481470721E+02 -0.12899794046E+02  0.14472041017E+03  0.12508771287E+03 0.  0.
          5    1    3    3  502    0 -0.16584300946E+02  0.30492549299E+02  0.39303468361E+02  0.52602943129E+02  0.41800000000E+01 0. -1.
         -5    1    3    3    0  502 -0.49969348320E+02 -0.56974020020E+02 -0.52203262407E+02  0.92117467044E+02  0.41800000000E+01 0. -1.
        -11    1    1    2    0    0  0.47785943539E+02  0.27603800570E+02  0.18093294290E+01  0.55215395306E+02  0.00000000000E+00 0.  1.
         11    1    1    2    0    0  0.18767705728E+02 -0.11223298493E+01 -0.89344250278E+02  0.91301048517E+02  0.00000000000E+00 0. -1.
</event>
<event>
 7    1  0.2499014E-009  0.1342305E+03  0.7561462E-02  0.1221310E+00
         -2   -1    0    0    0  501 -0.00000000000E+00  0.00000000000E+00  0.71527004090E+02  0.71527004090E+02  0.00000000000E+00 0.  1.
          2   -1    0    0  501    0  0.00000000000E+00 -0.00000000000E+00 -0.27370153722E+03  0.27370153722E+03  0.00000000000E+00 0. -1.
         25    2    1    2    0    0 -0.46861458384E+02  0.73059127005E+02 -0.12134715403E+03  0.19469830280E+03  0.12509462419E+03 0.  0.
          5    1    3    3  502    0  0.33376752071E+02 -0.15068902982E+01 -0.60725129889E+02  0.69435524750E+02  0.41800000000E+01 0. -1.
         -5    1    3    3    0  502 -0.80238210455E+02  0.74566017303E+02 -0.60622024136E+02  0.12526277805E+03  0.41800000000E+01 0. -1.
        -11    1    1    2    0    0  0.16657877004E+01 -0.79503203228E+02 -0.38814459271E+02  0.88487832049E+02  0.00000000000E+00 0.  1.
         11    1    1    2    0    0  0.45195670684E+02  0.64440762238E+01 -0.42012919834E+02  0.62042406464E+02  0.00000000000E+00 0. -1.
</event>
<event>
 7    1  0.2499014E-009  0.1100780E+03  0.7561462E-02  0.1260426E+00
          2   -1    0    0  501    0  0.00000000000E+00  0.00000000000E+00  0.29597334480E+03  0.29597334480E+03  0.00000000000E+00 0. -1.
         -2   -1    0    0    0  501 -0.00000000000E+00 -0.00000000000E+00 -0.86612427284E+02  0.86612427284E+02  0.00000000000E+00 0.  1.
         25    2    1    2    0    0  0.47305638016E+02 -0.87253480165E+02  0.36497579253E+02  0.16381227928E+03  0.12510554089E+03 0.  0.
          5    1    3    3  502    0  0.47420853421E+02 -0.17366029373E+02  0.69823032048E+02  0.86273081084E+02  0.41800000000E+01 0.  1.
         -5    1    3    3    0  502 -0.11521540547E+00 -0.69887450792E+02 -0.33325452795E+02  0.77539198195E+02  0.41800000000E+01 0.  1.
        -11    1    1    2    0    0 -0.34275601325E+02  0.68986539957E+02  0.45536702057E+02  0.89484919264E+02  0.00000000000E+00 0.  1.
         11    1    1    2    0    0 -0.13030036691E+02  0.18266940208E+02  0.12732663621E+03  0.12928857355E+03  0.00000000000E+00 0. -1.
</event>
<event>
 7    1  0.2499014E-009  0.1030073E+03  0.7561462E-02  0.1274096E+00
          1   -1    0    0  501    0  0.00000000000E+00  0.00000000000E+00  0.14447551042E+03  0.14447551042E+03  0.00000000000E+00 0. -1.
         -1   -1    0    0    0  501 -0.00000000000E+00 -0.00000000000E+00 -0.10114275235E+03  0.10114275235E+03  0.00000000000E+00 0.  1.
         25    2    1    2    0    0  0.16380480580E+02 -0.25364078106E+02  0.65622925984E+02  0.14446297567E+03  0.12510606029E+03 0.  0.
          5    1    3    3  502    0  0.56499606219E+01 -0.74741339854E+02  0.53917241736E+02  0.92426897030E+02  0.41800000000E+01 0.  1.
         -5    1    3    3    0  502  0.10730519958E+02  0.49377261748E+02  0.11705684248E+02  0.52036078638E+02  0.41800000000E+01 0.  1.
        -11    1    1    2    0    0 -0.42862970282E+02  0.31333136353E+02 -0.41925435568E+02  0.67651620843E+02  0.00000000000E+00 0.  1.
         11    1    1    2    0    0  0.26482489702E+02 -0.59690582468E+01  0.19635267656E+02  0.33503666263E+02  0.00000000000E+00 0. -1.
</event>
<event>
 7    1  0.2499014E-009  0.1048655E+03  0.7561462E-02  0.1270385E+00
          2   -1    0    0  501    0  0.00000000000E+00  0.00000000000E+00  0.73756547349E+03  0.73756547349E+03  0.00000000000E+00 0. -1.
         -2   -1    0    0    0  501 -0.00000000000E+00 -0.00000000000E+00 -0.46164932269E+02  0.46164932269E+02  0.00000000000E+00 0.  1.
         25    2    1    2    0    0 -0.68663809341E+02  0.17507492766E+02  0.64206027055E+03  0.65795902631E+03  0.12508980083E+03 0.  0.
          5    1    3    3  502    0 -0.28597450413E+01  0.59908410816E+02  0.19433700700E+03  0.20342453274E+03  0.41800000000E+01 0. -1.
         -5    1    3    3    0  502 -0.65804064300E+02 -0.42400918049E+02  0.44772326354E+03  0.45453449357E+03  0.41800000000E+01 0. -1.
        -11    1    1    2    0    0  0.56143275857E+02 -0.11416932671E+02 -0.15581505071E+02  0.59373370090E+02  0.00000000000E+00 0.  1.
         11    1    1    2    0    0  0.12520533485E+02 -0.60905600954E+01  0.64921775743E+02  0.66398009357E+02  0.00000000000E+00 0. -1.
</event>
<event>
 7    1  0.2499014E-009  0.1042113E+03  0.7561462E-02  0.1271681E+00
         -1   -1    0    0    0  501 -0.00000000000E+00  0.00000000000E+00  0.19987048074E+02  0.19987048074E+02  0.00000000000E+00 0.  1.
          1   -1    0    0  501    0  0.00000000000E+00 -0.00000000000E+00 -0.65353360978E+03  0.65353360978E+03  0.00000000000E+00 0. -1.
         25    2    1    2    0    0 -0.23368466463E+02  0.17999860170E+01 -0.28043558573E+03  0.30796286651E+03  0.12509070403E+03 0.  0.
          5    1    3    3  502    0 -0.19828029969E+02 -0.55233292038E+02 -0.78770556037E+02  0.98316530757E+02  0.41800000000E+01 0.  1.
         -5    1    3    3    0  502 -0.35404364945E+01  0.57033278055E+02 -0.20166502969E+03  0.20964633576E+03  0.41800000000E+01 0.  1.
        -11    1    1    2    0    0  0.25444337898E+02 -0.43578916010E+02 -0.15251314351E+03  0.16064493517E+03  0.00000000000E+00 0.  1.
         11    1    1    2    0    0 -0.20758714350E+01  0.41778929993E+02 -0.20059783247E+03  0.20491285617E+03  0.00000000000E+00 0. -1.
</event>
<event>
 7    1  0.2499014E-009  0.1047058E+03  0.7561462E-02  0.1270700E+00
         -1   -1    0    0    0  501 -0.00000000000E+00  0.00000000000E+00  0.18234016969E+02  0.18234016969E+02  0.00000000000E+00 0.  1.
          1   -1    0    0  501    0  0.00000000000E+00 -0.00000000000E+00 -0.91287289895E+03  0.91287289895E+03  0.00000000000E+00 0. -1.
         25    2    1    2    0    0  0.58992670452E+02 -0.13000576983E+02 -0.36925684485E+03  0.39452084882E+03  0.12508769930E+03 0.  0.
          5    1    3    3  502    0 -0.19229421438E+02  0.57392446890E+01 -0.45122537502E+01  0.20989102228E+02  0.41800000000E+01 0. -1.
         -5    1    3    3    0  502  0.78222091891E+02 -0.18739821672E+02 -0.36474459110E+03  0.37353174660E+03  0.41800000000E+01 0. -1.
        -11    1    1    2    0    0  0.23419576221E+02  0.11144787151E+02 -0.15366339493E+03  0.15583684343E+03  0.00000000000E+00 0.  1.
         11    1    1    2    0    0 -0.82412246674E+02  0.18557898324E+01 -0.37171864220E+03  0.38074922366E+03  0.00000000000E+00 0. -1.
</event>
<event>
 7    1  0.2499014E-009  0.1347254E+03  0.7561462E-02  0.1220608E+00
          1   -1    0    0  501    0  0.00000000000E+00  0.00000000000E+00  0.44459105578E+03  0.44459105578E+03  0.00000000000E+00 0. -1.
         -1   -1    0    0    0  501 -0.00000000000E+00 -0.00000000000E+00 -0.52864734688E+02  0.52864734688E+02  0.00000000000E+00 0.  1.
         25    2    1    2    0    0 -0.10327613871E+03  0.26330813071E+01  0.15952663685E+03  0.22753144265E+03  0.12509562577E+03 0.  0.
          5    1    3    3  502    0 -0.12111628391E+03 -0.18094762379E+02  0.88048258173E+02  0.15088586024E+03  0.41800000000E+01 0.  1.
         -5    1    3    3    0  502  0.17840145201E+02  0.20727843686E+02  0.71478378677E+02  0.76645582410E+02  0.41800000000E+01 0.  1.
        -11    1    1    2    0    0  0.35835772127E+02  0.27711838828E+02  0.16105878843E+03  0.16730834380E+03  0.00000000000E+00 0. -1.
         11    1    1    2    0    0  0.67440366584E+02 -0.30344920135E+02  0.71140895817E+02  0.10261600402E+03  0.00000000000E+00 0.  1.
</event>
<event>
 7    1  0.2499014E-009  0.1109427E+03  0.7561462E-02  0.1258834E+00
          1   -1    0    0  501    0  0.00000000000E+00  0.00000000000E+00  0.18851761476E+03  0.18851761476E+03  0.00000000000E+00 0. -1.
         -1   -1    0    0    0  501 -0.00000000000E+00 -0.00000000000E+00 -0.79210846543E+02  0.79210846543E+02  0.00000000000E+00 0.  1.
         25    2    1    2    0    0  0.36920225110E+02  0.25684323454E+01  0.13557255908E+02  0.13115531486E+03  0.12509283577E+03 0.  0.
          5    1    3    3  502    0 -0.16779500192E+01  0.57750666864E+02 -0.11728687896E+02  0.59101519094E+02  0.41800000000E+01 0.  1.
         -5    1    3    3    0  502  0.38598175129E+02 -0.55182234518E+02  0.25285943804E+02  0.72053795763E+02  0.41800000000E+01 0.  1.
        -11    1    1    2    0    0  0.15483242627E+02 -0.32599494669E+02  0.44998941243E+02  0.57683295397E+02  0.00000000000E+00 0. -1.
         11    1    1    2    0    0 -0.52403467736E+02  0.30031062323E+02  0.50750571068E+02  0.78889851050E+02  0.00000000000E+00 0.  1.
</event>
<event>
 7    1  0.2499014E-009  0.1129226E+03  0.7561462E-02  0.1255252E+00
          1   -1    0    0  501    0  0.00000000000E+00  0.00000000000E+00  0.25012691606E+03  0.25012691606E+03  0.00000000000E+00 0. -1.
         -1   -1    0    0    0  501 -0.00000000000E+00 -0.00000000000E+00 -0.89579335293E+02  0.89579335293E+02  0.00000000000E+00 0.  1.
         25    2    1    2    0    0  0.34318586735E+02  0.46758278251E+02  0.18314996650E+03  0.22924429884E+03  0.12507971995E+03 0.  0.
          5    1    3    3  502    0  0.11234506995E+02 -0.39326583665E+02  0.26338858625E+02  0.48826245031E+02  0.41800000000E+01 0.  1.
         -5    1    3    3    0  502  0.23084079739E+02  0.86084861916E+02  0.15681110787E+03  0.18041805381E+03  0.41800000000E+01 0.  1.
        -11    1    1    2    0    0 -0.43716312702E+02 -0.63036494157E+02 -0.38512070870E+02  0.85836444442E+02  0.00000000000E+00 0.  1.
         11    1    1    2    0    0  0.93977259675E+01  0.16278215905E+02  0.15909685136E+02  0.24625508067E+02  0.00000000000E+00 0. -1.
</event>
<event>
 7    1  0.2499014E-009  0.1268044E+03  0.7561462E-02  0.1232276E+00
          2   -1    0    0  501    0  0.00000000000E+00  0.00000000000E+00  0.14347582620E+03  0.14347582620E+03  0.00000000000E+00 0. -1.
         -2   -1    0    0    0  501 -0.00000000000E+00 -0.00000000000E+00 -0.12964732504E+03  0.12964732504E+03  0.00000000000E+00 0.  1.
         25    2    1    2    0    0 -0.47477028891E+02  0.44455728114E+02 -0.42161231942E+02  0.14716177738E+03  0.12509452109E+03 0.  0.
          5    1    3    3  502    0 -0.77004738625E+02 -0.11105015342E+02 -0.24566355465E+02  0.81694732739E+02  0.41800000000E+01 0.  1.
         -5    1    3    3    0  502  0.29527709734E+02  0.55560743455E+02 -0.17594876477E+02  0.65467044639E+02  0.41800000000E+01 0.  1.
        -11    1    1    2    0    0  0.72553769715E+02 -0.48450445132E+02  0.40204244986E+02  0.96061836586E+02  0.00000000000E+00 0. -1.
         11    1    1    2    0    0 -0.25076740823E+02  0.39947170180E+01  0.15785488109E+02  0.29899537274E+02  0.00000000000E+00 0.  1.
</event>
<event>
 7    1  0.2499014E-009  0.1126572E+03  0.7561462E-02  0.1255727E+00
         -2   -1    0    0    0  501 -0.00000000000E+00  0.00000000000E+00  0.80355553115E+02  0.80355553115E+02  0.00000000000E+00 0. -1.
          2   -1    0    0  501    0  0.00000000000E+00 -0.00000000000E+00 -0.41186971681E+03  0.41186971681E+03  0.00000000000E+00 0.  1.
         25    2    1    2    0    0 -0.24157598890E+02  0.83997667396E+02 -0.33341089030E+03  0.36667374281E+03  0.12509042402E+03 0.  0.
          5    1    3    3  502    0 -0.36252074494E+02  0.78977059052E+02 -0.34033724177E+03  0.35128122537E+03  0.41800000000E+01 0.  1.
         -5    1    3    3    0  502  0.12094475603E+02  0.50206083445E+01  0.69263514728E+01  0.15392517435E+02  0.41800000000E+01 0.  1.
        -11    1    1    2    0    0 -0.32167622243E+02 -0.47793872810E+02 -0.68860383919E+01  0.58020924878E+02  0.00000000000E+00 0. -1.
         11    1    1    2    0    0  0.56325221134E+02 -0.36203794586E+02  0.87827649944E+01  0.67530602242E+02  0.00000000000E+00 0.  1.
</event>
<event>
 7    1  0.2499014E-009  0.2309017E+03  0.7561462E-02  0.1126007E+00
          1   -1    0    0  501    0  0.00000000000E+00  0.00000000000E+00  0.70692028023E+03  0.70692028023E+03  0.00000000000E+00 0. -1.
         -1   -1    0    0    0  501 -0.00000000000E+00 -0.00000000000E+00 -0.30461667195E+03  0.30461667195E+03  0.00000000000E+00 0.  1.
         25    2    1    2    0    0 -0.18439240153E+03 -0.11354916374E+03 -0.22822025056E+03  0.33856436007E+03  0.12508945928E+03 0.  0.
          5    1    3    3  502    0 -0.65175157308E+02 -0.80443335889E+02 -0.35543178755E+02  0.10954323975E+03  0.41800000000E+01 0. -1.
         -5    1    3    3    0  502 -0.11921724422E+03 -0.33105827854E+02 -0.19267707180E+03  0.22902112032E+03  0.41800000000E+01 0. -1.
        -11    1    1    2    0    0  0.32476977772E+02  0.68700643805E+02  0.17860810969E+03  0.19410149250E+03  0.00000000000E+00 0. -1.
         11    1    1    2    0    0  0.15191542375E+03  0.44848519938E+02  0.45191574914E+03  0.47887109961E+03  0.00000000000E+00 0.  1.
</event>
<event>
 7    1  0.2499014E-009  0.1038549E+03  0.7561462E-02  0.1272392E+00
          1   -1    0    0  501    0  0.00000000000E+00  0.00000000000E+00  0.36439286329E+03  0.36439286329E+03  0.00000000000E+00 0. -1.
         -1   -1    0    0    0  501 -0.00000000000E+00 -0.00000000000E+00 -0.54286642899E+02  0.54286642899E+02  0.00000000000E+00 0.  1.
         25    2    1    2    0    0 -0.35146899032E+02 -0.10477739059E+02  0.48731762222E+02  0.13916702972E+03  0.12509032730E+03 0.  0.
          5    1    3    3  502    0 -0.32870524874E+02  0.45468591598E+02 -0.10849386286E+02  0.57297869159E+02  0.41800000000E+01 0.  1.
         -5    1    3    3    0  502 -0.22763741580E+01 -0.55946330656E+02  0.59581148507E+02  0.81869160559E+02  0.41800000000E+01 0.  1.
        -11    1    1    2    0    0 -0.23007204914E+02  0.26387491845E+02  0.61769693744E+02  0.71000889213E+02  0.00000000000E+00 0.  1.
         11    1    1    2    0    0  0.58154103946E+02 -0.15909752786E+02  0.19960476442E+03  0.20851158726E+03  0.00000000000E+00 0. -1.
</event>
<event>
 7    1  0.2499014E-009  0.7259793E+02  0.7561462E-02  0.1351475E+00
         -1   -1    0    0    0  501 -0.00000000000E+00  0.00000000000E+00  0.23929856227E+03  0.23929856227E+03  0.00000000000E+00 0.  1.
          1   -1    0    0  501    0  0.00000000000E+00 -0.00000000000E+00 -0.50799423549E+02  0.50799423549E+02  0.00000000000E+00 0. -1.
         25    2    1    2    0    0 -0.35761881534E+00  0.51377658252E+01  0.13152106764E+03  0.18158200592E+03  0.12509080347E+03 0.  0.
          5    1    3    3  502    0  0.32074681288E+02  0.49270228664E+02  0.29953993467E+02  0.66113952665E+02  0.41800000000E+01 0.  1.
         -5    1    3    3    0  502 -0.32432300103E+02 -0.44132462839E+02  0.10156707418E+03  0.11546805326E+03  0.41800000000E+01 0.  1.
        -11    1    1    2    0    0 -0.35015712894E+01 -0.17774789970E+02  0.79970747781E+02  0.81997101538E+02  0.00000000000E+00 0.  1.
         11    1    1    2    0    0  0.38591901048E+01  0.12637024145E+02 -0.22992676702E+02  0.26518878359E+02  0.00000000000E+00 0. -1.
</event>
<event>
 7    1  0.2499014E-009  0.1024690E+03  0.7561462E-02  0.1275188E+00
         -1   -1    0    0    0  501 -0.00000000000E+00  0.00000000000E+00  0.35825412693E+02  0.35825412693E+02  0.00000000000E+00 0.  1.
          1   -1    0    0  501    0  0.00000000000E+00 -0.00000000000E+00 -0.37792195575E+03  0.37792195575E+03  0.00000000000E+00 0. -1.
         25    2    1    2    0    0  0.15645128999E+01 -0.57757834977E+01 -0.11805805167E+03  0.17210574742E+03  0.12508747882E+03 0.  0.
          5    1    3    3  502    0  0.20051006070E+02 -0.61589105801E+02 -0.49076705243E+02  0.81371101721E+02  0.41800000000E+01 0.  1.
         -5    1    3    3    0  502 -0.18486493171E+02  0.55813322303E+02 -0.68981346426E+02  0.90734645704E+02  0.41800000000E+01 0.  1.
        -11    1    1    2    0    0 -0.41068619533E+02 -0.60298819674E+00 -0.16693139851E+03  0.17191011288E+03  0.00000000000E+00 0.  1.
         11    1    1    2    0    0  0.39504106633E+02  0.63787716945E+01 -0.57107092886E+02  0.69731508137E+02  0.00000000000E+00 0. -1.
</event>
<event>
 7    1  0.2499014E-009  0.9762545E+02  0.7561462E-02  0.1285370E+00
         -1   -1    0    0    0  501 -0.00000000000E+00  0.00000000000E+00  0.29886104799E+02  0.29886104799E+02  0.00000000000E+00 0.  1.
          1   -1    0    0  501    0  0.00000000000E+00 -0.00000000000E+00 -0.71535040029E+03  0.71535040029E+03  0.00000000000E+00 0. -1.
         25    2    1    2    0    0  0.88309671973E+02 -0.30264907854E+02 -0.43991922924E+03  0.46678787688E+03  0.12508969157E+03 0.  0.
          5    1    3    3  502    0  0.27671436931E+02  0.54878131594E+01 -0.86641837474E+01  0.29805452439E+02  0.41800000000E+01 0.  1.
         -5    1    3    3    0  502  0.60638235042E+02 -0.35752721013E+02 -0.43125504549E+03  0.43698242444E+03  0.41800000000E+01 0.  1.
        -11    1    1    2    0    0 -0.34291785774E+02 -0.96651874396E-02 -0.11221552186E+02  0.36081157111E+02  0.00000000000E+00 0.  1.
         11    1    1    2    0    0 -0.54017886199E+02  0.30274573041E+02 -0.23432351407E+03  0.24236747110E+03  0.00000000000E+00 0. -1.
</event>
<event>
 7    1  0.2499014E-009  0.1294594E+03  0.7561462E-02  0.1228260E+00
          4   -1    0    0  501    0  0.00000000000E+00  0.00000000000E+00  0.61032656490E+03  0.61032656490E+03  0.00000000000E+00 0. -1.
         -4   -1    0    0    0  501 -0.00000000000E+00 -0.00000000000E+00 -0.37763065738E+02  0.37763065738E+02  0.00000000000E+00 0.  1.
         25    2    1    2    0    0  0.84483583458E+02  0.59682574404E+02  0.26131420151E+03  0.30762820064E+03  0.12510200779E+03 0.  0.
          5    1    3    3  502    0 -0.21308718526E+02  0.27380914018E+02  0.13603659180E+03  0.14045356046E+03  0.41800000000E+01 0.  1.
         -5    1    3    3    0  502  0.10579230198E+03  0.32301660387E+02  0.12527760971E+03  0.16717464017E+03  0.41800000000E+01 0.  1.
        -11    1    1    2    0    0 -0.36578079070E+02 -0.53739714474E+02  0.74648609170E+02  0.98986502268E+02  0.00000000000E+00 0.  1.
         11    1    1    2    0    0 -0.47905504387E+02 -0.59428599300E+01  0.23660068848E+03  0.24147492773E+03  0.00000000000E+00 0. -1.
</event>
<event>
 7    1  0.2499014E-009  0.9559200E+02  0.7561462E-02  0.1289848E+00
          2   -1    0    0  501    0  0.00000000000E+00  0.00000000000E+00  0.16604696676E+03  0.16604696676E+03  0.00000000000E+00 0. -1.
         -2   -1    0    0    0  501 -0.00000000000E+00 -0.00000000000E+00 -0.80716502332E+02  0.80716502332E+02  0.00000000000E+00 0.  1.
         25    2    1    2    0    0  0.11210449157E+02  0.46691596573E+02  0.49267402478E+02  0.14276053923E+03  0.12509002859E+03 0.  0.
          5    1    3    3  502    0  0.61283170316E+02  0.22722307044E+02  0.56659439123E+02  0.86600777382E+02  0.41800000000E+01 0. -1.
         -5    1    3    3    0  502 -0.50072721158E+02  0.23969289529E+02 -0.73920366447E+01  0.56159761845E+02  0.41800000000E+01 0. -1.
        -11    1    1    2    0    0  0.11922440629E+02 -0.45302148175E+02  0.56297196612E+02  0.73237992642E+02  0.00000000000E+00 0. -1.
         11    1    1    2    0    0 -0.23132889786E+02 -0.13894483983E+01 -0.20234134664E+02  0.30764937222E+02  0.00000000000E+00 0.  1.
</event>
<event>
 7    1  0.2499014E-009  0.1600279E+03  0.7561462E-02  0.1188665E+00
         -1   -1    0    0    0  501 -0.00000000000E+00  0.00000000000E+00  0.89709587799E+02  0.89709587799E+02  0.00000000000E+00 0.  1.
          1   -1    0    0  501    0  0.00000000000E+00 -0.00000000000E+00 -0.32596455894E+03  0.32596455894E+03  0.00000000000E+00 0. -1.
         25    2    1    2    0    0  0.13242376645E+03  0.65928728536E+01 -0.13091957224E+03  0.22442593092E+03  0.12509014421E+03 0.  0.
          5    1    3    3  502    0  0.14577416037E+03  0.24039329626E+02 -0.13670201072E+03  0.20132786030E+03  0.41800000000E+01 0.  1.
         -5    1    3    3    0  502 -0.13350393916E+02 -0.17446456773E+02  0.57824384729E+01  0.23098070619E+02  0.41800000000E+01 0.  1.
        -11    1    1    2    0    0 -0.10211919732E+03 -0.35398567363E+02 -0.10311433026E+03  0.14937855983E+03  0.00000000000E+00 0.  1.
         11    1    1    2    0    0 -0.30304569130E+02  0.28805694509E+02 -0.22210686357E+01  0.41869655984E+02  0.00000000000E+00 0. -1.
</event>
<event>
 7    1  0.2499014E-009  0.1927013E+03  0.7561462E-02  0.1156047E+00
         -1   -1    0    0    0  501 -0.00000000000E+00  0.00000000000E+00  0.96315795612E+02  0.96315795612E+02  0.00000000000E+00 0.  1.
          1   -1    0    0  501    0  0.00000000000E+00 -0.00000000000E+00 -0.65172013544E+03  0.65172013544E+03  0.00000000000E+00 0. -1.
         25    2    1    2    0    0  0.37686817044E+02 -0.18509712714E+03 -0.46897015937E+03  0.52082944590E+03  0.12509619769E+03 0.  0.
          5    1    3    3  502    0  0.45929809525E+02 -0.15302082022E+03 -0.45894354659E+03  0.48597486579E+03  0.41800000000E+01 0. -1.
         -5    1    3    3    0  502 -0.82429924816E+01 -0.32076306920E+02 -0.10026612787E+02  0.34854580110E+02  0.41800000000E+01 0. -1.
        -11    1    1    2    0    0 -0.30111983058E+02  0.62552231386E+02 -0.77583456014E+02  0.10410910538E+03  0.00000000000E+00 0. -1.
         11    1    1    2    0    0 -0.75748339858E+01  0.12254489575E+03 -0.88507244360E+01  0.12309737978E+03  0.00000000000E+00 0.  1.
</event>
<event>
 7    1  0.2499014E-009  0.1830724E+03  0.7561462E-02  0.1164862E+00
         -4   -1    0    0    0  501 -0.00000000000E+00  0.00000000000E+00  0.87860425470E+02  0.87860425470E+02  0.00000000000E+00 0.  1.
          4   -1    0    0  501    0  0.00000000000E+00 -0.00000000000E+00 -0.49221758639E+03  0.49221758639E+03  0.00000000000E+00 0. -1.
         25    2    1    2    0    0  0.44839973261E+02  0.15079858273E+03 -0.96724253400E+02  0.22305502285E+03  0.12508847376E+03 0.  0.
          5    1    3    3  502    0 -0.17454061866E+02 -0.12159686264E+02 -0.28210594950E+02  0.35578256184E+02  0.41800000000E+01 0. -1.
         -5    1    3    3    0  502  0.62294035127E+02  0.16295826899E+03 -0.68513658450E+02  0.18747676667E+03  0.41800000000E+01 0. -1.
        -11    1    1    2    0    0  0.92145956807E+01 -0.81743829107E+02 -0.87656908489E+02  0.12021104765E+03  0.00000000000E+00 0.  1.
         11    1    1    2    0    0 -0.54054568942E+02 -0.69054753624E+02 -0.21997599903E+03  0.23681194136E+03  0.00000000000E+00 0. -1.
</event>
<event>
 7    1  0.2499014E-009  0.7380285E+02  0.7561462E-02  0.1347619E+00
         -2   -1    0    0    0  501 -0.00000000000E+00  0.00000000000E+00  0.93712307500E+02  0.93712307500E+02  0.00000000000E+00 0.  1.
          2   -1    0    0  501    0  0.00000000000E+00 -0.00000000000E+00 -0.13733491443E+03  0.13733491443E+03  0.00000000000E+00 0. -1.
         25    2    1    2    0    0  0.95560718441E+01 -0.12283298742E+02  0.56544109992E+01  0.12618317231E+03  0.12509205679E+03 0.  0.
          5    1    3    3  502    0  0.38620621638E+02  0.24949853419E+02 -0.39458651893E+02  0.60733065217E+02  0.41800000000E+01 0. -1.
         -5    1    3    3    0  502 -0.29064549794E+02 -0.37233152160E+02  0.45113062893E+02  0.65450107090E+02  0.41800000000E+01 0. -1.
        -11    1    1    2    0    0  0.21355146113E+02  0.80356674022E+01 -0.65738885126E+02  0.69586027575E+02  0.00000000000E+00 0. -1.
         11    1    1    2    0    0 -0.30911217957E+02  0.42476313394E+01  0.16461867201E+02  0.35278022044E+02  0.00000000000E+00 0.  1.
</event>
<event>
 7    1  0.2499014E-009  0.7720187E+02  0.7561462E-02  0.1337185E+00
          1   -1    0    0  501    0  0.00000000000E+00  0.00000000000E+00  0.60432406624E+02  0.60432406624E+02  0.00000000000E+00 0. -1.
         -1   -1    0    0    0  501 -0.00000000000E+00 -0.00000000000E+00 -0.21153155691E+03  0.21153155691E+03  0.00000000000E+00 0.  1.
         25    2    1    2    0    0  0.73811226585E+01  0.95080994785E+01 -0.94363441839E+02  0.15715105821E+03  0.12508841279E+03 0.  0.
          5    1    3    3  502    0 -0.35737766783E+02 -0.29998388485E+02 -0.85994779720E+02  0.97926839147E+02  0.41800000000E+01 0.  1.
         -5    1    3    3    0  502  0.43118889441E+02  0.39506487964E+02 -0.83686621194E+01  0.59224219063E+02  0.41800000000E+01 0.  1.
        -11    1    1    2    0    0 -0.33506711975E+00  0.19283469656E+02 -0.76691947008E+02  0.79079828072E+02  0.00000000000E+00 0.  1.
         11    1    1    2    0    0 -0.70460555388E+01 -0.28791569134E+02  0.19956238566E+02  0.35733077248E+02  0.00000000000E+00 0. -1.
</event>
<event>
 7    1  0.2499014E-009  0.1398756E+03  0.7561462E-02  0.1213496E+00
          2   -1    0    0  501    0  0.00000000000E+00  0.00000000000E+00  0.94595713552E+03  0.94595713552E+03  0.00000000000E+00 0. -1.
         -2   -1    0    0    0  501 -0.00000000000E+00 -0.00000000000E+00 -0.58973536044E+02  0.58973536044E+02  0.00000000000E+00 0.  1.
         25    2    1    2    0    0  0.33542661950E+02 -0.10911556235E+03  0.83304443965E+03  0.85008401119E+03  0.12509385091E+03 0.  0.
          5    1    3    3  502    0  0.43229535203E+02 -0.12976367478E+03  0.78377942390E+03  0.79563500535E+03  0.41800000000E+01 0.  1.
         -5    1    3    3    0  502 -0.96868732533E+01  0.20648112432E+02  0.49265015746E+02  0.54449005839E+02  0.41800000000E+01 0.  1.
        -11    1    1    2    0    0  0.48795778290E+01  0.42842871062E+02  0.64428817867E+02  0.77526733792E+02  0.00000000000E+00 0. -1.
         11    1    1    2    0    0 -0.38422239779E+02  0.66272691288E+02 -0.10489658043E+02  0.77319926578E+02  0.00000000000E+00 0.  1.
</event>
<event>
 7    1  0.2499014E-009  0.1154896E+03  0.7561462E-02  0.1250729E+00
         -1   -1    0    0    0  501 -0.00000000000E+00  0.00000000000E+00  0.76535571279E+02  0.76535571279E+02  0.00000000000E+00 0.  1.
          1   -1    0    0  501    0  0.00000000000E+00 -0.00000000000E+00 -0.24956539252E+03  0.24956539252E+03  0.00000000000E+00 0. -1.
         25    2    1    2    0    0 -0.41535429226E+02 -0.71220748976E+02 -0.12163269728E+03  0.19297564855E+03  0.12508997130E+03 0.  0.
          5    1    3    3  502    0 -0.30895941874E+02  0.31209737463E+02 -0.20739766078E+02  0.48746458679E+02  0.41800000000E+01 0.  1.
         -5    1    3    3    0  502 -0.10639487352E+02 -0.10243048644E+03 -0.10089293120E+03  0.14422918987E+03  0.41800000000E+01 0.  1.
        -11    1    1    2    0    0  0.29927628218E+02  0.62446239839E+02  0.10055339187E+02  0.69973606788E+02  0.00000000000E+00 0.  1.
         11    1    1    2    0    0  0.11607801008E+02  0.87745091368E+01 -0.61452463146E+02  0.63151708461E+02  0.00000000000E+00 0. -1.
</event>
<event>
 7    1  0.2499014E-009  0.9110212E+02  0.7561462E-02  0.1300204E+00
          1   -1    0    0  501    0  0.00000000000E+00  0.00000000000E+00  0.14215114998E+03  0.14215114998E+03  0.00000000000E+00 0. -1.
         -1   -1    0    0    0  501 -0.00000000000E+00 -0.00000000000E+00 -0.22199622486E+03  0.22199622486E+03  0.00000000000E+00 0.  1.
         25    2    1    2    0    0 -0.11606769419E+02  0.35861593821E+01  0.10111319261E+03  0.16129672867E+03  0.12508069125E+03 0.  0.
          5    1    3    3  502    0  0.11011486515E+02  0.51594200495E+02  0.93614126408E+02  0.10753739546E+03  0.41800000000E+01 0.  1.
         -5    1    3    3    0  502 -0.22618255934E+02 -0.48008041113E+02  0.74990662061E+01  0.53759333208E+02  0.41800000000E+01 0.  1.
        -11    1    1    2    0    0  0.41950155570E+01  0.35762846891E+02 -0.30605715959E+02  0.47257689561E+02  0.00000000000E+00 0. -1.
         11    1    1    2    0    0  0.74117538625E+01 -0.39349006273E+02 -0.15035255154E+03  0.15559295661E+03  0.00000000000E+00 0.  1.
</event>
<event>
 7    1  0.2499014E-009  0.3665424E+03  0.7561462E-02  0.1056023E+00
         -2   -1    0    0    0  501 -0.00000000000E+00  0.00000000000E+00  0.14601301913E+03  0.14601301913E+03  0.00000000000E+00 0.  1.
          2   -1    0    0  501    0  0.00000000000E+00 -0.00000000000E+00 -0.94671877355E+03  0.94671877355E+03  0.00000000000E+00 0. -1.
         25    2    1    2    0    0  0.25087947789E+03  0.24984546093E+03 -0.33734844649E+03  0.50479007302E+03  0.12508307917E+03 0.  0.
          5    1    3    3  502    0 -0.60205924301E+01 -0.54348604359E+01  0.95821769410E+00  0.91747382697E+01  0.41800000000E+01 0. -1.
         -5    1    3    3    0  502  0.25690007032E+03  0.25528032136E+03 -0.33830666419E+03  0.49561533475E+03  0.41800000000E+01 0. -1.
        -11    1    1    2    0    0 -0.10926559879E+03 -0.16105124930E+03 -0.25732733244E+03  0.32263575747E+03  0.00000000000E+00 0.  1.
         11    1    1    2    0    0 -0.14161387910E+03 -0.88794211625E+02 -0.20602997549E+03  0.26530596219E+03  0.00000000000E+00 0. -1.
</event>
<event>
 7    1  0.2499014E-009  0.1097673E+03  0.7561462E-02  0.1261001E+00
         -1   -1    0    0    0  501 -0.00000000000E+00  0.00000000000E+00  0.64947160188E+03  0.64947160188E+03  0.00000000000E+00 0.  1.
          1   -1    0    0  501    0  0.00000000000E+00 -0.00000000000E+00 -0.42061389794E+02  0.42061389794E+02  0.00000000000E+00 0. -1.
         25    2    1    2    0    0 -0.62866272549E+01 -0.10408393086E+03  0.46663837933E+03  0.49423566969E+03  0.12507811074E+03 0.  0.
          5    1    3    3  502    0  0.16259005374E+02 -0.51736143839E+02  0.41063069341E+03  0.41421736154E+03  0.41800000000E+01 0. -1.
         -5    1    3    3    0  502 -0.22545632629E+02 -0.52347787021E+02  0.56007685919E+02  0.80018308147E+02  0.41800000000E+01 0. -1.
        -11    1    1    2    0    0  0.16890652028E+02  0.47241204461E+02  0.58537690834E+01  0.50510317137E+02  0.00000000000E+00 0.  1.
         11    1    1    2    0    0 -0.10604024774E+02  0.56842726400E+02  0.13491806368E+03  0.14678700485E+03  0.00000000000E+00 0. -1.
</event>
<event>
 7    1  0.2499014E-009  0.1830980E+03  0.7561462E-02  0.1164838E+00
         -2   -1    0    0    0  501 -0.00000000000E+00  0.00000000000E+00  0.32150726958E+03  0.32150726958E+03  0.00000000000E+00 0. -1.
          2   -1    0    0  501    0  0.00000000000E+00 -0.00000000000E+00 -0.12655802196E+03  0.12655802196E+03  0.00000000000E+00 0.  1.
         25    2    1    2    0    0 -0.13912161690E+03  0.43078900834E+02  0.95032870497E+01  0.19221922124E+03  0.12508917044E+03 0.  0.
          5    1    3    3  502    0 -0.12242723096E+03 -0.21894331886E+02  0.11546804442E+02  0.12497435634E+03  0.41800000000E+01 0.  1.
         -5    1    3    3    0  502 -0.16694385940E+02  0.64973232719E+02 -0.20435173926E+01  0.67244864899E+02  0.41800000000E+01 0.  1.
        -11    1    1    2    0    0 -0.80020564813E+01 -0.25075401536E+02  0.42081802160E+02  0.49635539114E+02  0.00000000000E+00 0.  1.
         11    1    1    2    0    0  0.14712367339E+03 -0.18003499298E+02  0.14336415841E+03  0.20621053119E+03  0.00000000000E+00 0. -1.
</event>
<event>
 7    1  0.2499014E-009  0.2089121E+03  0.7561462E-02  0.1142430E+00
          1   -1    0    0  501    0  0.00000000000E+00  0.00000000000E+00  0.40757865458E+03  0.40757865458E+03  0.00000000000E+00 0. -1.
         -1   -1    0    0    0  501 -0.00000000000E+00 -0.00000000000E+00 -0.17930674311E+03  0.17930674311E+03  0.00000000000E+00 0.  1.
         25    2    1    2    0    0  0.19397866134E+02  0.17742435315E+03 -0.68619137720E+02  0.22849744439E+03  0.12508724048E+03 0.  0.
          5    1    3    3  502    0  0.41856052473E+02  0.38724020171E+01 -0.20509125488E+02  0.46957653842E+02  0.41800000000E+01 0. -1.
         -5    1    3    3    0  502 -0.22458186339E+02  0.17355195114E+03 -0.48110012232E+02  0.18153979055E+03  0.41800000000E+01 0. -1.
        -11    1    1    2    0    0  0.19073903469E+02 -0.90503213039E-01  0.23677574621E+02  0.30404761540E+02  0.00000000000E+00 0.  1.
         11    1    1    2    0    0 -0.38471769603E+02 -0.17733384994E+03  0.27321347457E+03  0.32798319176E+03  0.00000000000E+00 0. -1.
</event>
<event>
 7    1  0.2499014E-009  0.1872589E+03  0.7561462E-02  0.1160957E+00
          2   -1    0    0  501    0  0.00000000000E+00  0.00000000000E+00  0.67202032970E+03  0.67202032970E+03  0.00000000000E+00 0. -1.
         -2   -1    0    0    0  501 -0.00000000000E+00 -0.00000000000E+00 -0.65057721452E+02  0.65057721452E+02  0.00000000000E+00 0.  1.
         25    2    1    2    0    0  0.16194435457E+03 -0.73376712943E+02  0.34153956223E+03  0.40485403573E+03  0.12508957471E+03 0.  0.
          5    1    3    3  502    0  0.60849046501E+02 -0.23877619604E+02  0.25368206778E+03  0.26200154788E+03  0.41800000000E+01 0. -1.
         -5    1    3    3    0  502  0.10109530807E+03 -0.49499093339E+02  0.87857494448E+02  0.14285248785E+03  0.41800000000E+01 0. -1.
        -11    1    1    2    0    0 -0.15938390331E+03  0.41903574344E+02  0.19683448349E+03  0.25671570281E+03  0.00000000000E+00 0.  1.
         11    1    1    2    0    0 -0.25604512542E+01  0.31473138599E+02  0.68588562529E+02  0.75508312613E+02  0.00000000000E+00 0. -1.
</event>
<event>
 7    1  0.2499014E-009  0.4750621E+02  0.7561462E-02  0.1459276E+00
          1   -1    0    0  501    0  0.00000000000E+00  0.00000000000E+00  0.30842699246E+03  0.30842699246E+03  0.00000000000E+00 0. -1.
         -1   -1    0    0    0  501 -0.00000000000E+00 -0.00000000000E+00 -0.39521511301E+02  0.39521511301E+02  0.00000000000E+00 0.  1.
         25    2    1    2    0    0 -0.73706942276E+00  0.23004806596E+02  0.14504786445E+03  0.19291334776E+03  0.12508761875E+03 0.  0.
          5    1    3    3  502    0  0.90949874152E+01  0.29316558456E+02  0.16583531106E+03  0.16870388908E+03  0.41800000000E+01 0.  1.
         -5    1    3    3    0  502 -0.98320568379E+01 -0.63117518605E+01 -0.20787446608E+02  0.24209458683E+02  0.41800000000E+01 0.  1.
        -11    1    1    2    0    0 -0.16366764103E+02  0.64279208632E+01 -0.76626042082E+01  0.19180840365E+02  0.00000000000E+00 0.  1.
         11    1    1    2    0    0  0.17103833526E+02 -0.29432727459E+02  0.13152022091E+03  0.13585431563E+03  0.00000000000E+00 0. -1.
</event>
<event>
 7    1  0.2499014E-009  0.1185138E+03  0.7561462E-02  0.1245569E+00
         -4   -1    0    0    0  501 -0.00000000000E+00  0.00000000000E+00  0.68666404507E+02  0.68666404507E+02  0.00000000000E+00 0.  1.
          4   -1    0    0  501    0  0.00000000000E+00 -0.00000000000E+00 -0.24015864488E+03  0.24015864488E+03  0.00000000000E+00 0. -1.
         25    2    1    2    0    0 -0.58685287122E+02 -0.77420840014E+01 -0.13134889628E+03  0.19079725510E+03  0.12508859744E+03 0.  0.
          5    1    3    3  502    0 -0.83066690676E+02 -0.38503469715E+02 -0.60891352241E+02  0.11003554634E+03  0.41800000000E+01 0. -1.
         -5    1    3    3    0  502  0.24381403554E+02  0.30761385713E+02 -0.70457544043E+02  0.80761708766E+02  0.41800000000E+01 0. -1.
        -11    1    1    2    0    0 -0.20532918900E+02  0.16308986980E+02 -0.26328893038E+02  0.37159042284E+02  0.00000000000E+00 0. -1.
         11    1    1    2    0    0  0.79218206022E+02 -0.85669029783E+01 -0.13814451050E+02  0.80868751999E+02  0.00000000000E+00 0.  1.
</event>
<event>
 7    1  0.2499014E-009  0.1018698E+03  0.7561462E-02  0.1276412E+00
          1   -1    0    0  501    0  0.00000000000E+00  0.00000000000E+00  0.77053365928E+03  0.77053365928E+03  0.00000000000E+00 0. -1.
         -1   -1    0    0    0  501 -0.00000000000E+00 -0.00000000000E+00 -0.19674954711E+02  0.19674954711E+02  0.00000000000E+00 0.  1.
         25    2    1    2    0    0  0.35190541475E+02  0.34724227793E+02  0.33453008622E+03  0.36055755062E+03  0.12508885849E+03 0.  0.
          5    1    3    3  502    0 -0.13020205930E+02  0.45984231191E+02  0.41766843860E+02  0.63608308630E+02  0.41800000000E+01 0. -1.
         -5    1    3    3    0  502  0.48210747405E+02 -0.11260003398E+02  0.29276324236E+03  0.29694924199E+03  0.41800000000E+01 0. -1.
        -11    1    1    2    0    0 -0.67405904340E+02 -0.17925875102E+02  0.26562919648E+03  0.27463387075E+03  0.00000000000E+00 0.  1.
         11    1    1    2    0    0  0.32215362865E+02 -0.16798352691E+02  0.15069942186E+03  0.15501719262E+03  0.00000000000E+00 0. -1.
</event>
<event>
 7    1  0.2499014E-009  0.9481302E+02  0.7561462E-02  0.1291598E+00
         -2   -1    0    0    0  501 -0.00000000000E+00  0.00000000000E+00  0.27128181769E+02  0.27128181769E+02  0.00000000000E+00 0.  1.
          2   -1    0    0  501    0  0.00000000000E+00 -0.00000000000E+00 -0.10941849999E+04  0.10941849999E+04  0.00000000000E+00 0. -1.
         25    2    1    2    0    0  0.62224814902E+02 -0.69100948030E+01 -0.95401567214E+03  0.96421645509E+03  0.12509113715E+03 0.  0.
          5    1    3    3  502    0 -0.24508195793E+02 -0.16389091437E+02 -0.55284129617E+03  0.55364268724E+03  0.41800000000E+01 0.  1.
         -5    1    3    3    0  502  0.86733010695E+02  0.94789966336E+01 -0.40117437596E+03  0.41057376786E+03  0.41800000000E+01 0.  1.
        -11    1    1    2    0    0 -0.51352402969E+02 -0.10075291401E+02 -0.11510289725E+02  0.53582343706E+02  0.00000000000E+00 0.  1.
         11    1    1    2    0    0 -0.10872411933E+02  0.16985386204E+02 -0.10153085627E+03  0.10351438287E+03  0.00000000000E+00 0. -1.
</event>
<event>
 7    1  0.2499014E-009  0.6179666E+02  0.7561462E-02  0.1390443E+00
         -1   -1    0    0    0  501 -0.00000000000E+00  0.00000000000E+00  0.62652406328E+02  0.62652406328E+02  0.00000000000E+00 0.  1.
          1   -1    0    0  501    0  0.00000000000E+00 -0.00000000000E+00 -0.25424555805E+03  0.25424555805E+03  0.00000000000E+00 0. -1.
         25    2    1    2    0    0 -0.27280139976E+02 -0.69086598656E+01 -0.17081498583E+03  0.21358140153E+03  0.12508924844E+03 0.  0.
          5    1    3    3  502    0 -0.27897073142E+02  0.11732110522E+02 -0.18641985384E+03  0.18890665264E+03  0.41800000000E+01 0.  1.
         -5    1    3    3    0  502  0.61693316597E+00 -0.18640770388E+02  0.15604868006E+02  0.24674748887E+02  0.41800000000E+01 0.  1.
        -11    1    1    2    0    0  0.25671281715E+02  0.36318304445E+02 -0.46403909440E+02  0.64275631105E+02  0.00000000000E+00 0. -1.
         11    1    1    2    0    0  0.16088582603E+01 -0.29409644579E+02  0.25625743549E+02  0.39040931746E+02  0.00000000000E+00 0.  1.
</event>
<event>
 7    1  0.2499014E-009  0.9002181E+02  0.7561462E-02  0.1302799E+00
         -2   -1    0    0    0  501 -0.00000000000E+00  0.00000000000E+00  0.21598315761E+02  0.21598315761E+02  0.00000000000E+00 0.  1.
          2   -1    0    0  501    0  0.00000000000E+00 -0.00000000000E+00 -0.60693082259E+03  0.60693082259E+03  0.00000000000E+00 0. -1.
         25    2    1    2    0    0 -0.30515820465E+02 -0.17822134242E+02 -0.37054335777E+03  0.39268177944E+03  0.12509099148E+03 0.  0.
          5    1    3    3  502    0 -0.29732147096E+02  0.29583162029E+02 -0.38003302738E+02  0.56752863060E+02  0.41800000000E+01 0. -1.
         -5    1    3    3    0  502 -0.78367336924E+00 -0.47405296271E+02 -0.33254005504E+03  0.33592891638E+03  0.41800000000E+01 0. -1.
        -11    1    1    2    0    0 -0.86042663586E+01 -0.28439714230E+02 -0.33881606820E+02  0.45064553984E+02  0.00000000000E+00 0.  1.
         11    1    1    2    0    0  0.39120086824E+02  0.46261848472E+02 -0.18090754223E+03  0.19078280492E+03  0.00000000000E+00 0. -1.
</event>
<event>
 7    1  0.2499014E-009  0.1048109E+03  0.7561462E-02  0.1270493E+00
          2   -1    0    0  501    0  0.00000000000E+00  0.00000000000E+00  0.42198820469E+02  0.42198820469E+02  0.00000000000E+00 0. -1.
         -2   -1    0    0    0  501 -0.00000000000E+00 -0.00000000000E+00 -0.34080737391E+03  0.34080737391E+03  0.00000000000E+00 0.  1.
         25    2    1    2    0    0  0.14291688483E+02  0.52826829274E+02 -0.19869589836E+03  0.24108291308E+03  0.12508391064E+03 0.  0.
          5    1    3    3  502    0  0.90901736008E+01  0.87946382369E+02 -0.18035527108E+03  0.20090468793E+03  0.41800000000E+01 0. -1.
         -5    1    3    3    0  502  0.52015148820E+01 -0.35119553095E+02 -0.18340627284E+02  0.40178225145E+02  0.41800000000E+01 0. -1.
        -11    1    1    2    0    0  0.74564021103E+01 -0.61497238348E+02 -0.31259677921E+02  0.69387864361E+02  0.00000000000E+00 0. -1.
         11    1    1    2    0    0 -0.21748090593E+02  0.86704090733E+01 -0.68652977158E+02  0.72535416940E+02  0.00000000000E+00 0.  1.
</event>
<event>
 7    1  0.2499014E-009  0.9850839E+02  0.7561462E-02  0.1283464E+00
          1   -1    0    0  501    0  0.00000000000E+00  0.00000000000E+00  0.30271264029E+02  0.30271264029E+02  0.00000000000E+00 0. -1.
         -1   -1    0    0    0  501 -0.00000000000E+00 -0.00000000000E+00 -0.68588981519E+03  0.68588981519E+03  0.00000000000E+00 0.  1.
         25    2    1    2    0    0 -0.47312887292E+02 -0.61205002886E+02 -0.49155385756E+03  0.51308627490E+03  0.12509104257E+03 0.  0.
          5    1    3    3  502    0 -0.41266207777E+02 -0.49365766603E+02 -0.86978626149E+02  0.10827110706E+03  0.41800000000E+01 0.  1.
         -5    1    3    3    0  502 -0.60466795153E+01 -0.11839236283E+02 -0.40457523141E+03  0.40481516785E+03  0.41800000000E+01 0.  1.
        -11    1    1    2    0    0  0.73737792928E+02  0.35884913607E+02 -0.12542288752E+03  0.14985289401E+03  0.00000000000E+00 0. -1.
         11    1    1    2    0    0 -0.26424905636E+02  0.25320089279E+02 -0.38641806087E+02  0.53221910306E+02  0.00000000000E+00 0.  1.
</event>
<event>
 7    1  0.2499014E-009  0.1608549E+03  0.7561462E-02  0.1187735E+00
         -2   -1    0    0    0  501 -0.00000000000E+00  0.00000000000E+00  0.16058125142E+02  0.16058125142E+02  0.00000000000E+00 0.  1.
          2   -1    0    0  501    0  0.00000000000E+00 -0.00000000000E+00 -0.20987543294E+04  0.20987543294E+04  0.00000000000E+00 0. -1.
         25    2    1    2    0    0 -0.98058218409E+02  0.86248817000E+02 -0.11777347815E+04  0.11915360059E+04  0.12507823562E+03 0.  0.
          5    1    3    3  502    0 -0.34526397775E+01  0.25997358304E+02 -0.38414803142E+02  0.46700673022E+02  0.41800000000E+01 0. -1.
         -5    1    3    3    0  502 -0.94605578632E+02  0.60251458696E+02 -0.11393199784E+04  0.11448353328E+04  0.41800000000E+01 0. -1.
        -11    1    1    2    0    0  0.10605746833E+03 -0.10314200055E+02 -0.54011178309E+03  0.55052275843E+03  0.00000000000E+00 0.  1.
         11    1    1    2    0    0 -0.79992499166E+01 -0.75934616944E+02 -0.36484963967E+03  0.37275369028E+03  0.00000000000E+00 0. -1.
</event>
<event>
 7    1  0.2499014E-009  0.1403818E+03  0.7561462E-02  0.1212816E+00
         -1   -1    0    0    0  501 -0.00000000000E+00  0.00000000000E+00  0.22127093720E+02  0.22127093720E+02  0.00000000000E+00 0.  1.
          1   -1    0    0  501    0  0.00000000000E+00 -0.00000000000E+00 -0.93886368513E+03  0.93886368513E+03  0.00000000000E+00 0. -1.
         25    2    1    2    0    0  0.91531973399E+02  0.31233715020E+01 -0.42344109440E+03  0.45092784733E+03  0.12508279448E+03 0.  0.
          5    1    3    3  502    0  0.10718653292E+03  0.37629270875E+02 -0.27277751576E+03  0.29551642995E+03  0.41800000000E+01 0.  1.
         -5    1    3    3    0  502 -0.15654559525E+02 -0.34505899373E+02 -0.15066357864E+03  0.15541141739E+03  0.41800000000E+01 0.  1.
        -11    1    1    2    0    0 -0.46563706103E+02  0.43833788349E+02 -0.21742404877E+03  0.22663361779E+03  0.00000000000E+00 0.  1.
         11    1    1    2    0    0 -0.44968267297E+02 -0.46957159851E+02 -0.27587144824E+03  0.28342931373E+03  0.00000000000E+00 0. -1.
</event>
<event>
 7    1  0.2499014E-009  0.9156854E+02  0.7561462E-02  0.1299097E+00
          1   -1    0    0  501    0  0.00000000000E+00  0.00000000000E+00  0.25341827663E+02  0.25341827663E+02  0.00000000000E+00 0. -1.
         -1   -1    0    0    0  501 -0.00000000000E+00 -0.00000000000E+00 -0.84701181793E+03  0.84701181793E+03  0.00000000000E+00 0.  1.
         25    2    1    2    0    0 -0.20334667424E+02  0.83198238570E+02 -0.59139246335E+03  0.61051343770E+03  0.12508463656E+03 0.  0.
          5    1    3    3  502    0 -0.22966585980E+02  0.12271826578E+02 -0.16216357243E+02  0.30959722889E+02  0.41800000000E+01 0. -1.
         -5    1    3    3    0  502  0.26319185564E+01  0.70926411992E+02 -0.57517610611E+03  0.57955371481E+03  0.41800000000E+01 0. -1.
        -11    1    1    2    0    0  0.15944912022E+02 -0.61962646971E+02 -0.23144347016E+03  0.24012432138E+03  0.00000000000E+00 0.  1.
         11    1    1    2    0    0  0.43897554023E+01 -0.21235591599E+02  0.11659432497E+01  0.21715886506E+02  0.00000000000E+00 0. -1.
</event>
<event>
 7    1  0.2499014E-009  0.1626264E+03  0.7561462E-02  0.1185763E+00
          1   -1    0    0  501    0  0.00000000000E+00  0.00000000000E+00  0.71663732226E+03  0.71663732226E+03  0.00000000000E+00 0.  1.
         -1   -1    0    0    0  501 -0.00000000000E+00 -0.00000000000E+00 -0.56587557383E+02  0.56587557383E+02  0.00000000000E+00 0. -1.
         25    2    1    2    0    0 -0.12190997092E+03  0.75014576618E+01  0.57247843505E+03  0.59857929449E+03  0.12508916946E+03 0.  0.
          5    1    3    3  502    0 -0.52493897671E+02  0.65583097085E+02  0.26474611320E+03  0.27778540057E+03  0.41800000000E+01 0.  1.
         -5    1    3    3    0  502 -0.69416073246E+02 -0.58081639423E+02  0.30773232186E+03  0.32079389392E+03  0.41800000000E+01 0.  1.
        -11    1    1    2    0    0  0.42660942551E+02 -0.45739270055E+02  0.43881601730E+02  0.76404396568E+02  0.00000000000E+00 0. -1.
         11    1    1    2    0    0  0.79249028366E+02  0.38237812393E+02  0.43689728094E+02  0.98241188584E+02  0.00000000000E+00 0.  1.
</event>
<event>
 7    1  0.2499014E-009  0.1279157E+03  0.7561462E-02  0.1230582E+00
          1   -1    0    0  501    0  0.00000000000E+00  0.00000000000E+00  0.73071855298E+02  0.73071855298E+02  0.00000000000E+00 0. -1.
         -1   -1    0    0    0  501 -0.00000000000E+00 -0.00000000000E+00 -0.30795552574E+03  0.30795552574E+03  0.00000000000E+00 0.  1.
         25    2    1    2    0    0 -0.17600644326E+01  0.10350879277E+03 -0.10853422027E+03  0.19529925356E+03  0.12507978838E+03 0.  0.
          5    1    3    3  502    0  0.81513270490E+00  0.12211622883E+03 -0.12132458932E+03  0.17219223606E+03  0.41800000000E+01 0.  1.
         -5    1    3    3    0  502 -0.25751971375E+01 -0.18607436063E+02  0.12790369049E+02  0.23107017496E+02  0.41800000000E+01 0.  1.
        -11    1    1    2    0    0 -0.23276687726E+02 -0.42632173439E+02 -0.65180173187E+01  0.49008070289E+02  0.00000000000E+00 0. -1.
         11    1    1    2    0    0  0.25036752159E+02 -0.60876619331E+02 -0.11983143285E+03  0.13672005719E+03  0.00000000000E+00 0.  1.
</event>
<event>
 7    1  0.2499014E-009  0.9308457E+02  0.7561462E-02  0.1295549E+00
         -2   -1    0    0    0  501 -0.00000000000E+00  0.00000000000E+00  0.18497217916E+02  0.18497217916E+02  0.00000000000E+00 0. -1.
          2   -1    0    0  501    0  0.00000000000E+00 -0.00000000000E+00 -0.98627453900E+03  0.98627453900E+03  0.00000000000E+00 0.  1.
         25    2    1    2    0    0  0.16640279735E+02 -0.10264939126E+02 -0.81652008082E+03  0.82627746300E+03  0.12508851106E+03 0.  0.
          5    1    3    3  502    0  0.63134492616E+02 -0.34266931560E+02 -0.39486182424E+03  0.40136457168E+03  0.41800000000E+01 0. -1.
         -5    1    3    3    0  502 -0.46494212881E+02  0.24001992433E+02 -0.42165825658E+03  0.42491289133E+03  0.41800000000E+01 0. -1.
        -11    1    1    2    0    0 -0.32074939149E+01  0.34160137234E+02 -0.11669716633E+02  0.36240657822E+02  0.00000000000E+00 0. -1.
         11    1    1    2    0    0 -0.13432785820E+02 -0.23895198108E+02 -0.13958752363E+03  0.14225363609E+03  0.00000000000E+00 0.  1.
</event>
<event>
 7    1  0.2499014E-009  0.2324252E+03  0.7561462E-02  0.1124944E+00
         -4   -1    0    0    0  501 -0.00000000000E+00  0.00000000000E+00  0.56193247464E+02  0.56193247464E+02  0.00000000000E+00 0.  1.
          4   -1    0    0  501    0  0.00000000000E+00 -0.00000000000E+00 -0.12629795109E+04  0.12629795109E+04  0.00000000000E+00 0. -1.
         25    2    1    2    0    0  0.38592731385E+02  0.22396842650E+03 -0.83739089476E+03  0.87665424560E+03  0.12509156931E+03 0.  0.
          5    1    3    3  502    0  0.50367819332E+02  0.97036527681E+02 -0.56994969054E+03  0.58035603476E+03  0.41800000000E+01 0. -1.
         -5    1    3    3    0  502 -0.11775087947E+02  0.12693189882E+03 -0.26744120422E+03  0.29629821085E+03  0.41800000000E+01 0. -1.
        -11    1    1    2    0    0 -0.10195301061E+02 -0.10883215259E+03 -0.25635457084E+03  0.27868628885E+03  0.00000000000E+00 0. -1.
         11    1    1    2    0    0 -0.28397430325E+02 -0.11513627392E+03 -0.11304079784E+03  0.16383222393E+03  0.00000000000E+00 0.  1.
</event>
<event>
 7    1  0.2499014E-009  0.1723645E+03  0.7561462E-02  0.1175404E+00
         -1   -1    0    0    0  501 -0.00000000000E+00  0.00000000000E+00  0.49645241080E+03  0.49645241080E+03  0.00000000000E+00 0.  1.
          1   -1    0    0  501    0  0.00000000000E+00 -0.00000000000E+00 -0.65962600143E+02  0.65962600143E+02  0.00000000000E+00 0. -1.
         25    2    1    2    0    0 -0.13420049284E+03 -0.50817569674E+02  0.20716448860E+03  0.28135062150E+03  0.12509536049E+03 0.  0.
          5    1    3    3  502    0 -0.74433755160E+02 -0.88360875629E+02  0.99420169873E+02  0.15247908324E+03  0.41800000000E+01 0.  1.
         -5    1    3    3    0  502 -0.59766737680E+02  0.37543305955E+02  0.10774431873E+03  0.12887153826E+03  0.41800000000E+01 0.  1.
        -11    1    1    2    0    0  0.48325310425E+02 -0.14577176252E+02  0.12596760357E+03  0.13570433613E+03  0.00000000000E+00 0.  1.
         11    1    1    2    0    0  0.85875182414E+02  0.65394745926E+02  0.97357718477E+02  0.14536005330E+03  0.00000000000E+00 0. -1.
</event>
<event>
 7    1  0.2499014E-009  0.1417470E+03  0.7561462E-02  0.1210997E+00
          3   -1    0    0  501    0  0.00000000000E+00  0.00000000000E+00  0.90902619766E+02  0.90902619766E+02  0.00000000000E+00 0.  1.
         -3   -1    0    0    0  501 -0.00000000000E+00 -0.00000000000E+00 -0.30797705131E+03  0.30797705131E+03  0.00000000000E+00 0. -1.
         25    2    1    2    0    0 -0.14534864749E+02  0.12447200434E+03 -0.13819092312E+03  0.22461090691E+03  0.12509510825E+03 0.  0.
          5    1    3    3  502    0 -0.19042456695E+02  0.11980598921E+03 -0.16037020193E+03  0.20112723405E+03  0.41800000000E+01 0. -1.
         -5    1    3    3    0  502  0.45075919468E+01  0.46660151367E+01  0.22179278810E+02  0.23483672859E+02  0.41800000000E+01 0. -1.
        -11    1    1    2    0    0 -0.37944840103E+02 -0.41626102762E+02 -0.38414030294E+02  0.68177569955E+02  0.00000000000E+00 0.  1.
         11    1    1    2    0    0  0.52479704851E+02 -0.82845901582E+02 -0.40469478125E+02  0.10609119421E+03  0.00000000000E+00 0. -1.
</event>
<event>
 7    1  0.2499014E-009  0.8024729E+02  0.7561462E-02  0.1328351E+00
          4   -1    0    0  501    0  0.00000000000E+00  0.00000000000E+00  0.15218644431E+03  0.15218644431E+03  0.00000000000E+00 0. -1.
         -4   -1    0    0    0  501 -0.00000000000E+00 -0.00000000000E+00 -0.95945789155E+02  0.95945789155E+02  0.00000000000E+00 0.  1.
         25    2    1    2    0    0  0.24368166709E+02 -0.47386016377E+02  0.34888036499E+02  0.14037447983E+03  0.12509427405E+03 0.  0.
          5    1    3    3  502    0  0.19580635075E+01 -0.27239172909E+02 -0.46164649464E+02  0.53800128379E+02  0.41800000000E+01 0. -1.
         -5    1    3    3    0  502  0.22410103201E+02 -0.20146843467E+02  0.81052685963E+02  0.86574351450E+02  0.41800000000E+01 0. -1.
        -11    1    1    2    0    0 -0.43941528723E+02 -0.71337831197E+01  0.22371260866E+02  0.49821904027E+02  0.00000000000E+00 0. -1.
         11    1    1    2    0    0  0.19573362014E+02  0.54519799496E+02 -0.10186422129E+01  0.57935849606E+02  0.00000000000E+00 0.  1.
</event>
<event>
 7    1  0.2499014E-009  0.1045541E+03  0.7561462E-02  0.1271001E+00
          1   -1    0    0  501    0  0.00000000000E+00  0.00000000000E+00  0.42633001704E+02  0.42633001704E+02  0.00000000000E+00 0. -1.
         -1   -1    0    0    0  501 -0.00000000000E+00 -0.00000000000E+00 -0.34637913075E+03  0.34637913075E+03  0.00000000000E+00 0.  1.
         25    2    1    2    0    0  0.27340888834E+02  0.23217837269E+02 -0.10299961161E+03  0.16596220589E+03  0.12509173283E+03 0.  0.
          5    1    3    3  502    0  0.19462144323E+02 -0.42124067750E+02 -0.36718862613E+01  0.46735075630E+02  0.41800000000E+01 0. -1.
         -5    1    3    3    0  502  0.78787445107E+01  0.65341905019E+02 -0.99327725351E+02  0.11922713026E+03  0.41800000000E+01 0. -1.
        -11    1    1    2    0    0 -0.27885664238E+01  0.34100491068E+02 -0.83858397415E+02  0.90569588775E+02  0.00000000000E+00 0.  1.
         11    1    1    2    0    0 -0.24552322410E+02 -0.57318328337E+02 -0.11688812002E+03  0.13248033779E+03  0.00000000000E+00 0. -1.
</event>
<event>
 7    1  0.2499014E-009  0.1124952E+03  0.7561462E-02  0.1256018E+00
          2   -1    0    0  501    0  0.00000000000E+00  0.00000000000E+00  0.78720136247E+03  0.78720136247E+03  0.00000000000E+00 0. -1.
         -2   -1    0    0    0  501 -0.00000000000E+00 -0.00000000000E+00 -0.20122343431E+02  0.20122343431E+02  0.00000000000E+00 0.  1.
         25    2    1    2    0    0  0.44987061363E+02 -0.80184070353E+00  0.54283283745E+03  0.55887328331E+03  0.12508948297E+03 0.  0.
          5    1    3    3  502    0  0.81778249682E+02  0.86683050697E+01  0.24206565504E+03  0.25568745644E+03  0.41800000000E+01 0. -1.
         -5    1    3    3    0  502 -0.36791188319E+02 -0.94701457733E+01  0.30076718241E+03  0.30318582687E+03  0.41800000000E+01 0. -1.
        -11    1    1    2    0    0 -0.58346998228E+02 -0.33734873202E+02  0.16898209019E+03  0.18192680033E+03  0.00000000000E+00 0. -1.
         11    1    1    2    0    0  0.13359936865E+02  0.34536713905E+02  0.55264091400E+02  0.66523622261E+02  0.00000000000E+00 0.  1.
</event>
<event>
 7    1  0.2499014E-009  0.1007160E+03  0.7561462E-02  0.1278798E+00
         -2   -1    0    0    0  501 -0.00000000000E+00  0.00000000000E+00  0.33365346351E+02  0.33365346351E+02  0.00000000000E+00 0. -1.
          2   -1    0    0  501    0  0.00000000000E+00 -0.00000000000E+00 -0.59141809664E+03  0.59141809664E+03  0.00000000000E+00 0.  1.
         25    2    1    2    0    0  0.65585302440E+02  0.13651336181E+02 -0.17786837167E+03  0.22753807291E+03  0.12509446873E+03 0.  0.
          5    1    3    3  502    0 -0.10900602804E+02 -0.23981628613E+02  0.36847406322E+01  0.26925663705E+02  0.41800000000E+01 0.  1.
         -5    1    3    3    0  502  0.76485905244E+02  0.37632964794E+02 -0.18155311230E+03  0.20061240920E+03  0.41800000000E+01 0.  1.
        -11    1    1    2    0    0 -0.68378780874E+02  0.68523383572E+01 -0.36541833618E+03  0.37182411518E+03  0.00000000000E+00 0.  1.
         11    1    1    2    0    0  0.27934784340E+01 -0.20503674538E+02 -0.14766042442E+02  0.25421254901E+02  0.00000000000E+00 0. -1.
</event>
<event>
 7    1  0.2499014E-009  0.1000373E+03  0.7561462E-02  0.1280218E+00
         -1   -1    0    0    0  501 -0.00000000000E+00  0.00000000000E+00  0.63034164644E+02  0.63034164644E+02  0.00000000000E+00 0.  1.
          1   -1    0    0  501    0  0.00000000000E+00 -0.00000000000E+00 -0.35069276311E+03  0.35069276311E+03  0.00000000000E+00 0. -1.
         25    2    1    2    0    0  0.61225750556E+02  0.34738761160E+02 -0.25779383667E+03  0.29506054145E+03  0.12509071444E+03 0.  0.
          5    1    3    3  502    0  0.72894787172E+02  0.25438527212E+02 -0.26635937104E+03  0.27735456659E+03  0.41800000000E+01 0.  1.
         -5    1    3    3    0  502 -0.11669036616E+02  0.93002339476E+01  0.85655343705E+01  0.17705974870E+02  0.41800000000E+01 0.  1.
        -11    1    1    2    0    0 -0.25648212134E+02  0.26219563686E+02 -0.31078981796E+02  0.48074935414E+02  0.00000000000E+00 0.  1.
         11    1    1    2    0    0 -0.35577538422E+02 -0.60958324846E+02  0.12142199990E+01  0.70591450887E+02  0.00000000000E+00 0. -1.
</event>
<event>
 7    1  0.2499014E-009  0.1737479E+03  0.7561462E-02  0.1173995E+00
         -2   -1    0    0    0  501 -0.00000000000E+00  0.00000000000E+00  0.25614681344E+03  0.25614681344E+03  0.00000000000E+00 0.  1.
          2   -1    0    0  501    0  0.00000000000E+00 -0.00000000000E+00 -0.12016671795E+03  0.12016671795E+03  0.00000000000E+00 0. -1.
         25    2    1    2    0    0  0.13273172986E+03 -0.37206156731E+02  0.90944668293E+02  0.20717702620E+03  0.12509747114E+03 0.  0.
          5    1    3    3  502    0  0.81769482542E+02  0.41703040694E+02  0.39738997388E+02  0.10011020024E+03  0.41800000000E+01 0. -1.
         -5    1    3    3    0  502  0.50962247314E+02 -0.78909197425E+02  0.51205670905E+02  0.10706682597E+03  0.41800000000E+01 0. -1.
        -11    1    1    2    0    0 -0.11313244213E+03 -0.68745251991E+01  0.21118711345E+02  0.11529184068E+03  0.00000000000E+00 0.  1.
         11    1    1    2    0    0 -0.19599287723E+02  0.44080681930E+02  0.23916715848E+02  0.53844664505E+02  0.00000000000E+00 0. -1.
</event>
<event>
 7    1  0.2499014E-009  0.1135799E+03  0.7561462E-02  0.1254080E+00
          2   -1    0    0  501    0  0.00000000000E+00  0.00000000000E+00  0.34673743966E+02  0.34673743966E+02  0.00000000000E+00 0. -1.
         -2   -1    0    0    0  501 -0.00000000000E+00 -0.00000000000E+00 -0.48743674859E+03  0.48743674859E+03  0.00000000000E+00 0.  1.
         25    2    1    2    0    0  0.67288813451E+02  0.18463821609E+02 -0.22907054770E+03  0.27017142868E+03  0.12510230984E+03 0.  0.
          5    1    3    3  502    0  0.86560338941E+02 -0.53632699377E+00 -0.77860981896E+02  0.11650229537E+03  0.41800000000E+01 0.  1.
         -5    1    3    3    0  502 -0.19271525490E+02  0.19000148603E+02 -0.15120956581E+03  0.15366913331E+03  0.41800000000E+01 0.  1.
        -11    1    1    2    0    0 -0.23098696195E+01  0.31226817633E+02 -0.39546678027E+02  0.50441940686E+02  0.00000000000E+00 0.  1.
         11    1    1    2    0    0 -0.64978943832E+02 -0.49690639242E+02 -0.18414577890E+03  0.20149712319E+03  0.00000000000E+00 0. -1.
</event>
<event>
 7    1  0.2499014E-009  0.1167846E+03  0.7561462E-02  0.1248498E+00
         -1   -1    0    0    0  501 -0.00000000000E+00  0.00000000000E+00  0.29109697311E+02  0.29109697311E+02  0.00000000000E+00 0.  1.
          1   -1    0    0  501    0  0.00000000000E+00 -0.00000000000E+00 -0.55505457458E+03  0.55505457458E+03  0.00000000000E+00 0. -1.
         25    2    1    2    0    0  0.39663878683E+02  0.48672480385E+02 -0.23436936782E+03  0.27297996135E+03  0.12508726997E+03 0.  0.
          5    1    3    3  502    0  0.40546184073E+02 -0.36479131373E+02 -0.91032322911E+02  0.10620299564E+03  0.41800000000E+01 0.  1.
         -5    1    3    3    0  502 -0.88230539037E+00  0.85151611758E+02 -0.14333704491E+03  0.16677696571E+03  0.41800000000E+01 0.  1.
        -11    1    1    2    0    0 -0.53163181304E+02 -0.11957136516E+02 -0.24186748178E+03  0.24792977978E+03  0.00000000000E+00 0. -1.
         11    1    1    2    0    0  0.13499302621E+02 -0.36715343868E+02 -0.49708027667E+02  0.63254530756E+02  0.00000000000E+00 0.  1.
</event>
<event>
 7    1  0.2499014E-009  0.1196332E+03  0.7561462E-02  0.1243703E+00
         -4   -1    0    0    0  501 -0.00000000000E+00  0.00000000000E+00  0.84034235340E+02  0.84034235340E+02  0.00000000000E+00 0.  1.
          4   -1    0    0  501    0  0.00000000000E+00 -0.00000000000E+00 -0.33502417662E+03  0.33502417662E+03  0.00000000000E+00 0. -1.
         25    2    1    2    0    0 -0.45836131635E+02  0.76687337864E+02 -0.24757312222E+03  0.29141384736E+03  0.12509069043E+03 0.  0.
          5    1    3    3  502    0 -0.89637345608E+01 -0.12246129452E+02  0.84427617291E+01  0.17862498410E+02  0.41800000000E+01 0.  1.
         -5    1    3    3    0  502 -0.36872397074E+02  0.88933467316E+02 -0.25601588395E+03  0.27355134895E+03  0.41800000000E+01 0.  1.
        -11    1    1    2    0    0  0.60739008610E+02 -0.89053387262E+02  0.92352783820E+00  0.10779882121E+03  0.00000000000E+00 0. -1.
         11    1    1    2    0    0 -0.14902876975E+02  0.12366049398E+02 -0.43403468948E+01  0.19845743398E+02  0.00000000000E+00 0.  1.
</event>
<event>
 7    1  0.2499014E-009  0.9209924E+02  0.7561462E-02  0.1297846E+00
         -2   -1    0    0    0  501 -0.00000000000E+00  0.00000000000E+00  0.24367311346E+03  0.24367311346E+03  0.00000000000E+00 0.  1.
          2   -1    0    0  501    0  0.00000000000E+00 -0.00000000000E+00 -0.67117224025E+02  0.67117224025E+02  0.00000000000E+00 0. -1.
         25    2    1    2    0    0  0.91469797503E+01 -0.55118056160E+02  0.14277353455E+03  0.19786881219E+03  0.12508444074E+03 0.  0.
          5    1    3    3  502    0 -0.58402865991E+01 -0.63688494266E+02  0.16046929928E+03  0.17279525937E+03  0.41800000000E+01 0.  1.
         -5    1    3    3    0  502  0.14987266349E+02  0.85704381062E+01 -0.17695764723E+02  0.25073552821E+02  0.41800000000E+01 0.  1.
        -11    1    1    2    0    0  0.35515688300E+02  0.61118835514E+01  0.29334367861E+02  0.46467454995E+02  0.00000000000E+00 0. -1.
         11    1    1    2    0    0 -0.44662668050E+02  0.49006172609E+02  0.44479870196E+01  0.66454070301E+02  0.00000000000E+00 0.  1.
</event>
<event>
 7    1  0.2499014E-009  0.1614320E+03  0.7561462E-02  0.1187089E+00
         -2   -1    0    0    0  501 -0.00000000000E+00  0.00000000000E+00  0.19233844856E+02  0.19233844856E+02  0.00000000000E+00 0.  1.
          2   -1    0    0  501    0  0.00000000000E+00 -0.00000000000E+00 -0.17889152293E+04  0.17889152293E+04  0.00000000000E+00 0. -1.
         25    2    1    2    0    0  0.15653013720E+02 -0.14333650616E+03 -0.11378005200E+04  0.11537019805E+04  0.12509142925E+03 0.  0.
          5    1    3    3  502    0  0.23435264781E+02  0.92176755114E+01 -0.61195751115E+02  0.66306632637E+02  0.41800000000E+01 0.  1.
         -5    1    3    3    0  502 -0.77822510604E+01 -0.15255418167E+03 -0.10766047689E+04  0.10873953479E+04  0.41800000000E+01 0.  1.
        -11    1    1    2    0    0 -0.53423967016E+01  0.18243163565E+02 -0.13153081286E+02  0.23116179760E+02  0.00000000000E+00 0.  1.
         11    1    1    2    0    0 -0.10310617019E+02  0.12509334259E+03 -0.61872778315E+03  0.63133091388E+03  0.00000000000E+00 0. -1.
</event>
<event>
 7    1  0.2499014E-009  0.1005680E+03  0.7561462E-02  0.1279106E+00
          2   -1    0    0  501    0  0.00000000000E+00  0.00000000000E+00  0.68795297711E+03  0.68795297711E+03  0.00000000000E+00 0.  1.
         -2   -1    0    0    0  501 -0.00000000000E+00 -0.00000000000E+00 -0.23497347357E+02  0.23497347357E+02  0.00000000000E+00 0. -1.
         25    2    1    2    0    0  0.73042510708E+01 -0.18524912248E+02  0.52816196832E+03  0.54313860634E+03  0.12509179214E+03 0.  0.
          5    1    3    3  502    0 -0.54195395342E+02 -0.52844768794E+01  0.34809675169E+03  0.35235477506E+03  0.41800000000E+01 0.  1.
         -5    1    3    3    0  502  0.61499646413E+02 -0.13240435369E+02  0.18006521663E+03  0.19078383128E+03  0.41800000000E+01 0.  1.
        -11    1    1    2    0    0 -0.35631805429E+01  0.50830114142E+02  0.12307638108E+03  0.13320732840E+03  0.00000000000E+00 0.  1.
         11    1    1    2    0    0 -0.37410705279E+01 -0.32305201894E+02  0.13217280352E+02  0.35104389726E+02  0.00000000000E+00 0. -1.
</event>
<event>
 7    1  0.2499014E-009  0.1332050E+03  0.7561462E-02  0.1222776E+00
         -1   -1    0    0    0  501 -0.00000000000E+00  0.00000000000E+00  0.41589218578E+02  0.41589218578E+02  0.00000000000E+00 0.  1.
          1   -1    0    0  501    0  0.00000000000E+00 -0.00000000000E+00 -0.59620664357E+03  0.59620664357E+03  0.00000000000E+00 0. -1.
         25    2    1    2    0    0  0.11321901576E+03 -0.12230111325E+02 -0.31568803858E+03  0.35815414147E+03  0.12508928891E+03 0.  0.
          5    1    3    3  502    0  0.10770252554E+03  0.62765812126E+01 -0.32017829305E+03  0.33789175962E+03  0.41800000000E+01 0.  1.
         -5    1    3    3    0  502  0.55164902215E+01 -0.18506692538E+02  0.44902544720E+01  0.20262381851E+02  0.41800000000E+01 0.  1.
        -11    1    1    2    0    0 -0.97811044400E+01  0.31924299497E+02 -0.26791772918E+02  0.42809227960E+02  0.00000000000E+00 0.  1.
         11    1    1    2    0    0 -0.10343791132E+03 -0.19694188172E+02 -0.21213761349E+03  0.23683249271E+03  0.00000000000E+00 0. -1.
</event>
<event>
 7    1  0.2499014E-009  0.7650123E+02  0.7561462E-02  0.1339284E+00
         -1   -1    0    0    0  501 -0.00000000000E+00  0.00000000000E+00  0.43963770464E+03  0.43963770464E+03  0.00000000000E+00 0.  1.
          1   -1    0    0  501    0  0.00000000000E+00 -0.00000000000E+00 -0.40472156181E+02  0.40472156181E+02  0.00000000000E+00 0. -1.
         25    2    1    2    0    0  0.31761395332E+02 -0.11209262467E+02  0.93728520610E+02  0.15989661263E+03  0.12508979717E+03 0.  0.
          5    1    3    3  502    0  0.10008568133E+02 -0.27842058855E+02  0.11882131955E+03  0.12252073317E+03  0.41800000000E+01 0. -1.
         -5    1    3    3    0  502  0.21752827200E+02  0.16632796388E+02 -0.25092798938E+02  0.37375879460E+02  0.41800000000E+01 0. -1.
        -11    1    1    2    0    0  0.30002981650E+02 -0.74245370706E+01  0.11816454910E+03  0.12213993337E+03  0.00000000000E+00 0. -1.
         11    1    1    2    0    0 -0.61764376982E+02  0.18633799538E+02  0.18727247874E+03  0.19807331482E+03  0.00000000000E+00 0.  1.
</event>
<event>
 7    1  0.2499014E-009  0.1156941E+03  0.7561462E-02  0.1250374E+00
         -4   -1    0    0    0  501 -0.00000000000E+00  0.00000000000E+00  0.43318489369E+03  0.43318489369E+03  0.00000000000E+00 0.  1.
          4   -1    0    0  501    0  0.00000000000E+00 -0.00000000000E+00 -0.32137357729E+02  0.32137357729E+02  0.00000000000E+00 0. -1.
         25    2    1    2    0    0 -0.13362325896E+02 -0.44487139432E+02  0.22286805962E+03  0.25975903416E+03  0.12508767526E+03 0.  0.
          5    1    3    3  502    0  0.51005496999E+02 -0.44214186594E+02  0.95946011687E+02  0.11738639009E+03  0.41800000000E+01 0. -1.
         -5    1    3    3    0  502 -0.64367822895E+02 -0.27295283834E+00  0.12692204794E+03  0.14237264407E+03  0.41800000000E+01 0. -1.
        -11    1    1    2    0    0 -0.13146222433E+02  0.64634180254E+02  0.92211563999E+02  0.11337271698E+03  0.00000000000E+00 0.  1.
         11    1    1    2    0    0  0.26508548329E+02 -0.20147040822E+02  0.85967912338E+02  0.92190500270E+02  0.00000000000E+00 0. -1.
</event>
<event>
 7    1  0.2499014E-009  0.4001745E+03  0.7561462E-02  0.1043719E+00
          2   -1    0    0  501    0  0.00000000000E+00  0.00000000000E+00  0.14647026681E+04  0.14647026681E+04  0.00000000000E+00 0. -1.
         -2   -1    0    0    0  501 -0.00000000000E+00 -0.00000000000E+00 -0.12261729073E+03  0.12261729073E+03  0.00000000000E+00 0.  1.
         25    2    1    2    0    0  0.38809084278E+03 -0.35189032085E+02  0.44846893996E+03  0.60714496207E+03  0.12509134514E+03 0.  0.
          5    1    3    3  502    0  0.15954553379E+03  0.26399799540E+02  0.25223631494E+03  0.29965372973E+03  0.41800000000E+01 0.  1.
         -5    1    3    3    0  502  0.22854530899E+03 -0.61588831624E+02  0.19623262502E+03  0.30749123234E+03  0.41800000000E+01 0.  1.
        -11    1    1    2    0    0 -0.12297553585E+03 -0.34499593338E+02  0.25446312609E+03  0.28471861003E+03  0.00000000000E+00 0.  1.
         11    1    1    2    0    0 -0.26511530693E+03  0.69688625422E+02  0.63915331131E+03  0.69545638673E+03  0.00000000000E+00 0. -1.
</event>
<event>
 7    1  0.2499014E-009  0.2034420E+03  0.7561462E-02  0.1146867E+00
         -2   -1    0    0    0  501 -0.00000000000E+00  0.00000000000E+00  0.47747830902E+03  0.47747830902E+03  0.00000000000E+00 0. -1.
          2   -1    0    0  501    0  0.00000000000E+00 -0.00000000000E+00 -0.94941704858E+02  0.94941704858E+02  0.00000000000E+00 0.  1.
         25    2    1    2    0    0 -0.77832353664E+02  0.16465290263E+03  0.17434774349E+03  0.28144745886E+03  0.12508830007E+03 0.  0.
          5    1    3    3  502    0 -0.73235461265E+02  0.21817648247E+02  0.76437062981E+02  0.10816440985E+03  0.41800000000E+01 0. -1.
         -5    1    3    3    0  502 -0.45968923991E+01  0.14283525438E+03  0.97910680514E+02  0.17328304900E+03  0.41800000000E+01 0. -1.
        -11    1    1    2    0    0  0.48136884431E+02 -0.14228184298E+03  0.20432369056E+03  0.25359308549E+03  0.00000000000E+00 0. -1.
         11    1    1    2    0    0  0.29695469233E+02 -0.22371059643E+02  0.38651701100E+01  0.37379469532E+02  0.00000000000E+00 0.  1.
</event>
<event>
 7    1  0.2499014E-009  0.2798666E+03  0.7561462E-02  0.1095762E+00
         -4   -1    0    0    0  501 -0.00000000000E+00  0.00000000000E+00  0.48665661846E+03  0.48665661846E+03  0.00000000000E+00 0.  1.
          4   -1    0    0  501    0  0.00000000000E+00 -0.00000000000E+00 -0.22835744885E+03  0.22835744885E+03  0.00000000000E+00 0. -1.
         25    2    1    2    0    0  0.21345590025E+03  0.15843019889E+03  0.31244843589E+03  0.42887675853E+03  0.12509076562E+03 0.  0.
          5    1    3    3  502    0 -0.11249739459E+02 -0.73614923921E+01  0.20393863974E+02  0.24781652405E+02  0.41800000000E+01 0.  1.
         -5    1    3    3    0  502  0.22470563970E+03  0.16579169128E+03  0.29205457192E+03  0.40409510612E+03  0.41800000000E+01 0.  1.
        -11    1    1    2    0    0 -0.76760078961E+02 -0.67316512748E+02 -0.65772400778E+02  0.12144806015E+03  0.00000000000E+00 0.  1.
         11    1    1    2    0    0 -0.13669582128E+03 -0.91113686144E+02  0.11623134506E+02  0.16468924863E+03  0.00000000000E+00 0. -1.
</event>
<event>
 7    1  0.2499014E-009  0.1366005E+03  0.7561462E-02  0.1217978E+00
         -1   -1    0    0    0  501 -0.00000000000E+00  0.00000000000E+00  0.50826691599E+03  0.50826691599E+03  0.00000000000E+00 0.  1.
          1   -1    0    0  501    0  0.00000000000E+00 -0.00000000000E+00 -0.48037365518E+02  0.48037365518E+02  0.00000000000E+00 0. -1.
         25    2    1    2    0    0  0.70801401781E+02 -0.63345007195E+02  0.35348862972E+03  0.38681693267E+03  0.12509076557E+03 0.  0.
          5    1    3    3  502    0  0.49835933614E+02 -0.98949540041E+02  0.29447863546E+03  0.31465818104E+03  0.41800000000E+01 0. -1.
         -5    1    3    3    0  502  0.20965468168E+02  0.35604532846E+02  0.59009994258E+02  0.72158751631E+02  0.41800000000E+01 0. -1.
        -11    1    1    2    0    0 -0.56586870534E+02  0.80578033235E+02  0.10917369720E+03  0.14701628997E+03  0.00000000000E+00 0.  1.
         11    1    1    2    0    0 -0.14214531247E+02 -0.17233026040E+02 -0.24327764493E+01  0.22471058861E+02  0.00000000000E+00 0. -1.
</event>
<event>
 7    1  0.2499014E-009  0.2037782E+03  0.7561462E-02  0.1146590E+00
         -2   -1    0    0    0  501 -0.00000000000E+00  0.00000000000E+00  0.40355385440E+02  0.40355385440E+02  0.00000000000E+00 0.  1.
          2   -1    0    0  501    0  0.00000000000E+00 -0.00000000000E+00 -0.12725074156E+04  0.12725074156E+04  0.00000000000E+00 0. -1.
         25    2    1    2    0    0 -0.89975774682E+02 -0.15560353263E+03 -0.87617743889E+03  0.90313042243E+03  0.12509818585E+03 0.  0.
          5    1    3    3  502    0 -0.91011554511E+02 -0.17464912215E+03 -0.82878678309E+03  0.85187465225E+03  0.41800000000E+01 0.  1.
         -5    1    3    3    0  502  0.10357798288E+01  0.19045589512E+02 -0.47390655806E+02  0.51255770186E+02  0.41800000000E+01 0.  1.
        -11    1    1    2    0    0  0.60929593278E+02  0.42540103483E+02 -0.21037954832E+03  0.22311797349E+03  0.00000000000E+00 0. -1.
         11    1    1    2    0    0  0.29046181404E+02  0.11306342915E+03 -0.14559504292E+03  0.18661440510E+03  0.00000000000E+00 0.  1.
</event>
<event>
 7    1  0.2499014E-009  0.1210073E+03  0.7561462E-02  0.1241445E+00
         -2   -1    0    0    0  501 -0.00000000000E+00  0.00000000000E+00  0.34543417037E+02  0.34543417037E+02  0.00000000000E+00 0.  1.
          2   -1    0    0  501    0  0.00000000000E+00 -0.00000000000E+00 -0.57114697238E+03  0.57114697238E+03  0.00000000000E+00 0. -1.
         25    2    1    2    0    0  0.73615506154E+02  0.17768983596E+02 -0.19016250497E+03  0.23987413339E+03  0.12507134785E+03 0.  0.
          5    1    3    3  502    0  0.75760560831E+02  0.57030945807E+02 -0.84600371251E+02  0.12714907225E+03  0.41800000000E+01 0. -1.
         -5    1    3    3    0  502 -0.21450546766E+01 -0.39261962212E+02 -0.10556213372E+03  0.11272506115E+03  0.41800000000E+01 0. -1.
        -11    1    1    2    0    0 -0.52712917831E+02  0.26202699350E+02 -0.11367283972E+03  0.12801073256E+03  0.00000000000E+00 0.  1.
         11    1    1    2    0    0 -0.20902588323E+02 -0.43971682945E+02 -0.23276821065E+03  0.23780552347E+03  0.00000000000E+00 0. -1.
</event>
<event>
 7    1  0.2499014E-009  0.1613941E+03  0.7561462E-02  0.1187132E+00
          1   -1    0    0  501    0  0.00000000000E+00  0.00000000000E+00  0.60601764750E+03  0.60601764750E+03  0.00000000000E+00 0.  1.
         -1   -1    0    0    0  501 -0.00000000000E+00 -0.00000000000E+00 -0.85820755080E+02  0.85820755080E+02  0.00000000000E+00 0. -1.
         25    2    1    2    0    0 -0.54366460490E+02  0.10644311595E+03  0.51314040963E+03  0.54152173139E+03  0.12508739592E+03 0.  0.
          5    1    3    3  502    0 -0.28109508123E+02  0.13261333490E+03  0.40907853052E+03  0.43097466001E+03  0.41800000000E+01 0. -1.
         -5    1    3    3    0  502 -0.26256952367E+02 -0.26170218950E+02  0.10406187911E+03  0.11054707138E+03  0.41800000000E+01 0. -1.
        -11    1    1    2    0    0  0.42649934298E+02  0.12209026588E+00 -0.22262405311E+01  0.42708171917E+02  0.00000000000E+00 0.  1.
         11    1    1    2    0    0  0.11716526192E+02 -0.10656520622E+03  0.92827233192E+01  0.10760849927E+03  0.00000000000E+00 0. -1.
</event>
<event>
 7    1  0.2499014E-009  0.1275902E+03  0.7561462E-02  0.1231076E+00
          1   -1    0    0  501    0  0.00000000000E+00  0.00000000000E+00  0.98307446739E+02  0.98307446739E+02  0.00000000000E+00 0. -1.
         -1   -1    0    0    0  501 -0.00000000000E+00 -0.00000000000E+00 -0.23448541559E+03  0.23448541559E+03  0.00000000000E+00 0.  1.
         25    2    1    2    0    0 -0.55086479056E+02  0.50263173378E+02  0.10194397209E+02  0.14598707194E+03  0.12508953860E+03 0.  0.
          5    1    3    3  502    0 -0.10199710845E+02 -0.41175165719E+02  0.11057734426E+02  0.44036056408E+02  0.41800000000E+01 0.  1.
         -5    1    3    3    0  502 -0.44886768212E+02  0.91438339097E+02 -0.86333721654E+00  0.10195101553E+03  0.41800000000E+01 0.  1.
        -11    1    1    2    0    0  0.16564392048E+02  0.22699294814E+02 -0.65498768249E+02  0.71272194516E+02  0.00000000000E+00 0.  1.
         11    1    1    2    0    0  0.38522087009E+02 -0.72962468192E+02 -0.80873597810E+02  0.11553359587E+03  0.00000000000E+00 0. -1.
</event>
<event>
 7    1  0.2499014E-009  0.1601496E+03  0.7561462E-02  0.1188528E+00
         -2   -1    0    0    0  501 -0.00000000000E+00  0.00000000000E+00  0.63758152236E+02  0.63758152236E+02  0.00000000000E+00 0.  1.
          2   -1    0    0  501    0  0.00000000000E+00 -0.00000000000E+00 -0.47471792917E+03  0.47471792917E+03  0.00000000000E+00 0. -1.
         25    2    1    2    0    0 -0.39814579246E+02  0.11170082318E+03 -0.11600003484E+03  0.20775861863E+03  0.12508141714E+03 0.  0.
          5    1    3    3  502    0  0.38678771330E+02  0.65652619128E+01 -0.39470969602E+02  0.55808421022E+02  0.41800000000E+01 0. -1.
         -5    1    3    3    0  502 -0.78493350576E+02  0.10513556127E+03 -0.76529065239E+02  0.15195019761E+03  0.41800000000E+01 0. -1.
        -11    1    1    2    0    0  0.21516224466E+02 -0.12507285678E+03 -0.24970923362E+03  0.28010867315E+03  0.00000000000E+00 0.  1.
         11    1    1    2    0    0  0.18298354779E+02  0.13372033594E+02 -0.45250508470E+02  0.50608789621E+02  0.00000000000E+00 0. -1.
</event>
<event>
 7    1  0.2499014E-009  0.8858734E+02  0.7561462E-02  0.1306309E+00
          1   -1    0    0  501    0  0.00000000000E+00  0.00000000000E+00  0.31973075314E+03  0.31973075314E+03  0.00000000000E+00 0. -1.
         -1   -1    0    0    0  501 -0.00000000000E+00 -0.00000000000E+00 -0.46405634883E+02  0.46405634883E+02  0.00000000000E+00 0.  1.
         25    2    1    2    0    0 -0.75302918712E+00 -0.49529914560E+02  0.19533634204E+03  0.23718688044E+03  0.12509016845E+03 0.  0.
          5    1    3    3  502    0 -0.42905042701E+02 -0.68724650843E+02  0.15776559506E+03  0.17740173535E+03  0.41800000000E+01 0. -1.
         -5    1    3    3    0  502  0.42152013513E+02  0.19194736283E+02  0.37570746982E+02  0.59785145087E+02  0.41800000000E+01 0. -1.
        -11    1    1    2    0    0 -0.12776584828E+00  0.21275997716E+02 -0.18630281976E+02  0.28280237082E+02  0.00000000000E+00 0.  1.
         11    1    1    2    0    0  0.88079503540E+00  0.28253916844E+02  0.96619058196E+02  0.10066927050E+03  0.00000000000E+00 0. -1.
</event>
<event>
 7    1  0.2499014E-009  0.9545680E+02  0.7561462E-02  0.1290151E+00
         -1   -1    0    0    0  501 -0.00000000000E+00  0.00000000000E+00  0.75365182450E+02  0.75365182450E+02  0.00000000000E+00 0.  1.
          1   -1    0    0  501    0  0.00000000000E+00 -0.00000000000E+00 -0.20829310624E+03  0.20829310624E+03  0.00000000000E+00 0. -1.
         25    2    1    2    0    0  0.19254067570E+02 -0.37603829113E+02 -0.20547553465E+02  0.13360650783E+03  0.12507489715E+03 0.  0.
          5    1    3    3  502    0  0.49553749164E+02 -0.10486581288E+02  0.37109532996E+02  0.62929581935E+02  0.41800000000E+01 0. -1.
         -5    1    3    3    0  502 -0.30299681594E+02 -0.27117247825E+02 -0.57657086461E+02  0.70676925892E+02  0.41800000000E+01 0. -1.
        -11    1    1    2    0    0 -0.47341040849E+02 -0.56121090172E+01 -0.49074418243E+02  0.68417603306E+02  0.00000000000E+00 0.  1.
         11    1    1    2    0    0  0.28086973279E+02  0.43215938130E+02 -0.63305952080E+02  0.81634177556E+02  0.00000000000E+00 0. -1.
</event>
<event>
 7    1  0.2499014E-009  0.8074458E+02  0.7561462E-02  0.1326952E+00
          2   -1    0    0  501    0  0.00000000000E+00  0.00000000000E+00  0.51727033315E+03  0.51727033315E+03  0.00000000000E+00 0. -1.
         -2   -1    0    0    0  501 -0.00000000000E+00 -0.00000000000E+00 -0.31552627122E+02  0.31552627122E+02  0.00000000000E+00 0.  1.
         25    2    1    2    0    0 -0.27739146951E+02 -0.36188700507E+02  0.16476203867E+03  0.21183478578E+03  0.12509342415E+03 0.  0.
          5    1    3    3  502    0 -0.19085577677E+02 -0.44383270655E+02  0.19488767534E+01  0.48532509825E+02  0.41800000000E+01 0. -1.
         -5    1    3    3    0  502 -0.86535692744E+01  0.81945701482E+01  0.16281316191E+03  0.16330227596E+03  0.41800000000E+01 0. -1.
        -11    1    1    2    0    0  0.60583699079E+02  0.20420413561E+02  0.16801222816E+03  0.17976508753E+03  0.00000000000E+00 0. -1.
         11    1    1    2    0    0 -0.32844552128E+02  0.15768286946E+02  0.15294343919E+03  0.15722308695E+03  0.00000000000E+00 0.  1.
</event>
<event>
 7    1  0.2499014E-009  0.9378709E+02  0.7561462E-02  0.1293931E+00
         -4   -1    0    0    0  501 -0.00000000000E+00  0.00000000000E+00  0.53089235380E+02  0.53089235380E+02  0.00000000000E+00 0.  1.
          4   -1    0    0  501    0  0.00000000000E+00 -0.00000000000E+00 -0.20497117611E+03  0.20497117611E+03  0.00000000000E+00 0. -1.
         25    2    1    2    0    0  0.53951882686E+01  0.44376093073E+01 -0.74669112759E+02  0.14584902652E+03  0.12509061398E+03 0.  0.
          5    1    3    3  502    0 -0.52055757587E+02 -0.27196612186E+02 -0.42924741515E+02  0.72866065123E+02  0.41800000000E+01 0.  1.
         -5    1    3    3    0  502  0.57450945856E+02  0.31634221494E+02 -0.31744371244E+02  0.72982961401E+02  0.41800000000E+01 0.  1.
        -11    1    1    2    0    0 -0.27247851912E+02 -0.21936171470E+02 -0.57361639851E+01  0.35447773270E+02  0.00000000000E+00 0.  1.
         11    1    1    2    0    0  0.21852663643E+02  0.17498562162E+02 -0.71476663991E+02  0.76763611701E+02  0.00000000000E+00 0. -1.
</event>
<event>
 7    1  0.2499014E-009  0.1045924E+03  0.7561462E-02  0.1270925E+00
          3   -1    0    0  501    0  0.00000000000E+00  0.00000000000E+00  0.93190197637E+02  0.93190197637E+02  0.00000000000E+00 0. -1.
         -3   -1    0    0    0  501 -0.00000000000E+00 -0.00000000000E+00 -0.12506539368E+03  0.12506539368E+03  0.00000000000E+00 0.  1.
         25    2    1    2    0    0  0.92379112782E+01 -0.49442288698E+01 -0.28482781362E+01  0.12555983668E+03  0.12508946996E+03 0.  0.
          5    1    3    3  502    0 -0.19357791267E+02  0.55277048418E+02 -0.41807560220E+00  0.58719020357E+02  0.41800000000E+01 0. -1.
         -5    1    3    3    0  502  0.28595702546E+02 -0.60221277288E+02 -0.24302025340E+01  0.66840816322E+02  0.41800000000E+01 0. -1.
        -11    1    1    2    0    0  0.35690433641E+02  0.13079918174E+02 -0.27670737187E+02  0.47016603550E+02  0.00000000000E+00 0.  1.
         11    1    1    2    0    0 -0.44928344919E+02 -0.81356893044E+01 -0.13561807157E+01  0.45679151084E+02  0.00000000000E+00 0. -1.
</event>
<event>
 7    1  0.2499014E-009  0.8694374E+02  0.7561462E-02  0.1310426E+00
          1   -1    0    0  501    0  0.00000000000E+00  0.00000000000E+00  0.41939988914E+03  0.41939988914E+03  0.00000000000E+00 0. -1.
         -1   -1    0    0    0  501 -0.00000000000E+00 -0.00000000000E+00 -0.47871448385E+02  0.47871448385E+02  0.00000000000E+00 0.  1.
         25    2    1    2    0    0 -0.68780897412E+02  0.38696775655E+02  0.12820550212E+03  0.19573424793E+03  0.12508794005E+03 0.  0.
          5    1    3    3  502    0 -0.37738969347E+02  0.28518651493E+02 -0.14204213453E+02  0.49565869005E+02  0.41800000000E+01 0.  1.
         -5    1    3    3    0  502 -0.31041928065E+02  0.10178124162E+02  0.14240971557E+03  0.14616837893E+03  0.41800000000E+01 0.  1.
        -11    1    1    2    0    0  0.61051976705E+02 -0.50585627017E+02  0.24476263965E+03  0.25728388851E+03  0.00000000000E+00 0. -1.
         11    1    1    2    0    0  0.77289207070E+01  0.11888851362E+02 -0.14397010117E+01  0.14253201079E+02  0.00000000000E+00 0.  1.
</event>
<event>
 7    1  0.2499014E-009  0.1341645E+03  0.7561462E-02  0.1221404E+00
         -2   -1    0    0    0  501 -0.00000000000E+00  0.00000000000E+00  0.10705138996E+03  0.10705138996E+03  0.00000000000E+00 0.  1.
          2   -1    0    0  501    0  0.00000000000E+00 -0.00000000000E+00 -0.17670934257E+03  0.17670934257E+03  0.00000000000E+00 0. -1.
         25    2    1    2    0    0  0.77188078544E+02  0.26477436119E+02 -0.10742704035E+02  0.14974085257E+03  0.12509141915E+03 0.  0.
          5    1    3    3  502    0  0.23596145306E+02  0.73775299793E+02 -0.93053095392E+01  0.78125758354E+02  0.41800000000E+01 0.  1.
         -5    1    3    3    0  502  0.53591933238E+02 -0.47297863673E+02 -0.14373944961E+01  0.71615094214E+02  0.41800000000E+01 0.  1.
        -11    1    1    2    0    0 -0.82066227037E+02  0.97146996823E+01 -0.49409367119E+02  0.96283573724E+02  0.00000000000E+00 0.  1.
         11    1    1    2    0    0  0.48781484930E+01 -0.36192135801E+02 -0.95058814512E+01  0.37736306242E+02  0.00000000000E+00 0. -1.
</event>
<event>
 7    1  0.2499014E-009  0.8843936E+02  0.7561462E-02  0.1306676E+00
          2   -1    0    0  501    0  0.00000000000E+00  0.00000000000E+00  0.49585079366E+03  0.49585079366E+03  0.00000000000E+00 0. -1.
         -2   -1    0    0    0  501 -0.00000000000E+00 -0.00000000000E+00 -0.28912369587E+02  0.28912369587E+02  0.00000000000E+00 0.  1.
         25    2    1    2    0    0  0.16892288547E+02 -0.23029342801E+02  0.18013017273E+03  0.22115808513E+03  0.12509324302E+03 0.  0.
          5    1    3    3  502    0 -0.27495247674E+00  0.27182412067E+02 -0.54990995460E+01  0.28047666935E+02  0.41800000000E+01 0. -1.
         -5    1    3    3    0  502  0.17167241023E+02 -0.50211754868E+02  0.18562927228E+03  0.19311041820E+03  0.41800000000E+01 0. -1.
        -11    1    1    2    0    0  0.63248352225E+01 -0.33993814628E+02  0.67810859782E+02  0.76117643671E+02  0.00000000000E+00 0.  1.
         11    1    1    2    0    0 -0.23217123769E+02  0.57023157429E+02  0.21899739156E+03  0.22748743445E+03  0.00000000000E+00 0. -1.
</event>
<event>
 7    1  0.2499014E-009  0.9350551E+02  0.7561462E-02  0.1294578E+00
         -2   -1    0    0    0  501 -0.00000000000E+00  0.00000000000E+00  0.62550973960E+02  0.62550973960E+02  0.00000000000E+00 0.  1.
          2   -1    0    0  501    0  0.00000000000E+00 -0.00000000000E+00 -0.25797432010E+03  0.25797432010E+03  0.00000000000E+00 0. -1.
         25    2    1    2    0    0  0.14562078965E+02 -0.18879670834E+02 -0.15969746675E+03  0.20425214510E+03  0.12508861570E+03 0.  0.
          5    1    3    3  502    0  0.43747775905E+02 -0.45403439682E+02 -0.15094782969E+03  0.16364003153E+03  0.41800000000E+01 0.  1.
         -5    1    3    3    0  502 -0.29185696941E+02  0.26523768848E+02 -0.87496370611E+01  0.40612113569E+02  0.41800000000E+01 0.  1.
        -11    1    1    2    0    0 -0.47919347120E+02  0.55410686241E+01  0.18131225348E+02  0.51533567726E+02  0.00000000000E+00 0.  1.
         11    1    1    2    0    0  0.33357268156E+02  0.13338602210E+02 -0.53857104735E+02  0.64739581232E+02  0.00000000000E+00 0. -1.
</event>
<event>
 7    1  0.2499014E-009  0.1350679E+03  0.7561462E-02  0.1220124E+00
          2   -1    0    0  501    0  0.00000000000E+00  0.00000000000E+00  0.43188591460E+03  0.43188591460E+03  0.00000000000E+00 0. -1.
         -2   -1    0    0    0  501 -0.00000000000E+00 -0.00000000000E+00 -0.52233868617E+02  0.52233868617E+02  0.00000000000E+00 0.  1.
         25    2    1    2    0    0 -0.87546567950E+02  0.10436406383E+02  0.29165073285E+03  0.32936427365E+03  0.12508938664E+03 0.  0.
          5    1    3    3  502    0 -0.11202875467E+03  0.34172629887E+02  0.20476404053E+03  0.23593218348E+03  0.41800000000E+01 0. -1.
         -5    1    3    3    0  502  0.24482186718E+02 -0.23736223504E+02  0.86886692317E+02  0.93432090175E+02  0.41800000000E+01 0. -1.
        -11    1    1    2    0    0 -0.14153854339E+02  0.63360856183E+01  0.36231787311E+02  0.39410912008E+02  0.00000000000E+00 0. -1.
         11    1    1    2    0    0  0.10170042229E+03 -0.16772492001E+02  0.51769525828E+02  0.11534459756E+03  0.00000000000E+00 0.  1.
</event>
<event>
 7    1  0.2499014E-009  0.1603366E+03  0.7561462E-02  0.1188317E+00
          1   -1    0    0  501    0  0.00000000000E+00  0.00000000000E+00  0.13939848898E+04  0.13939848898E+04  0.00000000000E+00 0. -1.
         -1   -1    0    0    0  501 -0.00000000000E+00 -0.00000000000E+00 -0.25761755795E+02  0.25761755795E+02  0.00000000000E+00 0.  1.
         25    2    1    2    0    0 -0.10450522045E+03 -0.99446740791E+02  0.93250058970E+03  0.95184864837E+03  0.12508998459E+03 0.  0.
          5    1    3    3  502    0 -0.15054040666E+02 -0.83270573523E+02  0.26605442517E+03  0.27921862780E+03  0.41800000000E+01 0. -1.
         -5    1    3    3    0  502 -0.89451179780E+02 -0.16176167268E+02  0.66644616453E+03  0.67263002057E+03  0.41800000000E+01 0. -1.
        -11    1    1    2    0    0  0.40309859165E+02  0.29097809936E+02  0.49684784334E+02  0.70286165661E+02  0.00000000000E+00 0.  1.
         11    1    1    2    0    0  0.64195361281E+02  0.70348930854E+02  0.38603775996E+03  0.39761183156E+03  0.00000000000E+00 0. -1.
</event>
<event>
 7    1  0.2499014E-009  0.1424288E+03  0.7561462E-02  0.1210098E+00
         -4   -1    0    0    0  501 -0.00000000000E+00  0.00000000000E+00  0.13406956377E+03  0.13406956377E+03  0.00000000000E+00 0.  1.
          4   -1    0    0  501    0  0.00000000000E+00 -0.00000000000E+00 -0.33976076908E+03  0.33976076908E+03  0.00000000000E+00 0. -1.
         25    2    1    2    0    0 -0.71774747277E+02 -0.75810547193E+02  0.60194929499E+02  0.17369302878E+03  0.12508791027E+03 0.  0.
          5    1    3    3  502    0 -0.86463472079E+02 -0.93368381476E+02  0.73372153772E+02  0.14695078092E+03  0.41800000000E+01 0. -1.
         -5    1    3    3    0  502  0.14688724803E+02  0.17557834283E+02 -0.13177224273E+02  0.26742247859E+02  0.41800000000E+01 0. -1.
        -11    1    1    2    0    0  0.74065973834E+01  0.69158067713E+02 -0.17712447502E+03  0.19029129162E+03  0.00000000000E+00 0. -1.
         11    1    1    2    0    0  0.64368149893E+02  0.66524794797E+01 -0.88761659788E+02  0.10984601245E+03  0.00000000000E+00 0.  1.
</event>
<event>
 7    1  0.2499014E-009  0.1016467E+03  0.7561462E-02  0.1276871E+00
         -1   -1    0    0    0  501 -0.00000000000E+00  0.00000000000E+00  0.11440372954E+03  0.11440372954E+03  0.00000000000E+00 0.  1.
          1   -1    0    0  501    0  0.00000000000E+00 -0.00000000000E+00 -0.17068457961E+03  0.17068457961E+03  0.00000000000E+00 0. -1.
         25    2    1    2    0    0 -0.36783182170E+01 -0.66790481421E+02 -0.88256531821E+02  0.16706619920E+03  0.12508957220E+03 0.  0.
          5    1    3    3  502    0  0.41809994050E+02 -0.74284279111E+02 -0.85326970292E+02  0.12068303106E+03  0.41800000000E+01 0. -1.
         -5    1    3    3    0  502 -0.45488312267E+02  0.74937976901E+01 -0.29295615288E+01  0.46383168149E+02  0.41800000000E+01 0. -1.
        -11    1    1    2    0    0 -0.11141055952E+02  0.28689713274E+02 -0.30519319019E+02  0.43343414827E+02  0.00000000000E+00 0.  1.
         11    1    1    2    0    0  0.14819374169E+02  0.38100768147E+02  0.62495000764E+02  0.74678695119E+02  0.00000000000E+00 0. -1.
</event>
<event>
 7    1  0.2499014E-009  0.2027659E+03  0.7561462E-02  0.1147426E+00
         -2   -1    0    0    0  501 -0.00000000000E+00  0.00000000000E+00  0.52226269167E+03  0.52226269167E+03  0.00000000000E+00 0.  1.
          2   -1    0    0  501    0  0.00000000000E+00 -0.00000000000E+00 -0.11456650669E+03  0.11456650669E+03  0.00000000000E+00 0. -1.
         25    2    1    2    0    0 -0.17388579602E+03  0.58019485507E+02  0.54052350520E+02  0.22840878848E+03  0.12508551995E+03 0.  0.
          5    1    3    3  502    0 -0.16845461588E+01  0.26865438044E+02  0.45650791541E+02  0.53160668030E+02  0.41800000000E+01 0. -1.
         -5    1    3    3    0  502 -0.17220124986E+03  0.31154047462E+02  0.84015589789E+01  0.17524812045E+03  0.41800000000E+01 0. -1.
        -11    1    1    2    0    0  0.39606329953E+02  0.23600660676E+02  0.98728382740E+02  0.10896304931E+03  0.00000000000E+00 0.  1.
         11    1    1    2    0    0  0.13427946607E+03 -0.81620146183E+02  0.25491545173E+03  0.29945736057E+03  0.00000000000E+00 0. -1.
</event>
<event>
 7    1  0.2499014E-009  0.9549760E+02  0.7561462E-02  0.1290059E+00
         -2   -1    0    0    0  501 -0.00000000000E+00  0.00000000000E+00  0.11099246520E+02  0.11099246520E+02  0.00000000000E+00 0.  1.
          2   -1    0    0  501    0  0.00000000000E+00 -0.00000000000E+00 -0.11636595538E+04  0.11636595538E+04  0.00000000000E+00 0. -1.
         25    2    1    2    0    0 -0.26791258427E+02 -0.19738049063E+01 -0.78403931834E+03  0.79440934384E+03  0.12508751111E+03 0.  0.
          5    1    3    3  502    0 -0.76533073816E+01 -0.54008959366E+02 -0.59087432623E+03  0.59340161999E+03  0.41800000000E+01 0.  1.
         -5    1    3    3    0  502 -0.19137951046E+02  0.52035154460E+02 -0.19316499211E+03  0.20100772385E+03  0.41800000000E+01 0.  1.
        -11    1    1    2    0    0  0.53535131865E+02 -0.23922881149E+01 -0.32266943911E+03  0.32708913208E+03  0.00000000000E+00 0. -1.
         11    1    1    2    0    0 -0.26743873438E+02  0.43660930212E+01 -0.45851549854E+02  0.53260324433E+02  0.00000000000E+00 0.  1.
</event>
<event>
 7    1  0.2499014E-009  0.1034932E+03  0.7561462E-02  0.1273117E+00
         -1   -1    0    0    0  501 -0.00000000000E+00  0.00000000000E+00  0.27960100560E+03  0.27960100560E+03  0.00000000000E+00 0.  1.
          1   -1    0    0  501    0  0.00000000000E+00 -0.00000000000E+00 -0.77980492198E+02  0.77980492198E+02  0.00000000000E+00 0. -1.
         25    2    1    2    0    0  0.43959028655E+02  0.51103296672E+02  0.19713121996E+03  0.24300772325E+03  0.12509233607E+03 0.  0.
          5    1    3    3  502    0 -0.18813852783E+02  0.67834700645E+02  0.13840273320E+03  0.15533285752E+03  0.41800000000E+01 0.  1.
         -5    1    3    3    0  502  0.62772881437E+02 -0.16731403974E+02  0.58728486761E+02  0.87674865726E+02  0.41800000000E+01 0.  1.
        -11    1    1    2    0    0 -0.26312903172E+02 -0.12939450647E+02  0.46605287664E+02  0.55062247453E+02  0.00000000000E+00 0.  1.
         11    1    1    2    0    0 -0.17646125482E+02 -0.38163846025E+02 -0.42115994224E+02  0.59511527097E+02  0.00000000000E+00 0. -1.
</event>
<event>
 7    1  0.2499014E-009  0.9442860E+02  0.7561462E-02  0.1292468E+00
          2   -1    0    0  501    0  0.00000000000E+00  0.00000000000E+00  0.55856470640E+02  0.55856470640E+02  0.00000000000E+00 0. -1.
         -2   -1    0    0    0  501 -0.00000000000E+00 -0.00000000000E+00 -0.29625735984E+03  0.29625735984E+03  0.00000000000E+00 0.  1.
         25    2    1    2    0    0  0.59240112925E+02 -0.12994958895E+02 -0.90215225502E+02  0.16572294958E+03  0.12508816558E+03 0.  0.
          5    1    3    3  502    0  0.32185166858E+02  0.20551011718E+02  0.22817851048E+02  0.44680597296E+02  0.41800000000E+01 0. -1.
         -5    1    3    3    0  502  0.27054946067E+02 -0.33545970613E+02 -0.11303307655E+03  0.12104235228E+03  0.41800000000E+01 0. -1.
        -11    1    1    2    0    0  0.19920899425E+02  0.19293713960E+02 -0.60794746439E+02  0.66821335117E+02  0.00000000000E+00 0. -1.
         11    1    1    2    0    0 -0.79161012350E+02 -0.62987550656E+01 -0.89390917262E+02  0.11956954579E+03  0.00000000000E+00 0.  1.
</event>
<event>
 7    1  0.2499014E-009  0.8886369E+02  0.7561462E-02  0.1305627E+00
         -2   -1    0    0    0  501 -0.00000000000E+00  0.00000000000E+00  0.22168555536E+02  0.22168555536E+02  0.00000000000E+00 0.  1.
          2   -1    0    0  501    0  0.00000000000E+00 -0.00000000000E+00 -0.84770454490E+03  0.84770454490E+03  0.00000000000E+00 0. -1.
         25    2    1    2    0    0  0.33691097072E+02 -0.21978820484E+02 -0.68584924377E+03  0.69832335080E+03  0.12509259977E+03 0.  0.
          5    1    3    3  502    0 -0.13082088705E+02 -0.65539235936E+02 -0.32375295490E+03  0.33060547591E+03  0.41800000000E+01 0. -1.
         -5    1    3    3    0  502  0.46773185777E+02  0.43560415452E+02 -0.36209628887E+03  0.36771787489E+03  0.41800000000E+01 0. -1.
        -11    1    1    2    0    0 -0.13610890791E+02 -0.37091425794E+01  0.10676623218E+02  0.17691929520E+02  0.00000000000E+00 0.  1.
         11    1    1    2    0    0 -0.20080206281E+02  0.25687963063E+02 -0.15036336881E+03  0.15385782011E+03  0.00000000000E+00 0. -1.
</event>
<event>
 7    1  0.2499014E-009  0.8148316E+02  0.7561462E-02  0.1324894E+00
         -2   -1    0    0    0  501 -0.00000000000E+00  0.00000000000E+00  0.35940303191E+02  0.35940303191E+02  0.00000000000E+00 0.  1.
          2   -1    0    0  501    0  0.00000000000E+00 -0.00000000000E+00 -0.36656144386E+03  0.36656144386E+03  0.00000000000E+00 0. -1.
         25    2    1    2    0    0  0.38484950703E+02  0.15785983230E+02 -0.20223045685E+03  0.24139920383E+03  0.12508448838E+03 0.  0.
          5    1    3    3  502    0  0.12494097125E+02  0.41297305669E+02 -0.20003217356E+03  0.20467513962E+03  0.41800000000E+01 0.  1.
         -5    1    3    3    0  502  0.25990853579E+02 -0.25511322439E+02 -0.21982832851E+01  0.36724064205E+02  0.41800000000E+01 0.  1.
        -11    1    1    2    0    0  0.19703913218E+02 -0.15003807990E+02 -0.84939358028E+02  0.88476284915E+02  0.00000000000E+00 0. -1.
         11    1    1    2    0    0 -0.58188863922E+02 -0.78217524064E+00 -0.43451325790E+02  0.72626258306E+02  0.00000000000E+00 0.  1.
</event>
<event>
 7    1  0.2499014E-009  0.1226656E+03  0.7561462E-02  0.1238763E+00
          1   -1    0    0  501    0  0.00000000000E+00  0.00000000000E+00  0.30128723050E+02  0.30128723050E+02  0.00000000000E+00 0. -1.
         -1   -1    0    0    0  501 -0.00000000000E+00 -0.00000000000E+00 -0.59511280991E+03  0.59511280991E+03  0.00000000000E+00 0.  1.
         25    2    1    2    0    0  0.46995050742E+01  0.79226272327E+02 -0.28458959855E+03  0.32083799804E+03  0.12508754458E+03 0.  0.
          5    1    3    3  502    0  0.57730494657E+02  0.60036325938E+02 -0.11490577416E+03  0.14197880046E+03  0.41800000000E+01 0.  1.
         -5    1    3    3    0  502 -0.53030989582E+02  0.19189946390E+02 -0.16968382439E+03  0.17885919758E+03  0.41800000000E+01 0.  1.
        -11    1    1    2    0    0 -0.32150455419E+02 -0.14876724685E+02 -0.17041532722E+03  0.17405847429E+03  0.00000000000E+00 0.  1.
         11    1    1    2    0    0  0.27450950345E+02 -0.64349547642E+02 -0.10997916109E+03  0.13034506063E+03  0.00000000000E+00 0. -1.
</event>
<event>
 7    1  0.2499014E-009  0.9035279E+02  0.7561462E-02  0.1302000E+00
         -2   -1    0    0    0  501 -0.00000000000E+00  0.00000000000E+00  0.24794632834E+03  0.24794632834E+03  0.00000000000E+00 0.  1.
          2   -1    0    0  501    0  0.00000000000E+00 -0.00000000000E+00 -0.58230085014E+02  0.58230085014E+02  0.00000000000E+00 0. -1.
         25    2    1    2    0    0  0.20982251047E+02  0.88178378940E+01  0.46916251940E+02  0.13552458777E+03  0.12509104712E+03 0.  0.
          5    1    3    3  502    0  0.66352060229E+02  0.41047492258E+00 -0.40984316045E+01  0.66611064606E+02  0.41800000000E+01 0. -1.
         -5    1    3    3    0  502 -0.45369809182E+02  0.84073629714E+01  0.51014683544E+02  0.68913523161E+02  0.41800000000E+01 0. -1.
        -11    1    1    2    0    0 -0.20640967991E+02 -0.35575425641E+02  0.21451433432E+02  0.46387762022E+02  0.00000000000E+00 0. -1.
         11    1    1    2    0    0 -0.34128305554E+00  0.26757587747E+02  0.12134855795E+03  0.12426406356E+03  0.00000000000E+00 0.  1.
</event>
<event>
 7    1  0.2499014E-009  0.1015052E+03  0.7561462E-02  0.1277162E+00
         -1   -1    0    0    0  501 -0.00000000000E+00  0.00000000000E+00  0.36785172206E+02  0.36785172206E+02  0.00000000000E+00 0. -1.
          1   -1    0    0  501    0  0.00000000000E+00 -0.00000000000E+00 -0.66459288735E+03  0.66459288735E+03  0.00000000000E+00 0.  1.
         25    2    1    2    0    0 -0.76915036221E+02  0.26446213111E+02 -0.52340268401E+03  0.54425475822E+03  0.12509015644E+03 0.  0.
          5    1    3    3  502    0  0.18405540755E+02  0.17301064269E+02 -0.21953333864E+02  0.33727022149E+02  0.41800000000E+01 0. -1.
         -5    1    3    3    0  502 -0.95320576976E+02  0.91451488423E+01 -0.50144935014E+03  0.51052773607E+03  0.41800000000E+01 0. -1.
        -11    1    1    2    0    0  0.46189311257E+02 -0.18981130941E+02 -0.20322932174E+01  0.49978655664E+02  0.00000000000E+00 0. -1.
         11    1    1    2    0    0  0.30725724963E+02 -0.74650821694E+01 -0.10237273792E+03  0.10714464567E+03  0.00000000000E+00 0.  1.
</event>
<event>
 7    1  0.2499014E-009  0.2201709E+03  0.7561462E-02  0.1133756E+00
          1   -1    0    0  501    0  0.00000000000E+00  0.00000000000E+00  0.28311459613E+03  0.28311459613E+03  0.00000000000E+00 0. -1.
         -1   -1    0    0    0  501 -0.00000000000E+00 -0.00000000000E+00 -0.19720562050E+03  0.19720562050E+03  0.00000000000E+00 0.  1.
         25    2    1    2    0    0 -0.15444090056E+03 -0.13412059755E+03  0.10508968856E+03  0.26178432628E+03  0.12508742699E+03 0.  0.
          5    1    3    3  502    0 -0.15307994437E+02  0.19520730906E+02  0.34663381331E+02  0.42830083283E+02  0.41800000000E+01 0. -1.
         -5    1    3    3    0  502 -0.13913290612E+03 -0.15364132846E+03  0.70426307229E+02  0.21895424299E+03  0.41800000000E+01 0. -1.
        -11    1    1    2    0    0  0.14927320115E+03  0.11606673774E+03 -0.36971517339E+02  0.19266776919E+03  0.00000000000E+00 0.  1.
         11    1    1    2    0    0  0.51676994103E+01  0.18053859809E+02  0.17790804403E+02  0.25868121163E+02  0.00000000000E+00 0. -1.
</event>
<event>
 7    1  0.2499014E-009  0.8926686E+02  0.7561462E-02  0.1304637E+00
         -1   -1    0    0    0  501 -0.00000000000E+00  0.00000000000E+00  0.76232212492E+02  0.76232212492E+02  0.00000000000E+00 0.  1.
          1   -1    0    0  501    0  0.00000000000E+00 -0.00000000000E+00 -0.20963539909E+03  0.20963539909E+03  0.00000000000E+00 0. -1.
         25    2    1    2    0    0  0.20662113390E+02 -0.37509503131E+02 -0.12967094866E+03  0.18519179124E+03  0.12509020290E+03 0.  0.
          5    1    3    3  502    0 -0.23262878307E+02  0.25005296833E+02 -0.95276791027E+02  0.10129938640E+03  0.41800000000E+01 0.  1.
         -5    1    3    3    0  502  0.43924991697E+02 -0.62514799965E+02 -0.34394157636E+02  0.83892404839E+02  0.41800000000E+01 0.  1.
        -11    1    1    2    0    0 -0.37512958661E+00  0.45720767842E+02 -0.38379442269E+02  0.59695149913E+02  0.00000000000E+00 0. -1.
         11    1    1    2    0    0 -0.20286983803E+02 -0.82112647111E+01  0.34647204338E+02  0.40980670425E+02  0.00000000000E+00 0.  1.
</event>
<event>
 7    1  0.2499014E-009  0.1921647E+03  0.7561462E-02  0.1156523E+00
          1   -1    0    0  501    0  0.00000000000E+00  0.00000000000E+00  0.13716095240E+03  0.13716095240E+03  0.00000000000E+00 0. -1.
         -1   -1    0    0    0  501 -0.00000000000E+00 -0.00000000000E+00 -0.29443651771E+03  0.29443651771E+03  0.00000000000E+00 0.  1.
         25    2    1    2    0    0  0.10489599433E+03  0.13163463500E+03 -0.70957526608E+02  0.22138541539E+03  0.12508271187E+03 0.  0.
          5    1    3    3  502    0  0.13261593031E+03  0.12001367018E+03 -0.55430779910E+02  0.18729738323E+03  0.41800000000E+01 0. -1.
         -5    1    3    3    0  502 -0.27719935979E+02  0.11620964822E+02 -0.15526746698E+02  0.34088032168E+02  0.41800000000E+01 0. -1.
        -11    1    1    2    0    0 -0.66006535790E+02 -0.11537916911E+03 -0.99509169627E+02  0.16604604864E+03  0.00000000000E+00 0.  1.
         11    1    1    2    0    0 -0.38889458539E+02 -0.16255465897E+02  0.13191130922E+02  0.44166006067E+02  0.00000000000E+00 0. -1.
</event>
<event>
 7    1  0.2499014E-009  0.1320276E+03  0.7561462E-02  0.1224478E+00
         -3   -1    0    0    0  501 -0.00000000000E+00  0.00000000000E+00  0.60043443735E+02  0.60043443735E+02  0.00000000000E+00 0.  1.
          3   -1    0    0  501    0  0.00000000000E+00 -0.00000000000E+00 -0.38106010765E+03  0.38106010765E+03  0.00000000000E+00 0. -1.
         25    2    1    2    0    0  0.81750318148E+02 -0.92927687411E+02 -0.17456608210E+03  0.24786656646E+03  0.12508336478E+03 0.  0.
          5    1    3    3  502    0  0.58918318514E+02 -0.20126106686E+02 -0.58762500034E+01  0.62677197935E+02  0.41800000000E+01 0. -1.
         -5    1    3    3    0  502  0.22831999634E+02 -0.72801580725E+02 -0.16868983209E+03  0.18518936852E+03  0.41800000000E+01 0. -1.
        -11    1    1    2    0    0 -0.16639290465E+02  0.32011393168E+02 -0.32584169881E+02  0.48614024793E+02  0.00000000000E+00 0. -1.
         11    1    1    2    0    0 -0.65111027683E+02  0.60916294243E+02 -0.11386641194E+03  0.14462296014E+03  0.00000000000E+00 0.  1.
</event>
<event>
 7    1  0.2499014E-009  0.1513866E+03  0.7561462E-02  0.1198779E+00
          1   -1    0    0  501    0  0.00000000000E+00  0.00000000000E+00  0.53546820827E+03  0.53546820827E+03  0.00000000000E+00 0. -1.
         -1   -1    0    0    0  501 -0.00000000000E+00 -0.00000000000E+00 -0.67563658102E+02  0.67563658102E+02  0.00000000000E+00 0.  1.
         25    2    1    2    0    0  0.10524392281E+03  0.37705425646E+02  0.41911363735E+03  0.45144351393E+03  0.12508806033E+03 0.  0.
          5    1    3    3  502    0  0.59765971025E+02  0.79193975416E+02  0.31645138290E+03  0.33166640947E+03  0.41800000000E+01 0.  1.
         -5    1    3    3    0  502  0.45477951789E+02 -0.41488549770E+02  0.10266225446E+03  0.11977710445E+03  0.41800000000E+01 0.  1.
        -11    1    1    2    0    0  0.14206224107E+02 -0.14086417732E+02  0.15638258001E+02  0.25392894306E+02  0.00000000000E+00 0.  1.
         11    1    1    2    0    0 -0.11945014692E+03 -0.23619007914E+02  0.33152654812E+02  0.12619545814E+03  0.00000000000E+00 0. -1.
</event>
<event>
 7    1  0.2499014E-009  0.4237867E+03  0.7561462E-02  0.1035841E+00
         -2   -1    0    0    0  501 -0.00000000000E+00  0.00000000000E+00  0.17435149187E+03  0.17435149187E+03  0.00000000000E+00 0.  1.
          2   -1    0    0  501    0  0.00000000000E+00 -0.00000000000E+00 -0.10703794269E+04  0.10703794269E+04  0.00000000000E+00 0. -1.
         25    2    1    2    0    0  0.39934226281E+03 -0.96246164317E+02 -0.34399396367E+03  0.55019625976E+03  0.12508601124E+03 0.  0.
          5    1    3    3  502    0  0.17182789712E+03  0.21274046508E+02 -0.13292479563E+03  0.21832060135E+03  0.41800000000E+01 0.  1.
         -5    1    3    3    0  502  0.22751436569E+03 -0.11752021083E+03 -0.21106916804E+03  0.33187565841E+03  0.41800000000E+01 0.  1.
        -11    1    1    2    0    0 -0.10396663504E+03 -0.98290146439E+01 -0.17694789319E+03  0.20546587949E+03  0.00000000000E+00 0.  1.
         11    1    1    2    0    0 -0.29537562777E+03  0.10607517896E+03 -0.37508607819E+03  0.48906877955E+03  0.00000000000E+00 0. -1.
</event>
<event>
 7    1  0.2499014E-009  0.2597310E+03  0.7561462E-02  0.1107305E+00
          2   -1    0    0  501    0  0.00000000000E+00  0.00000000000E+00  0.60481796184E+03  0.60481796184E+03  0.00000000000E+00 0. -1.
         -2   -1    0    0    0  501 -0.00000000000E+00 -0.00000000000E+00 -0.13258800542E+03  0.13258800542E+03  0.00000000000E+00 0.  1.
         25    2    1    2    0    0 -0.11512893141E+03  0.22110322545E+03  0.34269425162E+03  0.44184625422E+03  0.12508978825E+03 0.  0.
          5    1    3    3  502    0 -0.59061170917E+01  0.54953707139E+02  0.16879026550E+03  0.17765815004E+03  0.41800000000E+01 0. -1.
         -5    1    3    3    0  502 -0.10922281432E+03  0.16614951831E+03  0.17390398612E+03  0.26418810418E+03  0.41800000000E+01 0. -1.
        -11    1    1    2    0    0  0.17172901821E+02 -0.13081083162E+03  0.55335225612E+02  0.14306770921E+03  0.00000000000E+00 0. -1.
         11    1    1    2    0    0  0.97956029592E+02 -0.90292393832E+02  0.74200479197E+02  0.15249200382E+03  0.00000000000E+00 0.  1.
</event>
<event>
 7    1  0.2499014E-009  0.7783338E+02  0.7561462E-02  0.1335315E+00
         -3   -1    0    0    0  501 -0.00000000000E+00  0.00000000000E+00  0.74203807571E+02  0.74203807571E+02  0.00000000000E+00 0.  1.
          3   -1    0    0  501    0  0.00000000000E+00 -0.00000000000E+00 -0.17277071327E+03  0.17277071327E+03  0.00000000000E+00 0. -1.
         25    2    1    2    0    0  0.89375336412E+01 -0.34749154326E+02 -0.65695458805E+02  0.14577221011E+03  0.12508501389E+03 0.  0.
          5    1    3    3  502    0 -0.39137375192E+02 -0.17215398122E+00  0.17902130639E+02  0.43240287410E+02  0.41800000000E+01 0. -1.
         -5    1    3    3    0  502  0.48074908833E+02 -0.34577000345E+02 -0.83597589445E+02  0.10253192270E+03  0.41800000000E+01 0. -1.
        -11    1    1    2    0    0 -0.25445714513E+02  0.10323648912E+02  0.24434743800E+02  0.36757568179E+02  0.00000000000E+00 0.  1.
         11    1    1    2    0    0  0.16508180872E+02  0.24425505414E+02 -0.57306190692E+02  0.64444742548E+02  0.00000000000E+00 0. -1.
</event>
<event>
 7    1  0.2499014E-009  0.1928379E+03  0.7561462E-02  0.1155926E+00
          2   -1    0    0  501    0  0.00000000000E+00  0.00000000000E+00  0.44941382028E+03  0.44941382028E+03  0.00000000000E+00 0. -1.
         -2   -1    0    0    0  501 -0.00000000000E+00 -0.00000000000E+00 -0.10446971733E+03  0.10446971733E+03  0.00000000000E+00 0.  1.
         25    2    1    2    0    0 -0.15708801685E+03  0.80899366018E+02  0.10287042774E+03  0.23969321809E+03  0.12509660841E+03 0.  0.
          5    1    3    3  502    0 -0.92528310134E+02  0.84961056007E+01 -0.67480061394E+01  0.93255991622E+02  0.41800000000E+01 0. -1.
         -5    1    3    3    0  502 -0.64559706715E+02  0.72403260417E+02  0.10961843388E+03  0.14643722647E+03  0.41800000000E+01 0. -1.
        -11    1    1    2    0    0  0.95474161750E+02 -0.92428718139E+02  0.19421774833E+03  0.23532725568E+03  0.00000000000E+00 0.  1.
         11    1    1    2    0    0  0.61613855099E+02  0.11529352122E+02  0.47855926885E+02  0.78863063841E+02  0.00000000000E+00 0. -1.
</event>
<event>
 7    1  0.2499014E-009  0.1459240E+03  0.7561462E-02  0.1205573E+00
          1   -1    0    0  501    0  0.00000000000E+00  0.00000000000E+00  0.68932838926E+03  0.68932838926E+03  0.00000000000E+00 0. -1.
         -1   -1    0    0    0  501 -0.00000000000E+00 -0.00000000000E+00 -0.44966861007E+02  0.44966861007E+02  0.00000000000E+00 0.  1.
         25    2    1    2    0    0  0.70235233143E+02  0.76871994513E+02  0.52130781552E+03  0.54612440765E+03  0.12509092133E+03 0.  0.
          5    1    3    3  502    0  0.32634042848E+02  0.10539328453E+03  0.42024774780E+03  0.43450934064E+03  0.41800000000E+01 0.  1.
         -5    1    3    3    0  502  0.37601190295E+02 -0.28521290022E+02  0.10106006772E+03  0.11161506701E+03  0.41800000000E+01 0.  1.
        -11    1    1    2    0    0 -0.48821291187E+02  0.53326448710E+01  0.77576965908E+02  0.91815800460E+02  0.00000000000E+00 0.  1.
         11    1    1    2    0    0 -0.21413941956E+02 -0.82204639384E+02  0.45476746826E+02  0.96355042152E+02  0.00000000000E+00 0. -1.
</event>
<event>
 7    1  0.2499014E-009  0.1026396E+03  0.7561462E-02  0.1274841E+00
         -1   -1    0    0    0  501 -0.00000000000E+00  0.00000000000E+00  0.36010857628E+02  0.36010857628E+02  0.00000000000E+00 0.  1.
          1   -1    0    0  501    0  0.00000000000E+00 -0.00000000000E+00 -0.45355018883E+03  0.45355018883E+03  0.00000000000E+00 0. -1.
         25    2    1    2    0    0  0.18897828206E+02  0.58332752560E+01 -0.34567060484E+03  0.36813980627E+03  0.12509034694E+03 0.  0.
          5    1    3    3  502    0  0.70544684241E+02  0.97047783123E+01 -0.24014868816E+03  0.25051866202E+03  0.41800000000E+01 0.  1.
         -5    1    3    3    0  502 -0.51646856034E+02 -0.38715030563E+01 -0.10552191669E+03  0.11762114425E+03  0.41800000000E+01 0.  1.
        -11    1    1    2    0    0 -0.13852798084E+02  0.36662942502E+02 -0.67956131531E+02  0.78448117761E+02  0.00000000000E+00 0. -1.
         11    1    1    2    0    0 -0.50450301220E+01 -0.42496217758E+02 -0.39125948288E+01  0.42973122425E+02  0.00000000000E+00 0.  1.
</event>
<event>
 7    1  0.2499014E-009  0.1095059E+03  0.7561462E-02  0.1261488E+00
         -2   -1    0    0    0  501 -0.00000000000E+00  0.00000000000E+00  0.85439451996E+02  0.85439451996E+02  0.00000000000E+00 0. -1.
          2   -1    0    0  501    0  0.00000000000E+00 -0.00000000000E+00 -0.19652472590E+03  0.19652472590E+03  0.00000000000E+00 0.  1.
         25    2    1    2    0    0 -0.62846794355E+02 -0.66416303724E+01 -0.26924089666E+02  0.14270477823E+03  0.12508363726E+03 0.  0.
          5    1    3    3  502    0 -0.70418372911E+02 -0.35113503223E+02 -0.59384219987E+02  0.98669465062E+02  0.41800000000E+01 0. -1.
         -5    1    3    3    0  502  0.75715785561E+01  0.28471872851E+02  0.32460130321E+02  0.44035313170E+02  0.41800000000E+01 0. -1.
        -11    1    1    2    0    0  0.86541363642E+02  0.43217823941E+01 -0.60401048904E+02  0.10562372902E+03  0.00000000000E+00 0.  1.
         11    1    1    2    0    0 -0.23694569287E+02  0.23198479782E+01 -0.23760135330E+02  0.33635670638E+02  0.00000000000E+00 0. -1.
</event>
<event>
 7    1  0.2499014E-009  0.7880391E+02  0.7561462E-02  0.1332480E+00
         -1   -1    0    0    0  501 -0.00000000000E+00  0.00000000000E+00  0.81993481409E+02  0.81993481409E+02  0.00000000000E+00 0. -1.
          1   -1    0    0  501    0  0.00000000000E+00 -0.00000000000E+00 -0.15235246216E+03  0.15235246216E+03  0.00000000000E+00 0.  1.
         25    2    1    2    0    0 -0.20069853844E+01  0.20809764027E+02 -0.32736428302E+02  0.13097988114E+03  0.12508789412E+03 0.  0.
          5    1    3    3  502    0  0.60760122934E+01 -0.20168413251E+02  0.40913979566E+02  0.46207239069E+02  0.41800000000E+01 0.  1.
         -5    1    3    3    0  502 -0.80829976778E+01  0.40978177278E+02 -0.73650407868E+02  0.84772642071E+02  0.41800000000E+01 0.  1.
        -11    1    1    2    0    0  0.31747956747E+02  0.24400428469E+02 -0.26790199118E+02  0.48177053001E+02  0.00000000000E+00 0.  1.
         11    1    1    2    0    0 -0.29740971362E+02 -0.45210192495E+02 -0.10832353330E+02  0.55189009429E+02  0.00000000000E+00 0. -1.
</event>
<event>
 7    1  0.2499014E-009  0.1317718E+03  0.7561462E-02  0.1224850E+00
          3   -1    0    0  501    0  0.00000000000E+00  0.00000000000E+00  0.20930222635E+02  0.20930222635E+02  0.00000000000E+00 0. -1.
         -3   -1    0    0    0  501 -0.00000000000E+00 -0.00000000000E+00 -0.92837881530E+03  0.92837881530E+03  0.00000000000E+00 0.  1.
         25    2    1    2    0    0 -0.30829564036E+02 -0.81200726861E+02 -0.59245725759E+03  0.61171505134E+03  0.12508270025E+03 0.  0.
          5    1    3    3  502    0 -0.10393273100E+02  0.32311281143E+02 -0.92770838349E+02  0.98873352643E+02  0.41800000000E+01 0. -1.
         -5    1    3    3    0  502 -0.20436290936E+02 -0.11351200800E+03 -0.49968641925E+03  0.51284169870E+03  0.41800000000E+01 0. -1.
        -11    1    1    2    0    0 -0.18059870552E+02  0.56182471712E+02 -0.10404617473E+03  0.11961703695E+03  0.00000000000E+00 0. -1.
         11    1    1    2    0    0  0.48889434588E+02  0.25018255149E+02 -0.21094516033E+03  0.21797694964E+03  0.00000000000E+00 0.  1.
</event>
<event>
 7    1  0.2499014E-009  0.7547455E+02  0.7561462E-02  0.1342408E+00
         -4   -1    0    0    0  501 -0.00000000000E+00  0.00000000000E+00  0.20272070404E+02  0.20272070404E+02  0.00000000000E+00 0.  1.
          4   -1    0    0  501    0  0.00000000000E+00 -0.00000000000E+00 -0.78150309579E+03  0.78150309579E+03  0.00000000000E+00 0. -1.
         25    2    1    2    0    0  0.84420292999E+01 -0.42292386701E+02 -0.57885065833E+03  0.59378146952E+03  0.12509370511E+03 0.  0.
          5    1    3    3  502    0  0.31774766827E+02  0.48338919373E+01 -0.48531251430E+03  0.48639357650E+03  0.41800000000E+01 0.  1.
         -5    1    3    3    0  502 -0.23332737527E+02 -0.47126278639E+02 -0.93538144029E+02  0.10738789302E+03  0.41800000000E+01 0.  1.
        -11    1    1    2    0    0  0.17779734486E+02  0.22494241298E+01  0.15015694982E+01  0.17984259181E+02  0.00000000000E+00 0.  1.
         11    1    1    2    0    0 -0.26221763786E+02  0.40042962572E+02 -0.18388193656E+03  0.19000943750E+03  0.00000000000E+00 0. -1.
</event>
<event>
 7    1  0.2499014E-009  0.1060011E+03  0.7561462E-02  0.1268160E+00
          2   -1    0    0  501    0  0.00000000000E+00  0.00000000000E+00  0.66697366756E+02  0.66697366756E+02  0.00000000000E+00 0. -1.
         -2   -1    0    0    0  501 -0.00000000000E+00 -0.00000000000E+00 -0.30123958236E+03  0.30123958236E+03  0.00000000000E+00 0.  1.
         25    2    1    2    0    0  0.11634107566E+02 -0.18816453278E+02 -0.24127068824E+03  0.27265995917E+03  0.12506996825E+03 0.  0.
          5    1    3    3  502    0 -0.36071908186E+02 -0.49024633743E+02 -0.17588892823E+03  0.18616923685E+03  0.41800000000E+01 0.  1.
         -5    1    3    3    0  502  0.47706015751E+02  0.30208180465E+02 -0.65381760012E+02  0.86490722324E+02  0.41800000000E+01 0.  1.
        -11    1    1    2    0    0 -0.45052534088E+02  0.35182357700E+02 -0.14394035367E+01  0.57180425004E+02  0.00000000000E+00 0.  1.
         11    1    1    2    0    0  0.33418426522E+02 -0.16365904422E+02  0.81678761797E+01  0.38096564938E+02  0.00000000000E+00 0. -1.
</event>
<event>
 7    1  0.2499014E-009  0.1843364E+03  0.7561462E-02  0.1163671E+00
         -2   -1    0    0    0  501 -0.00000000000E+00  0.00000000000E+00  0.11104622273E+04  0.11104622273E+04  0.00000000000E+00 0.  1.
          2   -1    0    0  501    0  0.00000000000E+00 -0.00000000000E+00 -0.37416692676E+02  0.37416692676E+02  0.00000000000E+00 0. -1.
         25    2    1    2    0    0  0.65038199011E+02 -0.15007986926E+03  0.41307442088E+03  0.46155494930E+03  0.12509420268E+03 0.  0.
          5    1    3    3  502    0  0.36427186216E+02 -0.16035395729E+03  0.38965746870E+03  0.42295478107E+03  0.41800000000E+01 0. -1.
         -5    1    3    3    0  502  0.28611012796E+02  0.10274088024E+02  0.23416952180E+02  0.38600168229E+02  0.41800000000E+01 0. -1.
        -11    1    1    2    0    0 -0.49047238631E+02  0.43001354093E+02  0.13046093637E+03  0.14585884954E+03  0.00000000000E+00 0.  1.
         11    1    1    2    0    0 -0.15990960380E+02  0.10707851517E+03  0.52951017738E+03  0.54046512115E+03  0.00000000000E+00 0. -1.
</event>
<event>
 7    1  0.2499014E-009  0.1130776E+03  0.7561462E-02  0.1254974E+00
         -2   -1    0    0    0  501 -0.00000000000E+00  0.00000000000E+00  0.23334847788E+02  0.23334847788E+02  0.00000000000E+00 0. -1.
          2   -1    0    0  501    0  0.00000000000E+00 -0.00000000000E+00 -0.60634440783E+03  0.60634440783E+03  0.00000000000E+00 0.  1.
         25    2    1    2    0    0 -0.28004127315E+02 -0.23462228395E+02 -0.33624850268E+03  0.36061934688E+03  0.12509416644E+03 0.  0.
          5    1    3    3  502    0  0.46788185662E+02 -0.16398374815E+02 -0.86561234258E+02  0.99841678123E+02  0.41800000000E+01 0. -1.
         -5    1    3    3    0  502 -0.74792312978E+02 -0.70638535794E+01 -0.24968726843E+03  0.26077766876E+03  0.41800000000E+01 0. -1.
        -11    1    1    2    0    0  0.79151715152E+00  0.57542286387E+02 -0.94196858996E+02  0.11038473385E+03  0.00000000000E+00 0. -1.
         11    1    1    2    0    0  0.27212610164E+02 -0.34080057993E+02 -0.15256419836E+03  0.15867517489E+03  0.00000000000E+00 0.  1.
</event>
<event>
 7    1  0.2499014E-009  0.1116602E+03  0.7561462E-02  0.1257526E+00
          1   -1    0    0  501    0  0.00000000000E+00  0.00000000000E+00  0.10636869403E+03  0.10636869403E+03  0.00000000000E+00 0. -1.
         -1   -1    0    0    0  501 -0.00000000000E+00 -0.00000000000E+00 -0.12280093220E+03  0.12280093220E+03  0.00000000000E+00 0.  1.
         25    2    1    2    0    0  0.28051174218E+02  0.17885489929E+02 -0.23054724488E+02  0.13147514555E+03  0.12508970561E+03 0.  0.
          5    1    3    3  502    0 -0.24350290132E+02  0.57664921426E+02 -0.40386010842E+01  0.62864636254E+02  0.41800000000E+01 0. -1.
         -5    1    3    3    0  502  0.52401464350E+02 -0.39779431497E+02 -0.19016123404E+02  0.68610509294E+02  0.41800000000E+01 0. -1.
        -11    1    1    2    0    0  0.18666334547E+02 -0.39120732819E+02  0.14646873163E+02  0.45753630186E+02  0.00000000000E+00 0.  1.
         11    1    1    2    0    0 -0.46717508764E+02  0.21235242890E+02 -0.80243868457E+01  0.51940850493E+02  0.00000000000E+00 0. -1.
</event>
<event>
 7    1  0.2499014E-009  0.1227253E+03  0.7561462E-02  0.1238668E+00
         -2   -1    0    0    0  501 -0.00000000000E+00  0.00000000000E+00  0.12771889642E+03  0.12771889642E+03  0.00000000000E+00 0.  1.
          2   -1    0    0  501    0  0.00000000000E+00 -0.00000000000E+00 -0.14154819837E+03  0.14154819837E+03  0.00000000000E+00 0. -1.
         25    2    1    2    0    0  0.75260079069E+02  0.48527694342E+01 -0.38757291287E+02  0.15113526756E+03  0.12510840339E+03 0.  0.
          5    1    3    3  502    0  0.87559457433E+02 -0.41286260034E+02 -0.35123942873E+02  0.10306491943E+03  0.41800000000E+01 0. -1.
         -5    1    3    3    0  502 -0.12299378364E+02  0.46139029469E+02 -0.36333484134E+01  0.48070348128E+02  0.41800000000E+01 0. -1.
        -11    1    1    2    0    0  0.93839063139E+01 -0.12503807254E+02 -0.17226498212E+02  0.23262741330E+02  0.00000000000E+00 0. -1.
         11    1    1    2    0    0 -0.84643985383E+02  0.76510378199E+01  0.42154487546E+02  0.94869085911E+02  0.00000000000E+00 0.  1.
</event>
<event>
 7    1  0.2499014E-009  0.1368961E+03  0.7561462E-02  0.1217568E+00
         -4   -1    0    0    0  501 -0.00000000000E+00  0.00000000000E+00  0.61859606478E+03  0.61859606478E+03  0.00000000000E+00 0.  1.
          4   -1    0    0  501    0  0.00000000000E+00 -0.00000000000E+00 -0.30713063968E+02  0.30713063968E+02  0.00000000000E+00 0. -1.
         25    2    1    2    0    0 -0.76778605745E+02  0.26603747992E+02  0.34028775824E+03  0.37154340315E+03  0.12508408495E+03 0.  0.
          5    1    3    3  502    0  0.21910194346E+02 -0.27389483302E+02  0.62113966285E+02  0.71455284056E+02  0.41800000000E+01 0.  1.
         -5    1    3    3    0  502 -0.98688800091E+02  0.53993231294E+02  0.27817379195E+03  0.30008811909E+03  0.41800000000E+01 0.  1.
        -11    1    1    2    0    0  0.88536577471E+02  0.84367737985E+01  0.17504535455E+03  0.19634352766E+03  0.00000000000E+00 0.  1.
         11    1    1    2    0    0 -0.11757971727E+02 -0.35040521790E+02  0.72549888024E+02  0.81422197949E+02  0.00000000000E+00 0. -1.
</event>
<event>
 7    1  0.2499014E-009  0.9398927E+02  0.7561462E-02  0.1293469E+00
          4   -1    0    0  501    0  0.00000000000E+00  0.00000000000E+00  0.13361690433E+03  0.13361690433E+03  0.00000000000E+00 0.  1.
         -4   -1    0    0    0  501 -0.00000000000E+00 -0.00000000000E+00 -0.95005444566E+02  0.95005444566E+02  0.00000000000E+00 0. -1.
         25    2    1    2    0    0 -0.78661553318E+01 -0.35799629188E+01 -0.85062697539E+01  0.12568245051E+03  0.12509607990E+03 0.  0.
          5    1    3    3  502    0 -0.52503788060E+02 -0.37706411451E+02 -0.20761194062E+02  0.68021473110E+02  0.41800000000E+01 0. -1.
         -5    1    3    3    0  502  0.44637632728E+02  0.34126448532E+02  0.12254924308E+02  0.57660977401E+02  0.41800000000E+01 0. -1.
        -11    1    1    2    0    0  0.23922340213E+02  0.28503253812E+02  0.60009693416E+02  0.70610743822E+02  0.00000000000E+00 0.  1.
         11    1    1    2    0    0 -0.16056184881E+02 -0.24923290894E+02 -0.12891963895E+02  0.32329154566E+02  0.00000000000E+00 0. -1.
</event>
<event>
 7    1  0.2499014E-009  0.1006115E+03  0.7561462E-02  0.1279015E+00
          2   -1    0    0  501    0  0.00000000000E+00  0.00000000000E+00  0.16268016006E+03  0.16268016006E+03  0.00000000000E+00 0. -1.
         -2   -1    0    0    0  501 -0.00000000000E+00 -0.00000000000E+00 -0.83902467589E+02  0.83902467589E+02  0.00000000000E+00 0.  1.
         25    2    1    2    0    0  0.36002706985E+02 -0.25760279089E+02  0.75111168113E+02  0.15247674784E+03  0.12509070376E+03 0.  0.
          5    1    3    3  502    0 -0.37818928657E+02 -0.47621399080E+01 -0.81058746716E+01  0.39193455390E+02  0.41800000000E+01 0. -1.
         -5    1    3    3    0  502  0.73821635641E+02 -0.20998139181E+02  0.83217042784E+02  0.11328329245E+03  0.41800000000E+01 0. -1.
        -11    1    1    2    0    0  0.22721625169E+02  0.25333747923E+01  0.18296736965E+02  0.29282431964E+02  0.00000000000E+00 0. -1.
         11    1    1    2    0    0 -0.58724332154E+02  0.23226904297E+02 -0.14630212606E+02  0.64823447849E+02  0.00000000000E+00 0.  1.
</event>
<event>
 7    1  0.2499014E-009  0.8955086E+02  0.7561462E-02  0.1303943E+00
         -2   -1    0    0    0  501 -0.00000000000E+00  0.00000000000E+00  0.19894408153E+02  0.19894408153E+02  0.00000000000E+00 0.  1.
          2   -1    0    0  501    0  0.00000000000E+00 -0.00000000000E+00 -0.27675372323E+04  0.27675372323E+04  0.00000000000E+00 0. -1.
         25    2    1    2    0    0 -0.26281978167E+02  0.23314720157E+02 -0.26332331561E+04  0.26364368273E+04  0.12509185287E+03 0.  0.
          5    1    3    3  502    0 -0.43821648382E+01 -0.51455662974E+02 -0.11011893990E+04  0.11024075714E+04  0.41800000000E+01 0.  1.
         -5    1    3    3    0  502 -0.21899813329E+02  0.74770383131E+02 -0.15320437571E+04  0.15340292559E+04  0.41800000000E+01 0.  1.
        -11    1    1    2    0    0  0.43279363498E+01 -0.26704641901E+02 -0.12391401656E+03  0.12683277349E+03  0.00000000000E+00 0. -1.
         11    1    1    2    0    0  0.21954041817E+02  0.33899217432E+01  0.95043484537E+01  0.24162039671E+02  0.00000000000E+00 0.  1.
</event>
<event>
 7    1  0.2499014E-009  0.1666282E+03  0.7561462E-02  0.1181410E+00
         -2   -1    0    0    0  501 -0.00000000000E+00  0.00000000000E+00  0.14512393944E+03  0.14512393944E+03  0.00000000000E+00 0. -1.
          2   -1    0    0  501    0  0.00000000000E+00 -0.00000000000E+00 -0.33224669360E+03  0.33224669360E+03  0.00000000000E+00 0.  1.
         25    2    1    2    0    0  0.15034097268E+03 -0.71885952820E+01  0.29881708931E+02  0.19796439587E+03  0.12507158565E+03 0.  0.
          5    1    3    3  502    0  0.79972102519E+02  0.43323077497E+02  0.56615130298E+02  0.10721553807E+03  0.41800000000E+01 0. -1.
         -5    1    3    3    0  502  0.70368870160E+02 -0.50511672779E+02 -0.26733421366E+02  0.90748857802E+02  0.41800000000E+01 0. -1.
        -11    1    1    2    0    0 -0.44566943657E+02  0.20168691733E+02 -0.15256425215E+02  0.51242044295E+02  0.00000000000E+00 0. -1.
         11    1    1    2    0    0 -0.10577402902E+03 -0.12980096451E+02 -0.20174803788E+03  0.22816419287E+03  0.00000000000E+00 0.  1.
</event>
<event>
 7    1  0.2499014E-009  0.8631526E+02  0.7561462E-02  0.1312028E+00
          2   -1    0    0  501    0  0.00000000000E+00  0.00000000000E+00  0.99364047921E+02  0.99364047921E+02  0.00000000000E+00 0. -1.
         -2   -1    0    0    0  501 -0.00000000000E+00 -0.00000000000E+00 -0.13640456899E+03  0.13640456899E+03  0.00000000000E+00 0.  1.
         25    2    1    2    0    0  0.14976555359E+02  0.22714138643E+01  0.33063235855E+02  0.13026965157E+03  0.12509015958E+03 0.  0.
          5    1    3    3  502    0 -0.20149183842E+02  0.55715287123E+02  0.28879892504E+02  0.66043193592E+02  0.41800000000E+01 0.  1.
         -5    1    3    3    0  502  0.35125739202E+02 -0.53443873259E+02  0.41833433516E+01  0.64226457983E+02  0.41800000000E+01 0.  1.
        -11    1    1    2    0    0 -0.38338412460E+01 -0.24225202284E+02 -0.76271852244E+02  0.80118376226E+02  0.00000000000E+00 0.  1.
         11    1    1    2    0    0 -0.11142714113E+02  0.21953788419E+02  0.61680953196E+01  0.25380589111E+02  0.00000000000E+00 0. -1.
</event>
<event>
 7    1  0.3586203E-009  0.1110710E+03  0.7561462E-02  0.1258599E+00
         -1   -1    0    0    0  501 -0.00000000000E+00  0.00000000000E+00  0.78665893830E+02  0.78665893830E+02  0.00000000000E+00 0.  1.
          1   -1    0    0  501    0  0.00000000000E+00 -0.00000000000E+00 -0.29099798875E+03  0.29099798875E+03  0.00000000000E+00 0. -1.
         25    2    1    2    0    0  0.93705719488E+02  0.47262344523E+02 -0.11070214921E+03  0.19727709601E+03  0.12509514656E+03 0.  0.
          5    1    3    3  502    0  0.95894400893E+02  0.32279821214E+02 -0.13474558873E+03  0.16855731685E+03  0.41800000000E+01 0. -1.
         -5    1    3    3    0  502 -0.21886814050E+01  0.14982523309E+02  0.24043439519E+02  0.28719779158E+02  0.41800000000E+01 0. -1.
        -11    1    1    2    0    0 -0.42331469334E+02 -0.17607326680E+02  0.91253164464E+01  0.46746579009E+02  0.00000000000E+00 0.  1.
         11    1    1    2    0    0 -0.51374250154E+02 -0.29655017843E+02 -0.11075526215E+03  0.12564020756E+03  0.00000000000E+00 0. -1.
</event>
<event>
 7    1  0.2499014E-009  0.1128692E+03  0.7561462E-02  0.1255347E+00
          2   -1    0    0  501    0  0.00000000000E+00  0.00000000000E+00  0.39044730656E+03  0.39044730656E+03  0.00000000000E+00 0.  1.
         -2   -1    0    0    0  501 -0.00000000000E+00 -0.00000000000E+00 -0.39827519539E+02  0.39827519539E+02  0.00000000000E+00 0. -1.
         25    2    1    2    0    0  0.56102045801E+02 -0.14893949252E+02  0.23953725127E+03  0.27639632416E+03  0.12509022342E+03 0.  0.
          5    1    3    3  502    0 -0.22226448176E+02 -0.35183675719E+02  0.14964103719E+03  0.15537637673E+03  0.41800000000E+01 0. -1.
         -5    1    3    3    0  502  0.78328493977E+02  0.20289726466E+02  0.89896214082E+02  0.12101994743E+03  0.41800000000E+01 0. -1.
        -11    1    1    2    0    0 -0.26882936888E+01  0.42623802916E+02  0.27181286309E+02  0.50624478500E+02  0.00000000000E+00 0. -1.
         11    1    1    2    0    0 -0.53413752112E+02 -0.27729853664E+02  0.83901249442E+02  0.10325402344E+03  0.00000000000E+00 0.  1.
</event>
<event>
 7    1  0.2499014E-009  0.1193272E+03  0.7561462E-02  0.1244211E+00
          1   -1    0    0  501    0  0.00000000000E+00  0.00000000000E+00  0.48642500778E+03  0.48642500778E+03  0.00000000000E+00 0. -1.
         -1   -1    0    0    0  501 -0.00000000000E+00 -0.00000000000E+00 -0.46392517764E+02  0.46392517764E+02  0.00000000000E+00 0.  1.
         25    2    1    2    0    0 -0.39304507558E+02 -0.81449130624E+02  0.33058763713E+03  0.36484902289E+03  0.12509124066E+03 0.  0.
          5    1    3    3  502    0 -0.78499472052E+02 -0.68067167216E+02  0.17290640954E+03  0.20176571866E+03  0.41800000000E+01 0. -1.
         -5    1    3    3    0  502  0.39194964494E+02 -0.13381963408E+02  0.15768122759E+03  0.16308330424E+03  0.41800000000E+01 0. -1.
        -11    1    1    2    0    0  0.14149774303E+02  0.53948384044E+02  0.37545702280E+01  0.55899383283E+02  0.00000000000E+00 0.  1.
         11    1    1    2    0    0  0.25154733255E+02  0.27500746580E+02  0.10569028266E+03  0.11206911937E+03  0.00000000000E+00 0. -1.
</event>
<event>
 7    1  0.2499014E-009  0.4505832E+03  0.7561462E-02  0.1027548E+00
         -2   -1    0    0    0  501 -0.00000000000E+00  0.00000000000E+00  0.57726258004E+02  0.57726258004E+02  0.00000000000E+00 0.  1.
          2   -1    0    0  501    0  0.00000000000E+00 -0.00000000000E+00 -0.36210222540E+04  0.36210222540E+04  0.00000000000E+00 0. -1.
         25    2    1    2    0    0 -0.35456693377E+01 -0.44189150718E+03 -0.16337348620E+04  0.16970616569E+04  0.12509193429E+03 0.  0.
          5    1    3    3  502    0 -0.42587423333E+02 -0.27279210854E+03 -0.82770148419E+03  0.87254595434E+03  0.41800000000E+01 0.  1.
         -5    1    3    3    0  502  0.39041753995E+02 -0.16909939864E+03 -0.80603337783E+03  0.82451570255E+03  0.41800000000E+01 0.  1.
        -11    1    1    2    0    0 -0.34482460349E+02  0.35398649504E+03 -0.15040699970E+04  0.15455491045E+04  0.00000000000E+00 0. -1.
         11    1    1    2    0    0  0.38028129687E+02  0.87905012137E+02 -0.42549113697E+03  0.43613775054E+03  0.00000000000E+00 0.  1.
</event>
<event>
 7    1  0.2499014E-009  0.1056116E+03  0.7561462E-02  0.1268919E+00
         -2   -1    0    0    0  501 -0.00000000000E+00  0.00000000000E+00  0.53551887451E+02  0.53551887451E+02  0.00000000000E+00 0.  1.
          2   -1    0    0  501    0  0.00000000000E+00 -0.00000000000E+00 -0.32041520372E+03  0.32041520372E+03  0.00000000000E+00 0. -1.
         25    2    1    2    0    0  0.51803332873E+02  0.19701155660E+01 -0.68189588155E+02  0.15160381058E+03  0.12508568582E+03 0.  0.
          5    1    3    3  502    0  0.66310304440E+01 -0.58713360722E+02 -0.24148625825E+02  0.63967631043E+02  0.41800000000E+01 0.  1.
         -5    1    3    3    0  502  0.45172302429E+02  0.60683476288E+02 -0.44040962329E+02  0.87636179538E+02  0.41800000000E+01 0.  1.
        -11    1    1    2    0    0 -0.26496546799E+02  0.26949873164E+02 -0.17069251946E+03  0.17482648214E+03  0.00000000000E+00 0. -1.
         11    1    1    2    0    0 -0.25306786074E+02 -0.28919988730E+02 -0.27981208655E+02  0.47536798455E+02  0.00000000000E+00 0.  1.
</event>
<event>
 7    1  0.2499014E-009  0.1645527E+03  0.7561462E-02  0.1183651E+00
          1   -1    0    0  501    0  0.00000000000E+00  0.00000000000E+00  0.51498945618E+02  0.51498945618E+02  0.00000000000E+00 0. -1.
         -1   -1    0    0    0  501 -0.00000000000E+00 -0.00000000000E+00 -0.68158123824E+03  0.68158123824E+03  0.00000000000E+00 0.  1.
         25    2    1    2    0    0 -0.69589898022E+02 -0.13568081573E+03 -0.33532940688E+03  0.38903131529E+03  0.12509002954E+03 0.  0.
          5    1    3    3  502    0 -0.49400269801E+02 -0.61058272540E+02 -0.28742182917E+03  0.29798872392E+03  0.41800000000E+01 0.  1.
         -5    1    3    3    0  502 -0.20189628221E+02 -0.74622543195E+02 -0.47907577714E+02  0.91042591368E+02  0.41800000000E+01 0.  1.
        -11    1    1    2    0    0  0.59653659890E+02  0.29787045201E+02 -0.78055644261E+02  0.10265724914E+03  0.00000000000E+00 0.  1.
         11    1    1    2    0    0  0.99362381320E+01  0.10589377053E+03 -0.21669724148E+03  0.24139161943E+03  0.00000000000E+00 0. -1.
</event>
<event>
 7    1  0.2499014E-009  0.1228905E+03  0.7561462E-02  0.1238403E+00
          2   -1    0    0  501    0  0.00000000000E+00  0.00000000000E+00  0.91618248006E+02  0.91618248006E+02  0.00000000000E+00 0.  1.
         -2   -1    0    0    0  501 -0.00000000000E+00 -0.00000000000E+00 -0.19414842853E+03  0.19414842853E+03  0.00000000000E+00 0. -1.
         25    2    1    2    0    0 -0.56964118969E+02  0.81537098792E+01 -0.54736276256E+02  0.14817211527E+03  0.12509005545E+03 0.  0.
          5    1    3    3  502    0 -0.92690650835E+00  0.55226266201E+02  0.20746391924E+01  0.55430823212E+02  0.41800000000E+01 0.  1.
         -5    1    3    3    0  502 -0.56037212461E+02 -0.47072556322E+02 -0.56810915448E+02  0.92741292061E+02  0.41800000000E+01 0.  1.
        -11    1    1    2    0    0 -0.29909675055E+02 -0.29677851932E+01  0.11614250485E+02  0.32222464605E+02  0.00000000000E+00 0.  1.
         11    1    1    2    0    0  0.86873794024E+02 -0.51859246860E+01 -0.59408154754E+02  0.10537209666E+03  0.00000000000E+00 0. -1.
</event>
<event>
 7    1  0.2499014E-009  0.1030397E+03  0.7561462E-02  0.1274031E+00
          3   -1    0    0  501    0  0.00000000000E+00  0.00000000000E+00  0.10482300585E+04  0.10482300585E+04  0.00000000000E+00 0. -1.
         -3   -1    0    0    0  501 -0.00000000000E+00 -0.00000000000E+00 -0.14459548163E+02  0.14459548163E+02  0.00000000000E+00 0.  1.
         25    2    1    2    0    0 -0.25630446030E+01  0.24709647281E+01  0.82628094900E+03  0.83570380738E+03  0.12509185470E+03 0.  0.
          5    1    3    3  502    0 -0.31561812378E+02 -0.53328320886E+02  0.41540142434E+03  0.42001889666E+03  0.41800000000E+01 0.  1.
         -5    1    3    3    0  502  0.28998767775E+02  0.55799285615E+02  0.41087952467E+03  0.41568491072E+03  0.41800000000E+01 0.  1.
        -11    1    1    2    0    0  0.36661142237E+02 -0.20886708215E+02  0.16112621326E+03  0.16655915024E+03  0.00000000000E+00 0. -1.
         11    1    1    2    0    0 -0.34098097634E+02  0.18415743487E+02  0.46363348082E+02  0.60426649053E+02  0.00000000000E+00 0.  1.
</event>
<event>
 7    1  0.2499014E-009  0.1389608E+03  0.7561462E-02  0.1214734E+00
          2   -1    0    0  501    0  0.00000000000E+00  0.00000000000E+00  0.83867565066E+03  0.83867565066E+03  0.00000000000E+00 0.  1.
         -2   -1    0    0    0  501 -0.00000000000E+00 -0.00000000000E+00 -0.31114115978E+02  0.31114115978E+02  0.00000000000E+00 0. -1.
         25    2    1    2    0    0 -0.21043646777E+02  0.94329077145E+02  0.62762555013E+03  0.64722675858E+03  0.12509131058E+03 0.  0.
          5    1    3    3  502    0 -0.67879455161E+02  0.56868590825E+02  0.47472262182E+03  0.48292928792E+03  0.41800000000E+01 0. -1.
         -5    1    3    3    0  502  0.46835808384E+02  0.37460486320E+02  0.15290292830E+03  0.16429747066E+03  0.41800000000E+01 0. -1.
        -11    1    1    2    0    0 -0.31565109373E+02 -0.17665864189E+02  0.34769808863E+02  0.50173483989E+02  0.00000000000E+00 0.  1.
         11    1    1    2    0    0  0.52608756150E+02 -0.76663212956E+02  0.14516617569E+03  0.17238952407E+03  0.00000000000E+00 0. -1.
</event>
<event>
 7    1  0.2499014E-009  0.3007715E+03  0.7561462E-02  0.1084856E+00
         -2   -1    0    0    0  501 -0.00000000000E+00  0.00000000000E+00  0.29551451891E+02  0.29551451891E+02  0.00000000000E+00 0. -1.
          2   -1    0    0  501    0  0.00000000000E+00 -0.00000000000E+00 -0.34779214098E+04  0.34779214098E+04  0.00000000000E+00 0.  1.
         25    2    1    2    0    0 -0.29191413493E+03  0.16521452142E+02 -0.21481991424E+04  0.21716109242E+04  0.12509048798E+03 0.  0.
          5    1    3    3  502    0 -0.28634924811E+03  0.12219699071E+02 -0.21426185802E+04  0.21617069795E+04  0.41800000000E+01 0. -1.
         -5    1    3    3    0  502 -0.55648868154E+01  0.43017530710E+01 -0.55805621977E+01  0.99039446280E+01  0.41800000000E+01 0. -1.
        -11    1    1    2    0    0  0.18582644880E+03  0.34499471366E+02 -0.79623937116E+03  0.81836350040E+03  0.00000000000E+00 0. -1.
         11    1    1    2    0    0  0.10608768613E+03 -0.51020923508E+02 -0.50393144443E+03  0.51749843717E+03  0.00000000000E+00 0.  1.
</event>
<event>
 7    1  0.2499014E-009  0.1089690E+03  0.7561462E-02  0.1262491E+00
          1   -1    0    0  501    0  0.00000000000E+00  0.00000000000E+00  0.37285257148E+03  0.37285257148E+03  0.00000000000E+00 0. -1.
         -1   -1    0    0    0  501 -0.00000000000E+00 -0.00000000000E+00 -0.32924357217E+02  0.32924357217E+02  0.00000000000E+00 0.  1.
         25    2    1    2    0    0  0.77970178712E+01  0.11069165295E+02  0.22231687351E+03  0.25545024460E+03  0.12508683108E+03 0.  0.
          5    1    3    3  502    0  0.18243103422E+02 -0.54747097613E+02  0.12082901823E+03  0.13396708389E+03  0.41800000000E+01 0. -1.
         -5    1    3    3    0  502 -0.10446085551E+02  0.65816262908E+02  0.10148785528E+03  0.12148316071E+03  0.41800000000E+01 0. -1.
        -11    1    1    2    0    0  0.42231979462E+02 -0.93281539582E+01  0.48388843854E+02  0.64900190717E+02  0.00000000000E+00 0.  1.
         11    1    1    2    0    0 -0.50028997333E+02 -0.17410113367E+01  0.69222496903E+02  0.85426493385E+02  0.00000000000E+00 0. -1.
</event>
<event>
 7    1  0.2499014E-009  0.1394130E+03  0.7561462E-02  0.1214121E+00
         -1   -1    0    0    0  501 -0.00000000000E+00  0.00000000000E+00  0.89648389604E+02  0.89648389604E+02  0.00000000000E+00 0.  1.
          1   -1    0    0  501    0  0.00000000000E+00 -0.00000000000E+00 -0.24252173308E+03  0.24252173308E+03  0.00000000000E+00 0. -1.
         25    2    1    2    0    0 -0.80475741257E+02  0.56085472379E+02 -0.63687371522E+02  0.17124259822E+03  0.12508405578E+03 0.  0.
          5    1    3    3  502    0 -0.78023157092E+02 -0.99061712910E+01 -0.69202611614E+02  0.10484378440E+03  0.41800000000E+01 0. -1.
         -5    1    3    3    0  502 -0.24525841650E+01  0.65991643670E+02  0.55152400923E+01  0.66398813819E+02  0.41800000000E+01 0. -1.
        -11    1    1    2    0    0  0.81614048810E+02 -0.39092911286E+01 -0.56709949785E+02  0.99459307884E+02  0.00000000000E+00 0.  1.
         11    1    1    2    0    0 -0.11383075530E+01 -0.52176181250E+02 -0.32476022165E+02  0.61468216581E+02  0.00000000000E+00 0. -1.
</event>
<event>
 7    1  0.2499014E-009  0.1079576E+03  0.7561462E-02  0.1264400E+00
         -1   -1    0    0    0  501 -0.00000000000E+00  0.00000000000E+00  0.18247201862E+02  0.18247201862E+02  0.00000000000E+00 0.  1.
          1   -1    0    0  501    0  0.00000000000E+00 -0.00000000000E+00 -0.11204762388E+04  0.11204762388E+04  0.00000000000E+00 0. -1.
         25    2    1    2    0    0  0.47383568095E+02 -0.21882861963E+02 -0.90714993478E+03  0.91722173624E+03  0.12510254627E+03 0.  0.
          5    1    3    3  502    0  0.65844287828E+02 -0.47993065773E+02 -0.36029789578E+03  0.36941961332E+03  0.41800000000E+01 0. -1.
         -5    1    3    3    0  502 -0.18460719733E+02  0.26110203810E+02 -0.54685203900E+03  0.54780212292E+03  0.41800000000E+01 0. -1.
        -11    1    1    2    0    0 -0.14052398337E+02  0.53996693095E+02 -0.13160982019E+03  0.14294844363E+03  0.00000000000E+00 0. -1.
         11    1    1    2    0    0 -0.33331169758E+02 -0.32113831132E+02 -0.63469281934E+02  0.78553260764E+02  0.00000000000E+00 0.  1.
</event>
<event>
 7    1  0.2499014E-009  0.8943466E+02  0.7561462E-02  0.1304227E+00
          1   -1    0    0  501    0  0.00000000000E+00  0.00000000000E+00  0.81040675743E+03  0.81040675743E+03  0.00000000000E+00 0. -1.
         -1   -1    0    0    0  501 -0.00000000000E+00 -0.00000000000E+00 -0.14559357392E+02  0.14559357392E+02  0.00000000000E+00 0.  1.
         25    2    1    2    0    0 -0.68553242555E+01  0.35362735491E+01  0.46949360311E+03  0.48593300164E+03  0.12508852073E+03 0.  0.
          5    1    3    3  502    0  0.24992969990E+02  0.36006672180E+02  0.40220208451E+03  0.40460489143E+03  0.41800000000E+01 0. -1.
         -5    1    3    3    0  502 -0.31848294245E+02 -0.32470398631E+02  0.67291518602E+02  0.81328110204E+02  0.41800000000E+01 0. -1.
        -11    1    1    2    0    0 -0.25467250133E+02  0.32151839029E+02  0.11030648900E+03  0.11768535634E+03  0.00000000000E+00 0.  1.
         11    1    1    2    0    0  0.32322574388E+02 -0.35688112578E+02  0.21604730793E+03  0.22134775684E+03  0.00000000000E+00 0. -1.
</event>
<event>
 7    1  0.2499014E-009  0.7544301E+02  0.7561462E-02  0.1342505E+00
          1   -1    0    0  501    0  0.00000000000E+00  0.00000000000E+00  0.12463507043E+03  0.12463507043E+03  0.00000000000E+00 0. -1.
         -1   -1    0    0    0  501 -0.00000000000E+00 -0.00000000000E+00 -0.10817950540E+03  0.10817950540E+03  0.00000000000E+00 0.  1.
         25    2    1    2    0    0 -0.13474375332E+02 -0.15165276975E+02  0.26142910005E+02  0.12937865222E+03  0.12507533526E+03 0.  0.
          5    1    3    3  502    0  0.23690220530E+02  0.24487198544E+02  0.57152095138E+02  0.66668461959E+02  0.41800000000E+01 0.  1.
         -5    1    3    3    0  502 -0.37164595862E+02 -0.39652475519E+02 -0.31009185133E+02  0.62710190264E+02  0.41800000000E+01 0.  1.
        -11    1    1    2    0    0  0.65721407509E+01 -0.22664504885E+02 -0.45265608251E+02  0.51047508324E+02  0.00000000000E+00 0.  1.
         11    1    1    2    0    0  0.69022345813E+01  0.37829781860E+02  0.35578263278E+02  0.52388415281E+02  0.00000000000E+00 0. -1.
</event>
<event>
 7    1  0.2499014E-009  0.1755224E+03  0.7561462E-02  0.1172208E+00
          4   -1    0    0  501    0  0.00000000000E+00  0.00000000000E+00  0.18451617663E+02  0.18451617663E+02  0.00000000000E+00 0. -1.
         -4   -1    0    0    0  501 -0.00000000000E+00 -0.00000000000E+00 -0.17530131863E+04  0.17530131863E+04  0.00000000000E+00 0.  1.
         25    2    1    2    0    0 -0.11541901080E+03  0.82837868061E+02 -0.10100519504E+04  0.10276361445E+04  0.12508973778E+03 0.  0.
          5    1    3    3  502    0 -0.13457088391E+03  0.37376445037E+02 -0.73469044740E+03  0.74785951043E+03  0.41800000000E+01 0. -1.
         -5    1    3    3    0  502  0.19151873108E+02  0.45461423024E+02 -0.27536150303E+03  0.27977663408E+03  0.41800000000E+01 0. -1.
        -11    1    1    2    0    0  0.91609527403E+02 -0.18840729659E+02 -0.51646171585E+03  0.52486186996E+03  0.00000000000E+00 0.  1.
         11    1    1    2    0    0  0.23809483394E+02 -0.63997138402E+02 -0.20804790238E+03  0.21896678951E+03  0.00000000000E+00 0. -1.
</event>
<event>
 7    1  0.2499014E-009  0.7393908E+02  0.7561462E-02  0.1347188E+00
          1   -1    0    0  501    0  0.00000000000E+00  0.00000000000E+00  0.77375936059E+03  0.77375936059E+03  0.00000000000E+00 0. -1.
         -1   -1    0    0    0  501 -0.00000000000E+00 -0.00000000000E+00 -0.36618686437E+02  0.36618686437E+02  0.00000000000E+00 0.  1.
         25    2    1    2    0    0 -0.44246370169E+02 -0.32127725721E+02  0.67167126558E+03  0.68540532011E+03  0.12509289265E+03 0.  0.
          5    1    3    3  502    0 -0.45209359960E+02  0.52561485867E+01  0.76989116240E+02  0.89533846926E+02  0.41800000000E+01 0.  1.
         -5    1    3    3    0  502  0.96298979072E+00 -0.37383874307E+02  0.59468214934E+03  0.59587147318E+03  0.41800000000E+01 0.  1.
        -11    1    1    2    0    0  0.21633278233E+02  0.35607769042E+02  0.85147840043E+02  0.94794865933E+02  0.00000000000E+00 0. -1.
         11    1    1    2    0    0  0.22613091936E+02 -0.34800433215E+01 -0.19678431473E+02  0.30177860985E+02  0.00000000000E+00 0.  1.
</event>
<event>
 7    1  0.2499014E-009  0.1110249E+03  0.7561462E-02  0.1258684E+00
         -2   -1    0    0    0  501 -0.00000000000E+00  0.00000000000E+00  0.19677489081E+02  0.19677489081E+02  0.00000000000E+00 0.  1.
          2   -1    0    0  501    0  0.00000000000E+00 -0.00000000000E+00 -0.82836406814E+03  0.82836406814E+03  0.00000000000E+00 0. -1.
         25    2    1    2    0    0  0.59505662365E+02  0.20999320109E+02 -0.61333467372E+03  0.62913357444E+03  0.12509091571E+03 0.  0.
          5    1    3    3  502    0  0.91899396334E+02  0.21187814283E+02 -0.31026540589E+03  0.32430929221E+03  0.41800000000E+01 0.  1.
         -5    1    3    3    0  502 -0.32393733969E+02 -0.18849417397E+00 -0.30306926783E+03  0.30482428223E+03  0.41800000000E+01 0.  1.
        -11    1    1    2    0    0  0.16435682234E+02 -0.10662692458E+01 -0.15291613825E+02  0.22474475166E+02  0.00000000000E+00 0.  1.
         11    1    1    2    0    0 -0.75941344599E+02 -0.19933050863E+02 -0.18006029151E+03  0.19643350762E+03  0.00000000000E+00 0. -1.
</event>
<event>
 7    1  0.2499014E-009  0.1172450E+03  0.7561462E-02  0.1247712E+00
         -2   -1    0    0    0  501 -0.00000000000E+00  0.00000000000E+00  0.41693029747E+02  0.41693029747E+02  0.00000000000E+00 0.  1.
          2   -1    0    0  501    0  0.00000000000E+00 -0.00000000000E+00 -0.52532511663E+03  0.52532511663E+03  0.00000000000E+00 0. -1.
         25    2    1    2    0    0  0.21067054490E+02  0.49727881873E+02 -0.42470063104E+03  0.44602327418E+03  0.12509777008E+03 0.  0.
          5    1    3    3  502    0  0.44736907405E+02 -0.28296679341E+02 -0.13593301382E+03  0.14593611476E+03  0.41800000000E+01 0.  1.
         -5    1    3    3    0  502 -0.23669852915E+02  0.78024561213E+02 -0.28876761723E+03  0.30008715942E+03  0.41800000000E+01 0.  1.
        -11    1    1    2    0    0  0.28569903757E+02  0.12479562446E+01  0.17462799988E-01  0.28597151964E+02  0.00000000000E+00 0.  1.
         11    1    1    2    0    0 -0.49636958247E+02 -0.50975838117E+02 -0.58948918639E+02  0.92397720234E+02  0.00000000000E+00 0. -1.
</event>
<event>
 7    1  0.2499014E-009  0.1068444E+03  0.7561462E-02  0.1266528E+00
          1   -1    0    0  501    0  0.00000000000E+00  0.00000000000E+00  0.19531640557E+03  0.19531640557E+03  0.00000000000E+00 0. -1.
         -1   -1    0    0    0  501 -0.00000000000E+00 -0.00000000000E+00 -0.95284940654E+02  0.95284940654E+02  0.00000000000E+00 0.  1.
         25    2    1    2    0    0  0.31242063856E+02  0.68390213616E+02  0.89537089889E+02  0.17121930725E+03  0.12508346349E+03 0.  0.
          5    1    3    3  502    0 -0.15999289529E+01  0.61849741563E+02  0.11383886131E+03  0.12963297824E+03  0.41800000000E+01 0.  1.
         -5    1    3    3    0  502  0.32841992808E+02  0.65404720527E+01 -0.24301771420E+02  0.41586329009E+02  0.41800000000E+01 0.  1.
        -11    1    1    2    0    0 -0.63409898221E+02 -0.50923316160E+02  0.14323353935E+02  0.82578191970E+02  0.00000000000E+00 0.  1.
         11    1    1    2    0    0  0.32167834365E+02 -0.17466897455E+02 -0.38289789095E+01  0.36803846999E+02  0.00000000000E+00 0. -1.
</event>
<event>
 7    1  0.2499014E-009  0.8698839E+02  0.7561462E-02  0.1310313E+00
         -2   -1    0    0    0  501 -0.00000000000E+00  0.00000000000E+00  0.20538641448E+02  0.20538641448E+02  0.00000000000E+00 0.  1.
          2   -1    0    0  501    0  0.00000000000E+00 -0.00000000000E+00 -0.67494861287E+03  0.67494861287E+03  0.00000000000E+00 0. -1.
         25    2    1    2    0    0 -0.39108531235E+01 -0.40407913391E+02 -0.41204077659E+03  0.43251928250E+03  0.12508890407E+03 0.  0.
          5    1    3    3  502    0 -0.44895403760E+02 -0.20934387622E+01 -0.32980954891E+03  0.33288404996E+03  0.41800000000E+01 0. -1.
         -5    1    3    3    0  502  0.40984550637E+02 -0.38314474628E+02 -0.82231227676E+02  0.99635232534E+02  0.41800000000E+01 0. -1.
        -11    1    1    2    0    0  0.31120839707E+02  0.12316259275E+02 -0.24151468882E+02  0.41273361333E+02  0.00000000000E+00 0.  1.
         11    1    1    2    0    0 -0.27209986583E+02  0.28091654115E+02 -0.21821772595E+03  0.22169461049E+03  0.00000000000E+00 0. -1.
</event>
<event>
 7    1  0.2499014E-009  0.7698911E+02  0.7561462E-02  0.1337820E+00
         -3   -1    0    0    0  501 -0.00000000000E+00  0.00000000000E+00  0.41382418552E+02  0.41382418552E+02  0.00000000000E+00 0.  1.
          3   -1    0    0  501    0  0.00000000000E+00 -0.00000000000E+00 -0.32852022232E+03  0.32852022232E+03  0.00000000000E+00 0. -1.
         25    2    1    2    0    0  0.21947865990E+02  0.19407281509E+02 -0.11195766207E+03  0.17041036422E+03  0.12508726050E+03 0.  0.
          5    1    3    3  502    0 -0.16220317833E+02 -0.72746694729E+01  0.21962219920E+02  0.28562756001E+02  0.41800000000E+01 0.  1.
         -5    1    3    3    0  502  0.38168183823E+02  0.26681950982E+02 -0.13391988199E+03  0.14184760822E+03  0.41800000000E+01 0.  1.
        -11    1    1    2    0    0 -0.20821145024E+02 -0.52173132405E+02 -0.72566850069E+02  0.91768750422E+02  0.00000000000E+00 0.  1.
         11    1    1    2    0    0 -0.11267209653E+01  0.32765850896E+02 -0.10261329163E+03  0.10772352623E+03  0.00000000000E+00 0. -1.
</event>
<event>
 7    1  0.2499014E-009  0.2574608E+03  0.7561462E-02  0.1108678E+00
         -1   -1    0    0    0  501 -0.00000000000E+00  0.00000000000E+00  0.11347915919E+03  0.11347915919E+03  0.00000000000E+00 0.  1.
          1   -1    0    0  501    0  0.00000000000E+00 -0.00000000000E+00 -0.69863429980E+03  0.69863429980E+03  0.00000000000E+00 0. -1.
         25    2    1    2    0    0 -0.34434228058E+02 -0.24584130526E+03 -0.40897721370E+03  0.49449997093E+03  0.12507676239E+03 0.  0.
          5    1    3    3  502    0 -0.35186530059E+02 -0.11029003649E+03 -0.29644006473E+03  0.31827058995E+03  0.41800000000E+01 0.  1.
         -5    1    3    3    0  502  0.75230200084E+00 -0.13555126877E+03 -0.11253714897E+03  0.17622938098E+03  0.41800000000E+01 0.  1.
        -11    1    1    2    0    0  0.64553024292E+02  0.16322704129E+03 -0.12892236417E+03  0.21778690488E+03  0.00000000000E+00 0.  1.
         11    1    1    2    0    0 -0.30118796234E+02  0.82614263970E+02 -0.47255562749E+02  0.99826583176E+02  0.00000000000E+00 0. -1.
</event>
<event>
 7    1  0.2499014E-009  0.9293111E+02  0.7561462E-02  0.1295905E+00
         -3   -1    0    0    0  501 -0.00000000000E+00  0.00000000000E+00  0.71069100069E+03  0.71069100069E+03  0.00000000000E+00 0.  1.
          3   -1    0    0  501    0  0.00000000000E+00 -0.00000000000E+00 -0.21845694874E+02  0.21845694874E+02  0.00000000000E+00 0. -1.
         25    2    1    2    0    0 -0.16263337596E+02 -0.52037296304E+02  0.29475439296E+03  0.32480701937E+03  0.12508825408E+03 0.  0.
          5    1    3    3  502    0 -0.42138145868E+02 -0.37465489363E+02  0.28873697773E+03  0.29422066708E+03  0.41800000000E+01 0.  1.
         -5    1    3    3    0  502  0.25874808271E+02 -0.14571806941E+02  0.60174152368E+01  0.30586352295E+02  0.41800000000E+01 0.  1.
        -11    1    1    2    0    0 -0.33816257827E+02  0.27391180092E+02  0.11174828205E+03  0.11992286930E+03  0.00000000000E+00 0.  1.
         11    1    1    2    0    0  0.50079595423E+02  0.24646116211E+02  0.28234263081E+03  0.28780680689E+03  0.00000000000E+00 0. -1.
</event>
<event>
 7    1  0.2499014E-009  0.4424232E+02  0.7561462E-02  0.1479128E+00
          2   -1    0    0  501    0  0.00000000000E+00  0.00000000000E+00  0.61225179371E+02  0.61225179371E+02  0.00000000000E+00 0. -1.
         -2   -1    0    0    0  501 -0.00000000000E+00 -0.00000000000E+00 -0.21812443336E+03  0.21812443336E+03  0.00000000000E+00 0.  1.
         25    2    1    2    0    0  0.17984932624E+02  0.15660774777E+02 -0.31071266258E+02  0.13107919571E+03  0.12509042447E+03 0.  0.
          5    1    3    3  502    0  0.32163612074E+00  0.39482424175E+01  0.48391260798E+02  0.48732726064E+02  0.41800000000E+01 0.  1.
         -5    1    3    3    0  502  0.17663296503E+02  0.11712532359E+02 -0.79462527056E+02  0.82346469649E+02  0.41800000000E+01 0.  1.
        -11    1    1    2    0    0 -0.37069748961E+02 -0.10437383907E+01 -0.11687611209E+03  0.12261843766E+03  0.00000000000E+00 0.  1.
         11    1    1    2    0    0  0.19084816337E+02 -0.14617036386E+02 -0.89518756448E+01  0.25651979357E+02  0.00000000000E+00 0. -1.
</event>
<event>
 7    1  0.2499014E-009  0.1305587E+03  0.7561462E-02  0.1226629E+00
          2   -1    0    0  501    0  0.00000000000E+00  0.00000000000E+00  0.71164136167E+03  0.71164136167E+03  0.00000000000E+00 0. -1.
         -2   -1    0    0    0  501 -0.00000000000E+00 -0.00000000000E+00 -0.30992168025E+02  0.30992168025E+02  0.00000000000E+00 0.  1.
         25    2    1    2    0    0 -0.10959262425E+03  0.86362609583E+01  0.51016603820E+03  0.53665832487E+03  0.12509053851E+03 0.  0.
          5    1    3    3  502    0 -0.12554535266E+03  0.20799156455E+02  0.49513813779E+03  0.51124699351E+03  0.41800000000E+01 0.  1.
         -5    1    3    3    0  502  0.15952728410E+02 -0.12162895497E+02  0.15027900414E+02  0.25411331359E+02  0.41800000000E+01 0.  1.
        -11    1    1    2    0    0  0.30703302119E+02 -0.14968613567E+02  0.71515737737E+02  0.79254355699E+02  0.00000000000E+00 0. -1.
         11    1    1    2    0    0  0.78889322128E+02  0.63323526082E+01  0.98967417706E+02  0.12672084912E+03  0.00000000000E+00 0.  1.
</event>
<event>
 7    1  0.2499014E-009  0.2116044E+03  0.7561462E-02  0.1140302E+00
          2   -1    0    0  501    0  0.00000000000E+00  0.00000000000E+00  0.79062207977E+02  0.79062207977E+02  0.00000000000E+00 0. -1.
         -2   -1    0    0    0  501 -0.00000000000E+00 -0.00000000000E+00 -0.65585897366E+03  0.65585897366E+03  0.00000000000E+00 0.  1.
         25    2    1    2    0    0 -0.14488517448E+03 -0.12596479047E+03 -0.20854761587E+03  0.30983411492E+03  0.12508488503E+03 0.  0.
          5    1    3    3  502    0  0.36845561594E+01 -0.61652807438E+02 -0.89573529477E+02  0.10888312175E+03  0.41800000000E+01 0. -1.
         -5    1    3    3    0  502 -0.14856973064E+03 -0.64311983028E+02 -0.11897408639E+03  0.20095099317E+03  0.41800000000E+01 0. -1.
        -11    1    1    2    0    0  0.33404890431E+02  0.63045015890E+02 -0.20853906229E+03  0.22040667239E+03  0.00000000000E+00 0. -1.
         11    1    1    2    0    0  0.11148028405E+03  0.62919774575E+02 -0.15971008752E+03  0.20468039432E+03  0.00000000000E+00 0.  1.
</event>
<event>
 7    1  0.2499014E-009  0.1129738E+03  0.7561462E-02  0.1255160E+00
         -1   -1    0    0    0  501 -0.00000000000E+00  0.00000000000E+00  0.15388641381E+02  0.15388641381E+02  0.00000000000E+00 0.  1.
          1   -1    0    0  501    0  0.00000000000E+00 -0.00000000000E+00 -0.14993717392E+04  0.14993717392E+04  0.00000000000E+00 0. -1.
         25    2    1    2    0    0  0.38775256782E+02  0.94214314452E+02 -0.95087495949E+03  0.96446346550E+03  0.12508689025E+03 0.  0.
          5    1    3    3  502    0  0.33016151822E+02  0.85573406451E+02 -0.30568825354E+03  0.31917965932E+03  0.41800000000E+01 0. -1.
         -5    1    3    3    0  502  0.57591049595E+01  0.86409080019E+01 -0.64518670595E+03  0.64528380618E+03  0.41800000000E+01 0. -1.
        -11    1    1    2    0    0  0.19736436622E+02 -0.16940876676E+02 -0.39721375936E+02  0.47479552856E+02  0.00000000000E+00 0.  1.
         11    1    1    2    0    0 -0.58511693404E+02 -0.77273437776E+02 -0.49338676238E+03  0.50281736222E+03  0.00000000000E+00 0. -1.
</event>
<event>
 7    1  0.2499014E-009  0.1117526E+03  0.7561462E-02  0.1257358E+00
         -1   -1    0    0    0  501 -0.00000000000E+00  0.00000000000E+00  0.28001786073E+02  0.28001786073E+02  0.00000000000E+00 0.  1.
          1   -1    0    0  501    0  0.00000000000E+00 -0.00000000000E+00 -0.76696053332E+03  0.76696053332E+03  0.00000000000E+00 0. -1.
         25    2    1    2    0    0  0.52373719635E+02 -0.63228461604E+02 -0.54123343929E+03  0.56153573703E+03  0.12509157960E+03 0.  0.
          5    1    3    3  502    0  0.84685462407E+02 -0.19930720200E+02 -0.41699911607E+03  0.42599835252E+03  0.41800000000E+01 0.  1.
         -5    1    3    3    0  502 -0.32311742772E+02 -0.43297741403E+02 -0.12423432322E+03  0.13553738451E+03  0.41800000000E+01 0.  1.
        -11    1    1    2    0    0 -0.29002379456E+02  0.38386755255E+02 -0.19410674374E+02  0.51879237395E+02  0.00000000000E+00 0.  1.
         11    1    1    2    0    0 -0.23371340178E+02  0.24841706349E+02 -0.17831463358E+03  0.18154734496E+03  0.00000000000E+00 0. -1.
</event>
<event>
 7    1  0.2499014E-009  0.1449725E+03  0.7561462E-02  0.1206790E+00
          4   -1    0    0  501    0  0.00000000000E+00  0.00000000000E+00  0.20038121921E+03  0.20038121921E+03  0.00000000000E+00 0. -1.
         -4   -1    0    0    0  501 -0.00000000000E+00 -0.00000000000E+00 -0.16834312432E+03  0.16834312432E+03  0.00000000000E+00 0.  1.
         25    2    1    2    0    0  0.13312700381E+03 -0.79804632177E+01 -0.47743465793E+02  0.18897943005E+03  0.12508916628E+03 0.  0.
          5    1    3    3  502    0  0.13724481287E+03 -0.17983061756E+01 -0.77737941783E+02  0.15779744155E+03  0.41800000000E+01 0. -1.
         -5    1    3    3    0  502 -0.41178090674E+01 -0.61821570421E+01  0.29994475990E+02  0.31181988505E+02  0.41800000000E+01 0. -1.
        -11    1    1    2    0    0 -0.10895912774E+03 -0.15914654733E+02  0.21376211821E+02  0.11217089723E+03  0.00000000000E+00 0.  1.
         11    1    1    2    0    0 -0.24167876063E+02  0.23895117951E+02  0.58405348871E+02  0.67574016249E+02  0.00000000000E+00 0. -1.
</event>
<event>
 7    1  0.2499014E-009  0.1120808E+03  0.7561462E-02  0.1256764E+00
          2   -1    0    0  501    0  0.00000000000E+00  0.00000000000E+00  0.17177997329E+03  0.17177997329E+03  0.00000000000E+00 0. -1.
         -2   -1    0    0    0  501 -0.00000000000E+00 -0.00000000000E+00 -0.11701519623E+03  0.11701519623E+03  0.00000000000E+00 0.  1.
         25    2    1    2    0    0  0.89328689076E+02  0.31330806135E+01  0.20295744997E+02  0.15507502070E+03  0.12508762486E+03 0.  0.
          5    1    3    3  502    0  0.17605451865E+02  0.19310041535E+02 -0.47888098659E+02  0.54713545239E+02  0.41800000000E+01 0. -1.
         -5    1    3    3    0  502  0.71723237210E+02 -0.16176960921E+02  0.68183843656E+02  0.10036147546E+03  0.41800000000E+01 0. -1.
        -11    1    1    2    0    0 -0.39829250319E+02 -0.44373380742E+02 -0.20499372061E+01  0.59662118148E+02  0.00000000000E+00 0.  1.
         11    1    1    2    0    0 -0.49499438757E+02  0.41240300128E+02  0.36518969268E+02  0.74058030681E+02  0.00000000000E+00 0. -1.
</event>
<event>
 7    1  0.2499014E-009  0.1051374E+03  0.7561462E-02  0.1269849E+00
         -1   -1    0    0    0  501 -0.00000000000E+00  0.00000000000E+00  0.88992476806E+02  0.88992476806E+02  0.00000000000E+00 0.  1.
          1   -1    0    0  501    0  0.00000000000E+00 -0.00000000000E+00 -0.18888231567E+03  0.18888231567E+03  0.00000000000E+00 0. -1.
         25    2    1    2    0    0 -0.17060647193E+02  0.17837781606E+02  0.15282079653E+02  0.12841428225E+03  0.12508970298E+03 0.  0.
          5    1    3    3  502    0  0.71057270163E+01  0.63049264507E+02  0.35877169846E+02  0.73009210566E+02  0.41800000000E+01 0. -1.
         -5    1    3    3    0  502 -0.24166374209E+02 -0.45211482902E+02 -0.20595090193E+02  0.55405071687E+02  0.41800000000E+01 0. -1.
        -11    1    1    2    0    0 -0.37052590556E+02  0.32098823073E+01 -0.44383184279E+02  0.57905654802E+02  0.00000000000E+00 0.  1.
         11    1    1    2    0    0  0.54113237749E+02 -0.21047663913E+02 -0.70788734233E+02  0.91554855416E+02  0.00000000000E+00 0. -1.
</event>
<event>
 7    1  0.2499014E-009  0.1324139E+03  0.7561462E-02  0.1223917E+00
         -2   -1    0    0    0  501 -0.00000000000E+00  0.00000000000E+00  0.16785893859E+03  0.16785893859E+03  0.00000000000E+00 0.  1.
          2   -1    0    0  501    0  0.00000000000E+00 -0.00000000000E+00 -0.12629091698E+03  0.12629091698E+03  0.00000000000E+00 0. -1.
         25    2    1    2    0    0 -0.39334982691E+02 -0.73965030456E+02  0.58321507021E+02  0.16145536115E+03  0.12509344056E+03 0.  0.
          5    1    3    3  502    0  0.14690407093E+02 -0.81682392784E+02  0.22935712208E+01  0.83129743296E+02  0.41800000000E+01 0.  1.
         -5    1    3    3    0  502 -0.54025389784E+02  0.77173623276E+01  0.56027935800E+02  0.78325617857E+02  0.41800000000E+01 0.  1.
        -11    1    1    2    0    0  0.26833759725E+02  0.97078236186E+02  0.14479450660E+01  0.10072899854E+03  0.00000000000E+00 0.  1.
         11    1    1    2    0    0  0.12501222966E+02 -0.23113205730E+02 -0.18201430480E+02  0.31965495871E+02  0.00000000000E+00 0. -1.
</event>
<event>
 7    1  0.2499014E-009  0.1181710E+03  0.7561462E-02  0.1246145E+00
          1   -1    0    0  501    0  0.00000000000E+00  0.00000000000E+00  0.43415097605E+03  0.43415097605E+03  0.00000000000E+00 0. -1.
         -1   -1    0    0    0  501 -0.00000000000E+00 -0.00000000000E+00 -0.46024043263E+02  0.46024043263E+02  0.00000000000E+00 0.  1.
         25    2    1    2    0    0 -0.52949488457E+02 -0.45417861985E+02  0.16282686345E+03  0.21685987261E+03  0.12509670809E+03 0.  0.
          5    1    3    3  502    0  0.35782448774E+01  0.24418579644E+02 -0.58457015544E+01  0.25704386686E+02  0.41800000000E+01 0.  1.
         -5    1    3    3    0  502 -0.56527733334E+02 -0.69836441629E+02  0.16867256501E+03  0.19115548593E+03  0.41800000000E+01 0.  1.
        -11    1    1    2    0    0  0.13363171004E+02 -0.31854828876E+02  0.18852789062E+02  0.39353933951E+02  0.00000000000E+00 0.  1.
         11    1    1    2    0    0  0.39586317453E+02  0.77272690862E+02  0.20644728027E+03  0.22396121274E+03  0.00000000000E+00 0. -1.
</event>
<event>
 7    1  0.2499014E-009  0.8673701E+02  0.7561462E-02  0.1310952E+00
         -1   -1    0    0    0  501 -0.00000000000E+00  0.00000000000E+00  0.19278331647E+03  0.19278331647E+03  0.00000000000E+00 0.  1.
          1   -1    0    0  501    0  0.00000000000E+00 -0.00000000000E+00 -0.62078461398E+02  0.62078461398E+02  0.00000000000E+00 0. -1.
         25    2    1    2    0    0  0.67969728682E+01  0.25202697399E+01  0.60490495428E+02  0.13913352021E+03  0.12508591371E+03 0.  0.
          5    1    3    3  502    0  0.15012572540E+02  0.46041478895E+02 -0.15551472074E+02  0.51034456956E+02  0.41800000000E+01 0. -1.
         -5    1    3    3    0  502 -0.82155996718E+01 -0.43521209155E+02  0.76041967502E+02  0.88099063252E+02  0.41800000000E+01 0. -1.
        -11    1    1    2    0    0 -0.35591914982E+02  0.22605758542E+02  0.83057830709E+01  0.42974303528E+02  0.00000000000E+00 0. -1.
         11    1    1    2    0    0  0.28794942114E+02 -0.25126028281E+02  0.61908576571E+02  0.72753954131E+02  0.00000000000E+00 0.  1.
</event>
<event>
 7    1  0.2499014E-009  0.1063116E+03  0.7561462E-02  0.1267557E+00
         -3   -1    0    0    0  501 -0.00000000000E+00  0.00000000000E+00  0.14196293935E+03  0.14196293935E+03  0.00000000000E+00 0.  1.
          3   -1    0    0  501    0  0.00000000000E+00 -0.00000000000E+00 -0.17957818190E+03  0.17957818190E+03  0.00000000000E+00 0. -1.
         25    2    1    2    0    0 -0.40775425826E+02 -0.27282282026E+02 -0.12712935858E+03  0.18497051960E+03  0.12508101793E+03 0.  0.
          5    1    3    3  502    0 -0.47151487480E+02 -0.73537320535E+02 -0.81096833667E+02  0.11926931338E+03  0.41800000000E+01 0. -1.
         -5    1    3    3    0  502  0.63760616537E+01  0.46255038509E+02 -0.46032524910E+02  0.65701206224E+02  0.41800000000E+01 0. -1.
        -11    1    1    2    0    0  0.19985423083E+00  0.36645967428E+02  0.87517986755E+02  0.94880792978E+02  0.00000000000E+00 0.  1.
         11    1    1    2    0    0  0.40575571595E+02 -0.93636854027E+01  0.19961292758E+01  0.41689808667E+02  0.00000000000E+00 0. -1.
</event>
<event>
 7    1  0.2499014E-009  0.9008136E+02  0.7561462E-02  0.1302655E+00
         -1   -1    0    0    0  501 -0.00000000000E+00  0.00000000000E+00  0.87589523410E+02  0.87589523410E+02  0.00000000000E+00 0.  1.
          1   -1    0    0  501    0  0.00000000000E+00 -0.00000000000E+00 -0.17312637245E+03  0.17312637245E+03  0.00000000000E+00 0. -1.
         25    2    1    2    0    0 -0.49977134150E+02  0.24672378909E+02 -0.33824838221E+02  0.14106047192E+03  0.12508995499E+03 0.  0.
          5    1    3    3  502    0  0.27848940527E+02  0.22863818345E+02  0.24435687239E+02  0.43736630970E+02  0.41800000000E+01 0.  1.
         -5    1    3    3    0  502 -0.77826074676E+02  0.18085605647E+01 -0.58260525460E+02  0.97323840952E+02  0.41800000000E+01 0.  1.
        -11    1    1    2    0    0  0.90364163282E+01 -0.23272194978E+02 -0.70351312332E+02  0.74649574855E+02  0.00000000000E+00 0. -1.
         11    1    1    2    0    0  0.40940717821E+02 -0.14001839311E+01  0.18639301512E+02  0.45005849083E+02  0.00000000000E+00 0.  1.
</event>
<event>
 7    1  0.2499014E-009  0.6855442E+02  0.7561462E-02  0.1365079E+00
         -3   -1    0    0    0  501 -0.00000000000E+00  0.00000000000E+00  0.61854737277E+03  0.61854737277E+03  0.00000000000E+00 0.  1.
          3   -1    0    0  501    0  0.00000000000E+00 -0.00000000000E+00 -0.31867735206E+02  0.31867735206E+02  0.00000000000E+00 0. -1.
         25    2    1    2    0    0 -0.35317443113E+02 -0.55952201548E+02  0.32184740084E+03  0.35158409020E+03  0.12509057680E+03 0.  0.
          5    1    3    3  502    0 -0.63681086748E+01 -0.35527159222E+01 -0.10733276362E+02  0.13632689389E+02  0.41800000000E+01 0.  1.
         -5    1    3    3    0  502 -0.28949334438E+02 -0.52399485625E+02  0.33258067720E+03  0.33795140081E+03  0.41800000000E+01 0.  1.
        -11    1    1    2    0    0 -0.73019192677E+00  0.11222037741E+02 -0.11797778240E+02  0.16298922747E+02  0.00000000000E+00 0. -1.
         11    1    1    2    0    0  0.36047635040E+02  0.44730163807E+02  0.27663001496E+03  0.28253209503E+03  0.00000000000E+00 0.  1.
</event>
<event>
 7    1  0.2499014E-009  0.8425926E+02  0.7561462E-02  0.1317381E+00
          1   -1    0    0  501    0  0.00000000000E+00  0.00000000000E+00  0.44734251793E+02  0.44734251793E+02  0.00000000000E+00 0. -1.
         -1   -1    0    0    0  501 -0.00000000000E+00 -0.00000000000E+00 -0.30726861640E+03  0.30726861640E+03  0.00000000000E+00 0.  1.
         25    2    1    2    0    0  0.52550842857E+01 -0.39524847017E+02 -0.12772693414E+03  0.18317079111E+03  0.12509012578E+03 0.  0.
          5    1    3    3  502    0  0.35220696390E+02 -0.41081959808E+02 -0.25005906106E+01  0.54331852806E+02  0.41800000000E+01 0.  1.
         -5    1    3    3    0  502 -0.29965612104E+02  0.15571127915E+01 -0.12522634353E+03  0.12883893830E+03  0.41800000000E+01 0.  1.
        -11    1    1    2    0    0  0.24742678110E+02  0.46927472212E+02 -0.12598588443E+03  0.13669978363E+03  0.00000000000E+00 0.  1.
         11    1    1    2    0    0 -0.29997762395E+02 -0.74026251953E+01 -0.88215460392E+01  0.32132293461E+02  0.00000000000E+00 0. -1.
</event>
<event>
 7    1  0.2499014E-009  0.1132719E+03  0.7561462E-02  0.1254628E+00
         -1   -1    0    0    0  501 -0.00000000000E+00  0.00000000000E+00  0.10589745630E+03  0.10589745630E+03  0.00000000000E+00 0.  1.
          1   -1    0    0  501    0  0.00000000000E+00 -0.00000000000E+00 -0.17050815759E+03  0.17050815759E+03  0.00000000000E+00 0. -1.
         25    2    1    2    0    0 -0.76625822452E+02  0.52936285350E+01 -0.49370155040E+01  0.14686321323E+03  0.12507953513E+03 0.  0.
          5    1    3    3  502    0 -0.10812920946E+03  0.21379803609E+02 -0.10548476489E+02  0.11080507523E+03  0.41800000000E+01 0.  1.
         -5    1    3    3    0  502  0.31503387007E+02 -0.16086175074E+02  0.56114609849E+01  0.36058137997E+02  0.41800000000E+01 0.  1.
        -11    1    1    2    0    0  0.53915344631E+02  0.76934052436E+01  0.97730050498E+01  0.55331406079E+02  0.00000000000E+00 0.  1.
         11    1    1    2    0    0  0.22710477820E+02 -0.12987033779E+02 -0.69446690833E+02  0.74210994582E+02  0.00000000000E+00 0. -1.
</event>
<event>
 7    1  0.2499014E-009  0.1789931E+03  0.7561462E-02  0.1168781E+00
          1   -1    0    0  501    0  0.00000000000E+00  0.00000000000E+00  0.65787391094E+03  0.65787391094E+03  0.00000000000E+00 0. -1.
         -1   -1    0    0    0  501 -0.00000000000E+00 -0.00000000000E+00 -0.63097757354E+02  0.63097757354E+02  0.00000000000E+00 0.  1.
         25    2    1    2    0    0  0.11835459457E+03  0.11828775731E+03  0.23711001038E+03  0.31601734861E+03  0.12508398785E+03 0.  0.
          5    1    3    3  502    0  0.29778860960E+02  0.38033147621E+02 -0.21478080245E+01  0.48532322810E+02  0.41800000000E+01 0.  1.
         -5    1    3    3    0  502  0.88575733608E+02  0.80254609689E+02  0.23925781840E+03  0.26748502580E+03  0.41800000000E+01 0.  1.
        -11    1    1    2    0    0 -0.10478451556E+03 -0.42773582811E+02  0.21340838673E+03  0.24156264946E+03  0.00000000000E+00 0. -1.
         11    1    1    2    0    0 -0.13570079008E+02 -0.75514174499E+02  0.14425775647E+03  0.16339167022E+03  0.00000000000E+00 0.  1.
</event>
<event>
 7    1  0.2499014E-009  0.6095178E+02  0.7561462E-02  0.1393880E+00
         -1   -1    0    0    0  501 -0.00000000000E+00  0.00000000000E+00  0.21937947928E+03  0.21937947928E+03  0.00000000000E+00 0.  1.
          1   -1    0    0  501    0  0.00000000000E+00 -0.00000000000E+00 -0.74643850667E+02  0.74643850667E+02  0.00000000000E+00 0. -1.
         25    2    1    2    0    0 -0.60248233462E+01 -0.12014920080E+02  0.54757534443E+01  0.12593839407E+03  0.12509931425E+03 0.  0.
          5    1    3    3  502    0  0.71209365159E-01  0.66348730085E+01 -0.58432020510E+02  0.58955916001E+02  0.41800000000E+01 0.  1.
         -5    1    3    3    0  502 -0.60960327113E+01 -0.18649793088E+02  0.63907773955E+02  0.66982478074E+02  0.41800000000E+01 0.  1.
        -11    1    1    2    0    0  0.45159723027E+02  0.26394232979E+02  0.73200856522E+02  0.89969003073E+02  0.00000000000E+00 0. -1.
         11    1    1    2    0    0 -0.39134899680E+02 -0.14379312900E+02  0.66059018651E+02  0.78115932803E+02  0.00000000000E+00 0.  1.
</event>
<event>
 7    1  0.2499014E-009  0.8766754E+02  0.7561462E-02  0.1308600E+00
         -1   -1    0    0    0  501 -0.00000000000E+00  0.00000000000E+00  0.22423798373E+03  0.22423798373E+03  0.00000000000E+00 0.  1.
          1   -1    0    0  501    0  0.00000000000E+00 -0.00000000000E+00 -0.91215918036E+02  0.91215918036E+02  0.00000000000E+00 0. -1.
         25    2    1    2    0    0  0.65747017709E+02 -0.53823597756E+02  0.11323192049E+03  0.18891444313E+03  0.12509016345E+03 0.  0.
          5    1    3    3  502    0  0.45095109814E+02 -0.52381070339E+02  0.13918228832E+03  0.15545586911E+03  0.41800000000E+01 0.  1.
         -5    1    3    3    0  502  0.20651907895E+02 -0.14425274165E+01 -0.25950367829E+02  0.33458574021E+02  0.41800000000E+01 0.  1.
        -11    1    1    2    0    0 -0.15880537136E+02  0.13318666231E+02 -0.35942203127E+02  0.41490002356E+02  0.00000000000E+00 0. -1.
         11    1    1    2    0    0 -0.49866480573E+02  0.40504931525E+02  0.55732348329E+02  0.85049456276E+02  0.00000000000E+00 0.  1.
</event>
