<event>
 7    1  0.6992302E-006  0.9519223E+02  0.7561462E-02  0.1290744E+00
          2   -1    0    0  501    0  0.00000000000E+00  0.00000000000E+00  0.84018770701E+02  0.84018770701E+02  0.00000000000E+00 0. -1.
         -2   -1    0    0    0  501 -0.00000000000E+00 -0.00000000000E+00 -0.16782216080E+03  0.16782216080E+03  0.00000000000E+00 0.  1.
         23    2    1    2    0    0  0.11451953938E+02 -0.24498211546E+02 -0.91769883354E+02  0.15728222454E+03  0.12483860400E+03 0.  0.
          5    1    3    3  502    0  0.60035854940E+02 -0.35361259202E+02 -0.79586531081E+02  0.10585939193E+03  0.41800000000E+01 0. -1.
         -5    1    3    3    0  502 -0.48583901001E+02  0.10863047656E+02 -0.12183352273E+02  0.51422832609E+02  0.41800000000E+01 0. -1.
        -11    1    1    2    0    0 -0.37835197803E+02  0.22828265555E+02  0.35281645580E+02  0.56545790434E+02  0.00000000000E+00 0. -1.
         11    1    1    2    0    0  0.26383243864E+02  0.16699459908E+01 -0.27315152328E+02  0.38012916530E+02  0.00000000000E+00 0.  1.
</event>
<event>
 7    1  0.6992302E-006  0.8118213E+02  0.7561462E-02  0.1325730E+00
         -2   -1    0    0    0  501 -0.00000000000E+00  0.00000000000E+00  0.16068417591E+03  0.16068417591E+03  0.00000000000E+00 0.  1.
          2   -1    0    0  501    0  0.00000000000E+00 -0.00000000000E+00 -0.92106265432E+02  0.92106265432E+02  0.00000000000E+00 0. -1.
         23    2    1    2    0    0 -0.30582986806E+01 -0.41541476702E+02  0.79000610065E+02  0.15371008257E+03  0.12510254041E+03 0.  0.
          5    1    3    3  502    0 -0.48569177541E+02 -0.15875975371E+02 -0.82472705646E+01  0.51927848721E+02  0.41800000000E+01 0. -1.
         -5    1    3    3    0  502  0.45510878860E+02 -0.25665501331E+02  0.87247880629E+02  0.10178223385E+03  0.41800000000E+01 0. -1.
        -11    1    1    2    0    0  0.22089358742E+02  0.18642784501E+02  0.34611153406E+02  0.45093515317E+02  0.00000000000E+00 0.  1.
         11    1    1    2    0    0 -0.19031060061E+02  0.22898692201E+02 -0.45033852989E+02  0.53986843458E+02  0.00000000000E+00 0. -1.
</event>
<event>
 7    1  0.6992302E-006  0.1741163E+03  0.7561462E-02  0.1173622E+00
          2   -1    0    0  501    0  0.00000000000E+00  0.00000000000E+00  0.62674284352E+03  0.62674284352E+03  0.00000000000E+00 0. -1.
         -2   -1    0    0    0  501 -0.00000000000E+00 -0.00000000000E+00 -0.61244350312E+02  0.61244350312E+02  0.00000000000E+00 0.  1.
         23    2    1    2    0    0  0.67534686440E+01 -0.15836664732E+03  0.21379459897E+03  0.29407405244E+03  0.12508322608E+03 0.  0.
          5    1    3    3  502    0  0.37660560380E+02 -0.15334891005E+03  0.20922163609E+03  0.26215524300E+03  0.41800000000E+01 0. -1.
         -5    1    3    3    0  502 -0.30907091736E+02 -0.50177372731E+01  0.45729628794E+01  0.31918809445E+02  0.41800000000E+01 0. -1.
        -11    1    1    2    0    0  0.39891681156E-01  0.85359474650E+02  0.98662853575E+02  0.13046302227E+03  0.00000000000E+00 0. -1.
         11    1    1    2    0    0 -0.67933603252E+01  0.73007172675E+02  0.25304104066E+03  0.26345011912E+03  0.00000000000E+00 0.  1.
</event>
<event>
 7    1  0.6992302E-006  0.1087978E+03  0.7561462E-02  0.1262812E+00
         -3   -1    0    0    0  501 -0.00000000000E+00  0.00000000000E+00  0.38594167502E+02  0.38594167502E+02  0.00000000000E+00 0.  1.
          3   -1    0    0  501    0  0.00000000000E+00 -0.00000000000E+00 -0.32736501259E+03  0.32736501259E+03  0.00000000000E+00 0. -1.
         23    2    1    2    0    0 -0.17051374527E+02  0.29220553175E+02 -0.17439490120E+03  0.21726852842E+03  0.12508973490E+03 0.  0.
          5    1    3    3  502    0  0.38651671912E+02  0.52330946760E+02 -0.11685953436E+03  0.13381368727E+03  0.41800000000E+01 0. -1.
         -5    1    3    3    0  502 -0.55703046439E+02 -0.23110393585E+02 -0.57535366833E+02  0.83454841147E+02  0.41800000000E+01 0. -1.
        -11    1    1    2    0    0 -0.29360685706E+02  0.10175997018E+02 -0.57592884302E+02  0.65441126997E+02  0.00000000000E+00 0. -1.
         11    1    1    2    0    0  0.46412060233E+02 -0.39396550193E+02 -0.56783059591E+02  0.83249524676E+02  0.00000000000E+00 0.  1.
</event>
<event>
 7    1  0.6992302E-006  0.7595121E+02  0.7561462E-02  0.1340950E+00
         -3   -1    0    0    0  501 -0.00000000000E+00  0.00000000000E+00  0.89408796802E+02  0.89408796802E+02  0.00000000000E+00 0.  1.
          3   -1    0    0  501    0  0.00000000000E+00 -0.00000000000E+00 -0.13227855177E+03  0.13227855177E+03  0.00000000000E+00 0. -1.
         23    2    1    2    0    0 -0.70739752314E+01  0.46035017907E+02 -0.25451796384E+02  0.13590935777E+03  0.12511712749E+03 0.  0.
          5    1    3    3  502    0  0.10934480349E+02 -0.70961453155E+01  0.44260908732E+02  0.46329456943E+02  0.41800000000E+01 0.  1.
         -5    1    3    3    0  502 -0.18008455580E+02  0.53131163223E+02 -0.69712705116E+02  0.89579900828E+02  0.41800000000E+01 0.  1.
        -11    1    1    2    0    0  0.16221657226E+02  0.13879389339E+02 -0.13028743277E+02  0.25010553031E+02  0.00000000000E+00 0.  1.
         11    1    1    2    0    0 -0.91476819942E+01 -0.59914407246E+02 -0.43892153031E+01  0.60767437765E+02  0.00000000000E+00 0. -1.
</event>
<event>
 7    1  0.6992302E-006  0.1548136E+03  0.7561462E-02  0.1194680E+00
         -4   -1    0    0    0  501 -0.00000000000E+00  0.00000000000E+00  0.57909776676E+03  0.57909776676E+03  0.00000000000E+00 0. -1.
          4   -1    0    0  501    0  0.00000000000E+00 -0.00000000000E+00 -0.54082620977E+02  0.54082620977E+02  0.00000000000E+00 0.  1.
         23    2    1    2    0    0 -0.11779197347E+03  0.17834615741E+02  0.40111824863E+03  0.43673359294E+03  0.12508940518E+03 0.  0.
          5    1    3    3  502    0 -0.13872549399E+03  0.12060358931E+02  0.27059935448E+03  0.30435455966E+03  0.41800000000E+01 0.  1.
         -5    1    3    3    0  502  0.20933520522E+02  0.57742568098E+01  0.13051889414E+03  0.13237903328E+03  0.41800000000E+01 0.  1.
        -11    1    1    2    0    0  0.97974789183E+02 -0.50325569205E+02  0.70136077405E+02  0.13057867967E+03  0.00000000000E+00 0.  1.
         11    1    1    2    0    0  0.19817184283E+02  0.32490953464E+02  0.53760819752E+02  0.65868115126E+02  0.00000000000E+00 0. -1.
</event>
<event>
 7    1  0.6992302E-006  0.3070150E+03  0.7561462E-02  0.1081786E+00
         -1   -1    0    0    0  501 -0.00000000000E+00  0.00000000000E+00  0.14947516629E+03  0.14947516629E+03  0.00000000000E+00 0.  1.
          1   -1    0    0  501    0  0.00000000000E+00 -0.00000000000E+00 -0.77304994875E+03  0.77304994875E+03  0.00000000000E+00 0. -1.
         23    2    1    2    0    0 -0.21108158772E+03 -0.20052591595E+03 -0.12996572448E+03  0.34246029267E+03  0.12498753088E+03 0.  0.
          5    1    3    3  502    0 -0.11181136691E+03 -0.24244155056E+02 -0.46763161218E+02  0.12366821124E+03  0.41800000000E+01 0.  1.
         -5    1    3    3    0  502 -0.99270220807E+02 -0.17628176089E+03 -0.83202563262E+02  0.21879208143E+03  0.41800000000E+01 0.  1.
        -11    1    1    2    0    0  0.16924575908E+03  0.12342755467E+03 -0.28444957744E+03  0.35325635214E+03  0.00000000000E+00 0.  1.
         11    1    1    2    0    0  0.41835828641E+02  0.77098361279E+02 -0.20915948053E+03  0.22680847022E+03  0.00000000000E+00 0. -1.
</event>
<event>
 7    1  0.6992302E-006  0.1362881E+03  0.7561462E-02  0.1218413E+00
         -3   -1    0    0    0  501 -0.00000000000E+00  0.00000000000E+00  0.54868499220E+02  0.54868499220E+02  0.00000000000E+00 0.  1.
          3   -1    0    0  501    0  0.00000000000E+00 -0.00000000000E+00 -0.66437521883E+03  0.66437521883E+03  0.00000000000E+00 0. -1.
         23    2    1    2    0    0 -0.10164558338E+03  0.56572282005E+01 -0.94691672414E+02  0.18702307169E+03  0.12508911890E+03 0.  0.
          5    1    3    3  502    0 -0.21107201853E+02  0.47124899365E+02  0.52520717426E+01  0.52070402032E+02  0.41800000000E+01 0. -1.
         -5    1    3    3    0  502 -0.80538381527E+02 -0.41467671165E+02 -0.99943744157E+02  0.13495266965E+03  0.41800000000E+01 0. -1.
        -11    1    1    2    0    0  0.68707026879E+02  0.35529669485E+02 -0.23271021629E+03  0.24522858260E+03  0.00000000000E+00 0.  1.
         11    1    1    2    0    0  0.32938556501E+02 -0.41186897685E+02 -0.28210483090E+03  0.28699206376E+03  0.00000000000E+00 0. -1.
</event>
<event>
 7    1  0.6992302E-006  0.1548977E+03  0.7561462E-02  0.1194581E+00
         -2   -1    0    0    0  501 -0.00000000000E+00  0.00000000000E+00  0.56672446264E+02  0.56672446264E+02  0.00000000000E+00 0.  1.
          2   -1    0    0  501    0  0.00000000000E+00 -0.00000000000E+00 -0.58935953247E+03  0.58935953247E+03  0.00000000000E+00 0. -1.
         23    2    1    2    0    0 -0.18925316760E+01 -0.14741616615E+03 -0.28538144745E+03  0.34471597514E+03  0.12510565634E+03 0.  0.
          5    1    3    3  502    0 -0.72021207830E+01 -0.14596400370E+03 -0.15108418295E+03  0.21024096570E+03  0.41800000000E+01 0. -1.
         -5    1    3    3    0  502  0.53095891070E+01 -0.14521624517E+01 -0.13429726450E+03  0.13447500944E+03  0.41800000000E+01 0. -1.
        -11    1    1    2    0    0 -0.21195199832E+02  0.28344164081E+02 -0.12155889092E+03  0.12660644571E+03  0.00000000000E+00 0. -1.
         11    1    1    2    0    0  0.23087731508E+02  0.11907200207E+03 -0.12574674783E+03  0.17470955788E+03  0.00000000000E+00 0.  1.
</event>
<event>
 7    1  0.6992302E-006  0.1267801E+03  0.7561462E-02  0.1232313E+00
         -1   -1    0    0    0  501 -0.00000000000E+00  0.00000000000E+00  0.12874752415E+04  0.12874752415E+04  0.00000000000E+00 0.  1.
          1   -1    0    0  501    0  0.00000000000E+00 -0.00000000000E+00 -0.18935647221E+02  0.18935647221E+02  0.00000000000E+00 0. -1.
         23    2    1    2    0    0  0.55691113141E+02 -0.48937466621E+02  0.10347007933E+04  0.10448692012E+04  0.12509812246E+03 0.  0.
          5    1    3    3  502    0  0.46265404906E+02  0.35071279792E+02  0.32879468239E+03  0.33390701988E+03  0.41800000000E+01 0. -1.
         -5    1    3    3    0  502  0.94257082346E+01 -0.84008746413E+02  0.70590611095E+03  0.71096218136E+03  0.41800000000E+01 0. -1.
        -11    1    1    2    0    0  0.11301973697E+02 -0.14545991412E+02  0.14069847107E+02  0.23179324262E+02  0.00000000000E+00 0. -1.
         11    1    1    2    0    0 -0.66993086838E+02  0.63483458033E+02  0.21976895378E+03  0.23836236317E+03  0.00000000000E+00 0.  1.
</event>
<event>
 7    1  0.6992302E-006  0.1300975E+03  0.7561462E-02  0.1227311E+00
         -2   -1    0    0    0  501 -0.00000000000E+00  0.00000000000E+00  0.70270663863E+03  0.70270663863E+03  0.00000000000E+00 0. -1.
          2   -1    0    0  501    0  0.00000000000E+00 -0.00000000000E+00 -0.50835945321E+02  0.50835945321E+02  0.00000000000E+00 0.  1.
         23    2    1    2    0    0 -0.69221234556E+02  0.66440244628E+02  0.58149645072E+03  0.60248749613E+03  0.12508867006E+03 0.  0.
          5    1    3    3  502    0 -0.74368066874E+02 -0.14961047756E+02  0.27795631343E+03  0.28815208987E+03  0.41800000000E+01 0.  1.
         -5    1    3    3    0  502  0.51468323173E+01  0.81401292384E+02  0.30354013729E+03  0.31433540626E+03  0.41800000000E+01 0.  1.
        -11    1    1    2    0    0  0.12283345562E+02  0.31059152815E+01 -0.19948151108E+02  0.23631674095E+02  0.00000000000E+00 0.  1.
         11    1    1    2    0    0  0.56937888994E+02 -0.69546159910E+02  0.90322393693E+02  0.12742341372E+03  0.00000000000E+00 0. -1.
</event>
<event>
 7    1  0.6992302E-006  0.1107809E+03  0.7561462E-02  0.1259131E+00
         -1   -1    0    0    0  501 -0.00000000000E+00  0.00000000000E+00  0.15371902166E+03  0.15371902166E+03  0.00000000000E+00 0. -1.
          1   -1    0    0  501    0  0.00000000000E+00 -0.00000000000E+00 -0.18542127761E+03  0.18542127761E+03  0.00000000000E+00 0.  1.
         23    2    1    2    0    0  0.40366011883E+02  0.56148738531E+02  0.91978889435E+02  0.16991669245E+03  0.12501788079E+03 0.  0.
          5    1    3    3  502    0  0.57457369869E+02  0.12011550314E+02 -0.78378787754E+01  0.59367764291E+02  0.41800000000E+01 0.  1.
         -5    1    3    3    0  502 -0.17091357986E+02  0.44137188218E+02  0.99816768211E+02  0.11054892816E+03  0.41800000000E+01 0.  1.
        -11    1    1    2    0    0 -0.36027271058E+02  0.18447957214E+02 -0.49358229786E+02  0.63832015735E+02  0.00000000000E+00 0.  1.
         11    1    1    2    0    0 -0.43387408252E+01 -0.74596695745E+02 -0.74322915601E+02  0.10539159109E+03  0.00000000000E+00 0. -1.
</event>
<event>
 7    1  0.6992302E-006  0.9193469E+02  0.7561462E-02  0.1298233E+00
         -2   -1    0    0    0  501 -0.00000000000E+00  0.00000000000E+00  0.17324481513E+02  0.17324481513E+02  0.00000000000E+00 0.  1.
          2   -1    0    0  501    0  0.00000000000E+00 -0.00000000000E+00 -0.94394758974E+03  0.94394758974E+03  0.00000000000E+00 0. -1.
         23    2    1    2    0    0 -0.66366726544E+02  0.70618524192E+01 -0.46484424383E+03  0.48598598377E+03  0.12509113976E+03 0.  0.
          5    1    3    3  502    0 -0.66714622583E+02 -0.60083638917E+01 -0.46725385029E+03  0.47204933462E+03  0.41800000000E+01 0. -1.
         -5    1    3    3    0  502  0.34789603923E+00  0.13070216311E+02  0.24096064659E+01  0.13936649145E+02  0.41800000000E+01 0. -1.
        -11    1    1    2    0    0  0.75549149796E+02  0.16856908027E+02 -0.41296470560E+03  0.42015672963E+03  0.00000000000E+00 0.  1.
         11    1    1    2    0    0 -0.91824232525E+01 -0.23918760446E+02 -0.48814158798E+02  0.55129357852E+02  0.00000000000E+00 0. -1.
</event>
<event>
 7    1  0.6992302E-006  0.1374393E+03  0.7561462E-02  0.1216817E+00
          3   -1    0    0  501    0  0.00000000000E+00  0.00000000000E+00  0.10548561537E+03  0.10548561537E+03  0.00000000000E+00 0. -1.
         -3   -1    0    0    0  501 -0.00000000000E+00 -0.00000000000E+00 -0.23636597864E+03  0.23636597864E+03  0.00000000000E+00 0.  1.
         23    2    1    2    0    0  0.48184814521E+02 -0.76249042002E+02 -0.14582036372E+03  0.21224046641E+03  0.12508694717E+03 0.  0.
          5    1    3    3  502    0  0.88046071332E+02 -0.39522717380E+02 -0.71605086261E+02  0.12024523543E+03  0.41800000000E+01 0. -1.
         -5    1    3    3    0  502 -0.39861256811E+02 -0.36726324622E+02 -0.74215277458E+02  0.91995230979E+02  0.41800000000E+01 0. -1.
        -11    1    1    2    0    0 -0.33879575997E+02 -0.10908678482E+02 -0.11517639778E+02  0.37409637288E+02  0.00000000000E+00 0.  1.
         11    1    1    2    0    0 -0.14305238524E+02  0.87157720484E+02  0.26457640225E+02  0.92201490311E+02  0.00000000000E+00 0. -1.
</event>
<event>
 7    1  0.6992302E-006  0.1010349E+03  0.7561462E-02  0.1278135E+00
         -1   -1    0    0    0  501 -0.00000000000E+00  0.00000000000E+00  0.34606926608E+02  0.34606926608E+02  0.00000000000E+00 0.  1.
          1   -1    0    0  501    0  0.00000000000E+00 -0.00000000000E+00 -0.35010234469E+03  0.35010234469E+03  0.00000000000E+00 0. -1.
         23    2    1    2    0    0  0.71813235328E+01 -0.10345435394E+02 -0.14685282208E+03  0.19331984273E+03  0.12509280874E+03 0.  0.
          5    1    3    3  502    0  0.13555229739E+02  0.53264859650E+02 -0.37786812440E+02  0.66829672461E+02  0.41800000000E+01 0.  1.
         -5    1    3    3    0  502 -0.63739062064E+01 -0.63610295044E+02 -0.10906600964E+03  0.12649017027E+03  0.41800000000E+01 0.  1.
        -11    1    1    2    0    0  0.36211271422E+02 -0.56238758136E+01 -0.11433714039E+03  0.12006608942E+03  0.00000000000E+00 0. -1.
         11    1    1    2    0    0 -0.43392594955E+02  0.15969311207E+02 -0.54305455610E+02  0.71323339143E+02  0.00000000000E+00 0.  1.
</event>
<event>
 7    1  0.6992302E-006  0.8779458E+02  0.7561462E-02  0.1308282E+00
          2   -1    0    0  501    0  0.00000000000E+00  0.00000000000E+00  0.27595395755E+02  0.27595395755E+02  0.00000000000E+00 0.  1.
         -2   -1    0    0    0  501 -0.00000000000E+00 -0.00000000000E+00 -0.54655799169E+03  0.54655799169E+03  0.00000000000E+00 0. -1.
         23    2    1    2    0    0 -0.24405349307E+02 -0.12445052664E+02 -0.41312687477E+03  0.43251780865E+03  0.12508932698E+03 0.  0.
          5    1    3    3  502    0 -0.67310159467E+02 -0.20645279031E+02 -0.33997761108E+03  0.34721626337E+03  0.41800000000E+01 0. -1.
         -5    1    3    3    0  502  0.42904810161E+02  0.82002263675E+01 -0.73149263691E+02  0.85301545273E+02  0.41800000000E+01 0. -1.
        -11    1    1    2    0    0  0.11643269812E+02  0.34105699303E+02 -0.11035631761E+03  0.11609169347E+03  0.00000000000E+00 0. -1.
         11    1    1    2    0    0  0.12762079495E+02 -0.21660646639E+02  0.45205964391E+01  0.25543885335E+02  0.00000000000E+00 0.  1.
</event>
<event>
 7    1  0.6992302E-006  0.9606379E+02  0.7561462E-02  0.1288798E+00
          2   -1    0    0  501    0  0.00000000000E+00  0.00000000000E+00  0.27852120564E+03  0.27852120564E+03  0.00000000000E+00 0.  1.
         -2   -1    0    0    0  501 -0.00000000000E+00 -0.00000000000E+00 -0.70446482747E+02  0.70446482747E+02  0.00000000000E+00 0. -1.
         23    2    1    2    0    0  0.35426766427E+02 -0.33350230894E+02  0.20598553575E+02  0.13579076244E+03  0.12509011581E+03 0.  0.
          5    1    3    3  502    0  0.40511419628E+02 -0.56083342340E+02 -0.33322081244E+02  0.76904810687E+02  0.41800000000E+01 0. -1.
         -5    1    3    3    0  502 -0.50846532012E+01  0.22733111446E+02  0.53920634819E+02  0.58885951750E+02  0.41800000000E+01 0. -1.
        -11    1    1    2    0    0 -0.22561517298E+01 -0.28700754143E+02  0.76909310806E+02  0.82121042356E+02  0.00000000000E+00 0.  1.
         11    1    1    2    0    0 -0.33170614698E+02  0.62050985038E+02  0.11056685851E+03  0.13105588359E+03  0.00000000000E+00 0. -1.
</event>
<event>
 7    1  0.6992302E-006  0.1062336E+03  0.7561462E-02  0.1267708E+00
         -2   -1    0    0    0  501 -0.00000000000E+00  0.00000000000E+00  0.18303398994E+03  0.18303398994E+03  0.00000000000E+00 0.  1.
          2   -1    0    0  501    0  0.00000000000E+00 -0.00000000000E+00 -0.98890687165E+02  0.98890687165E+02  0.00000000000E+00 0. -1.
         23    2    1    2    0    0 -0.50761475308E+02 -0.45133827780E+02  0.12221765072E+03  0.18761181853E+03  0.12508897041E+03 0.  0.
          5    1    3    3  502    0 -0.58191859972E+02 -0.83763634541E+02  0.96181633609E+02  0.14025340667E+03  0.41800000000E+01 0.  1.
         -5    1    3    3    0  502  0.74303846640E+01  0.38629806761E+02  0.26036017116E+02  0.47358411860E+02  0.41800000000E+01 0.  1.
        -11    1    1    2    0    0  0.26799025626E+02  0.10651945545E+02  0.99623317973E+01  0.30510650160E+02  0.00000000000E+00 0.  1.
         11    1    1    2    0    0  0.23962449682E+02  0.34481882235E+02 -0.48036679748E+02  0.63802208414E+02  0.00000000000E+00 0. -1.
</event>
<event>
 7    1  0.6992302E-006  0.1266516E+03  0.7561462E-02  0.1232510E+00
         -1   -1    0    0    0  501 -0.00000000000E+00  0.00000000000E+00  0.19225456631E+03  0.19225456631E+03  0.00000000000E+00 0.  1.
          1   -1    0    0  501    0  0.00000000000E+00 -0.00000000000E+00 -0.10683756449E+03  0.10683756449E+03  0.00000000000E+00 0. -1.
         23    2    1    2    0    0  0.64389954711E+02 -0.38613770121E+02  0.10039897384E+03  0.17710161443E+03  0.12509171986E+03 0.  0.
          5    1    3    3  502    0 -0.33783406321E+02 -0.21752457730E+02  0.80244487368E+01  0.41186795669E+02  0.41800000000E+01 0. -1.
         -5    1    3    3    0  502  0.98173361032E+02 -0.16861312392E+02  0.92374525102E+02  0.13591481876E+03  0.41800000000E+01 0. -1.
        -11    1    1    2    0    0 -0.51171464383E+02 -0.18629805325E+02  0.14363019568E+02  0.56319488143E+02  0.00000000000E+00 0.  1.
         11    1    1    2    0    0 -0.13218490328E+02  0.57243575446E+02 -0.29344991583E+02  0.65671028219E+02  0.00000000000E+00 0. -1.
</event>
<event>
 7    1  0.6992302E-006  0.2171283E+03  0.7561462E-02  0.1136042E+00
         -2   -1    0    0    0  501 -0.00000000000E+00  0.00000000000E+00  0.58822535783E+02  0.58822535783E+02  0.00000000000E+00 0.  1.
          2   -1    0    0  501    0  0.00000000000E+00 -0.00000000000E+00 -0.90417889772E+03  0.90417889772E+03  0.00000000000E+00 0. -1.
         23    2    1    2    0    0 -0.19963124328E+03  0.36838133778E+01 -0.52819732184E+03  0.57836494626E+03  0.12508955387E+03 0.  0.
          5    1    3    3  502    0 -0.21352261802E+03 -0.11130319913E+02 -0.49506549702E+03  0.53928017873E+03  0.41800000000E+01 0. -1.
         -5    1    3    3    0  502  0.13891374736E+02  0.14814133291E+02 -0.33131824816E+02  0.39084767530E+02  0.41800000000E+01 0. -1.
        -11    1    1    2    0    0  0.83917763745E+02 -0.21646017023E+01 -0.61678684150E+02  0.10416878924E+03  0.00000000000E+00 0.  1.
         11    1    1    2    0    0  0.11571347954E+03 -0.15192116755E+01 -0.25548035594E+03  0.28046769800E+03  0.00000000000E+00 0. -1.
</event>
<event>
 7    1  0.6992302E-006  0.1951459E+03  0.7561462E-02  0.1153900E+00
         -2   -1    0    0    0  501 -0.00000000000E+00  0.00000000000E+00  0.77363564746E+03  0.77363564746E+03  0.00000000000E+00 0.  1.
          2   -1    0    0  501    0  0.00000000000E+00 -0.00000000000E+00 -0.54727200823E+02  0.54727200823E+02  0.00000000000E+00 0. -1.
         23    2    1    2    0    0 -0.73635836076E+02  0.14698444989E+03  0.49041906553E+03  0.53215141559E+03  0.12509038497E+03 0.  0.
          5    1    3    3  502    0 -0.72853242638E+02  0.20879732937E+02  0.13326122315E+03  0.15336096050E+03  0.41800000000E+01 0.  1.
         -5    1    3    3    0  502 -0.78259343747E+00  0.12610471695E+03  0.35715784238E+03  0.37879045509E+03  0.41800000000E+01 0.  1.
        -11    1    1    2    0    0 -0.21614155165E+02 -0.35692639937E+02  0.57682109998E+02  0.71192429816E+02  0.00000000000E+00 0.  1.
         11    1    1    2    0    0  0.95249991241E+02 -0.11129180995E+03  0.17080727111E+03  0.22501900288E+03  0.00000000000E+00 0. -1.
</event>
<event>
 6    1  0.6992302E-006  0.1121021E+03  0.7561462E-02  0.1256726E+00
         -2   -1    0    0    0  501 -0.00000000000E+00  0.00000000000E+00  0.99428027938E+02  0.99428027938E+02  0.00000000000E+00 0. -1.
          2   -1    0    0  501    0  0.00000000000E+00 -0.00000000000E+00 -0.26232215387E+03  0.26232215387E+03  0.00000000000E+00 0.  1.
          5    1    1    2  502    0  0.22083327519E+02 -0.48567717627E+02  0.36868434495E+02  0.64986540237E+02  0.41800000000E+01 0. -1.
         -5    1    1    2    0  502 -0.84889602563E+02  0.64756492408E+01 -0.25890179749E+02  0.89083963000E+02  0.41800000000E+01 0.  1.
        -11    1    1    2    0    0  0.29858112370E+02  0.43162986072E+02 -0.16556351813E+03  0.17368312749E+03  0.00000000000E+00 0.  1.
         11    1    1    2    0    0  0.32948162674E+02 -0.10709176859E+01 -0.83088625497E+01  0.33996551077E+02  0.00000000000E+00 0. -1.
</event>
<event>
 7    1  0.8738832E-006  0.1353541E+03  0.7561462E-02  0.1219721E+00
         -1   -1    0    0    0  501 -0.00000000000E+00  0.00000000000E+00  0.27718125638E+02  0.27718125638E+02  0.00000000000E+00 0.  1.
          1   -1    0    0  501    0  0.00000000000E+00 -0.00000000000E+00 -0.89909694467E+03  0.89909694467E+03  0.00000000000E+00 0. -1.
         23    2    1    2    0    0  0.98544232766E+02 -0.43615665084E+02 -0.35735150692E+03  0.39365096254E+03  0.12509072213E+03 0.  0.
          5    1    3    3  502    0  0.95356074244E+02 -0.60467898142E+02 -0.35857479679E+03  0.37595545600E+03  0.41800000000E+01 0. -1.
         -5    1    3    3    0  502  0.31881585220E+01  0.16852233058E+02  0.12232898728E+01  0.17695506546E+02  0.41800000000E+01 0. -1.
        -11    1    1    2    0    0  0.83926040858E+01  0.31319081172E+02 -0.89142817136E+02  0.94856536389E+02  0.00000000000E+00 0.  1.
         11    1    1    2    0    0 -0.10693683685E+03  0.12296583912E+02 -0.42488449498E+03  0.43830757138E+03  0.00000000000E+00 0. -1.
</event>
<event>
 7    1  0.6992302E-006  0.1197727E+03  0.7561462E-02  0.1243473E+00
         -2   -1    0    0    0  501 -0.00000000000E+00  0.00000000000E+00  0.29540032753E+02  0.29540032753E+02  0.00000000000E+00 0.  1.
          2   -1    0    0  501    0  0.00000000000E+00 -0.00000000000E+00 -0.55642269427E+03  0.55642269427E+03  0.00000000000E+00 0. -1.
         23    2    1    2    0    0 -0.13303886125E+02  0.60525364524E+02 -0.22896742804E+03  0.26816745067E+03  0.12508950938E+03 0.  0.
          5    1    3    3  502    0 -0.63266090084E+02  0.67118045403E+01 -0.13071335316E+03  0.14543417607E+03  0.41800000000E+01 0. -1.
         -5    1    3    3    0  502  0.49962203959E+02  0.53813559983E+02 -0.98254074885E+02  0.12273327460E+03  0.41800000000E+01 0. -1.
        -11    1    1    2    0    0 -0.11780385519E+02 -0.73193516143E+02 -0.26145354132E+03  0.27176096584E+03  0.00000000000E+00 0.  1.
         11    1    1    2    0    0  0.25084271644E+02  0.12668151619E+02 -0.36461692153E+02  0.46034310508E+02  0.00000000000E+00 0. -1.
</event>
<event>
 6    1  0.6992302E-006  0.1004778E+03  0.7561462E-02  0.1279294E+00
          2   -1    0    0  501    0  0.00000000000E+00  0.00000000000E+00  0.15197873513E+04  0.15197873513E+04  0.00000000000E+00 0. -1.
         -2   -1    0    0    0  501 -0.00000000000E+00 -0.00000000000E+00 -0.21778398539E+02  0.21778398539E+02  0.00000000000E+00 0.  1.
          5    1    1    2  502    0  0.47212257322E+02  0.50319217469E+02  0.10756365611E+04  0.10778555121E+04  0.41800000000E+01 0. -1.
         -5    1    1    2    0  502 -0.93373708165E+01 -0.28931379173E+02  0.13814947369E+01  0.30717944630E+02  0.41800000000E+01 0.  1.
        -11    1    1    2    0    0  0.10919441728E+02 -0.45445785292E+02  0.18521478926E+03  0.19102112912E+03  0.00000000000E+00 0. -1.
         11    1    1    2    0    0 -0.48794328233E+02  0.24057946996E+02  0.23577610768E+03  0.24197116406E+03  0.00000000000E+00 0.  1.
</event>
<event>
 7    1  0.6992302E-006  0.1635290E+03  0.7561462E-02  0.1184769E+00
          1   -1    0    0  501    0  0.00000000000E+00  0.00000000000E+00  0.45692370599E+03  0.45692370599E+03  0.00000000000E+00 0. -1.
         -1   -1    0    0    0  501 -0.00000000000E+00 -0.00000000000E+00 -0.84817834635E+02  0.84817834635E+02  0.00000000000E+00 0.  1.
         23    2    1    2    0    0  0.10542200748E+03 -0.10877303011E+03  0.10956382275E+03  0.22493788778E+03  0.12508976923E+03 0.  0.
          5    1    3    3  502    0  0.52050165232E+02 -0.79466366562E+02 -0.49063992178E+01  0.95213802931E+02  0.41800000000E+01 0.  1.
         -5    1    3    3    0  502  0.53371842249E+02 -0.29306663543E+02  0.11447022197E+03  0.12972408485E+03  0.41800000000E+01 0.  1.
        -11    1    1    2    0    0  0.12181307001E+02  0.25078510951E+01  0.31683609063E+01  0.12834019955E+02  0.00000000000E+00 0.  1.
         11    1    1    2    0    0 -0.11760331448E+03  0.10626517901E+03  0.25937368769E+03  0.30396963288E+03  0.00000000000E+00 0. -1.
</event>
<event>
 6    1  0.6992302E-006  0.1448846E+03  0.7561462E-02  0.1206904E+00
          1   -1    0    0  501    0  0.00000000000E+00  0.00000000000E+00  0.37164346165E+03  0.37164346165E+03  0.00000000000E+00 0. -1.
         -1   -1    0    0    0  501 -0.00000000000E+00 -0.00000000000E+00 -0.58051421742E+02  0.58051421742E+02  0.00000000000E+00 0.  1.
          5    1    1    2  502    0 -0.33797646847E+01  0.97936540569E+02  0.82805102512E+02  0.12836333663E+03  0.41800000000E+01 0. -1.
         -5    1    1    2    0  502 -0.42449223336E+02 -0.81570735909E+02  0.91704299007E+02  0.12993410782E+03  0.41800000000E+01 0.  1.
        -11    1    1    2    0    0  0.68117331780E+02  0.55934027318E+01  0.10331405715E+03  0.12387514459E+03  0.00000000000E+00 0. -1.
         11    1    1    2    0    0 -0.22288343759E+02 -0.21959207392E+02  0.35768581241E+02  0.47522294355E+02  0.00000000000E+00 0.  1.
</event>
<event>
 7    1  0.6992302E-006  0.1756332E+03  0.7561462E-02  0.1172097E+00
          1   -1    0    0  501    0  0.00000000000E+00  0.00000000000E+00  0.12414949169E+03  0.12414949169E+03  0.00000000000E+00 0.  1.
         -1   -1    0    0    0  501 -0.00000000000E+00 -0.00000000000E+00 -0.26142331591E+03  0.26142331591E+03  0.00000000000E+00 0. -1.
         23    2    1    2    0    0 -0.10417716522E+03  0.93376597016E+02 -0.38923436019E+02  0.19166291030E+03  0.12509023419E+03 0.  0.
          5    1    3    3  502    0 -0.67471188250E+02 -0.18297527131E+02 -0.13582973341E+02  0.71338140625E+02  0.41800000000E+01 0. -1.
         -5    1    3    3    0  502 -0.36705976968E+02  0.11167412415E+03 -0.25340462678E+02  0.12032476968E+03  0.41800000000E+01 0. -1.
        -11    1    1    2    0    0  0.10328293732E+03 -0.40842072404E+02 -0.47518241907E+02  0.12080324223E+03  0.00000000000E+00 0. -1.
         11    1    1    2    0    0  0.89422790249E+00 -0.52534524612E+02 -0.50832146293E+02  0.73106655077E+02  0.00000000000E+00 0.  1.
</event>
<event>
 7    1  0.6992302E-006  0.1043923E+03  0.7561462E-02  0.1271322E+00
          2   -1    0    0  501    0  0.00000000000E+00  0.00000000000E+00  0.49910983353E+03  0.49910983353E+03  0.00000000000E+00 0. -1.
         -2   -1    0    0    0  501 -0.00000000000E+00 -0.00000000000E+00 -0.32805207332E+02  0.32805207332E+02  0.00000000000E+00 0.  1.
         23    2    1    2    0    0 -0.38851681161E+02 -0.51753586834E+02  0.23287774557E+03  0.27215385542E+03  0.12509112582E+03 0.  0.
          5    1    3    3  502    0 -0.38603611619E+02 -0.92242659411E+02  0.16215472018E+03  0.19055333302E+03  0.41800000000E+01 0.  1.
         -5    1    3    3    0  502 -0.24806954208E+00  0.40489072577E+02  0.70723025390E+02  0.81600522407E+02  0.41800000000E+01 0.  1.
        -11    1    1    2    0    0  0.21000858193E+02  0.11453943383E+02  0.18120856429E+01  0.23989841980E+02  0.00000000000E+00 0.  1.
         11    1    1    2    0    0  0.17850822968E+02  0.40299643451E+02  0.23161479498E+03  0.23577134346E+03  0.00000000000E+00 0. -1.
</event>
<event>
 7    1  0.6992302E-006  0.9450241E+02  0.7561462E-02  0.1292301E+00
         -2   -1    0    0    0  501 -0.00000000000E+00  0.00000000000E+00  0.24975466718E+02  0.24975466718E+02  0.00000000000E+00 0.  1.
          2   -1    0    0  501    0  0.00000000000E+00 -0.00000000000E+00 -0.69901385234E+03  0.69901385234E+03  0.00000000000E+00 0. -1.
         23    2    1    2    0    0  0.36407363516E+02  0.62634178346E+02 -0.30723805975E+03  0.33954911192E+03  0.12509931106E+03 0.  0.
          5    1    3    3  502    0 -0.12251955702E+02 -0.31059425963E+01 -0.21808254291E+03  0.21848850135E+03  0.41800000000E+01 0. -1.
         -5    1    3    3    0  502  0.48659319217E+02  0.65740120943E+02 -0.89155516839E+02  0.12106061057E+03  0.41800000000E+01 0. -1.
        -11    1    1    2    0    0 -0.51959333789E+02 -0.57310597640E+02 -0.35703719497E+03  0.36532155092E+03  0.00000000000E+00 0. -1.
         11    1    1    2    0    0  0.15551970273E+02 -0.53235807060E+01 -0.97631308937E+01  0.19118656222E+02  0.00000000000E+00 0.  1.
</event>
<event>
 7    1  0.6992302E-006  0.1308448E+03  0.7561462E-02  0.1226208E+00
          1   -1    0    0  501    0  0.00000000000E+00  0.00000000000E+00  0.73167986354E+03  0.73167986354E+03  0.00000000000E+00 0. -1.
         -1   -1    0    0    0  501 -0.00000000000E+00 -0.00000000000E+00 -0.40312195154E+02  0.40312195154E+02  0.00000000000E+00 0.  1.
         23    2    1    2    0    0 -0.75743690401E+02 -0.26815945925E+02  0.12953903733E+03  0.19723986654E+03  0.12516789192E+03 0.  0.
          5    1    3    3  502    0 -0.62497655933E+02 -0.75058848266E+02  0.75846143590E+02  0.12373317097E+03  0.41800000000E+01 0.  1.
         -5    1    3    3    0  502 -0.13246034468E+02  0.48242902341E+02  0.53692893741E+02  0.73506695570E+02  0.41800000000E+01 0.  1.
        -11    1    1    2    0    0 -0.16515361122E+02 -0.29644925071E+01  0.32053406767E+02  0.36179638668E+02  0.00000000000E+00 0.  1.
         11    1    1    2    0    0  0.92259051523E+02  0.29780438432E+02  0.52977522429E+03  0.53857255349E+03  0.00000000000E+00 0. -1.
</event>
<event>
 7    1  0.6992302E-006  0.1521303E+03  0.7561462E-02  0.1197879E+00
         -1   -1    0    0    0  501 -0.00000000000E+00  0.00000000000E+00  0.10435827333E+03  0.10435827333E+03  0.00000000000E+00 0.  1.
          1   -1    0    0  501    0  0.00000000000E+00 -0.00000000000E+00 -0.22760579991E+03  0.22760579991E+03  0.00000000000E+00 0. -1.
         23    2    1    2    0    0 -0.88712564213E+02 -0.63361782720E+02 -0.64813806420E+02  0.17813606587E+03  0.12508794468E+03 0.  0.
          5    1    3    3  502    0 -0.87506810018E+01  0.36567393434E+02 -0.16501913339E+02  0.41273892770E+02  0.41800000000E+01 0. -1.
         -5    1    3    3    0  502 -0.79961883211E+02 -0.99929176154E+02 -0.48311893081E+02  0.13686217310E+03  0.41800000000E+01 0. -1.
        -11    1    1    2    0    0  0.29829016965E+02 -0.20292752071E+02 -0.31863112339E+02  0.48133397632E+02  0.00000000000E+00 0. -1.
         11    1    1    2    0    0  0.58883547248E+02  0.83654534791E+02 -0.26570607822E+02  0.10569460974E+03  0.00000000000E+00 0.  1.
</event>
<event>
 7    1  0.6992302E-006  0.1235900E+03  0.7561462E-02  0.1237289E+00
          2   -1    0    0  501    0  0.00000000000E+00  0.00000000000E+00  0.71346304420E+02  0.71346304420E+02  0.00000000000E+00 0. -1.
         -2   -1    0    0    0  501 -0.00000000000E+00 -0.00000000000E+00 -0.29228459040E+03  0.29228459040E+03  0.00000000000E+00 0.  1.
         23    2    1    2    0    0 -0.41767701368E+02 -0.84894011038E+02 -0.12852822205E+03  0.20278881942E+03  0.12510902219E+03 0.  0.
          5    1    3    3  502    0 -0.67580884346E+02 -0.62605723964E+02 -0.27732114498E+02  0.96297430789E+02  0.41800000000E+01 0. -1.
         -5    1    3    3    0  502  0.25813182978E+02 -0.22288287074E+02 -0.10079610755E+03  0.10649138863E+03  0.41800000000E+01 0. -1.
        -11    1    1    2    0    0 -0.21624857452E+02  0.15457526534E+02  0.31691165578E+01  0.26769626186E+02  0.00000000000E+00 0. -1.
         11    1    1    2    0    0  0.63392558820E+02  0.69436484504E+02 -0.95579180489E+02  0.13407244921E+03  0.00000000000E+00 0.  1.
</event>
<event>
 7    1  0.6992302E-006  0.6936395E+02  0.7561462E-02  0.1362269E+00
          1   -1    0    0  501    0  0.00000000000E+00  0.00000000000E+00  0.40793044434E+03  0.40793044434E+03  0.00000000000E+00 0. -1.
         -1   -1    0    0    0  501 -0.00000000000E+00 -0.00000000000E+00 -0.29699217525E+02  0.29699217525E+02  0.00000000000E+00 0.  1.
         23    2    1    2    0    0 -0.74277712192E+01  0.14285856040E+02  0.19412339111E+03  0.23149439048E+03  0.12508598794E+03 0.  0.
          5    1    3    3  502    0 -0.42025006667E+01 -0.18826343042E+02 -0.11708736171E+02  0.22949054597E+02  0.41800000000E+01 0.  1.
         -5    1    3    3    0  502 -0.32252705525E+01  0.33112199082E+02  0.20583212728E+03  0.20854533588E+03  0.41800000000E+01 0.  1.
        -11    1    1    2    0    0  0.34310626121E+02  0.21658547175E+02  0.48184393461E+02  0.62992440052E+02  0.00000000000E+00 0.  1.
         11    1    1    2    0    0 -0.26882854902E+02 -0.35944403215E+02  0.13592344225E+03  0.14314283133E+03  0.00000000000E+00 0. -1.
</event>
<event>
 7    1  0.6992302E-006  0.6377701E+02  0.7561462E-02  0.1382632E+00
          1   -1    0    0  501    0  0.00000000000E+00  0.00000000000E+00  0.33103307084E+03  0.33103307084E+03  0.00000000000E+00 0. -1.
         -1   -1    0    0    0  501 -0.00000000000E+00 -0.00000000000E+00 -0.41567696502E+02  0.41567696502E+02  0.00000000000E+00 0.  1.
         23    2    1    2    0    0 -0.67341673339E+01  0.37241280744E+02  0.12450588899E+03  0.18050322213E+03  0.12508970704E+03 0.  0.
          5    1    3    3  502    0 -0.98214035244E+01  0.77699721149E+01  0.14411924632E+03  0.14472270725E+03  0.41800000000E+01 0.  1.
         -5    1    3    3    0  502  0.30872361905E+01  0.29471308629E+02 -0.19613357332E+02  0.35780514885E+02  0.41800000000E+01 0.  1.
        -11    1    1    2    0    0 -0.34423304541E+02 -0.19922832906E+02  0.12830186215E+03  0.13432516889E+03  0.00000000000E+00 0.  1.
         11    1    1    2    0    0  0.41157471875E+02 -0.17318447838E+02  0.36657623201E+02  0.57772376317E+02  0.00000000000E+00 0. -1.
</event>
<event>
 7    1  0.6992302E-006  0.4091456E+02  0.7561462E-02  0.1501587E+00
         -1   -1    0    0    0  501 -0.00000000000E+00  0.00000000000E+00  0.10406423678E+03  0.10406423678E+03  0.00000000000E+00 0.  1.
          1   -1    0    0  501    0  0.00000000000E+00 -0.00000000000E+00 -0.15013114100E+03  0.15013114100E+03  0.00000000000E+00 0. -1.
         23    2    1    2    0    0 -0.13104398286E+02 -0.28523789473E+02  0.29054315277E+02  0.13220158004E+03  0.12509105767E+03 0.  0.
          5    1    3    3  502    0 -0.15785158820E+02 -0.23832913002E+02 -0.47363369153E+02  0.55479186356E+02  0.41800000000E+01 0. -1.
         -5    1    3    3    0  502  0.26807605339E+01 -0.46908764709E+01  0.76417684430E+02  0.76722393685E+02  0.41800000000E+01 0. -1.
        -11    1    1    2    0    0  0.24665040014E+02  0.19498868688E+02 -0.93404860070E+02  0.98554746023E+02  0.00000000000E+00 0. -1.
         11    1    1    2    0    0 -0.11560641728E+02  0.90249207857E+01  0.18283640575E+02  0.23439051709E+02  0.00000000000E+00 0.  1.
</event>
<event>
 7    1  0.6992302E-006  0.1131585E+03  0.7561462E-02  0.1254830E+00
          2   -1    0    0  501    0  0.00000000000E+00  0.00000000000E+00  0.35679677055E+03  0.35679677055E+03  0.00000000000E+00 0. -1.
         -2   -1    0    0    0  501 -0.00000000000E+00 -0.00000000000E+00 -0.57280109296E+02  0.57280109296E+02  0.00000000000E+00 0.  1.
         23    2    1    2    0    0 -0.31783643132E+01  0.71464793842E+02  0.71259631885E+02  0.16077684604E+03  0.12511570776E+03 0.  0.
          5    1    3    3  502    0  0.90494210997E+01 -0.33950334488E+02  0.31502403737E+02  0.47375004753E+02  0.41800000000E+01 0.  1.
         -5    1    3    3    0  502 -0.12227785413E+02  0.10541512833E+03  0.39757228149E+02  0.11340184129E+03  0.41800000000E+01 0.  1.
        -11    1    1    2    0    0  0.18565585520E+02 -0.94466372959E+01  0.54790261097E+01  0.21539258321E+02  0.00000000000E+00 0.  1.
         11    1    1    2    0    0 -0.15387221207E+02 -0.62018156546E+02  0.22277800325E+03  0.23176077548E+03  0.00000000000E+00 0. -1.
</event>
<event>
 7    1  0.6992302E-006  0.1097601E+03  0.7561462E-02  0.1261015E+00
          1   -1    0    0  501    0  0.00000000000E+00  0.00000000000E+00  0.39629820884E+02  0.39629820884E+02  0.00000000000E+00 0. -1.
         -1   -1    0    0    0  501 -0.00000000000E+00 -0.00000000000E+00 -0.40989406550E+03  0.40989406550E+03  0.00000000000E+00 0.  1.
         23    2    1    2    0    0  0.17605710277E+02 -0.10161094779E+02 -0.31582110857E+03  0.34030158432E+03  0.12509591037E+03 0.  0.
          5    1    3    3  502    0 -0.44803169859E+01  0.56219361417E+02 -0.13429900528E+03  0.14572022872E+03  0.41800000000E+01 0. -1.
         -5    1    3    3    0  502  0.22086027263E+02 -0.66380456196E+02 -0.18152210329E+03  0.19458135560E+03  0.41800000000E+01 0. -1.
        -11    1    1    2    0    0  0.39758417337E+01  0.48621171431E+02 -0.17953807563E+02  0.51982351186E+02  0.00000000000E+00 0.  1.
         11    1    1    2    0    0 -0.21581552011E+02 -0.38460076652E+02 -0.36489328482E+02  0.57239950877E+02  0.00000000000E+00 0. -1.
</event>
<event>
 7    1  0.6992302E-006  0.1080852E+03  0.7561462E-02  0.1264157E+00
         -2   -1    0    0    0  501 -0.00000000000E+00  0.00000000000E+00  0.46343182390E+02  0.46343182390E+02  0.00000000000E+00 0.  1.
          2   -1    0    0  501    0  0.00000000000E+00 -0.00000000000E+00 -0.34985184463E+03  0.34985184463E+03  0.00000000000E+00 0. -1.
         23    2    1    2    0    0 -0.73240769222E+01 -0.78350155791E+02 -0.12821792824E+03  0.19565486166E+03  0.12509435940E+03 0.  0.
          5    1    3    3  502    0 -0.42449149896E+02 -0.89398101696E+02 -0.12347332651E+03  0.15829430083E+03  0.41800000000E+01 0.  1.
         -5    1    3    3    0  502  0.35125072973E+02  0.11047945905E+02 -0.47446017275E+01  0.37360560832E+02  0.41800000000E+01 0.  1.
        -11    1    1    2    0    0  0.84082313461E+01  0.19949608899E+02 -0.75620400808E+01  0.22931849027E+02  0.00000000000E+00 0.  1.
         11    1    1    2    0    0 -0.10841544239E+01  0.58400546892E+02 -0.16772869392E+03  0.17760831633E+03  0.00000000000E+00 0. -1.
</event>
<event>
 7    1  0.6992302E-006  0.9923644E+02  0.7561462E-02  0.1281910E+00
         -4   -1    0    0    0  501 -0.00000000000E+00  0.00000000000E+00  0.12124050075E+03  0.12124050075E+03  0.00000000000E+00 0.  1.
          4   -1    0    0  501    0  0.00000000000E+00 -0.00000000000E+00 -0.11974341148E+03  0.11974341148E+03  0.00000000000E+00 0. -1.
         23    2    1    2    0    0  0.23491734553E+02 -0.12479526611E+02  0.46421392092E+02  0.13605463204E+03  0.12509323355E+03 0.  0.
          5    1    3    3  502    0  0.50641952458E+02 -0.46663392637E+02  0.58625451618E+02  0.90534499162E+02  0.41800000000E+01 0. -1.
         -5    1    3    3    0  502 -0.27150217905E+02  0.34183866026E+02 -0.12204059526E+02  0.45520132883E+02  0.41800000000E+01 0. -1.
        -11    1    1    2    0    0  0.12996331591E+02 -0.28159372007E+02 -0.39242976399E+02  0.50018657152E+02  0.00000000000E+00 0. -1.
         11    1    1    2    0    0 -0.36488066144E+02  0.40638898619E+02 -0.56813264189E+01  0.54910623032E+02  0.00000000000E+00 0.  1.
</event>
<event>
 7    1  0.6992302E-006  0.1225016E+03  0.7561462E-02  0.1239026E+00
         -2   -1    0    0    0  501 -0.00000000000E+00  0.00000000000E+00  0.90922069002E+02  0.90922069002E+02  0.00000000000E+00 0.  1.
          2   -1    0    0  501    0  0.00000000000E+00 -0.00000000000E+00 -0.42777141048E+03  0.42777141048E+03  0.00000000000E+00 0. -1.
         23    2    1    2    0    0 -0.40699426087E+02 -0.51626842060E+02  0.21594803365E+02  0.14295431449E+03  0.12509127225E+03 0.  0.
          5    1    3    3  502    0  0.24460077045E+02  0.24669427147E+02  0.24125368953E+02  0.42501550936E+02  0.41800000000E+01 0.  1.
         -5    1    3    3    0  502 -0.65159503132E+02 -0.76296269207E+02 -0.25305655877E+01  0.10045276355E+03  0.41800000000E+01 0.  1.
        -11    1    1    2    0    0  0.13656362488E+01  0.67253568236E+02 -0.26043182839E+03  0.26897889255E+03  0.00000000000E+00 0. -1.
         11    1    1    2    0    0  0.39333789838E+02 -0.15626726175E+02 -0.98012316456E+02  0.10676027244E+03  0.00000000000E+00 0.  1.
</event>
<event>
 7    1  0.6992302E-006  0.5098988E+02  0.7561462E-02  0.1440074E+00
          2   -1    0    0  501    0  0.00000000000E+00  0.00000000000E+00  0.43083451025E+02  0.43083451025E+02  0.00000000000E+00 0. -1.
         -2   -1    0    0    0  501 -0.00000000000E+00 -0.00000000000E+00 -0.56087968128E+03  0.56087968128E+03  0.00000000000E+00 0.  1.
         23    2    1    2    0    0 -0.13847872342E+02 -0.35374357957E+02 -0.48102181043E+03  0.49846989307E+03  0.12508854232E+03 0.  0.
          5    1    3    3  502    0  0.41540831657E+01 -0.18773154052E+02 -0.47142946908E+03  0.47183991399E+03  0.41800000000E+01 0.  1.
         -5    1    3    3    0  502 -0.18001955508E+02 -0.16601203905E+02 -0.95923413532E+01  0.26629979081E+02  0.41800000000E+01 0.  1.
        -11    1    1    2    0    0  0.63337242023E+01  0.44890916308E+02  0.18455383062E+02  0.48948049943E+02  0.00000000000E+00 0. -1.
         11    1    1    2    0    0  0.75141481397E+01 -0.95165583513E+01 -0.55229802886E+02  0.56545189291E+02  0.00000000000E+00 0.  1.
</event>
<event>
 7    1  0.6992302E-006  0.1058847E+03  0.7561462E-02  0.1268386E+00
          2   -1    0    0  501    0  0.00000000000E+00  0.00000000000E+00  0.62865288062E+02  0.62865288062E+02  0.00000000000E+00 0. -1.
         -2   -1    0    0    0  501 -0.00000000000E+00 -0.00000000000E+00 -0.22066830339E+03  0.22066830339E+03  0.00000000000E+00 0.  1.
         23    2    1    2    0    0 -0.35786716880E+02  0.10823547376E+02 -0.11661313183E+03  0.17505796546E+03  0.12509528557E+03 0.  0.
          5    1    3    3  502    0 -0.78371132717E+02  0.14462513838E+02 -0.45166999629E+02  0.91699122163E+02  0.41800000000E+01 0. -1.
         -5    1    3    3    0  502  0.42584415837E+02 -0.36389664623E+01 -0.71446132200E+02  0.83358843295E+02  0.41800000000E+01 0. -1.
        -11    1    1    2    0    0  0.42999364748E+02 -0.40144883136E+02 -0.49801476269E+02  0.77076222335E+02  0.00000000000E+00 0. -1.
         11    1    1    2    0    0 -0.72126478681E+01  0.29321335760E+02  0.86115927722E+01  0.31399403659E+02  0.00000000000E+00 0.  1.
</event>
<event>
 7    1  0.6992302E-006  0.1215416E+03  0.7561462E-02  0.1240575E+00
         -1   -1    0    0    0  501 -0.00000000000E+00  0.00000000000E+00  0.86332123173E+02  0.86332123173E+02  0.00000000000E+00 0.  1.
          1   -1    0    0  501    0  0.00000000000E+00 -0.00000000000E+00 -0.21768606455E+03  0.21768606455E+03  0.00000000000E+00 0. -1.
         23    2    1    2    0    0  0.12118908626E+02  0.82017925447E+02 -0.66644949519E+02  0.16420405313E+03  0.12509042220E+03 0.  0.
          5    1    3    3  502    0  0.49107162914E+02  0.51265799616E+02  0.11804317996E+02  0.72086822534E+02  0.41800000000E+01 0. -1.
         -5    1    3    3    0  502 -0.36988254288E+02  0.30752125831E+02 -0.78449267515E+02  0.92117230592E+02  0.41800000000E+01 0. -1.
        -11    1    1    2    0    0  0.37784928004E+02 -0.16257495937E+02 -0.25767648679E+02  0.48538424747E+02  0.00000000000E+00 0.  1.
         11    1    1    2    0    0 -0.49903836631E+02 -0.65760429510E+02 -0.38941343178E+02  0.91275709849E+02  0.00000000000E+00 0. -1.
</event>
<event>
 7    1  0.6992302E-006  0.5315197E+02  0.7561462E-02  0.1429046E+00
         -1   -1    0    0    0  501 -0.00000000000E+00  0.00000000000E+00  0.35821731044E+03  0.35821731044E+03  0.00000000000E+00 0.  1.
          1   -1    0    0  501    0  0.00000000000E+00 -0.00000000000E+00 -0.36482466499E+02  0.36482466499E+02  0.00000000000E+00 0. -1.
         23    2    1    2    0    0 -0.26949959415E+02 -0.26192473298E+02  0.21325305797E+03  0.25007279647E+03  0.12508873184E+03 0.  0.
          5    1    3    3  502    0 -0.16328571674E+02  0.15812149696E+02  0.20433870636E+03  0.20564149788E+03  0.41800000000E+01 0.  1.
         -5    1    3    3    0  502 -0.10621387741E+02 -0.42004622994E+02  0.89143516044E+01  0.44431298596E+02  0.41800000000E+01 0.  1.
        -11    1    1    2    0    0  0.24038232621E+02  0.15544947539E+02  0.12305739884E+03  0.12634320493E+03  0.00000000000E+00 0.  1.
         11    1    1    2    0    0  0.29117267936E+01  0.10647525759E+02 -0.14575612864E+02  0.18283775542E+02  0.00000000000E+00 0. -1.
</event>
<event>
 6    1  0.6992302E-006  0.1370709E+03  0.7561462E-02  0.1217325E+00
         -3   -1    0    0    0  501 -0.00000000000E+00  0.00000000000E+00  0.56528829833E+02  0.56528829833E+02  0.00000000000E+00 0.  1.
          3   -1    0    0  501    0  0.00000000000E+00 -0.00000000000E+00 -0.38719730135E+03  0.38719730135E+03  0.00000000000E+00 0. -1.
          5    1    1    2  502    0 -0.74046887270E+02 -0.10497810287E+03 -0.14384163042E+03  0.19290212710E+03  0.41800000000E+01 0. -1.
         -5    1    1    2    0  502  0.77556769892E+01  0.32881495896E+02 -0.33652754284E+02  0.47867771713E+02  0.41800000000E+01 0.  1.
        -11    1    1    2    0    0  0.72737576964E+02  0.49285133046E+02 -0.58973757544E+02  0.10581910754E+03  0.00000000000E+00 0.  1.
         11    1    1    2    0    0 -0.64463666833E+01  0.22811473930E+02 -0.94200329267E+02  0.97137124831E+02  0.00000000000E+00 0. -1.
</event>
<event>
 7    1  0.1175188E-005  0.2746196E+03  0.7561462E-02  0.1098664E+00
         -1   -1    0    0    0  501 -0.00000000000E+00  0.00000000000E+00  0.10119935413E+03  0.10119935413E+03  0.00000000000E+00 0.  1.
          1   -1    0    0  501    0  0.00000000000E+00 -0.00000000000E+00 -0.82075172616E+03  0.82075172616E+03  0.00000000000E+00 0. -1.
         23    2    1    2    0    0  0.25486225554E+03  0.14618266259E+02 -0.24351297554E+03  0.37431884532E+03  0.12509023023E+03 0.  0.
          5    1    3    3  502    0  0.19931348490E+03 -0.38410728113E+02 -0.14572273522E+03  0.24990765746E+03  0.41800000000E+01 0. -1.
         -5    1    3    3    0  502  0.55548770643E+02  0.53028994372E+02 -0.97790240315E+02  0.12441118786E+03  0.41800000000E+01 0. -1.
        -11    1    1    2    0    0 -0.23430887609E+03  0.13242907811E+02 -0.39418434621E+03  0.45875627824E+03  0.00000000000E+00 0.  1.
         11    1    1    2    0    0 -0.20553379454E+02 -0.27861174070E+02 -0.81855050285E+02  0.88875956730E+02  0.00000000000E+00 0. -1.
</event>
<event>
 7    1  0.6992302E-006  0.1187970E+03  0.7561462E-02  0.1245095E+00
          1   -1    0    0  501    0  0.00000000000E+00  0.00000000000E+00  0.76502410827E+02  0.76502410827E+02  0.00000000000E+00 0. -1.
         -1   -1    0    0    0  501 -0.00000000000E+00 -0.00000000000E+00 -0.20522531815E+03  0.20522531815E+03  0.00000000000E+00 0.  1.
         23    2    1    2    0    0 -0.34376680466E+00  0.65510481212E+02 -0.99306469073E+02  0.16381443621E+03  0.11261284734E+03 0.  0.
          5    1    3    3  502    0  0.51719440373E+02  0.93165523362E+01 -0.31410364860E+02  0.61365968424E+02  0.41800000000E+01 0. -1.
         -5    1    3    3    0  502 -0.52063207178E+02  0.56193928876E+02 -0.67896104213E+02  0.10244846778E+03  0.41800000000E+01 0.  1.
        -11    1    1    2    0    0 -0.21548976810E+02 -0.79371955545E+02 -0.51396134427E+01  0.82405590556E+02  0.00000000000E+00 0. -1.
         11    1    1    2    0    0  0.21892743615E+02  0.13861474333E+02 -0.24276824805E+02  0.35507702211E+02  0.00000000000E+00 0.  1.
</event>
<event>
 7    1  0.6992302E-006  0.7819772E+02  0.7561462E-02  0.1334245E+00
          2   -1    0    0  501    0  0.00000000000E+00  0.00000000000E+00  0.44853991648E+03  0.44853991648E+03  0.00000000000E+00 0. -1.
         -2   -1    0    0    0  501 -0.00000000000E+00 -0.00000000000E+00 -0.29676156450E+02  0.29676156450E+02  0.00000000000E+00 0.  1.
         23    2    1    2    0    0 -0.16830856813E+02  0.35344159156E+02  0.20303588816E+03  0.24166721022E+03  0.12508789426E+03 0.  0.
          5    1    3    3  502    0 -0.43738017666E+02  0.23307111881E+02  0.20584009205E+03  0.21176366910E+03  0.41800000000E+01 0.  1.
         -5    1    3    3    0  502  0.26907160853E+02  0.12037047275E+02 -0.28042038985E+01  0.29903541124E+02  0.41800000000E+01 0.  1.
        -11    1    1    2    0    0  0.21512731473E+02  0.15063753651E+02  0.16783220068E+02  0.31167142399E+02  0.00000000000E+00 0.  1.
         11    1    1    2    0    0 -0.46818746597E+01 -0.50407912806E+02  0.19904465180E+03  0.20538172031E+03  0.00000000000E+00 0. -1.
</event>
<event>
 7    1  0.6992302E-006  0.2366418E+03  0.7561462E-02  0.1122050E+00
         -2   -1    0    0    0  501 -0.00000000000E+00  0.00000000000E+00  0.11011796714E+03  0.11011796714E+03  0.00000000000E+00 0.  1.
          2   -1    0    0  501    0  0.00000000000E+00 -0.00000000000E+00 -0.51144076440E+03  0.51144076440E+03  0.00000000000E+00 0. -1.
         23    2    1    2    0    0 -0.17113705220E+03 -0.12232947865E+03 -0.19226868573E+03  0.31123654641E+03  0.12509415784E+03 0.  0.
          5    1    3    3  502    0 -0.23392977791E+02 -0.90425295437E+02 -0.70612534056E+02  0.11716470386E+03  0.41800000000E+01 0. -1.
         -5    1    3    3    0  502 -0.14774407441E+03 -0.31904183211E+02 -0.12165615167E+03  0.19407184255E+03  0.41800000000E+01 0. -1.
        -11    1    1    2    0    0  0.10966307571E+03  0.12594870819E+03 -0.14122134897E+03  0.21870650807E+03  0.00000000000E+00 0. -1.
         11    1    1    2    0    0  0.61473976483E+02 -0.36192295446E+01 -0.67832762559E+02  0.91615677062E+02  0.00000000000E+00 0.  1.
</event>
<event>
 7    1  0.6992302E-006  0.1549617E+03  0.7561462E-02  0.1194505E+00
         -4   -1    0    0    0  501 -0.00000000000E+00  0.00000000000E+00  0.82195793556E+02  0.82195793556E+02  0.00000000000E+00 0. -1.
          4   -1    0    0  501    0  0.00000000000E+00 -0.00000000000E+00 -0.34415299648E+03  0.34415299648E+03  0.00000000000E+00 0.  1.
         23    2    1    2    0    0 -0.14818316026E+02  0.12185592643E+03 -0.92631110278E+02  0.19823407788E+03  0.12509107780E+03 0.  0.
          5    1    3    3  502    0  0.31272458577E+02  0.57050647798E+01  0.12958520086E+02  0.34581932745E+02  0.41800000000E+01 0.  1.
         -5    1    3    3    0  502 -0.46090774603E+02  0.11615086165E+03 -0.10558963036E+03  0.16365214513E+03  0.41800000000E+01 0.  1.
        -11    1    1    2    0    0 -0.35382631717E+01  0.14662149392E+02 -0.15469516574E+02  0.21605644497E+02  0.00000000000E+00 0.  1.
         11    1    1    2    0    0  0.18356579198E+02 -0.13651807582E+03 -0.15385657607E+03  0.20650906766E+03  0.00000000000E+00 0. -1.
</event>
<event>
 7    1  0.6992302E-006  0.8605260E+02  0.7561462E-02  0.1312703E+00
         -1   -1    0    0    0  501 -0.00000000000E+00  0.00000000000E+00  0.29774189385E+02  0.29774189385E+02  0.00000000000E+00 0.  1.
          1   -1    0    0  501    0  0.00000000000E+00 -0.00000000000E+00 -0.41206518921E+03  0.41206518921E+03  0.00000000000E+00 0. -1.
         23    2    1    2    0    0 -0.89231070734E+01  0.14876290397E+02 -0.18416883464E+03  0.22330885974E+03  0.12509101219E+03 0.  0.
          5    1    3    3  502    0  0.46925094884E+02 -0.83660481392E+01 -0.27207431412E+02  0.55042456480E+02  0.41800000000E+01 0.  1.
         -5    1    3    3    0  502 -0.55848201958E+02  0.23242338536E+02 -0.15696140323E+03  0.16826640326E+03  0.41800000000E+01 0.  1.
        -11    1    1    2    0    0  0.29133277031E+02 -0.27277321077E+02 -0.18893043850E+03  0.19309974279E+03  0.00000000000E+00 0. -1.
         11    1    1    2    0    0 -0.20210169957E+02  0.12401030681E+02 -0.91917266896E+01  0.25430776063E+02  0.00000000000E+00 0.  1.
</event>
<event>
 7    1  0.6992302E-006  0.1104814E+03  0.7561462E-02  0.1259681E+00
         -2   -1    0    0    0  501 -0.00000000000E+00  0.00000000000E+00  0.79167579930E+02  0.79167579930E+02  0.00000000000E+00 0. -1.
          2   -1    0    0  501    0  0.00000000000E+00 -0.00000000000E+00 -0.35465955346E+03  0.35465955346E+03  0.00000000000E+00 0.  1.
         23    2    1    2    0    0 -0.96162527268E+02  0.41449606298E+02 -0.58868391730E+02  0.17341660860E+03  0.12507010466E+03 0.  0.
          5    1    3    3  502    0 -0.65178846983E+02  0.11883123112E+02  0.31384951239E+02  0.73430091061E+02  0.41800000000E+01 0. -1.
         -5    1    3    3    0  502 -0.30983680286E+02  0.29566483186E+02 -0.90253342968E+02  0.99986517536E+02  0.41800000000E+01 0. -1.
        -11    1    1    2    0    0  0.62566033004E+02 -0.62332879620E+01 -0.19891798673E+03  0.20861861808E+03  0.00000000000E+00 0.  1.
         11    1    1    2    0    0  0.33596494264E+02 -0.35216318336E+02 -0.17705595068E+02  0.51791906711E+02  0.00000000000E+00 0. -1.
</event>
<event>
 7    1  0.6992302E-006  0.8587037E+02  0.7561462E-02  0.1313172E+00
         -2   -1    0    0    0  501 -0.00000000000E+00  0.00000000000E+00  0.10723118434E+03  0.10723118434E+03  0.00000000000E+00 0. -1.
          2   -1    0    0  501    0  0.00000000000E+00 -0.00000000000E+00 -0.11366622391E+03  0.11366622391E+03  0.00000000000E+00 0.  1.
         23    2    1    2    0    0  0.23221411767E+02 -0.21391162641E+02 -0.12642700697E+02  0.12963118689E+03  0.12509033108E+03 0.  0.
          5    1    3    3  502    0  0.54194288352E+02 -0.38674196799E+02 -0.45783618822E+02  0.80909372389E+02  0.41800000000E+01 0. -1.
         -5    1    3    3    0  502 -0.30972876585E+02  0.17283034158E+02  0.33140918125E+02  0.48721814496E+02  0.41800000000E+01 0. -1.
        -11    1    1    2    0    0  0.17410500445E+02  0.22767718455E+02 -0.26539920061E+02  0.39062282144E+02  0.00000000000E+00 0.  1.
         11    1    1    2    0    0 -0.40631912212E+02 -0.13765558143E+01  0.32747581197E+02  0.52203939220E+02  0.00000000000E+00 0. -1.
</event>
<event>
 7    1  0.6992302E-006  0.1150194E+03  0.7561462E-02  0.1251547E+00
          3   -1    0    0  501    0  0.00000000000E+00  0.00000000000E+00  0.76661783066E+02  0.76661783066E+02  0.00000000000E+00 0. -1.
         -3   -1    0    0    0  501 -0.00000000000E+00 -0.00000000000E+00 -0.21919005922E+03  0.21919005922E+03  0.00000000000E+00 0.  1.
         23    2    1    2    0    0 -0.70805965666E+02 -0.13967018119E+01 -0.82415822472E+02  0.16569801882E+03  0.12509208647E+03 0.  0.
          5    1    3    3  502    0  0.20782068600E+02 -0.10319963107E+02 -0.68615891853E+02  0.72553490810E+02  0.41800000000E+01 0.  1.
         -5    1    3    3    0  502 -0.91588034266E+02  0.89232612952E+01 -0.13799930619E+02  0.93144528008E+02  0.41800000000E+01 0.  1.
        -11    1    1    2    0    0 -0.20653548015E+02 -0.85363569066E+01 -0.19225678139E+02  0.29479910698E+02  0.00000000000E+00 0.  1.
         11    1    1    2    0    0  0.91459513681E+02  0.99330587184E+01 -0.40886775545E+02  0.10067391277E+03  0.00000000000E+00 0. -1.
</event>
<event>
 7    1  0.6992302E-006  0.6757313E+02  0.7561462E-02  0.1368546E+00
          1   -1    0    0  501    0  0.00000000000E+00  0.00000000000E+00  0.15206945132E+03  0.15206945132E+03  0.00000000000E+00 0. -1.
         -1   -1    0    0    0  501 -0.00000000000E+00 -0.00000000000E+00 -0.13436105124E+03  0.13436105124E+03  0.00000000000E+00 0.  1.
         23    2    1    2    0    0  0.49104081565E+02  0.43476788349E+02 -0.60292330724E+02  0.15357491853E+03  0.12509455826E+03 0.  0.
          5    1    3    3  502    0  0.32362275508E+02  0.23160685233E+02 -0.98883478272E+02  0.10667309357E+03  0.41800000000E+01 0.  1.
         -5    1    3    3    0  502  0.16741806057E+02  0.20316103116E+02  0.38591147548E+02  0.46901824963E+02  0.41800000000E+01 0.  1.
        -11    1    1    2    0    0 -0.16409352529E+02 -0.27648359954E+02 -0.13147754019E+02  0.34735602691E+02  0.00000000000E+00 0.  1.
         11    1    1    2    0    0 -0.32694729036E+02 -0.15828428395E+02  0.91148484823E+02  0.98119981338E+02  0.00000000000E+00 0. -1.
</event>
<event>
 7    1  0.6992302E-006  0.7245085E+02  0.7561462E-02  0.1351952E+00
         -1   -1    0    0    0  501 -0.00000000000E+00  0.00000000000E+00  0.47143839878E+02  0.47143839878E+02  0.00000000000E+00 0.  1.
          1   -1    0    0  501    0  0.00000000000E+00 -0.00000000000E+00 -0.33413158550E+03  0.33413158550E+03  0.00000000000E+00 0. -1.
         23    2    1    2    0    0  0.83412527698E+01 -0.74131152390E+01 -0.12081118766E+03  0.17426187720E+03  0.12508928014E+03 0.  0.
          5    1    3    3  502    0  0.30817884231E+02 -0.22365613834E+02  0.10836048580E+02  0.39810237621E+02  0.41800000000E+01 0. -1.
         -5    1    3    3    0  502 -0.22476631461E+02  0.14952498595E+02 -0.13164723624E+03  0.13445163958E+03  0.41800000000E+01 0. -1.
        -11    1    1    2    0    0  0.41493074444E+01  0.42154650556E+02 -0.61727989164E+01  0.42805779543E+02  0.00000000000E+00 0.  1.
         11    1    1    2    0    0 -0.12490560214E+02 -0.34741535317E+02 -0.16000375905E+03  0.16420776863E+03  0.00000000000E+00 0. -1.
</event>
<event>
 7    1  0.6992302E-006  0.6981757E+02  0.7561462E-02  0.1360715E+00
          1   -1    0    0  501    0  0.00000000000E+00  0.00000000000E+00  0.53088442915E+03  0.53088442915E+03  0.00000000000E+00 0. -1.
         -1   -1    0    0    0  501 -0.00000000000E+00 -0.00000000000E+00 -0.23207892850E+02  0.23207892850E+02  0.00000000000E+00 0.  1.
         23    2    1    2    0    0  0.10216638070E+02 -0.13928616896E+02  0.24091880606E+03  0.27200767385E+03  0.12509163624E+03 0.  0.
          5    1    3    3  502    0  0.26527082610E+02  0.20464369899E+01 -0.28988171676E+01  0.27087811966E+02  0.41800000000E+01 0. -1.
         -5    1    3    3    0  502 -0.16310444540E+02 -0.15975053886E+02  0.24381762323E+03  0.24491986189E+03  0.41800000000E+01 0. -1.
        -11    1    1    2    0    0  0.12784138738E+02 -0.34003774916E+02  0.79136877095E+02  0.87076611258E+02  0.00000000000E+00 0.  1.
         11    1    1    2    0    0 -0.23000776808E+02  0.47932391812E+02  0.18762085314E+03  0.19500803689E+03  0.00000000000E+00 0. -1.
</event>
<event>
 7    1  0.6992302E-006  0.1014317E+03  0.7561462E-02  0.1277314E+00
         -1   -1    0    0    0  501 -0.00000000000E+00  0.00000000000E+00  0.39775359929E+02  0.39775359929E+02  0.00000000000E+00 0.  1.
          1   -1    0    0  501    0  0.00000000000E+00 -0.00000000000E+00 -0.32210871320E+03  0.32210871320E+03  0.00000000000E+00 0. -1.
         23    2    1    2    0    0 -0.29176587145E+02  0.15066501756E+02 -0.16027657269E+03  0.20594794526E+03  0.12509078179E+03 0.  0.
          5    1    3    3  502    0  0.34034848239E+02  0.34682667268E+02 -0.23924945012E+02  0.54324337983E+02  0.41800000000E+01 0.  1.
         -5    1    3    3    0  502 -0.63211435384E+02 -0.19616165512E+02 -0.13635162768E+03  0.15162360727E+03  0.41800000000E+01 0.  1.
        -11    1    1    2    0    0  0.42225473477E+02  0.22612932633E+02 -0.98738699284E+02  0.10974363794E+03  0.00000000000E+00 0. -1.
         11    1    1    2    0    0 -0.13048886332E+02 -0.37679434389E+02 -0.23318081296E+02  0.46192489927E+02  0.00000000000E+00 0.  1.
</event>
<event>
 7    1  0.6992302E-006  0.1143725E+03  0.7561462E-02  0.1252680E+00
          1   -1    0    0  501    0  0.00000000000E+00  0.00000000000E+00  0.92513640516E+02  0.92513640516E+02  0.00000000000E+00 0. -1.
         -1   -1    0    0    0  501 -0.00000000000E+00 -0.00000000000E+00 -0.14280755161E+03  0.14280755161E+03  0.00000000000E+00 0.  1.
         23    2    1    2    0    0 -0.32763318671E+02  0.21894822023E+02 -0.27765533864E+02  0.13405624383E+03  0.12508930153E+03 0.  0.
          5    1    3    3  502    0  0.38206023126E+02  0.41318252101E+02 -0.20344575902E+02  0.59985601009E+02  0.41800000000E+01 0. -1.
         -5    1    3    3    0  502 -0.70969341797E+02 -0.19423430078E+02 -0.74209579617E+01  0.74070642822E+02  0.41800000000E+01 0. -1.
        -11    1    1    2    0    0  0.58957469373E+02 -0.35785003356E+02 -0.13550011969E+02  0.70286218310E+02  0.00000000000E+00 0. -1.
         11    1    1    2    0    0 -0.26194150702E+02  0.13890181333E+02 -0.89783652564E+01  0.30978729979E+02  0.00000000000E+00 0.  1.
</event>
<event>
 7    1  0.6992302E-006  0.1009829E+03  0.7561462E-02  0.1278243E+00
         -1   -1    0    0    0  501 -0.00000000000E+00  0.00000000000E+00  0.12220730969E+03  0.12220730969E+03  0.00000000000E+00 0.  1.
          1   -1    0    0  501    0  0.00000000000E+00 -0.00000000000E+00 -0.15754631424E+03  0.15754631424E+03  0.00000000000E+00 0. -1.
         23    2    1    2    0    0  0.50057539679E+02 -0.68858103001E+02 -0.32270951430E+01  0.15134376628E+03  0.12508927140E+03 0.  0.
          5    1    3    3  502    0  0.33094682681E+02 -0.67273543509E+02 -0.57326688759E+02  0.94471208959E+02  0.41800000000E+01 0.  1.
         -5    1    3    3    0  502  0.16962856998E+02 -0.15845594922E+01  0.54099593616E+02  0.56872557317E+02  0.41800000000E+01 0.  1.
        -11    1    1    2    0    0 -0.46413272065E+02  0.64961169596E+01  0.16042766046E+02  0.49535459034E+02  0.00000000000E+00 0.  1.
         11    1    1    2    0    0 -0.36442676141E+01  0.62361986042E+02 -0.48154675455E+02  0.78874398620E+02  0.00000000000E+00 0. -1.
</event>
<event>
 7    1  0.6992302E-006  0.1083615E+03  0.7561462E-02  0.1263635E+00
         -1   -1    0    0    0  501 -0.00000000000E+00  0.00000000000E+00  0.20798367120E+02  0.20798367120E+02  0.00000000000E+00 0.  1.
          1   -1    0    0  501    0  0.00000000000E+00 -0.00000000000E+00 -0.67931585975E+03  0.67931585975E+03  0.00000000000E+00 0. -1.
         23    2    1    2    0    0 -0.36422892318E+02 -0.36414802281E+02 -0.36800618041E+03  0.39208243618E+03  0.12508965998E+03 0.  0.
          5    1    3    3  502    0  0.32536333267E+02 -0.32306376015E+02 -0.56020038537E+02  0.72512288831E+02  0.41800000000E+01 0.  1.
         -5    1    3    3    0  502 -0.68959225585E+02 -0.41084262662E+01 -0.31198614187E+03  0.31957014735E+03  0.41800000000E+01 0.  1.
        -11    1    1    2    0    0  0.61661257767E+02  0.43261120328E+02 -0.19619643917E+03  0.21015869714E+03  0.00000000000E+00 0.  1.
         11    1    1    2    0    0 -0.25238365449E+02 -0.68463180474E+01 -0.94314873061E+02  0.97873093554E+02  0.00000000000E+00 0. -1.
</event>
<event>
 7    1  0.6992302E-006  0.1323411E+03  0.7561462E-02  0.1224023E+00
          1   -1    0    0  501    0  0.00000000000E+00  0.00000000000E+00  0.20173362809E+03  0.20173362809E+03  0.00000000000E+00 0. -1.
         -1   -1    0    0    0  501 -0.00000000000E+00 -0.00000000000E+00 -0.17827538242E+03  0.17827538242E+03  0.00000000000E+00 0.  1.
         23    2    1    2    0    0 -0.11314982165E+03 -0.16478741196E+02 -0.91288986156E+02  0.19249893478E+03  0.12509088634E+03 0.  0.
          5    1    3    3  502    0 -0.53685881619E+02 -0.41090969978E+02 -0.10652050943E+03  0.12623285242E+03  0.41800000000E+01 0. -1.
         -5    1    3    3    0  502 -0.59463940036E+02  0.24612228782E+02  0.15231523278E+02  0.66266082362E+02  0.41800000000E+01 0. -1.
        -11    1    1    2    0    0  0.13718129807E+02 -0.21926213607E+02  0.64851950631E+02  0.69819205303E+02  0.00000000000E+00 0. -1.
         11    1    1    2    0    0  0.99431691848E+02  0.38404954804E+02  0.49895281199E+02  0.11769087043E+03  0.00000000000E+00 0.  1.
</event>
<event>
 7    1  0.6992302E-006  0.1441579E+03  0.7561462E-02  0.1207841E+00
         -1   -1    0    0    0  501 -0.00000000000E+00  0.00000000000E+00  0.64500519175E+03  0.64500519175E+03  0.00000000000E+00 0.  1.
          1   -1    0    0  501    0  0.00000000000E+00 -0.00000000000E+00 -0.64863740442E+02  0.64863740442E+02  0.00000000000E+00 0. -1.
         23    2    1    2    0    0  0.30380121194E+02  0.91440519809E+02  0.55204022118E+03  0.57417792218E+03  0.12509020782E+03 0.  0.
          5    1    3    3  502    0  0.79098866916E+02  0.52176271450E+02  0.31371017548E+03  0.32773547359E+03  0.41800000000E+01 0. -1.
         -5    1    3    3    0  502 -0.48718745723E+02  0.39264248359E+02  0.23833004570E+03  0.24644244859E+03  0.41800000000E+01 0. -1.
        -11    1    1    2    0    0 -0.66638084552E-01 -0.99411156185E+02  0.31205264614E+02  0.10419381438E+03  0.00000000000E+00 0.  1.
         11    1    1    2    0    0 -0.30313483109E+02  0.79706363754E+01 -0.31040344915E+01  0.31497195630E+02  0.00000000000E+00 0. -1.
</event>
<event>
 7    1  0.7231122E-006  0.1165023E+03  0.7561462E-02  0.1248981E+00
         -1   -1    0    0    0  501 -0.00000000000E+00  0.00000000000E+00  0.13307733536E+02  0.13307733536E+02  0.00000000000E+00 0.  1.
          1   -1    0    0  501    0  0.00000000000E+00 -0.00000000000E+00 -0.10832261467E+04  0.10832261467E+04  0.00000000000E+00 0. -1.
         23    2    1    2    0    0  0.43671336352E+02  0.10027349101E+02 -0.48841601434E+03  0.50616740985E+03  0.12509000911E+03 0.  0.
          5    1    3    3  502    0  0.68042566348E+02  0.49915294117E+02 -0.27670829853E+03  0.28932038002E+03  0.41800000000E+01 0.  1.
         -5    1    3    3    0  502 -0.24371229996E+02 -0.39887945016E+02 -0.21170771581E+03  0.21684702982E+03  0.41800000000E+01 0.  1.
        -11    1    1    2    0    0 -0.70536194610E+02 -0.19356628799E+02 -0.43940704297E+03  0.44545323351E+03  0.00000000000E+00 0.  1.
         11    1    1    2    0    0  0.26864858258E+02  0.93292796977E+01 -0.14209535583E+03  0.14491323686E+03  0.00000000000E+00 0. -1.
</event>
<event>
 7    1  0.6992302E-006  0.1198632E+03  0.7561462E-02  0.1243323E+00
         -4   -1    0    0    0  501 -0.00000000000E+00  0.00000000000E+00  0.92380576169E+02  0.92380576169E+02  0.00000000000E+00 0.  1.
          4   -1    0    0  501    0  0.00000000000E+00 -0.00000000000E+00 -0.28494588044E+03  0.28494588044E+03  0.00000000000E+00 0. -1.
         23    2    1    2    0    0 -0.47393822752E+02 -0.73485781830E+02 -0.76168578301E+01  0.15282278510E+03  0.12510176880E+03 0.  0.
          5    1    3    3  502    0 -0.72371944556E+02 -0.94021865149E+02  0.22898388871E+01  0.11874563254E+03  0.41800000000E+01 0. -1.
         -5    1    3    3    0  502  0.24978121804E+02  0.20536083319E+02 -0.99066967172E+01  0.34077152563E+02  0.41800000000E+01 0. -1.
        -11    1    1    2    0    0  0.34771742021E+02  0.42320235146E+02 -0.23517885901E+02  0.59608449931E+02  0.00000000000E+00 0.  1.
         11    1    1    2    0    0  0.12622080731E+02  0.31165546684E+02 -0.16143056054E+03  0.16489522157E+03  0.00000000000E+00 0. -1.
</event>
<event>
 7    1  0.6992302E-006  0.1030628E+03  0.7561462E-02  0.1273984E+00
          2   -1    0    0  501    0  0.00000000000E+00  0.00000000000E+00  0.25073692870E+03  0.25073692870E+03  0.00000000000E+00 0. -1.
         -2   -1    0    0    0  501 -0.00000000000E+00 -0.00000000000E+00 -0.77547257536E+02  0.77547257536E+02  0.00000000000E+00 0.  1.
         23    2    1    2    0    0  0.83606521546E+02  0.16955833107E+02  0.75243545143E+02  0.16907481919E+03  0.12508857933E+03 0.  0.
          5    1    3    3  502    0  0.74977269574E+02 -0.22245132216E+02 -0.58055715539E+01  0.78534157671E+02  0.41800000000E+01 0.  1.
         -5    1    3    3    0  502  0.86292519720E+01  0.39200965322E+02  0.81049116697E+02  0.90540661523E+02  0.41800000000E+01 0.  1.
        -11    1    1    2    0    0 -0.22350271213E+02  0.40057276168E+01 -0.16260175422E+02  0.27928010702E+02  0.00000000000E+00 0.  1.
         11    1    1    2    0    0 -0.61256250333E+02 -0.20961560723E+02  0.11420630144E+03  0.13128135634E+03  0.00000000000E+00 0. -1.
</event>
<event>
 6    1  0.6992302E-006  0.1073960E+03  0.7561462E-02  0.1265469E+00
          3   -1    0    0  501    0  0.00000000000E+00  0.00000000000E+00  0.35221292517E+02  0.35221292517E+02  0.00000000000E+00 0. -1.
         -3   -1    0    0    0  501 -0.00000000000E+00 -0.00000000000E+00 -0.39581599541E+03  0.39581599541E+03  0.00000000000E+00 0.  1.
          5    1    1    2  502    0 -0.72658649705E+02  0.18843761920E+02 -0.73044772322E+02  0.10482069406E+03  0.41800000000E+01 0. -1.
         -5    1    1    2    0  502  0.44177376412E+02 -0.18707123073E+01 -0.13487141289E+03  0.14199616391E+03  0.41800000000E+01 0.  1.
        -11    1    1    2    0    0  0.57044796579E+01  0.36570358629E+02 -0.96437121617E+02  0.10329593721E+03  0.00000000000E+00 0. -1.
         11    1    1    2    0    0  0.22776793635E+02 -0.53543408241E+02 -0.56241396070E+02  0.80924492746E+02  0.00000000000E+00 0.  1.
</event>
<event>
 7    1  0.6992302E-006  0.1714669E+03  0.7561462E-02  0.1176327E+00
          2   -1    0    0  501    0  0.00000000000E+00  0.00000000000E+00  0.46395270083E+02  0.46395270083E+02  0.00000000000E+00 0. -1.
         -2   -1    0    0    0  501 -0.00000000000E+00 -0.00000000000E+00 -0.68211603035E+03  0.68211603035E+03  0.00000000000E+00 0.  1.
         23    2    1    2    0    0 -0.96982072983E+02 -0.10006548801E+03 -0.35897568491E+03  0.40488208464E+03  0.12508931105E+03 0.  0.
          5    1    3    3  502    0  0.30705751176E+01 -0.70901338890E+02 -0.21947284308E+03  0.23069943550E+03  0.41800000000E+01 0.  1.
         -5    1    3    3    0  502 -0.10005264810E+03 -0.29164149122E+02 -0.13950284183E+03  0.17418264915E+03  0.41800000000E+01 0.  1.
        -11    1    1    2    0    0  0.47162324989E+02 -0.86560255738E+01 -0.87043971239E+02  0.99377384782E+02  0.00000000000E+00 0.  1.
         11    1    1    2    0    0  0.49819747994E+02  0.10872151359E+03 -0.18970110411E+03  0.22425183100E+03  0.00000000000E+00 0. -1.
</event>
<event>
 7    1  0.6992302E-006  0.1755917E+03  0.7561462E-02  0.1172139E+00
         -3   -1    0    0    0  501 -0.00000000000E+00  0.00000000000E+00  0.92190592878E+02  0.92190592878E+02  0.00000000000E+00 0.  1.
          3   -1    0    0  501    0  0.00000000000E+00 -0.00000000000E+00 -0.34892299516E+03  0.34892299516E+03  0.00000000000E+00 0. -1.
         23    2    1    2    0    0  0.73009483563E+02 -0.11671278263E+03 -0.91861338906E+02  0.20745518744E+03  0.12508753292E+03 0.  0.
          5    1    3    3  502    0  0.10423916019E+03 -0.57971600048E+02 -0.58447152787E+02  0.13289112460E+03  0.41800000000E+01 0.  1.
         -5    1    3    3    0  502 -0.31229676626E+02 -0.58741182579E+02 -0.33414186118E+02  0.74564062838E+02  0.41800000000E+01 0.  1.
        -11    1    1    2    0    0 -0.79094276253E+02  0.40756289384E+02 -0.96811463251E+02  0.13148931165E+03  0.00000000000E+00 0.  1.
         11    1    1    2    0    0  0.60847926895E+01  0.75956493243E+02 -0.68059600121E+02  0.10216908895E+03  0.00000000000E+00 0. -1.
</event>
<event>
 7    1  0.6992302E-006  0.1342326E+03  0.7561462E-02  0.1221307E+00
          2   -1    0    0  501    0  0.00000000000E+00  0.00000000000E+00  0.68693399492E+03  0.68693399492E+03  0.00000000000E+00 0. -1.
         -2   -1    0    0    0  501 -0.00000000000E+00 -0.00000000000E+00 -0.29721285093E+02  0.29721285093E+02  0.00000000000E+00 0.  1.
         23    2    1    2    0    0 -0.15450032685E+02 -0.87297664073E+02  0.29341854426E+03  0.33106097221E+03  0.12508932625E+03 0.  0.
          5    1    3    3  502    0 -0.23311580167E+02 -0.11361849852E+03  0.17912312315E+03  0.21343654472E+03  0.41800000000E+01 0. -1.
         -5    1    3    3    0  502  0.78615474815E+01  0.26320834448E+02  0.11429542111E+03  0.11762442748E+03  0.41800000000E+01 0. -1.
        -11    1    1    2    0    0  0.51667050178E+02  0.41750057154E+02  0.15056324052E+03  0.16456561227E+03  0.00000000000E+00 0.  1.
         11    1    1    2    0    0 -0.36217017493E+02  0.45547606919E+02  0.21323092505E+03  0.22102869553E+03  0.00000000000E+00 0. -1.
</event>
<event>
 7    1  0.6992302E-006  0.1080838E+03  0.7561462E-02  0.1264160E+00
         -2   -1    0    0    0  501 -0.00000000000E+00  0.00000000000E+00  0.27647865044E+02  0.27647865044E+02  0.00000000000E+00 0.  1.
          2   -1    0    0  501    0  0.00000000000E+00 -0.00000000000E+00 -0.45415890934E+03  0.45415890934E+03  0.00000000000E+00 0. -1.
         23    2    1    2    0    0  0.64584734033E-01 -0.29515166834E+02 -0.25034326294E+03  0.28140688911E+03  0.12508772400E+03 0.  0.
          5    1    3    3  502    0  0.48154669713E+02 -0.50124995513E+02 -0.97577674153E+02  0.11987602881E+03  0.41800000000E+01 0.  1.
         -5    1    3    3    0  502 -0.48090084979E+02  0.20609828679E+02 -0.15276558879E+03  0.16153086030E+03  0.41800000000E+01 0.  1.
        -11    1    1    2    0    0  0.43227391153E+02  0.26380915404E+02 -0.77144228855E+02  0.92281049458E+02  0.00000000000E+00 0.  1.
         11    1    1    2    0    0 -0.43291975887E+02  0.31342514303E+01 -0.99023552499E+02  0.10811883581E+03  0.00000000000E+00 0. -1.
</event>
<event>
 7    1  0.6992302E-006  0.1590128E+03  0.7561462E-02  0.1189816E+00
          2   -1    0    0  501    0  0.00000000000E+00  0.00000000000E+00  0.10668361222E+04  0.10668361222E+04  0.00000000000E+00 0.  1.
         -2   -1    0    0    0  501 -0.00000000000E+00 -0.00000000000E+00 -0.31515846206E+02  0.31515846206E+02  0.00000000000E+00 0. -1.
         23    2    1    2    0    0  0.39602060812E+02 -0.13793721030E+03  0.62104750262E+03  0.64957431215E+03  0.12510711128E+03 0.  0.
          5    1    3    3  502    0 -0.28182114895E+01 -0.29583541744E+02  0.17171639930E+02  0.34575509772E+02  0.41800000000E+01 0.  1.
         -5    1    3    3    0  502  0.42420272301E+02 -0.10835366856E+03  0.60387586269E+03  0.61499880238E+03  0.41800000000E+01 0.  1.
        -11    1    1    2    0    0  0.25911404237E+02  0.98697474556E+01  0.50810691978E+02  0.57883842337E+02  0.00000000000E+00 0.  1.
         11    1    1    2    0    0 -0.65513465049E+02  0.12806746285E+03  0.36346208137E+03  0.39089381389E+03  0.00000000000E+00 0. -1.
</event>
<event>
 7    1  0.6992302E-006  0.1071901E+03  0.7561462E-02  0.1265864E+00
         -4   -1    0    0    0  501 -0.00000000000E+00  0.00000000000E+00  0.69392816547E+02  0.69392816547E+02  0.00000000000E+00 0.  1.
          4   -1    0    0  501    0  0.00000000000E+00 -0.00000000000E+00 -0.21726660301E+03  0.21726660301E+03  0.00000000000E+00 0. -1.
         23    2    1    2    0    0  0.51918718183E+02 -0.14786448814E+02 -0.60672571023E+02  0.14914021764E+03  0.12508977287E+03 0.  0.
          5    1    3    3  502    0  0.51913059071E+02  0.32009670522E+02 -0.77967458163E+02  0.99075635963E+02  0.41800000000E+01 0.  1.
         -5    1    3    3    0  502  0.56591121574E-02 -0.46796119336E+02  0.17294887140E+02  0.50064581673E+02  0.41800000000E+01 0.  1.
        -11    1    1    2    0    0 -0.54866822563E+02  0.48013540297E+02 -0.57484955119E+02  0.92844969357E+02  0.00000000000E+00 0.  1.
         11    1    1    2    0    0  0.29481043801E+01 -0.33227091483E+02 -0.29716260326E+02  0.44674232569E+02  0.00000000000E+00 0. -1.
</event>
<event>
 7    1  0.6992302E-006  0.1266377E+03  0.7561462E-02  0.1232532E+00
          1   -1    0    0  501    0  0.00000000000E+00  0.00000000000E+00  0.20220676428E+03  0.20220676428E+03  0.00000000000E+00 0. -1.
         -1   -1    0    0    0  501 -0.00000000000E+00 -0.00000000000E+00 -0.10852135136E+03  0.10852135136E+03  0.00000000000E+00 0.  1.
         23    2    1    2    0    0 -0.16913759110E+02  0.77670960205E+02 -0.13650453230E+02  0.14883862790E+03  0.12509096280E+03 0.  0.
          5    1    3    3  502    0 -0.64865904497E+00  0.10240612550E+03 -0.38978348731E+02  0.10965500156E+03  0.41800000000E+01 0.  1.
         -5    1    3    3    0  502 -0.16265100065E+02 -0.24735165292E+02  0.25327895501E+02  0.39183626333E+02  0.41800000000E+01 0.  1.
        -11    1    1    2    0    0  0.22534194623E+02  0.15623742721E+02  0.29318088188E+02  0.40142764715E+02  0.00000000000E+00 0. -1.
         11    1    1    2    0    0 -0.56204355131E+01 -0.93294702927E+02  0.78017777958E+02  0.12174672302E+03  0.00000000000E+00 0.  1.
</event>
<event>
 7    1  0.6992302E-006  0.1177352E+03  0.7561462E-02  0.1246881E+00
          1   -1    0    0  501    0  0.00000000000E+00  0.00000000000E+00  0.16911313659E+03  0.16911313659E+03  0.00000000000E+00 0. -1.
         -1   -1    0    0    0  501 -0.00000000000E+00 -0.00000000000E+00 -0.10367119798E+03  0.10367119798E+03  0.00000000000E+00 0.  1.
         23    2    1    2    0    0 -0.38093555725E+02 -0.62971527753E+02  0.25979069750E+02  0.14743458861E+03  0.12508202732E+03 0.  0.
          5    1    3    3  502    0  0.28090620412E+02 -0.34513534086E+02  0.53931993596E+02  0.70045694540E+02  0.41800000000E+01 0. -1.
         -5    1    3    3    0  502 -0.66184176137E+02 -0.28457993667E+02 -0.27952923846E+02  0.77388894074E+02  0.41800000000E+01 0. -1.
        -11    1    1    2    0    0 -0.30673650374E+02  0.27675920086E+02  0.91015188731E+01  0.42304456334E+02  0.00000000000E+00 0.  1.
         11    1    1    2    0    0  0.68767206099E+02  0.35295607667E+02  0.30361349991E+02  0.83045289623E+02  0.00000000000E+00 0. -1.
</event>
<event>
 7    1  0.6992302E-006  0.1186842E+03  0.7561462E-02  0.1245284E+00
          1   -1    0    0  501    0  0.00000000000E+00  0.00000000000E+00  0.51473793289E+03  0.51473793289E+03  0.00000000000E+00 0. -1.
         -1   -1    0    0    0  501 -0.00000000000E+00 -0.00000000000E+00 -0.28220982089E+02  0.28220982089E+02  0.00000000000E+00 0.  1.
         23    2    1    2    0    0 -0.42462751159E+02 -0.23229770435E+02  0.29347568947E+03  0.32267398680E+03  0.12509122263E+03 0.  0.
          5    1    3    3  502    0  0.39482643318E+02  0.16391355829E+02  0.89652819352E+02  0.99411549063E+02  0.41800000000E+01 0. -1.
         -5    1    3    3    0  502 -0.81945394477E+02 -0.39621126264E+02  0.20382287012E+03  0.22326243774E+03  0.41800000000E+01 0. -1.
        -11    1    1    2    0    0  0.11385844109E+02  0.56578721143E+02  0.13231024361E+03  0.14434954000E+03  0.00000000000E+00 0.  1.
         11    1    1    2    0    0  0.31076907050E+02 -0.33348950708E+02  0.60731017720E+02  0.75935388183E+02  0.00000000000E+00 0. -1.
</event>
<event>
 7    1  0.6992302E-006  0.1279247E+03  0.7561462E-02  0.1230568E+00
         -1   -1    0    0    0  501 -0.00000000000E+00  0.00000000000E+00  0.74789007026E+02  0.74789007026E+02  0.00000000000E+00 0. -1.
          1   -1    0    0  501    0  0.00000000000E+00 -0.00000000000E+00 -0.36651684671E+03  0.36651684671E+03  0.00000000000E+00 0.  1.
         23    2    1    2    0    0  0.11618745442E+03 -0.41897896344E+02 -0.13602204920E+03  0.22226375905E+03  0.12507686611E+03 0.  0.
          5    1    3    3  502    0  0.48478055794E+02  0.44063112124E+01 -0.13118405117E+03  0.13998666062E+03  0.41800000000E+01 0. -1.
         -5    1    3    3    0  502  0.67709398627E+02 -0.46304207556E+02 -0.48379980283E+01  0.82277098422E+02  0.41800000000E+01 0. -1.
        -11    1    1    2    0    0 -0.88188784836E+02  0.23199472848E+02 -0.41889435742E+02  0.10035039680E+03  0.00000000000E+00 0. -1.
         11    1    1    2    0    0 -0.27998669585E+02  0.18698423495E+02 -0.11381635475E+03  0.11869169789E+03  0.00000000000E+00 0.  1.
</event>
<event>
 7    1  0.6992302E-006  0.6344952E+02  0.7561462E-02  0.1383901E+00
         -1   -1    0    0    0  501 -0.00000000000E+00  0.00000000000E+00  0.36167426088E+02  0.36167426088E+02  0.00000000000E+00 0.  1.
          1   -1    0    0  501    0  0.00000000000E+00 -0.00000000000E+00 -0.40170007771E+03  0.40170007771E+03  0.00000000000E+00 0. -1.
         23    2    1    2    0    0  0.25576689810E+02  0.25344014246E+02 -0.13331787586E+03  0.18632924817E+03  0.12509375117E+03 0.  0.
          5    1    3    3  502    0  0.14397916102E+02  0.89147661303E+01  0.22905992232E+02  0.28791143141E+02  0.41800000000E+01 0.  1.
         -5    1    3    3    0  502  0.11178773708E+02  0.16429248116E+02 -0.15622386809E+03  0.15753810503E+03  0.41800000000E+01 0.  1.
        -11    1    1    2    0    0  0.93589187648E+01 -0.47082074529E+02 -0.75148150955E+02  0.89171495975E+02  0.00000000000E+00 0.  1.
         11    1    1    2    0    0 -0.34935608575E+02  0.21738060283E+02 -0.15706662480E+03  0.16236675965E+03  0.00000000000E+00 0. -1.
</event>
<event>
 7    1  0.6992302E-006  0.6851725E+02  0.7561462E-02  0.1365209E+00
         -2   -1    0    0    0  501 -0.00000000000E+00  0.00000000000E+00  0.21360362876E+02  0.21360362876E+02  0.00000000000E+00 0.  1.
          2   -1    0    0  501    0  0.00000000000E+00 -0.00000000000E+00 -0.61955933315E+03  0.61955933315E+03  0.00000000000E+00 0. -1.
         23    2    1    2    0    0  0.21868620125E+02  0.33397621053E+02 -0.29646492061E+03  0.32424172335E+03  0.12509040078E+03 0.  0.
          5    1    3    3  502    0  0.27712763811E+02  0.20903972669E+02 -0.85860496505E+01  0.36002305481E+02  0.41800000000E+01 0. -1.
         -5    1    3    3    0  502 -0.58441436855E+01  0.12493648384E+02 -0.28787887096E+03  0.28823941787E+03  0.41800000000E+01 0. -1.
        -11    1    1    2    0    0  0.97522849415E+01 -0.50689055692E+02 -0.23730339592E+03  0.24285260786E+03  0.00000000000E+00 0. -1.
         11    1    1    2    0    0 -0.31620905067E+02  0.17291434640E+02 -0.64430653736E+02  0.73825364814E+02  0.00000000000E+00 0.  1.
</event>
<event>
 7    1  0.6992302E-006  0.1298060E+03  0.7561462E-02  0.1227744E+00
          3   -1    0    0  501    0  0.00000000000E+00  0.00000000000E+00  0.46479730095E+03  0.46479730095E+03  0.00000000000E+00 0. -1.
         -3   -1    0    0    0  501 -0.00000000000E+00 -0.00000000000E+00 -0.57534460537E+02  0.57534460537E+02  0.00000000000E+00 0.  1.
         23    2    1    2    0    0 -0.77674308386E+02  0.11791679467E+02  0.68781932344E+02  0.16294397440E+03  0.12508973854E+03 0.  0.
          5    1    3    3  502    0 -0.57716003128E+02  0.61892343034E+02  0.13858258069E+02  0.85856408381E+02  0.41800000000E+01 0. -1.
         -5    1    3    3    0  502 -0.19958305258E+02 -0.50100663567E+02  0.54923674275E+02  0.77087566018E+02  0.41800000000E+01 0. -1.
        -11    1    1    2    0    0  0.50848409605E+02  0.38507838468E+02  0.17900112398E+03  0.19002583185E+03  0.00000000000E+00 0. -1.
         11    1    1    2    0    0  0.26825898781E+02 -0.50299517935E+02  0.15947978409E+03  0.16936195524E+03  0.00000000000E+00 0.  1.
</event>
<event>
 6    1  0.6992302E-006  0.8547805E+02  0.7561462E-02  0.1314187E+00
         -2   -1    0    0    0  501 -0.00000000000E+00  0.00000000000E+00  0.46661998787E+02  0.46661998787E+02  0.00000000000E+00 0.  1.
          2   -1    0    0  501    0  0.00000000000E+00 -0.00000000000E+00 -0.54484344105E+03  0.54484344105E+03  0.00000000000E+00 0. -1.
          5    1    1    2  502    0 -0.38436127078E+01 -0.38594902539E+02 -0.36099260543E+03  0.36309430378E+03  0.41800000000E+01 0. -1.
         -5    1    1    2    0  502 -0.27567239127E+02  0.35687712976E+02  0.15361969877E+02  0.47822882065E+02  0.41800000000E+01 0.  1.
        -11    1    1    2    0    0 -0.21366018559E+02 -0.19867850406E+02 -0.18021028544E+02  0.34292793683E+02  0.00000000000E+00 0.  1.
         11    1    1    2    0    0  0.52776870394E+02  0.22775039969E+02 -0.13452977817E+03  0.14629546032E+03  0.00000000000E+00 0. -1.
</event>
<event>
 7    1  0.3197338E-005  0.3060169E+03  0.7561462E-02  0.1082271E+00
          1   -1    0    0  501    0  0.00000000000E+00  0.00000000000E+00  0.82249784514E+03  0.82249784514E+03  0.00000000000E+00 0. -1.
         -1   -1    0    0    0  501 -0.00000000000E+00 -0.00000000000E+00 -0.14752344494E+03  0.14752344494E+03  0.00000000000E+00 0.  1.
         23    2    1    2    0    0 -0.17964232449E+03  0.23472186882E+03  0.13696840457E+03  0.34896104741E+03  0.12509096016E+03 0.  0.
          5    1    3    3  502    0 -0.16007509630E+03  0.12734199502E+03  0.53439368288E+02  0.21145509838E+03  0.41800000000E+01 0. -1.
         -5    1    3    3    0  502 -0.19567228190E+02  0.10737987380E+03  0.83529036284E+02  0.13750594903E+03  0.41800000000E+01 0. -1.
        -11    1    1    2    0    0  0.10128762339E+03 -0.16347898734E+03  0.25869637982E+03  0.32234822612E+03  0.00000000000E+00 0.  1.
         11    1    1    2    0    0  0.78354701093E+02 -0.71242881479E+02  0.27930961581E+03  0.29871201654E+03  0.00000000000E+00 0. -1.
</event>
<event>
 7    1  0.6992302E-006  0.1120922E+03  0.7561462E-02  0.1256744E+00
          1   -1    0    0  501    0  0.00000000000E+00  0.00000000000E+00  0.79501333613E+02  0.79501333613E+02  0.00000000000E+00 0. -1.
         -1   -1    0    0    0  501 -0.00000000000E+00 -0.00000000000E+00 -0.16541712496E+03  0.16541712496E+03  0.00000000000E+00 0.  1.
         23    2    1    2    0    0 -0.18441840048E+02 -0.28145360581E+02 -0.70516616496E+02  0.14748894798E+03  0.12509250093E+03 0.  0.
          5    1    3    3  502    0  0.48080169914E+02 -0.37093412307E+02 -0.22670076828E+02  0.64954051135E+02  0.41800000000E+01 0.  1.
         -5    1    3    3    0  502 -0.66522009962E+02  0.89480517266E+01 -0.47846539668E+02  0.82534896845E+02  0.41800000000E+01 0.  1.
        -11    1    1    2    0    0  0.50398951966E+02 -0.42258207444E+01 -0.10740312365E+02  0.51703638459E+02  0.00000000000E+00 0.  1.
         11    1    1    2    0    0 -0.31957111917E+02  0.32371181325E+02 -0.46588624826E+01  0.45725872131E+02  0.00000000000E+00 0. -1.
</event>
<event>
 7    1  0.6992302E-006  0.1021172E+03  0.7561462E-02  0.1275906E+00
         -1   -1    0    0    0  501 -0.00000000000E+00  0.00000000000E+00  0.29323017144E+02  0.29323017144E+02  0.00000000000E+00 0.  1.
          1   -1    0    0  501    0  0.00000000000E+00 -0.00000000000E+00 -0.45245514248E+03  0.45245514248E+03  0.00000000000E+00 0. -1.
         23    2    1    2    0    0  0.29153193662E+02 -0.13620012042E+02 -0.21516903400E+03  0.25096597759E+03  0.12510313858E+03 0.  0.
          5    1    3    3  502    0  0.10728034458E+02  0.43919655352E+02 -0.25960867282E+02  0.52301681422E+02  0.41800000000E+01 0. -1.
         -5    1    3    3    0  502  0.18425159204E+02 -0.57539667394E+02 -0.18920816672E+03  0.19866429616E+03  0.41800000000E+01 0. -1.
        -11    1    1    2    0    0 -0.59463727705E+02  0.26790525805E+02 -0.15773543749E+03  0.17068724447E+03  0.00000000000E+00 0. -1.
         11    1    1    2    0    0  0.30310534043E+02 -0.13170513764E+02 -0.50227653840E+02  0.60124937564E+02  0.00000000000E+00 0.  1.
</event>
<event>
 7    1  0.6992302E-006  0.8207591E+02  0.7561462E-02  0.1323261E+00
          3   -1    0    0  501    0  0.00000000000E+00  0.00000000000E+00  0.59056343844E+03  0.59056343844E+03  0.00000000000E+00 0. -1.
         -3   -1    0    0    0  501 -0.00000000000E+00 -0.00000000000E+00 -0.21412037956E+02  0.21412037956E+02  0.00000000000E+00 0.  1.
         23    2    1    2    0    0  0.21939377484E+02 -0.14301645296E+02  0.28748021104E+03  0.31461178197E+03  0.12509927367E+03 0.  0.
          5    1    3    3  502    0  0.41149621303E+02 -0.30578172033E+02  0.28427158988E+03  0.28888773797E+03  0.41800000000E+01 0. -1.
         -5    1    3    3    0  502 -0.19210243819E+02  0.16276526737E+02  0.32086211664E+01  0.25724044005E+02  0.41800000000E+01 0. -1.
        -11    1    1    2    0    0 -0.61958569966E+01 -0.34944732064E+02  0.59712276067E+02  0.69462787564E+02  0.00000000000E+00 0.  1.
         11    1    1    2    0    0 -0.15743520488E+02  0.49246377361E+02  0.22195891337E+03  0.22790090686E+03  0.00000000000E+00 0. -1.
</event>
<event>
 7    1  0.6992302E-006  0.8866877E+02  0.7561462E-02  0.1306108E+00
          1   -1    0    0  501    0  0.00000000000E+00  0.00000000000E+00  0.70564159809E+02  0.70564159809E+02  0.00000000000E+00 0. -1.
         -1   -1    0    0    0  501 -0.00000000000E+00 -0.00000000000E+00 -0.24702060318E+03  0.24702060318E+03  0.00000000000E+00 0.  1.
         23    2    1    2    0    0  0.33143042574E+02  0.52415068880E+02 -0.14096715569E+03  0.19840568617E+03  0.12508907468E+03 0.  0.
          5    1    3    3  502    0 -0.10836921812E+02 -0.28925414751E+01  0.19578443775E+02  0.22947625829E+02  0.41800000000E+01 0.  1.
         -5    1    3    3    0  502  0.43979964387E+02  0.55307610355E+02 -0.16054559947E+03  0.17545806034E+03  0.41800000000E+01 0.  1.
        -11    1    1    2    0    0 -0.34082617023E+02 -0.69533658951E+02  0.25239403937E+01  0.77478544032E+02  0.00000000000E+00 0. -1.
         11    1    1    2    0    0  0.93957444911E+00  0.17118590070E+02 -0.38013228076E+02  0.41700532789E+02  0.00000000000E+00 0.  1.
</event>
<event>
 7    1  0.6992302E-006  0.9101476E+02  0.7561462E-02  0.1300413E+00
         -1   -1    0    0    0  501 -0.00000000000E+00  0.00000000000E+00  0.75717355161E+03  0.75717355161E+03  0.00000000000E+00 0.  1.
          1   -1    0    0  501    0  0.00000000000E+00 -0.00000000000E+00 -0.16590910574E+02  0.16590910574E+02  0.00000000000E+00 0. -1.
         23    2    1    2    0    0 -0.62042656573E+01 -0.23758329094E+02  0.49808714997E+03  0.51368326559E+03  0.12319390111E+03 0.  0.
          5    1    3    3  502    0  0.29684201239E+02 -0.38677648109E+02  0.44539215951E+03  0.44807227142E+03  0.41800000000E+01 0. -1.
         -5    1    3    3    0  502 -0.35888466896E+02  0.14919319014E+02  0.52694990460E+02  0.65610994167E+02  0.41800000000E+01 0. -1.
        -11    1    1    2    0    0  0.48535060214E+02  0.10635883077E+02  0.12971548505E+03  0.13890601549E+03  0.00000000000E+00 0. -1.
         11    1    1    2    0    0 -0.42330794556E+02  0.13122446017E+02  0.11278000602E+03  0.12117518110E+03  0.00000000000E+00 0.  1.
</event>
<event>
 7    1  0.6992302E-006  0.9068296E+02  0.7561462E-02  0.1301206E+00
          2   -1    0    0  501    0  0.00000000000E+00  0.00000000000E+00  0.11627105351E+03  0.11627105351E+03  0.00000000000E+00 0.  1.
         -2   -1    0    0    0  501 -0.00000000000E+00 -0.00000000000E+00 -0.13314091882E+03  0.13314091882E+03  0.00000000000E+00 0. -1.
         23    2    1    2    0    0  0.86527424017E+01  0.47301216460E+02 -0.46010138933E+02  0.14168994961E+03  0.12508730513E+03 0.  0.
          5    1    3    3  502    0  0.10141929143E+02 -0.22120040859E+02  0.29867063199E+02  0.38751371569E+02  0.41800000000E+01 0.  1.
         -5    1    3    3    0  502 -0.14891867409E+01  0.69421257319E+02 -0.75877202132E+02  0.10293857804E+03  0.41800000000E+01 0.  1.
        -11    1    1    2    0    0  0.23119774793E+02 -0.50139646739E+02 -0.11154970236E+02  0.56328869353E+02  0.00000000000E+00 0. -1.
         11    1    1    2    0    0 -0.31772517195E+02  0.28384302792E+01  0.40295243859E+02  0.51393153367E+02  0.00000000000E+00 0.  1.
</event>
<event>
 6    1  0.6992302E-006  0.1217658E+03  0.7561462E-02  0.1240212E+00
          1   -1    0    0  501    0  0.00000000000E+00  0.00000000000E+00  0.74440951706E+03  0.74440951706E+03  0.00000000000E+00 0. -1.
         -1   -1    0    0    0  501 -0.00000000000E+00 -0.00000000000E+00 -0.23049020600E+02  0.23049020600E+02  0.00000000000E+00 0.  1.
          5    1    1    2  502    0 -0.51537539237E+02 -0.65951033313E+02  0.18726249179E+03  0.20515937701E+03  0.41800000000E+01 0. -1.
         -5    1    1    2    0  502  0.52482622523E+02  0.56536879840E+02  0.14608984189E+03  0.16525906556E+03  0.41800000000E+01 0.  1.
        -11    1    1    2    0    0 -0.36919661102E+02 -0.14071581271E+02  0.22624454562E+03  0.22966859864E+03  0.00000000000E+00 0. -1.
         11    1    1    2    0    0  0.35974577815E+02  0.23485734744E+02  0.16176361716E+03  0.16737149644E+03  0.00000000000E+00 0.  1.
</event>
<event>
 7    1  0.6992302E-006  0.8171273E+02  0.7561462E-02  0.1324260E+00
          3   -1    0    0  501    0  0.00000000000E+00  0.00000000000E+00  0.18729146705E+03  0.18729146705E+03  0.00000000000E+00 0. -1.
         -3   -1    0    0    0  501 -0.00000000000E+00 -0.00000000000E+00 -0.82665885936E+02  0.82665885936E+02  0.00000000000E+00 0.  1.
         23    2    1    2    0    0  0.12790435883E+02  0.49776071734E+02  0.23879110895E+02  0.13735551612E+03  0.12512023539E+03 0.  0.
          5    1    3    3  502    0  0.38083417229E+02  0.54811669690E+02 -0.33140632344E+02  0.74635378436E+02  0.41800000000E+01 0. -1.
         -5    1    3    3    0  502 -0.25292981347E+02 -0.50355979567E+01  0.57019743239E+02  0.62720137685E+02  0.41800000000E+01 0. -1.
        -11    1    1    2    0    0  0.65119724122E+00 -0.55723185016E+02  0.55731110070E+01  0.56004972748E+02  0.00000000000E+00 0.  1.
         11    1    1    2    0    0 -0.13441633124E+02  0.59471132828E+01  0.75173359213E+02  0.76596864118E+02  0.00000000000E+00 0. -1.
</event>
<event>
 6    1  0.6992302E-006  0.2787924E+03  0.7561462E-02  0.1096350E+00
         -1   -1    0    0    0  501 -0.00000000000E+00  0.00000000000E+00  0.85818986627E+02  0.85818986627E+02  0.00000000000E+00 0.  1.
          1   -1    0    0  501    0  0.00000000000E+00 -0.00000000000E+00 -0.11354156510E+04  0.11354156510E+04  0.00000000000E+00 0. -1.
          5    1    1    2  502    0 -0.45571982767E+02 -0.75163492224E+02 -0.53371283689E+02  0.10291900942E+03  0.41800000000E+01 0. -1.
         -5    1    1    2    0  502 -0.16145495415E+02  0.24364294210E+03 -0.31433487010E+03  0.39805331705E+03  0.41800000000E+01 0.  1.
        -11    1    1    2    0    0  0.98701200662E+02 -0.72361827876E+02 -0.28376237431E+03  0.30902952322E+03  0.00000000000E+00 0.  1.
         11    1    1    2    0    0 -0.36983722480E+02 -0.96117621995E+02 -0.39812813631E+03  0.41123278798E+03  0.00000000000E+00 0. -1.
</event>
<event>
 7    1  0.6992302E-006  0.7719361E+02  0.7561462E-02  0.1337210E+00
         -2   -1    0    0    0  501 -0.00000000000E+00  0.00000000000E+00  0.22542718788E+02  0.22542718788E+02  0.00000000000E+00 0.  1.
          2   -1    0    0  501    0  0.00000000000E+00 -0.00000000000E+00 -0.67099950417E+03  0.67099950417E+03  0.00000000000E+00 0. -1.
         23    2    1    2    0    0  0.19217595235E+02 -0.50906940743E+02 -0.31426373329E+03  0.34259235766E+03  0.12508795659E+03 0.  0.
          5    1    3    3  502    0  0.17288499402E+02 -0.44943543961E+02 -0.27264969032E+02  0.55494732107E+02  0.41800000000E+01 0.  1.
         -5    1    3    3    0  502  0.19290958331E+01 -0.59633967821E+01 -0.28699876426E+03  0.28709762556E+03  0.41800000000E+01 0.  1.
        -11    1    1    2    0    0  0.21502208310E+01  0.69897924133E+02 -0.16272577871E+03  0.17711584431E+03  0.00000000000E+00 0.  1.
         11    1    1    2    0    0 -0.21367816066E+02 -0.18990983390E+02 -0.17146727337E+03  0.17383402099E+03  0.00000000000E+00 0. -1.
</event>
<event>
 7    1  0.6992302E-006  0.1849629E+03  0.7561462E-02  0.1163085E+00
         -2   -1    0    0    0  501 -0.00000000000E+00  0.00000000000E+00  0.18664241592E+03  0.18664241592E+03  0.00000000000E+00 0.  1.
          2   -1    0    0  501    0  0.00000000000E+00 -0.00000000000E+00 -0.30716865949E+03  0.30716865949E+03  0.00000000000E+00 0. -1.
         23    2    1    2    0    0 -0.14404610395E+03  0.92340004600E+02  0.68805089329E+02  0.22285682849E+03  0.12512021889E+03 0.  0.
          5    1    3    3  502    0 -0.92137614006E+02  0.32513930564E+02  0.97894893578E+02  0.13837405170E+03  0.41800000000E+01 0. -1.
         -5    1    3    3    0  502 -0.51908489943E+02  0.59826074036E+02 -0.29089804249E+02  0.84482776789E+02  0.41800000000E+01 0. -1.
        -11    1    1    2    0    0  0.53516346231E+02 -0.86980358563E+02 -0.86394313141E+02  0.13376680991E+03  0.00000000000E+00 0.  1.
         11    1    1    2    0    0  0.90529757718E+02 -0.53596460374E+01 -0.10293701975E+03  0.13718743701E+03  0.00000000000E+00 0. -1.
</event>
<event>
 7    1  0.6992302E-006  0.8140571E+02  0.7561462E-02  0.1325109E+00
          2   -1    0    0  501    0  0.00000000000E+00  0.00000000000E+00  0.32337376696E+03  0.32337376696E+03  0.00000000000E+00 0. -1.
         -2   -1    0    0    0  501 -0.00000000000E+00 -0.00000000000E+00 -0.75144267307E+02  0.75144267307E+02  0.00000000000E+00 0.  1.
         23    2    1    2    0    0 -0.10470897931E+02 -0.69744769950E+02  0.17139099102E+02  0.14461867061E+03  0.12508732363E+03 0.  0.
          5    1    3    3  502    0 -0.32807824936E+01 -0.67307489415E+01 -0.50837378727E+02  0.51555581569E+02  0.41800000000E+01 0.  1.
         -5    1    3    3    0  502 -0.71901154377E+01 -0.63014021009E+02  0.67976477829E+02  0.93063089041E+02  0.41800000000E+01 0.  1.
        -11    1    1    2    0    0 -0.22805276603E+02  0.39993355953E+02  0.52553773309E+02  0.69867361839E+02  0.00000000000E+00 0. -1.
         11    1    1    2    0    0  0.33276174534E+02  0.29751413997E+02  0.17853662725E+03  0.18403200182E+03  0.00000000000E+00 0.  1.
</event>
<event>
 7    1  0.6992302E-006  0.1392923E+03  0.7561462E-02  0.1214284E+00
          2   -1    0    0  501    0  0.00000000000E+00  0.00000000000E+00  0.79712088683E+03  0.79712088683E+03  0.00000000000E+00 0. -1.
         -2   -1    0    0    0  501 -0.00000000000E+00 -0.00000000000E+00 -0.26826699793E+02  0.26826699793E+02  0.00000000000E+00 0.  1.
         23    2    1    2    0    0  0.82494162215E+02  0.56210141140E+02  0.42458687053E+03  0.45374353212E+03  0.12507723833E+03 0.  0.
          5    1    3    3  502    0  0.52041635498E+02 -0.27979528489E+02  0.25654594776E+03  0.26329542637E+03  0.41800000000E+01 0.  1.
         -5    1    3    3    0  502  0.30452526717E+02  0.84189669629E+02  0.16804092277E+03  0.19044810574E+03  0.41800000000E+01 0.  1.
        -11    1    1    2    0    0 -0.44821457431E+02  0.16559116969E+02  0.93221241402E+02  0.10475384122E+03  0.00000000000E+00 0. -1.
         11    1    1    2    0    0 -0.37672704784E+02 -0.72769258109E+02  0.25248607511E+03  0.26545021329E+03  0.00000000000E+00 0.  1.
</event>
<event>
 6    1  0.6992302E-006  0.8787047E+02  0.7561462E-02  0.1308092E+00
         -1   -1    0    0    0  501 -0.00000000000E+00  0.00000000000E+00  0.96701484860E+02  0.96701484860E+02  0.00000000000E+00 0.  1.
          1   -1    0    0  501    0  0.00000000000E+00 -0.00000000000E+00 -0.26608239669E+03  0.26608239669E+03  0.00000000000E+00 0. -1.
          5    1    1    2  502    0  0.31716513676E+02  0.17436870495E+02 -0.14385175635E+03  0.14839400897E+03  0.41800000000E+01 0. -1.
         -5    1    1    2    0  502 -0.32795426376E+02  0.30129872335E+02  0.63223480347E+02  0.77446950006E+02  0.41800000000E+01 0.  1.
        -11    1    1    2    0    0  0.26818857606E+02 -0.60199587314E+02 -0.31788065715E+02  0.73169136649E+02  0.00000000000E+00 0. -1.
         11    1    1    2    0    0 -0.25739944907E+02  0.12632844484E+02 -0.56964570113E+02  0.63773785929E+02  0.00000000000E+00 0.  1.
</event>
<event>
 7    1  0.6992302E-006  0.1358616E+03  0.7561462E-02  0.1219008E+00
          2   -1    0    0  501    0  0.00000000000E+00  0.00000000000E+00  0.99521495955E+02  0.99521495955E+02  0.00000000000E+00 0. -1.
         -2   -1    0    0    0  501 -0.00000000000E+00 -0.00000000000E+00 -0.24592865998E+03  0.24592865998E+03  0.00000000000E+00 0.  1.
         23    2    1    2    0    0  0.69161879588E+02 -0.89542179667E+02 -0.91261585375E+02  0.19177509207E+03  0.12509133242E+03 0.  0.
          5    1    3    3  502    0  0.17015910563E+02 -0.94977910586E+02 -0.99354815429E+02  0.13856116505E+03  0.41800000000E+01 0.  1.
         -5    1    3    3    0  502  0.52145969024E+02  0.54357309189E+01  0.80932300534E+01  0.53213927019E+02  0.41800000000E+01 0.  1.
        -11    1    1    2    0    0 -0.29895272721E+02  0.63615109354E+01 -0.53572790815E+02  0.61678521936E+02  0.00000000000E+00 0.  1.
         11    1    1    2    0    0 -0.39266606867E+02  0.83180668732E+02 -0.15727878365E+01  0.91996541930E+02  0.00000000000E+00 0. -1.
</event>
<event>
 7    1  0.6992302E-006  0.2219483E+03  0.7561462E-02  0.1132439E+00
          2   -1    0    0  501    0  0.00000000000E+00  0.00000000000E+00  0.90444687367E+03  0.90444687367E+03  0.00000000000E+00 0. -1.
         -2   -1    0    0    0  501 -0.00000000000E+00 -0.00000000000E+00 -0.61186874137E+02  0.61186874137E+02  0.00000000000E+00 0.  1.
         23    2    1    2    0    0 -0.75701034896E+02 -0.18873420527E+03  0.34283159116E+03  0.41777105526E+03  0.12509159760E+03 0.  0.
          5    1    3    3  502    0  0.19848547625E+02 -0.13671078966E+02  0.10278059168E+03  0.10565124547E+03  0.41800000000E+01 0. -1.
         -5    1    3    3    0  502 -0.95549582521E+02 -0.17506312631E+03  0.24005099948E+03  0.31211980979E+03  0.41800000000E+01 0. -1.
        -11    1    1    2    0    0 -0.18561392072E+02  0.27335059217E+02  0.11254388880E+03  0.11729389432E+03  0.00000000000E+00 0.  1.
         11    1    1    2    0    0  0.94262426968E+02  0.16139914606E+03  0.38788451957E+03  0.43056879823E+03  0.00000000000E+00 0. -1.
</event>
<event>
 7    1  0.6992302E-006  0.1231507E+03  0.7561462E-02  0.1237988E+00
         -2   -1    0    0    0  501 -0.00000000000E+00  0.00000000000E+00  0.76868212369E+02  0.76868212369E+02  0.00000000000E+00 0.  1.
          2   -1    0    0  501    0  0.00000000000E+00 -0.00000000000E+00 -0.23046222281E+03  0.23046222281E+03  0.00000000000E+00 0. -1.
         23    2    1    2    0    0 -0.45609755110E+02  0.59832009017E+02 -0.79534935358E+02  0.16623233805E+03  0.12508902912E+03 0.  0.
          5    1    3    3  502    0  0.36118512330E+02 -0.49602956496E+01 -0.40857147148E+02  0.54917486641E+02  0.41800000000E+01 0. -1.
         -5    1    3    3    0  502 -0.81728267440E+02  0.64792304667E+02 -0.38677788210E+02  0.11131485141E+03  0.41800000000E+01 0. -1.
        -11    1    1    2    0    0  0.30877444628E+02  0.11075661001E+02  0.57762157370E+01  0.33308430188E+02  0.00000000000E+00 0. -1.
         11    1    1    2    0    0  0.14732310482E+02 -0.70907670018E+02 -0.79835290824E+02  0.10778966695E+03  0.00000000000E+00 0.  1.
</event>
<event>
 7    1  0.6992302E-006  0.1078212E+03  0.7561462E-02  0.1264659E+00
         -1   -1    0    0    0  501 -0.00000000000E+00  0.00000000000E+00  0.40055539188E+03  0.40055539188E+03  0.00000000000E+00 0.  1.
          1   -1    0    0  501    0  0.00000000000E+00 -0.00000000000E+00 -0.52809766244E+02  0.52809766244E+02  0.00000000000E+00 0. -1.
         23    2    1    2    0    0  0.17878850139E+02 -0.66717102995E+02  0.29011205678E+03  0.32339352857E+03  0.12509014235E+03 0.  0.
          5    1    3    3  502    0  0.63304998641E+02 -0.11711158945E+02  0.88704669100E+02  0.10968438730E+03  0.41800000000E+01 0.  1.
         -5    1    3    3    0  502 -0.45426148502E+02 -0.55005944050E+02  0.20140738768E+03  0.21370914127E+03  0.41800000000E+01 0.  1.
        -11    1    1    2    0    0 -0.30708019232E+02  0.46734655945E+02 -0.11310289803E+02  0.57052897971E+02  0.00000000000E+00 0. -1.
         11    1    1    2    0    0  0.12829169093E+02  0.19982447050E+02  0.68943858659E+02  0.72918731589E+02  0.00000000000E+00 0.  1.
</event>
<event>
 7    1  0.6992302E-006  0.1175317E+03  0.7561462E-02  0.1247225E+00
         -1   -1    0    0    0  501 -0.00000000000E+00  0.00000000000E+00  0.86896208874E+03  0.86896208874E+03  0.00000000000E+00 0.  1.
          1   -1    0    0  501    0  0.00000000000E+00 -0.00000000000E+00 -0.18260601358E+02  0.18260601358E+02  0.00000000000E+00 0. -1.
         23    2    1    2    0    0  0.54200859357E+02  0.28819821236E+02  0.45627429919E+03  0.47707688170E+03  0.12509116557E+03 0.  0.
          5    1    3    3  502    0  0.73573329120E+02 -0.19022552600E+02  0.17144909014E+03  0.18758239570E+03  0.41800000000E+01 0.  1.
         -5    1    3    3    0  502 -0.19372469764E+02  0.47842373836E+02  0.28482520904E+03  0.28949448600E+03  0.41800000000E+01 0.  1.
        -11    1    1    2    0    0 -0.58007208458E+02  0.17582187765E+02  0.28235415042E+03  0.28878683457E+03  0.00000000000E+00 0.  1.
         11    1    1    2    0    0  0.38063491008E+01 -0.46402009001E+02  0.11207303777E+03  0.12135897382E+03  0.00000000000E+00 0. -1.
</event>
<event>
 7    1  0.6992302E-006  0.9507606E+02  0.7561462E-02  0.1291005E+00
         -2   -1    0    0    0  501 -0.00000000000E+00  0.00000000000E+00  0.19299208909E+02  0.19299208909E+02  0.00000000000E+00 0.  1.
          2   -1    0    0  501    0  0.00000000000E+00 -0.00000000000E+00 -0.63415850684E+03  0.63415850684E+03  0.00000000000E+00 0. -1.
         23    2    1    2    0    0 -0.26222912894E+02  0.55640561569E+02 -0.31889428836E+03  0.34802984489E+03  0.12509073719E+03 0.  0.
          5    1    3    3  502    0  0.31635270933E+02  0.45892604178E+02 -0.25552621666E+03  0.26156842563E+03  0.41800000000E+01 0.  1.
         -5    1    3    3    0  502 -0.57858183827E+02  0.97479573909E+01 -0.63368071695E+02  0.86461419253E+02  0.41800000000E+01 0.  1.
        -11    1    1    2    0    0 -0.11371453511E+02 -0.22954269031E+02 -0.98931981467E+02  0.10219464457E+03  0.00000000000E+00 0.  1.
         11    1    1    2    0    0  0.37594366404E+02 -0.32686292538E+02 -0.19703302811E+03  0.20323322629E+03  0.00000000000E+00 0. -1.
</event>
<event>
 7    1  0.9583506E-006  0.2651148E+03  0.7561462E-02  0.1104109E+00
         -3   -1    0    0    0  501 -0.00000000000E+00  0.00000000000E+00  0.12892955399E+04  0.12892955399E+04  0.00000000000E+00 0.  1.
          3   -1    0    0  501    0  0.00000000000E+00 -0.00000000000E+00 -0.74942885898E+02  0.74942885898E+02  0.00000000000E+00 0. -1.
         23    2    1    2    0    0 -0.21139186733E+03  0.11972430395E+03  0.97039088047E+03  0.10081301707E+04  0.12509016640E+03 0.  0.
          5    1    3    3  502    0 -0.95193138173E+02  0.12414939184E+03  0.58321137147E+03  0.60384416968E+03  0.41800000000E+01 0.  1.
         -5    1    3    3    0  502 -0.11619872916E+03 -0.44250878966E+01  0.38717950900E+03  0.40428600106E+03  0.41800000000E+01 0.  1.
        -11    1    1    2    0    0  0.74076244800E+02 -0.90551883142E+02  0.88859147937E+02  0.14691113558E+03  0.00000000000E+00 0. -1.
         11    1    1    2    0    0  0.13731562253E+03 -0.29172420804E+02  0.15510262555E+03  0.20919711944E+03  0.00000000000E+00 0.  1.
</event>
<event>
 7    1  0.6992302E-006  0.2059366E+03  0.7561462E-02  0.1144825E+00
         -1   -1    0    0    0  501 -0.00000000000E+00  0.00000000000E+00  0.84012324711E+02  0.84012324711E+02  0.00000000000E+00 0.  1.
          1   -1    0    0  501    0  0.00000000000E+00 -0.00000000000E+00 -0.53268750695E+03  0.53268750695E+03  0.00000000000E+00 0. -1.
         23    2    1    2    0    0 -0.12424280567E+03 -0.12468390285E+03 -0.17052841975E+03  0.27515526138E+03  0.12509246792E+03 0.  0.
          5    1    3    3  502    0 -0.13945591746E+02 -0.10122536935E+03 -0.93157574802E+02  0.13833604401E+03  0.41800000000E+01 0. -1.
         -5    1    3    3    0  502 -0.11029721393E+03 -0.23458533502E+02 -0.77370844950E+02  0.13681921737E+03  0.41800000000E+01 0. -1.
        -11    1    1    2    0    0  0.11040144652E+03  0.50681491956E+02 -0.15123082442E+03  0.19397900731E+03  0.00000000000E+00 0. -1.
         11    1    1    2    0    0  0.13841359146E+02  0.74002410892E+02 -0.12691593807E+03  0.14756556298E+03  0.00000000000E+00 0.  1.
</event>
<event>
 7    1  0.6992302E-006  0.1340765E+03  0.7561462E-02  0.1221529E+00
         -1   -1    0    0    0  501 -0.00000000000E+00  0.00000000000E+00  0.32904187796E+03  0.32904187796E+03  0.00000000000E+00 0.  1.
          1   -1    0    0  501    0  0.00000000000E+00 -0.00000000000E+00 -0.65384192458E+02  0.65384192458E+02  0.00000000000E+00 0. -1.
         23    2    1    2    0    0  0.42193803105E+02  0.89299624092E+02  0.14058539250E+03  0.21252614116E+03  0.12509343791E+03 0.  0.
          5    1    3    3  502    0 -0.71678617398E+01  0.91532608382E+02  0.13401721722E+03  0.16250441086E+03  0.41800000000E+01 0.  1.
         -5    1    3    3    0  502  0.49361664844E+02 -0.22329842898E+01  0.65681752803E+01  0.50021730294E+02  0.41800000000E+01 0.  1.
        -11    1    1    2    0    0  0.56252181219E+01 -0.77101042034E+02  0.10261868924E+03  0.12847882760E+03  0.00000000000E+00 0. -1.
         11    1    1    2    0    0 -0.47819021227E+02 -0.12198582059E+02  0.20453603766E+02  0.53421101658E+02  0.00000000000E+00 0.  1.
</event>
<event>
 7    1  0.6992302E-006  0.1436014E+03  0.7561462E-02  0.1208564E+00
         -1   -1    0    0    0  501 -0.00000000000E+00  0.00000000000E+00  0.57307871063E+02  0.57307871063E+02  0.00000000000E+00 0.  1.
          1   -1    0    0  501    0  0.00000000000E+00 -0.00000000000E+00 -0.53210745815E+03  0.53210745815E+03  0.00000000000E+00 0. -1.
         23    2    1    2    0    0 -0.57849964282E+02  0.12253475944E+03 -0.21491321634E+03  0.28318884144E+03  0.12508734438E+03 0.  0.
          5    1    3    3  502    0 -0.16880899364E+02 -0.18928892676E+01 -0.12024143226E+03  0.12150729289E+03  0.41800000000E+01 0. -1.
         -5    1    3    3    0  502 -0.40969064918E+02  0.12442764871E+03 -0.94671784073E+02  0.16168154855E+03  0.41800000000E+01 0. -1.
        -11    1    1    2    0    0 -0.10954099475E+01 -0.22552839370E+02 -0.13038444405E+03  0.13232510622E+03  0.00000000000E+00 0. -1.
         11    1    1    2    0    0  0.58945374229E+02 -0.99981920070E+02 -0.12950192670E+03  0.17390138154E+03  0.00000000000E+00 0.  1.
</event>
<event>
 7    1  0.6992302E-006  0.1595397E+03  0.7561462E-02  0.1189217E+00
          1   -1    0    0  501    0  0.00000000000E+00  0.00000000000E+00  0.51320807516E+03  0.51320807516E+03  0.00000000000E+00 0. -1.
         -1   -1    0    0    0  501 -0.00000000000E+00 -0.00000000000E+00 -0.70319850743E+02  0.70319850743E+02  0.00000000000E+00 0.  1.
         23    2    1    2    0    0 -0.59971162816E+01  0.13846165427E+03  0.10500987921E+03  0.20784090227E+03  0.11385592130E+03 0.  0.
          5    1    3    3  502    0 -0.53156593028E+02  0.50482803605E+02  0.18595993011E+02  0.75745760266E+02  0.41800000000E+01 0. -1.
         -5    1    3    3    0  502  0.47159476747E+02  0.87978850668E+02  0.86413886202E+02  0.13209514200E+03  0.41800000000E+01 0.  1.
        -11    1    1    2    0    0  0.15981002989E+02 -0.15127360540E+02  0.80829886822E+01  0.23442785660E+02  0.00000000000E+00 0.  1.
         11    1    1    2    0    0 -0.99838867078E+01 -0.12333429373E+03  0.32979535652E+03  0.35224423797E+03  0.00000000000E+00 0. -1.
</event>
<event>
 7    1  0.6992302E-006  0.1157868E+03  0.7561462E-02  0.1250214E+00
         -1   -1    0    0    0  501 -0.00000000000E+00  0.00000000000E+00  0.19875644051E+03  0.19875644051E+03  0.00000000000E+00 0.  1.
          1   -1    0    0  501    0  0.00000000000E+00 -0.00000000000E+00 -0.74972168472E+02  0.74972168472E+02  0.00000000000E+00 0. -1.
         23    2    1    2    0    0  0.55303133064E+02 -0.42998336565E+01  0.84482555426E+02  0.16081801670E+03  0.12509279447E+03 0.  0.
          5    1    3    3  502    0 -0.15401969497E+02  0.39765631294E+02  0.10852948420E+01  0.42862295336E+02  0.41800000000E+01 0. -1.
         -5    1    3    3    0  502  0.70705102562E+02 -0.44065464950E+02  0.83397260584E+02  0.11795572136E+03  0.41800000000E+01 0. -1.
        -11    1    1    2    0    0  0.10021918454E+02 -0.29926170703E+02  0.66257720367E+01  0.32247719261E+02  0.00000000000E+00 0. -1.
         11    1    1    2    0    0 -0.65325051519E+02  0.34226004359E+02  0.32675944576E+02  0.80662873022E+02  0.00000000000E+00 0.  1.
</event>
<event>
 7    1  0.6992302E-006  0.7601698E+02  0.7561462E-02  0.1340750E+00
          1   -1    0    0  501    0  0.00000000000E+00  0.00000000000E+00  0.14680006195E+03  0.14680006195E+03  0.00000000000E+00 0. -1.
         -1   -1    0    0    0  501 -0.00000000000E+00 -0.00000000000E+00 -0.91957811728E+02  0.91957811728E+02  0.00000000000E+00 0.  1.
         23    2    1    2    0    0 -0.32672092423E+02 -0.12296853316E+02  0.11779367905E+02  0.13040257856E+03  0.12508957096E+03 0.  0.
          5    1    3    3  502    0 -0.23766781037E+02 -0.27736794157E+02 -0.52204440653E+02  0.63851121015E+02  0.41800000000E+01 0. -1.
         -5    1    3    3    0  502 -0.89053113858E+01  0.15439940842E+02  0.63983808557E+02  0.66551457547E+02  0.41800000000E+01 0. -1.
        -11    1    1    2    0    0  0.30664429162E+02 -0.36755908761E+02  0.92743725278E+01  0.48757748414E+02  0.00000000000E+00 0.  1.
         11    1    1    2    0    0  0.20076632611E+01  0.49052762076E+02  0.33788509788E+02  0.59597546701E+02  0.00000000000E+00 0. -1.
</event>
<event>
 7    1  0.6992302E-006  0.1038416E+03  0.7561462E-02  0.1272419E+00
         -4   -1    0    0    0  501 -0.00000000000E+00  0.00000000000E+00  0.31530371509E+03  0.31530371509E+03  0.00000000000E+00 0.  1.
          4   -1    0    0  501    0  0.00000000000E+00 -0.00000000000E+00 -0.52620702569E+02  0.52620702569E+02  0.00000000000E+00 0. -1.
         23    2    1    2    0    0 -0.10865939001E+02 -0.65943969021E+02  0.17278306064E+03  0.22353283374E+03  0.12508503522E+03 0.  0.
          5    1    3    3  502    0  0.13026161318E+01  0.16527961179E+02 -0.11921326665E+02  0.20843721811E+02  0.41800000000E+01 0. -1.
         -5    1    3    3    0  502 -0.12168555132E+02 -0.82471930200E+02  0.18470438731E+03  0.20268911193E+03  0.41800000000E+01 0. -1.
        -11    1    1    2    0    0  0.47414761442E+02  0.31735899345E+02  0.70521483091E+02  0.90711666765E+02  0.00000000000E+00 0. -1.
         11    1    1    2    0    0 -0.36548822442E+02  0.34208069676E+02  0.19378468788E+02  0.53679917151E+02  0.00000000000E+00 0.  1.
</event>
<event>
 7    1  0.6992302E-006  0.1641964E+03  0.7561462E-02  0.1184039E+00
         -3   -1    0    0    0  501 -0.00000000000E+00  0.00000000000E+00  0.28400352680E+03  0.28400352680E+03  0.00000000000E+00 0.  1.
          3   -1    0    0  501    0  0.00000000000E+00 -0.00000000000E+00 -0.96478697095E+02  0.96478697095E+02  0.00000000000E+00 0. -1.
         23    2    1    2    0    0 -0.12390002695E+03  0.76654155985E+01  0.93461153919E+02  0.19948031273E+03  0.12508969822E+03 0.  0.
          5    1    3    3  502    0 -0.22211057787E+02  0.56543507154E+02  0.17344109892E+02  0.63315004835E+02  0.41800000000E+01 0. -1.
         -5    1    3    3    0  502 -0.10168896916E+03 -0.48878091555E+02  0.76117044026E+02  0.13616530790E+03  0.41800000000E+01 0. -1.
        -11    1    1    2    0    0  0.39071111361E+02 -0.46976590921E+02  0.35060838955E+02  0.70445825041E+02  0.00000000000E+00 0.  1.
         11    1    1    2    0    0  0.84828915587E+02  0.39311175322E+02  0.59002836833E+02  0.11055608613E+03  0.00000000000E+00 0. -1.
</event>
<event>
 7    1  0.6992302E-006  0.9575144E+02  0.7561462E-02  0.1289493E+00
         -2   -1    0    0    0  501 -0.00000000000E+00  0.00000000000E+00  0.63293036307E+03  0.63293036307E+03  0.00000000000E+00 0.  1.
          2   -1    0    0  501    0  0.00000000000E+00 -0.00000000000E+00 -0.30295012263E+02  0.30295012263E+02  0.00000000000E+00 0. -1.
         23    2    1    2    0    0 -0.60475161829E+02 -0.33867654055E+02  0.45509591734E+03  0.47703808145E+03  0.12509505979E+03 0.  0.
          5    1    3    3  502    0 -0.60145397370E+02 -0.64219338053E+02  0.42520485202E+03  0.43423292227E+03  0.41800000000E+01 0. -1.
         -5    1    3    3    0  502 -0.32976445881E+00  0.30351683998E+02  0.29891065322E+02  0.42805159177E+02  0.41800000000E+01 0. -1.
        -11    1    1    2    0    0  0.32789592289E+02  0.56992782863E+01  0.14254253799E+03  0.14637627633E+03  0.00000000000E+00 0.  1.
         11    1    1    2    0    0  0.27685569540E+02  0.28168375768E+02  0.49968954760E+01  0.39811017553E+02  0.00000000000E+00 0. -1.
</event>
<event>
 7    1  0.6992302E-006  0.1017688E+03  0.7561462E-02  0.1276620E+00
         -2   -1    0    0    0  501 -0.00000000000E+00  0.00000000000E+00  0.98077604192E+03  0.98077604192E+03  0.00000000000E+00 0.  1.
          2   -1    0    0  501    0  0.00000000000E+00 -0.00000000000E+00 -0.13821743763E+02  0.13821743763E+02  0.00000000000E+00 0. -1.
         23    2    1    2    0    0  0.55141905791E+01  0.52145905125E+02  0.51502880650E+03  0.53072602021E+03  0.11690096356E+03 0.  0.
          5    1    3    3  502    0 -0.54350054719E+01 -0.22519373988E+02  0.22947392994E+02  0.32874256410E+02  0.41800000000E+01 0. -1.
         -5    1    3    3    0  502  0.10949196051E+02  0.74665279113E+02  0.49208141350E+03  0.49785176380E+03  0.41800000000E+01 0.  1.
        -11    1    1    2    0    0  0.41340308476E+02 -0.12922435366E+02  0.20092836706E+03  0.20554371587E+03  0.00000000000E+00 0.  1.
         11    1    1    2    0    0 -0.46854499055E+02 -0.39223469759E+02  0.25099712460E+03  0.25832804962E+03  0.00000000000E+00 0. -1.
</event>
<event>
 7    1  0.6992302E-006  0.9300916E+02  0.7561462E-02  0.1295724E+00
         -1   -1    0    0    0  501 -0.00000000000E+00  0.00000000000E+00  0.28701824053E+02  0.28701824053E+02  0.00000000000E+00 0.  1.
          1   -1    0    0  501    0  0.00000000000E+00 -0.00000000000E+00 -0.47321454533E+03  0.47321454533E+03  0.00000000000E+00 0. -1.
         23    2    1    2    0    0  0.11901944949E+02 -0.27354579678E+02 -0.18294412252E+03  0.22362576947E+03  0.12509997395E+03 0.  0.
          5    1    3    3  502    0 -0.25300106702E+02  0.36183391946E+02 -0.11537556059E+03  0.12360552428E+03  0.41800000000E+01 0.  1.
         -5    1    3    3    0  502  0.37202051651E+02 -0.63537971625E+02 -0.67568561932E+02  0.10002024518E+03  0.41800000000E+01 0.  1.
        -11    1    1    2    0    0 -0.36170350299E+02  0.24037343020E+02 -0.24476194600E+03  0.24858499212E+03  0.00000000000E+00 0. -1.
         11    1    1    2    0    0  0.24268405350E+02  0.33172366581E+01 -0.16806652755E+02  0.29705607789E+02  0.00000000000E+00 0.  1.
</event>
<event>
 7    1  0.6992302E-006  0.1325885E+03  0.7561462E-02  0.1223665E+00
          1   -1    0    0  501    0  0.00000000000E+00  0.00000000000E+00  0.17238634578E+03  0.17238634578E+03  0.00000000000E+00 0. -1.
         -1   -1    0    0    0  501 -0.00000000000E+00 -0.00000000000E+00 -0.13329998937E+03  0.13329998937E+03  0.00000000000E+00 0.  1.
         23    2    1    2    0    0 -0.54256753835E+02 -0.88254692095E+02 -0.97991939883E+01  0.16271458738E+03  0.12508927504E+03 0.  0.
          5    1    3    3  502    0 -0.67802251340E+02 -0.26704420137E+02  0.39129613845E+02  0.82818297623E+02  0.41800000000E+01 0. -1.
         -5    1    3    3    0  502  0.13545497504E+02 -0.61550271958E+02 -0.48928807833E+02  0.79896289756E+02  0.41800000000E+01 0. -1.
        -11    1    1    2    0    0  0.67366894080E+02  0.38544885673E+02  0.48574262590E+02  0.91561267006E+02  0.00000000000E+00 0. -1.
         11    1    1    2    0    0 -0.13110140245E+02  0.49709806421E+02  0.31128780713E+00  0.51410480758E+02  0.00000000000E+00 0.  1.
</event>
<event>
 7    1  0.6992302E-006  0.1043525E+03  0.7561462E-02  0.1271401E+00
          1   -1    0    0  501    0  0.00000000000E+00  0.00000000000E+00  0.53106972923E+02  0.53106972923E+02  0.00000000000E+00 0. -1.
         -1   -1    0    0    0  501 -0.00000000000E+00 -0.00000000000E+00 -0.26189838101E+03  0.26189838101E+03  0.00000000000E+00 0.  1.
         23    2    1    2    0    0 -0.19686716946E+02 -0.43690408216E+02 -0.11295012483E+03  0.17521730401E+03  0.12508778650E+03 0.  0.
          5    1    3    3  502    0 -0.65795559609E+02 -0.17519878087E+02 -0.25423347340E+02  0.72799868011E+02  0.41800000000E+01 0. -1.
         -5    1    3    3    0  502  0.46108842662E+02 -0.26170530130E+02 -0.87526777488E+02  0.10241743600E+03  0.41800000000E+01 0. -1.
        -11    1    1    2    0    0 -0.10676821920E+02 -0.16636962352E+02 -0.60324482207E+02  0.63480912062E+02  0.00000000000E+00 0.  1.
         11    1    1    2    0    0  0.30363538866E+02  0.60327370568E+02 -0.35516801053E+02  0.76307137865E+02  0.00000000000E+00 0. -1.
</event>
<event>
 7    1  0.6992302E-006  0.2615728E+03  0.7561462E-02  0.1106202E+00
          1   -1    0    0  501    0  0.00000000000E+00  0.00000000000E+00  0.14340387515E+04  0.14340387515E+04  0.00000000000E+00 0. -1.
         -1   -1    0    0    0  501 -0.00000000000E+00 -0.00000000000E+00 -0.50419924844E+02  0.50419924844E+02  0.00000000000E+00 0.  1.
         23    2    1    2    0    0 -0.18936122267E+03 -0.14782266945E+03  0.56260866054E+03  0.62440872319E+03  0.12509410227E+03 0.  0.
          5    1    3    3  502    0 -0.11011152750E+03 -0.10820657357E+02  0.19683109667E+03  0.22583531196E+03  0.41800000000E+01 0.  1.
         -5    1    3    3    0  502 -0.79249695172E+02 -0.13700201210E+03  0.36577756388E+03  0.39857341123E+03  0.41800000000E+01 0.  1.
        -11    1    1    2    0    0  0.17212178221E+03  0.90958902192E+02  0.57900815004E+03  0.61085994107E+03  0.00000000000E+00 0. -1.
         11    1    1    2    0    0  0.17239440466E+02  0.56863767262E+02  0.24200201605E+03  0.24919001205E+03  0.00000000000E+00 0.  1.
</event>
<event>
 6    1  0.6992302E-006  0.2815098E+03  0.7561462E-02  0.1094867E+00
          1   -1    0    0  501    0  0.00000000000E+00  0.00000000000E+00  0.29438693352E+03  0.29438693352E+03  0.00000000000E+00 0. -1.
         -1   -1    0    0    0  501 -0.00000000000E+00 -0.00000000000E+00 -0.42982790370E+03  0.42982790370E+03  0.00000000000E+00 0.  1.
          5    1    1    2  502    0  0.21378354174E+03 -0.68608261564E+02 -0.88362586729E+02  0.24132118723E+03  0.41800000000E+01 0. -1.
         -5    1    1    2    0  502 -0.21042809770E+03 -0.31377806282E+02 -0.19100675623E+03  0.28594685582E+03  0.41800000000E+01 0.  1.
        -11    1    1    2    0    0 -0.33078931725E+02  0.16345214698E+02  0.13730259551E+02  0.39368792145E+02  0.00000000000E+00 0.  1.
         11    1    1    2    0    0  0.29723487688E+02  0.83640853147E+02  0.13019811323E+03  0.15757800203E+03  0.00000000000E+00 0. -1.
</event>
<event>
 7    1  0.6992302E-006  0.8657059E+02  0.7561462E-02  0.1311376E+00
         -2   -1    0    0    0  501 -0.00000000000E+00  0.00000000000E+00  0.33127829589E+02  0.33127829589E+02  0.00000000000E+00 0.  1.
          2   -1    0    0  501    0  0.00000000000E+00 -0.00000000000E+00 -0.57910746678E+03  0.57910746678E+03  0.00000000000E+00 0. -1.
         23    2    1    2    0    0  0.13207823478E+02 -0.62832376935E+02 -0.17289478981E+03  0.22285214104E+03  0.12509242275E+03 0.  0.
          5    1    3    3  502    0 -0.17630631345E+00 -0.24237633724E+02 -0.17957309212E+03  0.18124972217E+03  0.41800000000E+01 0.  1.
         -5    1    3    3    0  502  0.13384129791E+02 -0.38594743211E+02  0.66783023160E+01  0.41602418867E+02  0.41800000000E+01 0.  1.
        -11    1    1    2    0    0 -0.23105670321E+02  0.82386785378E+02 -0.24683403200E+03  0.26124412675E+03  0.00000000000E+00 0.  1.
         11    1    1    2    0    0  0.98978468435E+01 -0.19554408443E+02 -0.12625081538E+03  0.12813902858E+03  0.00000000000E+00 0. -1.
</event>
<event>
 7    1  0.6992302E-006  0.9710852E+02  0.7561462E-02  0.1286497E+00
         -2   -1    0    0    0  501 -0.00000000000E+00  0.00000000000E+00  0.10636679646E+03  0.10636679646E+03  0.00000000000E+00 0.  1.
          2   -1    0    0  501    0  0.00000000000E+00 -0.00000000000E+00 -0.12855549707E+03  0.12855549707E+03  0.00000000000E+00 0. -1.
         23    2    1    2    0    0  0.57332419111E+02 -0.10825097914E+02  0.99870374139E+01  0.13838320964E+03  0.12508390291E+03 0.  0.
          5    1    3    3  502    0  0.37525038694E+02 -0.52142751997E+02 -0.35640612326E+02  0.73584786212E+02  0.41800000000E+01 0.  1.
         -5    1    3    3    0  502  0.19807380417E+02  0.41317654083E+02  0.45627649740E+02  0.64798423428E+02  0.41800000000E+01 0.  1.
        -11    1    1    2    0    0 -0.27483564841E+02 -0.25031741388E+02  0.41567306733E+01  0.37406053296E+02  0.00000000000E+00 0.  1.
         11    1    1    2    0    0 -0.29848854270E+02  0.35856839302E+02 -0.36332468693E+02  0.59133030594E+02  0.00000000000E+00 0. -1.
</event>
<event>
 7    1  0.6992302E-006  0.1127894E+03  0.7561462E-02  0.1255490E+00
         -1   -1    0    0    0  501 -0.00000000000E+00  0.00000000000E+00  0.10915094812E+03  0.10915094812E+03  0.00000000000E+00 0.  1.
          1   -1    0    0  501    0  0.00000000000E+00 -0.00000000000E+00 -0.12750311159E+03  0.12750311159E+03  0.00000000000E+00 0. -1.
         23    2    1    2    0    0  0.15862879290E+02 -0.41043242847E+02 -0.20677397006E+02  0.13420503277E+03  0.12508899772E+03 0.  0.
          5    1    3    3  502    0  0.62630418887E+02 -0.45859456847E+02  0.92967643624E+01  0.78291515376E+02  0.41800000000E+01 0.  1.
         -5    1    3    3    0  502 -0.46767539597E+02  0.48162139999E+01 -0.29974161369E+02  0.55913517390E+02  0.41800000000E+01 0.  1.
        -11    1    1    2    0    0  0.32070412200E+02 -0.69452817783E+01 -0.81680354298E+01  0.33815160512E+02  0.00000000000E+00 0. -1.
         11    1    1    2    0    0 -0.47933291490E+02  0.47988524626E+02  0.10493268966E+02  0.68633866440E+02  0.00000000000E+00 0.  1.
</event>
<event>
 7    1  0.6992302E-006  0.1602273E+03  0.7561462E-02  0.1188440E+00
         -1   -1    0    0    0  501 -0.00000000000E+00  0.00000000000E+00  0.63292534631E+02  0.63292534631E+02  0.00000000000E+00 0. -1.
          1   -1    0    0  501    0  0.00000000000E+00 -0.00000000000E+00 -0.47294086915E+03  0.47294086915E+03  0.00000000000E+00 0.  1.
         23    2    1    2    0    0 -0.13063393699E+03  0.32570941891E+02 -0.23830194405E+03  0.30093196910E+03  0.12508453836E+03 0.  0.
          5    1    3    3  502    0 -0.32188609194E+02  0.67164410155E+02 -0.13382985548E+03  0.15321575366E+03  0.41800000000E+01 0. -1.
         -5    1    3    3    0  502 -0.98445327792E+02 -0.34593468263E+02 -0.10447208858E+03  0.14771621543E+03  0.41800000000E+01 0. -1.
        -11    1    1    2    0    0  0.11800457163E+03 -0.13806760400E+02 -0.17586482925E+03  0.21223605661E+03  0.00000000000E+00 0.  1.
         11    1    1    2    0    0  0.12629365355E+02 -0.18764181491E+02  0.45184387915E+01  0.23065378068E+02  0.00000000000E+00 0. -1.
</event>
<event>
 7    1  0.6992302E-006  0.1545787E+03  0.7561462E-02  0.1194957E+00
         -1   -1    0    0    0  501 -0.00000000000E+00  0.00000000000E+00  0.61581748945E+02  0.61581748945E+02  0.00000000000E+00 0.  1.
          1   -1    0    0  501    0  0.00000000000E+00 -0.00000000000E+00 -0.44607194016E+03  0.44607194016E+03  0.00000000000E+00 0. -1.
         23    2    1    2    0    0  0.25431113470E+02 -0.11174145476E+03 -0.13155006184E+03  0.21467429504E+03  0.12508692953E+03 0.  0.
          5    1    3    3  502    0  0.36065195390E+02 -0.13645335338E+03 -0.10013374427E+03  0.17310244109E+03  0.41800000000E+01 0. -1.
         -5    1    3    3    0  502 -0.10634081919E+02  0.24711898629E+02 -0.31416317568E+02  0.41571853959E+02  0.41800000000E+01 0. -1.
        -11    1    1    2    0    0  0.19750928314E+02  0.87008947300E+02 -0.20058880791E+03  0.21953707190E+03  0.00000000000E+00 0. -1.
         11    1    1    2    0    0 -0.45182041784E+02  0.24732507456E+02 -0.52351321465E+02  0.73442322158E+02  0.00000000000E+00 0.  1.
</event>
<event>
 7    1  0.6992302E-006  0.1099285E+03  0.7561462E-02  0.1260702E+00
          2   -1    0    0  501    0  0.00000000000E+00  0.00000000000E+00  0.19189123136E+03  0.19189123136E+03  0.00000000000E+00 0. -1.
         -2   -1    0    0    0  501 -0.00000000000E+00 -0.00000000000E+00 -0.13727865177E+03  0.13727865177E+03  0.00000000000E+00 0.  1.
         23    2    1    2    0    0  0.71790085192E+02  0.29268800659E+02 -0.64335305702E+02  0.16061669373E+03  0.12509281242E+03 0.  0.
          5    1    3    3  502    0 -0.10359167033E+02  0.38729136539E+02  0.17734265016E+02  0.44036745047E+02  0.41800000000E+01 0. -1.
         -5    1    3    3    0  502  0.82149252225E+02 -0.94603358801E+01 -0.82069570718E+02  0.11657994868E+03  0.41800000000E+01 0. -1.
        -11    1    1    2    0    0 -0.33703303458E+02 -0.44422236791E+02  0.16409306119E+02  0.58124978390E+02  0.00000000000E+00 0.  1.
         11    1    1    2    0    0 -0.38086781733E+02  0.15153436132E+02  0.10253857917E+03  0.11042821101E+03  0.00000000000E+00 0. -1.
</event>
<event>
 7    1  0.6992302E-006  0.8953742E+02  0.7561462E-02  0.1303976E+00
         -1   -1    0    0    0  501 -0.00000000000E+00  0.00000000000E+00  0.44144435806E+02  0.44144435806E+02  0.00000000000E+00 0.  1.
          1   -1    0    0  501    0  0.00000000000E+00 -0.00000000000E+00 -0.30972057099E+03  0.30972057099E+03  0.00000000000E+00 0. -1.
         23    2    1    2    0    0  0.24992810617E+02  0.34265225343E+02 -0.11674248382E+03  0.17628045937E+03  0.12508895466E+03 0.  0.
          5    1    3    3  502    0  0.40861197652E+02 -0.40320344533E+01 -0.12686004207E+03  0.13340478795E+03  0.41800000000E+01 0.  1.
         -5    1    3    3    0  502 -0.15868387035E+02  0.38297259796E+02  0.10117558248E+02  0.42875671422E+02  0.41800000000E+01 0.  1.
        -11    1    1    2    0    0 -0.45747406513E+02 -0.51698686211E+02 -0.96524163214E+02  0.11866968207E+03  0.00000000000E+00 0. -1.
         11    1    1    2    0    0  0.20754595896E+02  0.17433460869E+02 -0.52309488147E+02  0.58914865348E+02  0.00000000000E+00 0.  1.
</event>
<event>
 7    1  0.6992302E-006  0.7241837E+02  0.7561462E-02  0.1352057E+00
          1   -1    0    0  501    0  0.00000000000E+00  0.00000000000E+00  0.90728183076E+02  0.90728183076E+02  0.00000000000E+00 0. -1.
         -1   -1    0    0    0  501 -0.00000000000E+00 -0.00000000000E+00 -0.15345229556E+03  0.15345229556E+03  0.00000000000E+00 0.  1.
         23    2    1    2    0    0  0.38265572412E+02  0.22948277940E+02 -0.53988417246E+02  0.14336144335E+03  0.12508747639E+03 0.  0.
          5    1    3    3  502    0  0.25096456137E+02  0.13702107872E+02 -0.94899385567E+02  0.99201540572E+02  0.41800000000E+01 0.  1.
         -5    1    3    3    0  502  0.13169116276E+02  0.92461700677E+01  0.40910968321E+02  0.44159902778E+02  0.41800000000E+01 0.  1.
        -11    1    1    2    0    0 -0.65765168090E+02 -0.39365461710E+01 -0.12884546726E+02  0.67130956153E+02  0.00000000000E+00 0.  1.
         11    1    1    2    0    0  0.27499595678E+02 -0.19011731769E+02  0.41488514857E+01  0.33688079137E+02  0.00000000000E+00 0. -1.
</event>
<event>
 6    1  0.6992302E-006  0.1791349E+03  0.7561462E-02  0.1168643E+00
          1   -1    0    0  501    0  0.00000000000E+00  0.00000000000E+00  0.18518802986E+03  0.18518802986E+03  0.00000000000E+00 0. -1.
         -1   -1    0    0    0  501 -0.00000000000E+00 -0.00000000000E+00 -0.23772320144E+03  0.23772320144E+03  0.00000000000E+00 0.  1.
          5    1    1    2  502    0  0.41678119123E+02 -0.12959502896E+03 -0.98756836684E+01  0.13655379406E+03  0.41800000000E+01 0. -1.
         -5    1    1    2    0  502 -0.30738622428E+02  0.13612912810E+03 -0.10809789183E+03  0.17657471236E+03  0.41800000000E+01 0.  1.
        -11    1    1    2    0    0  0.34716228440E+02  0.57169185115E+01  0.92983789131E+01  0.36391750779E+02  0.00000000000E+00 0. -1.
         11    1    1    2    0    0 -0.45655725135E+02 -0.12251017651E+02  0.56140025007E+02  0.73390974097E+02  0.00000000000E+00 0.  1.
</event>
<event>
 7    1  0.6992302E-006  0.1940775E+03  0.7561462E-02  0.1154834E+00
         -1   -1    0    0    0  501 -0.00000000000E+00  0.00000000000E+00  0.51402181327E+02  0.51402181327E+02  0.00000000000E+00 0.  1.
          1   -1    0    0  501    0  0.00000000000E+00 -0.00000000000E+00 -0.85133871969E+03  0.85133871969E+03  0.00000000000E+00 0. -1.
         23    2    1    2    0    0 -0.12730821255E+03 -0.12154085971E+03 -0.47396238249E+03  0.52083387941E+03  0.12509207957E+03 0.  0.
          5    1    3    3  502    0 -0.96349254646E+02 -0.13879926183E+03 -0.44089224011E+03  0.47217777769E+03  0.41800000000E+01 0. -1.
         -5    1    3    3    0  502 -0.30958957903E+02  0.17258402119E+02 -0.33070142380E+02  0.48656101726E+02  0.41800000000E+01 0. -1.
        -11    1    1    2    0    0  0.76538397113E+02  0.10523749387E+03 -0.15275805594E+03  0.20066908084E+03  0.00000000000E+00 0.  1.
         11    1    1    2    0    0  0.50769815436E+02  0.16303365843E+02 -0.17321609993E+03  0.18123794076E+03  0.00000000000E+00 0. -1.
</event>
<event>
 7    1  0.6992302E-006  0.3616871E+03  0.7561462E-02  0.1057918E+00
         -1   -1    0    0    0  501 -0.00000000000E+00  0.00000000000E+00  0.12822681125E+03  0.12822681125E+03  0.00000000000E+00 0.  1.
          1   -1    0    0  501    0  0.00000000000E+00 -0.00000000000E+00 -0.11332356584E+04  0.11332356584E+04  0.00000000000E+00 0. -1.
         23    2    1    2    0    0 -0.30695661696E+03  0.17003589244E+03 -0.34175180755E+03  0.50551908239E+03  0.12498269993E+03 0.  0.
          5    1    3    3  502    0  0.67622108029E+01  0.24761935112E+02 -0.16302092712E+02  0.30693835737E+02  0.41800000000E+01 0.  1.
         -5    1    3    3    0  502 -0.31371882776E+03  0.14527395733E+03 -0.32544971484E+03  0.47482524665E+03  0.41800000000E+01 0.  1.
        -11    1    1    2    0    0  0.12588096840E+03 -0.57221843042E+02 -0.35572922117E+03  0.38165905770E+03  0.00000000000E+00 0.  1.
         11    1    1    2    0    0  0.18107564856E+03 -0.11281404940E+03 -0.30752781841E+03  0.37428432954E+03  0.00000000000E+00 0. -1.
</event>
<event>
 7    1  0.6992302E-006  0.2207884E+03  0.7561462E-02  0.1133297E+00
         -2   -1    0    0    0  501 -0.00000000000E+00  0.00000000000E+00  0.29324594286E+02  0.29324594286E+02  0.00000000000E+00 0.  1.
          2   -1    0    0  501    0  0.00000000000E+00 -0.00000000000E+00 -0.19264207890E+04  0.19264207890E+04  0.00000000000E+00 0. -1.
         23    2    1    2    0    0 -0.18328274381E+03  0.11001692857E+03 -0.10094987518E+04  0.10386589614E+04  0.11844162885E+03 0.  0.
          5    1    3    3  502    0 -0.15181960175E+03  0.98624860128E+02 -0.96983775823E+03  0.98659961696E+03  0.41800000000E+01 0. -1.
         -5    1    3    3    0  502 -0.31463142065E+02  0.11392068439E+02 -0.39660993609E+02  0.52059344463E+02  0.41800000000E+01 0.  1.
        -11    1    1    2    0    0  0.26960962852E+01  0.97212631862E+01 -0.15644525348E+02  0.18615130042E+02  0.00000000000E+00 0. -1.
         11    1    1    2    0    0  0.18058664753E+03 -0.11973819175E+03 -0.87195291753E+03  0.89847129181E+03  0.00000000000E+00 0.  1.
</event>
<event>
 6    1  0.6992302E-006  0.1061894E+03  0.7561462E-02  0.1267794E+00
         -1   -1    0    0    0  501 -0.00000000000E+00  0.00000000000E+00  0.11999761235E+03  0.11999761235E+03  0.00000000000E+00 0.  1.
          1   -1    0    0  501    0  0.00000000000E+00 -0.00000000000E+00 -0.13065137101E+03  0.13065137101E+03  0.00000000000E+00 0. -1.
          5    1    1    2  502    0 -0.20587697425E+02  0.51626777413E+02  0.16720957419E+02  0.58191410434E+02  0.41800000000E+01 0. -1.
         -5    1    1    2    0  502  0.59602221036E+02 -0.67583625352E+02 -0.23687658564E+02  0.93266010617E+02  0.41800000000E+01 0.  1.
        -11    1    1    2    0    0 -0.16152978043E+02  0.33781406517E+02 -0.38623121823E+02  0.53794494748E+02  0.00000000000E+00 0. -1.
         11    1    1    2    0    0 -0.22861545567E+02 -0.17824558577E+02  0.34936064303E+02  0.45397067561E+02  0.00000000000E+00 0.  1.
</event>
<event>
 7    1  0.6992302E-006  0.1644332E+03  0.7561462E-02  0.1183781E+00
          2   -1    0    0  501    0  0.00000000000E+00  0.00000000000E+00  0.15315848399E+03  0.15315848399E+03  0.00000000000E+00 0. -1.
         -2   -1    0    0    0  501 -0.00000000000E+00 -0.00000000000E+00 -0.27631736827E+03  0.27631736827E+03  0.00000000000E+00 0.  1.
         23    2    1    2    0    0 -0.47308462360E+02  0.12682863285E+03 -0.17917554147E+03  0.25705029120E+03  0.12508950724E+03 0.  0.
          5    1    3    3  502    0 -0.41900291569E+02  0.69954602930E+00 -0.98619492277E+02  0.10723525752E+03  0.41800000000E+01 0. -1.
         -5    1    3    3    0  502 -0.54081707909E+01  0.12612908682E+03 -0.80556049195E+02  0.14981503368E+03  0.41800000000E+01 0. -1.
        -11    1    1    2    0    0 -0.23669857885E+02 -0.15118484569E+02  0.22256689680E+02  0.35835610550E+02  0.00000000000E+00 0. -1.
         11    1    1    2    0    0  0.70978320245E+02 -0.11171014828E+03  0.33759967510E+02  0.13658995051E+03  0.00000000000E+00 0.  1.
</event>
<event>
 7    1  0.6992302E-006  0.3426420E+03  0.7561462E-02  0.1065676E+00
          1   -1    0    0  501    0  0.00000000000E+00  0.00000000000E+00  0.71618973882E+03  0.71618973882E+03  0.00000000000E+00 0. -1.
         -1   -1    0    0    0  501 -0.00000000000E+00 -0.00000000000E+00 -0.18445680666E+03  0.18445680666E+03  0.00000000000E+00 0.  1.
         23    2    1    2    0    0 -0.20207527980E+03  0.26786605711E+03  0.16183950020E+03  0.39297209345E+03  0.12509356157E+03 0.  0.
          5    1    3    3  502    0 -0.72777355503E+02  0.55077075470E+02  0.10184354455E+03  0.13681961732E+03  0.41800000000E+01 0. -1.
         -5    1    3    3    0  502 -0.12929792430E+03  0.21278898164E+03  0.59995955653E+02  0.25615247613E+03  0.41800000000E+01 0. -1.
        -11    1    1    2    0    0 -0.72439171080E+01 -0.14788093575E+02  0.60922065192E+01  0.17557819538E+02  0.00000000000E+00 0.  1.
         11    1    1    2    0    0  0.20931919691E+03 -0.25307796353E+03  0.36380122543E+03  0.49011663249E+03  0.00000000000E+00 0. -1.
</event>
<event>
 7    1  0.6992302E-006  0.1069209E+03  0.7561462E-02  0.1266380E+00
         -2   -1    0    0    0  501 -0.00000000000E+00  0.00000000000E+00  0.27585716796E+02  0.27585716796E+02  0.00000000000E+00 0. -1.
          2   -1    0    0  501    0  0.00000000000E+00 -0.00000000000E+00 -0.48800299887E+03  0.48800299887E+03  0.00000000000E+00 0.  1.
         23    2    1    2    0    0 -0.96568405560E+01 -0.18917969286E+02 -0.20752368156E+03  0.24323863661E+03  0.12509121392E+03 0.  0.
          5    1    3    3  502    0 -0.45115371965E+02 -0.52749274667E+02 -0.76983011598E+02  0.10373880296E+03  0.41800000000E+01 0. -1.
         -5    1    3    3    0  502  0.35458531409E+02  0.33831305381E+02 -0.13054066996E+03  0.13949983365E+03  0.41800000000E+01 0. -1.
        -11    1    1    2    0    0  0.51245418600E+02  0.61450097406E+01 -0.90022793495E+02  0.10376876901E+03  0.00000000000E+00 0. -1.
         11    1    1    2    0    0 -0.41588578044E+02  0.12772959545E+02 -0.16287080702E+03  0.16858131005E+03  0.00000000000E+00 0.  1.
</event>
<event>
 7    1  0.6992302E-006  0.1317298E+03  0.7561462E-02  0.1224911E+00
          2   -1    0    0  501    0  0.00000000000E+00  0.00000000000E+00  0.23443155883E+03  0.23443155883E+03  0.00000000000E+00 0. -1.
         -2   -1    0    0    0  501 -0.00000000000E+00 -0.00000000000E+00 -0.11503604580E+03  0.11503604580E+03  0.00000000000E+00 0.  1.
         23    2    1    2    0    0  0.10662539556E+03 -0.12727199869E+02  0.29168854135E+02  0.16740173251E+03  0.12506622806E+03 0.  0.
          5    1    3    3  502    0  0.76929552817E+02  0.68103411235E+01 -0.41801603303E+02  0.87916911238E+02  0.41800000000E+01 0. -1.
         -5    1    3    3    0  502  0.29695842742E+02 -0.19537540993E+02  0.70970457438E+02  0.79484821275E+02  0.41800000000E+01 0. -1.
        -11    1    1    2    0    0 -0.10685968508E+03  0.46508895441E+02  0.91636083118E+02  0.14825397593E+03  0.00000000000E+00 0. -1.
         11    1    1    2    0    0  0.23428951781E+00 -0.33781695571E+02 -0.14094242208E+01  0.33811896189E+02  0.00000000000E+00 0.  1.
</event>
<event>
 7    1  0.6992302E-006  0.8007272E+02  0.7561462E-02  0.1328845E+00
          2   -1    0    0  501    0  0.00000000000E+00  0.00000000000E+00  0.15981432893E+02  0.15981432893E+02  0.00000000000E+00 0. -1.
         -2   -1    0    0    0  501 -0.00000000000E+00 -0.00000000000E+00 -0.10629096302E+04  0.10629096302E+04  0.00000000000E+00 0.  1.
         23    2    1    2    0    0  0.17338973158E+02 -0.56560203254E+02 -0.72760413039E+03  0.74064797966E+03  0.12510780407E+03 0.  0.
          5    1    3    3  502    0  0.46420124548E+01 -0.18395984286E+02 -0.98983188061E+01  0.21803890310E+02  0.41800000000E+01 0.  1.
         -5    1    3    3    0  502  0.12696960703E+02 -0.38164218968E+02 -0.71770581158E+03  0.71884408935E+03  0.41800000000E+01 0.  1.
        -11    1    1    2    0    0  0.29395770321E+02  0.42123904821E+02 -0.23684143846E+03  0.24234768751E+03  0.00000000000E+00 0. -1.
         11    1    1    2    0    0 -0.46734743479E+02  0.14436298433E+02 -0.82482628444E+02  0.95895395904E+02  0.00000000000E+00 0.  1.
</event>
<event>
 7    1  0.6992302E-006  0.1066210E+03  0.7561462E-02  0.1266958E+00
         -1   -1    0    0    0  501 -0.00000000000E+00  0.00000000000E+00  0.20844655525E+03  0.20844655525E+03  0.00000000000E+00 0.  1.
          1   -1    0    0  501    0  0.00000000000E+00 -0.00000000000E+00 -0.12882644968E+03  0.12882644968E+03  0.00000000000E+00 0. -1.
         23    2    1    2    0    0 -0.93354415858E+02 -0.24027933614E+02  0.12036135476E+03  0.19856122298E+03  0.12508922815E+03 0.  0.
          5    1    3    3  502    0 -0.56075748457E+02  0.31095301207E+01 -0.12651468813E+02  0.57720800460E+02  0.41800000000E+01 0. -1.
         -5    1    3    3    0  502 -0.37278667401E+02 -0.27137463735E+02  0.13301282358E+03  0.14084042253E+03  0.41800000000E+01 0. -1.
        -11    1    1    2    0    0  0.73497518870E+02  0.41301207772E+02 -0.62187757192E+02  0.10476159691E+03  0.00000000000E+00 0. -1.
         11    1    1    2    0    0  0.19856896988E+02 -0.17273274158E+02  0.21446507999E+02  0.33950185028E+02  0.00000000000E+00 0.  1.
</event>
<event>
 7    1  0.6992302E-006  0.2392108E+03  0.7561462E-02  0.1120320E+00
         -2   -1    0    0    0  501 -0.00000000000E+00  0.00000000000E+00  0.10405182564E+04  0.10405182564E+04  0.00000000000E+00 0.  1.
          2   -1    0    0  501    0  0.00000000000E+00 -0.00000000000E+00 -0.31909398956E+03  0.31909398956E+03  0.00000000000E+00 0. -1.
         23    2    1    2    0    0 -0.47336387404E+02 -0.21173584916E+03  0.97918820195E+03  0.10107074820E+04  0.12508907234E+03 0.  0.
          5    1    3    3  502    0  0.58254465047E+01 -0.19039897282E+03  0.68725631342E+03  0.71317909210E+03  0.41800000000E+01 0.  1.
         -5    1    3    3    0  502 -0.53161833908E+02 -0.21336876339E+02  0.29193188853E+03  0.29752838993E+03  0.41800000000E+01 0.  1.
        -11    1    1    2    0    0  0.50913843771E+02  0.60072173010E+02 -0.56727442268E+02  0.97050956532E+02  0.00000000000E+00 0.  1.
         11    1    1    2    0    0 -0.35774563672E+01  0.15166367615E+03 -0.20103649282E+03  0.25185380741E+03  0.00000000000E+00 0. -1.
</event>
<event>
 7    1  0.6992302E-006  0.1215313E+03  0.7561462E-02  0.1240592E+00
         -2   -1    0    0    0  501 -0.00000000000E+00  0.00000000000E+00  0.60089417348E+02  0.60089417348E+02  0.00000000000E+00 0.  1.
          2   -1    0    0  501    0  0.00000000000E+00 -0.00000000000E+00 -0.32041071274E+03  0.32041071274E+03  0.00000000000E+00 0. -1.
         23    2    1    2    0    0 -0.51507835918E+02 -0.65333677082E+02 -0.10887160634E+03  0.18553101030E+03  0.12508869890E+03 0.  0.
          5    1    3    3  502    0 -0.62731156480E+02  0.53195444646E+01 -0.10713885750E+02  0.63998088210E+02  0.41800000000E+01 0.  1.
         -5    1    3    3    0  502  0.11223320562E+02 -0.70653221547E+02 -0.98157720591E+02  0.12153292209E+03  0.41800000000E+01 0.  1.
        -11    1    1    2    0    0 -0.15369339480E+02  0.27410645882E+02 -0.93656678029E+02  0.98788326452E+02  0.00000000000E+00 0. -1.
         11    1    1    2    0    0  0.66877175398E+02  0.37923031200E+02 -0.57793011027E+02  0.96180793344E+02  0.00000000000E+00 0.  1.
</event>
<event>
 7    1  0.6992302E-006  0.1081078E+03  0.7561462E-02  0.1264115E+00
         -2   -1    0    0    0  501 -0.00000000000E+00  0.00000000000E+00  0.34420410034E+03  0.34420410034E+03  0.00000000000E+00 0. -1.
          2   -1    0    0  501    0  0.00000000000E+00 -0.00000000000E+00 -0.52290187946E+02  0.52290187946E+02  0.00000000000E+00 0.  1.
         23    2    1    2    0    0 -0.20855901497E+02 -0.96357490806E+01  0.27502235243E+03  0.30300772001E+03  0.12509423553E+03 0.  0.
          5    1    3    3  502    0  0.52098143644E+02 -0.13514901908E+02  0.11974574637E+03  0.13135214242E+03  0.41800000000E+01 0.  1.
         -5    1    3    3    0  502 -0.72954045141E+02  0.38791528272E+01  0.15527660606E+03  0.17165557759E+03  0.41800000000E+01 0.  1.
        -11    1    1    2    0    0 -0.15734648196E+02 -0.30759801272E+02  0.18027366902E+02  0.38970892800E+02  0.00000000000E+00 0.  1.
         11    1    1    2    0    0  0.36590549693E+02  0.40395550353E+02 -0.11358069359E+01  0.54515675476E+02  0.00000000000E+00 0. -1.
</event>
<event>
 6    1  0.6992302E-006  0.5643489E+02  0.7561462E-02  0.1413433E+00
         -2   -1    0    0    0  501 -0.00000000000E+00  0.00000000000E+00  0.47392631395E+03  0.47392631395E+03  0.00000000000E+00 0.  1.
          2   -1    0    0  501    0  0.00000000000E+00 -0.00000000000E+00 -0.83849166252E+02  0.83849166252E+02  0.00000000000E+00 0. -1.
          5    1    1    2  502    0  0.99510996668E+01  0.33203231065E+02  0.21825520462E+02  0.41174077782E+02  0.41800000000E+01 0. -1.
         -5    1    1    2    0  502  0.18215425747E+02 -0.15410926633E+02  0.41097306119E+03  0.41168632212E+03  0.41800000000E+01 0.  1.
        -11    1    1    2    0    0 -0.39064326692E+02 -0.99645166341E+01 -0.66410721190E+02  0.77689749006E+02  0.00000000000E+00 0. -1.
         11    1    1    2    0    0  0.10897801278E+02 -0.78277877983E+01  0.23689287242E+02  0.27225331303E+02  0.00000000000E+00 0.  1.
</event>
<event>
 7    1  0.6992302E-006  0.8586987E+02  0.7561462E-02  0.1313173E+00
         -2   -1    0    0    0  501 -0.00000000000E+00  0.00000000000E+00  0.66752354003E+02  0.66752354003E+02  0.00000000000E+00 0.  1.
          2   -1    0    0  501    0  0.00000000000E+00 -0.00000000000E+00 -0.26752525989E+03  0.26752525989E+03  0.00000000000E+00 0. -1.
         23    2    1    2    0    0  0.11722956367E+02 -0.52244700172E+02 -0.37094938913E+02  0.14103873843E+03  0.12509578268E+03 0.  0.
          5    1    3    3  502    0  0.26526125303E+02 -0.20612537249E+02  0.42313590595E+02  0.54188784490E+02  0.41800000000E+01 0. -1.
         -5    1    3    3    0  502 -0.14803168937E+02 -0.31632162923E+02 -0.79408529508E+02  0.86849953945E+02  0.41800000000E+01 0. -1.
        -11    1    1    2    0    0  0.37886130453E+02  0.15299294584E+02 -0.65894799380E+02  0.77534198137E+02  0.00000000000E+00 0. -1.
         11    1    1    2    0    0 -0.49609086820E+02  0.36945405587E+02 -0.97783167592E+02  0.11570467732E+03  0.00000000000E+00 0.  1.
</event>
<event>
 7    1  0.6992302E-006  0.7533964E+02  0.7561462E-02  0.1342823E+00
         -3   -1    0    0    0  501 -0.00000000000E+00  0.00000000000E+00  0.53957353290E+02  0.53957353290E+02  0.00000000000E+00 0.  1.
          3   -1    0    0  501    0  0.00000000000E+00 -0.00000000000E+00 -0.26369232549E+03  0.26369232549E+03  0.00000000000E+00 0. -1.
         23    2    1    2    0    0  0.22066298241E+02  0.21198934342E+02 -0.65992465866E+02  0.14469981322E+03  0.12508682609E+03 0.  0.
          5    1    3    3  502    0 -0.50121032883E+01  0.33114381134E+02  0.29385789642E+02  0.44751317859E+02  0.41800000000E+01 0.  1.
         -5    1    3    3    0  502  0.27078401529E+02 -0.11915446792E+02 -0.95378255508E+02  0.99948495363E+02  0.41800000000E+01 0.  1.
        -11    1    1    2    0    0  0.30742892753E+02 -0.13898293378E+02 -0.94629304015E+02  0.10046388999E+03  0.00000000000E+00 0. -1.
         11    1    1    2    0    0 -0.52809190994E+02 -0.73006409645E+01 -0.49113202319E+02  0.72485975568E+02  0.00000000000E+00 0.  1.
</event>
<event>
 7    1  0.6992302E-006  0.1377198E+03  0.7561462E-02  0.1216430E+00
         -3   -1    0    0    0  501 -0.00000000000E+00  0.00000000000E+00  0.32238882579E+03  0.32238882579E+03  0.00000000000E+00 0.  1.
          3   -1    0    0  501    0  0.00000000000E+00 -0.00000000000E+00 -0.11136439467E+03  0.11136439467E+03  0.00000000000E+00 0. -1.
         23    2    1    2    0    0  0.92569680022E+02  0.52792868552E+02  0.24016701007E+03  0.29102075909E+03  0.12512656340E+03 0.  0.
          5    1    3    3  502    0  0.64712250489E+01  0.67284894353E+02  0.15421804281E+03  0.16843340194E+03  0.41800000000E+01 0. -1.
         -5    1    3    3    0  502  0.86098454973E+02 -0.14492025800E+02  0.85948967257E+02  0.12258735715E+03  0.41800000000E+01 0. -1.
        -11    1    1    2    0    0 -0.76746745346E+02 -0.64798528580E+02 -0.51458391802E+02  0.11285777915E+03  0.00000000000E+00 0. -1.
         11    1    1    2    0    0 -0.15822934676E+02  0.12005660028E+02  0.22315812848E+02  0.29874682217E+02  0.00000000000E+00 0.  1.
</event>
<event>
 7    1  0.6992302E-006  0.6946821E+02  0.7561462E-02  0.1361911E+00
          1   -1    0    0  501    0  0.00000000000E+00  0.00000000000E+00  0.44511126198E+03  0.44511126198E+03  0.00000000000E+00 0. -1.
         -1   -1    0    0    0  501 -0.00000000000E+00 -0.00000000000E+00 -0.33466958060E+02  0.33466958060E+02  0.00000000000E+00 0.  1.
         23    2    1    2    0    0  0.12361448981E+02 -0.34979018657E+02  0.14787765651E+03  0.19719091995E+03  0.12506046717E+03 0.  0.
          5    1    3    3  502    0 -0.36589134731E+01 -0.98855911692E+01  0.16309976801E+03  0.16349348392E+03  0.41800000000E+01 0. -1.
         -5    1    3    3    0  502  0.16020362454E+02 -0.25093427488E+02 -0.15222111500E+02  0.33697436026E+02  0.41800000000E+01 0. -1.
        -11    1    1    2    0    0  0.37711838495E+02  0.23863201604E+01  0.11598301431E+03  0.12198334679E+03  0.00000000000E+00 0.  1.
         11    1    1    2    0    0 -0.50073287476E+02  0.32592698496E+02  0.14778363310E+03  0.15940395329E+03  0.00000000000E+00 0. -1.
</event>
<event>
 7    1  0.6992302E-006  0.9441699E+02  0.7561462E-02  0.1292495E+00
         -2   -1    0    0    0  501 -0.00000000000E+00  0.00000000000E+00  0.21671507178E+03  0.21671507178E+03  0.00000000000E+00 0.  1.
          2   -1    0    0  501    0  0.00000000000E+00 -0.00000000000E+00 -0.66230573896E+02  0.66230573896E+02  0.00000000000E+00 0. -1.
         23    2    1    2    0    0  0.53843505713E+02 -0.29823217217E+02  0.10885405874E+03  0.16834263971E+03  0.11270089107E+03 0.  0.
          5    1    3    3  502    0 -0.27578779737E+02  0.13184031505E+02  0.83362358596E+01  0.31958926872E+02  0.41800000000E+01 0. -1.
         -5    1    3    3    0  502  0.81422285450E+02 -0.43007248723E+02  0.10051782288E+03  0.13638371284E+03  0.41800000000E+01 0.  1.
        -11    1    1    2    0    0 -0.29640769185E+02  0.29178285440E+02 -0.21620649511E+02  0.46876433571E+02  0.00000000000E+00 0. -1.
         11    1    1    2    0    0 -0.24202736528E+02  0.64493177717E+00  0.63251088654E+02  0.67726572395E+02  0.00000000000E+00 0.  1.
</event>
<event>
 7    1  0.6992302E-006  0.1232783E+03  0.7561462E-02  0.1237785E+00
         -1   -1    0    0    0  501 -0.00000000000E+00  0.00000000000E+00  0.38680818680E+02  0.38680818680E+02  0.00000000000E+00 0.  1.
          1   -1    0    0  501    0  0.00000000000E+00 -0.00000000000E+00 -0.43857041299E+03  0.43857041299E+03  0.00000000000E+00 0. -1.
         23    2    1    2    0    0  0.14027777355E+02 -0.65125399813E+02 -0.17109031195E+03  0.22216653804E+03  0.12509188441E+03 0.  0.
          5    1    3    3  502    0  0.66700706574E+02 -0.14906105514E+02 -0.75026137641E+02  0.10157543979E+03  0.41800000000E+01 0. -1.
         -5    1    3    3    0  502 -0.52672929219E+02 -0.50219294299E+02 -0.96064174311E+02  0.12059109826E+03  0.41800000000E+01 0. -1.
        -11    1    1    2    0    0 -0.46052816309E+02  0.20874831358E+02 -0.64582221830E+02  0.82021240241E+02  0.00000000000E+00 0.  1.
         11    1    1    2    0    0  0.32025038954E+02  0.44250568455E+02 -0.16421706053E+03  0.17306345338E+03  0.00000000000E+00 0. -1.
</event>
<event>
 7    1  0.6992302E-006  0.1068591E+03  0.7561462E-02  0.1266499E+00
          2   -1    0    0  501    0  0.00000000000E+00  0.00000000000E+00  0.12006180783E+03  0.12006180783E+03  0.00000000000E+00 0. -1.
         -2   -1    0    0    0  501 -0.00000000000E+00 -0.00000000000E+00 -0.16475642993E+03  0.16475642993E+03  0.00000000000E+00 0.  1.
         23    2    1    2    0    0  0.76104883702E+02 -0.34858913421E+02 -0.46024658431E+02  0.15739389548E+03  0.12508985563E+03 0.  0.
          5    1    3    3  502    0  0.46990005331E+01 -0.45653440540E+02  0.27974908770E+02  0.53910900195E+02  0.41800000000E+01 0.  1.
         -5    1    3    3    0  502  0.71405883169E+02  0.10794527118E+02 -0.73999567201E+02  0.10348299528E+03  0.41800000000E+01 0.  1.
        -11    1    1    2    0    0 -0.75404709485E+02  0.16839107841E+02  0.38342108000E+02  0.86252785527E+02  0.00000000000E+00 0. -1.
         11    1    1    2    0    0 -0.70017421706E+00  0.18019805580E+02 -0.37012071663E+02  0.41171556758E+02  0.00000000000E+00 0.  1.
</event>
<event>
 7    1  0.6992302E-006  0.1391593E+03  0.7561462E-02  0.1214465E+00
         -2   -1    0    0    0  501 -0.00000000000E+00  0.00000000000E+00  0.13021673377E+02  0.13021673377E+02  0.00000000000E+00 0.  1.
          2   -1    0    0  501    0  0.00000000000E+00 -0.00000000000E+00 -0.15915056070E+04  0.15915056070E+04  0.00000000000E+00 0. -1.
         23    2    1    2    0    0  0.45729257237E+02 -0.82972365358E+02 -0.87859902687E+03  0.89248653204E+03  0.12498152457E+03 0.  0.
          5    1    3    3  502    0  0.52739426749E+02 -0.10875809802E+03 -0.80579890706E+03  0.81482459588E+03  0.41800000000E+01 0. -1.
         -5    1    3    3    0  502 -0.70101695117E+01  0.25785732666E+02 -0.72800119804E+02  0.77661936167E+02  0.41800000000E+01 0. -1.
        -11    1    1    2    0    0 -0.10911106840E+02  0.93358989080E+02 -0.53567741567E+03  0.54386142238E+03  0.00000000000E+00 0. -1.
         11    1    1    2    0    0 -0.34818150397E+02 -0.10386623722E+02 -0.16420749108E+03  0.16817932595E+03  0.00000000000E+00 0.  1.
</event>
<event>
 7    1  0.6992302E-006  0.1180086E+03  0.7561462E-02  0.1246419E+00
          2   -1    0    0  501    0  0.00000000000E+00  0.00000000000E+00  0.10454139068E+03  0.10454139068E+03  0.00000000000E+00 0. -1.
         -2   -1    0    0    0  501 -0.00000000000E+00 -0.00000000000E+00 -0.20579005552E+03  0.20579005552E+03  0.00000000000E+00 0.  1.
         23    2    1    2    0    0 -0.67389264304E+02  0.78122939119E+01 -0.47666141212E+02  0.15007367199E+03  0.12509077154E+03 0.  0.
          5    1    3    3  502    0 -0.66770120723E+02  0.56889639567E+02 -0.49446693378E+02  0.10078257785E+03  0.41800000000E+01 0.  1.
         -5    1    3    3    0  502 -0.61914358115E+00 -0.49077345655E+02  0.17805521666E+01  0.49291094138E+02  0.41800000000E+01 0.  1.
        -11    1    1    2    0    0  0.82559207989E+02 -0.11422797137E+02 -0.88773190541E+02  0.12176691865E+03  0.00000000000E+00 0.  1.
         11    1    1    2    0    0 -0.15169943685E+02  0.36105032250E+01  0.35190666909E+02  0.38490855569E+02  0.00000000000E+00 0. -1.
</event>
<event>
 7    1  0.6992302E-006  0.2171040E+03  0.7561462E-02  0.1136061E+00
         -1   -1    0    0    0  501 -0.00000000000E+00  0.00000000000E+00  0.98435378574E+02  0.98435378574E+02  0.00000000000E+00 0. -1.
          1   -1    0    0  501    0  0.00000000000E+00 -0.00000000000E+00 -0.54229778875E+03  0.54229778875E+03  0.00000000000E+00 0.  1.
         23    2    1    2    0    0 -0.18591333724E+03 -0.64012309422E+02 -0.15241647272E+03  0.27846110986E+03  0.12509382011E+03 0.  0.
          5    1    3    3  502    0  0.77626692506E+01 -0.35547713037E+02 -0.31699347505E+02  0.48437794834E+02  0.41800000000E+01 0.  1.
         -5    1    3    3    0  502 -0.19367600649E+03 -0.28464596385E+02 -0.12071712522E+03  0.23002331503E+03  0.41800000000E+01 0.  1.
        -11    1    1    2    0    0  0.15566335853E+02  0.20907548749E+02 -0.95885070660E+02  0.99364899145E+02  0.00000000000E+00 0.  1.
         11    1    1    2    0    0  0.17034700138E+03  0.43104760674E+02 -0.19556086679E+03  0.26290715831E+03  0.00000000000E+00 0. -1.
</event>
<event>
 7    1  0.6992302E-006  0.9365988E+02  0.7561462E-02  0.1294223E+00
          1   -1    0    0  501    0  0.00000000000E+00  0.00000000000E+00  0.45644344232E+03  0.45644344232E+03  0.00000000000E+00 0. -1.
         -1   -1    0    0    0  501 -0.00000000000E+00 -0.00000000000E+00 -0.37646902393E+02  0.37646902393E+02  0.00000000000E+00 0.  1.
         23    2    1    2    0    0  0.18686409643E+02 -0.25266851016E+02  0.10571261053E+03  0.16676661536E+03  0.12509337435E+03 0.  0.
          5    1    3    3  502    0  0.83779947393E+01 -0.64206649483E+02  0.13813120608E+02  0.66339726670E+02  0.41800000000E+01 0. -1.
         -5    1    3    3    0  502  0.10308414904E+02  0.38939798467E+02  0.91899489925E+02  0.10042688869E+03  0.41800000000E+01 0. -1.
        -11    1    1    2    0    0  0.22045863291E+02  0.33767280280E+02  0.70685674276E+02  0.81380058083E+02  0.00000000000E+00 0.  1.
         11    1    1    2    0    0 -0.40732272934E+02 -0.85004292639E+01  0.24239825512E+03  0.24594367127E+03  0.00000000000E+00 0. -1.
</event>
<event>
 7    1  0.6992302E-006  0.1274104E+03  0.7561462E-02  0.1231350E+00
         -1   -1    0    0    0  501 -0.00000000000E+00  0.00000000000E+00  0.87299874017E+03  0.87299874017E+03  0.00000000000E+00 0.  1.
          1   -1    0    0  501    0  0.00000000000E+00 -0.00000000000E+00 -0.23346187832E+02  0.23346187832E+02  0.00000000000E+00 0. -1.
         23    2    1    2    0    0 -0.46627815401E+02 -0.75469768551E+02  0.60560678935E+03  0.62472094794E+03  0.12508733091E+03 0.  0.
          5    1    3    3  502    0 -0.76752171299E+02 -0.75042264338E+02  0.55786378119E+03  0.56811240789E+03  0.41800000000E+01 0.  1.
         -5    1    3    3    0  502  0.30124355898E+02 -0.42750421202E+00  0.47743008153E+02  0.56608540041E+02  0.41800000000E+01 0.  1.
        -11    1    1    2    0    0  0.21507224099E+02 -0.12921427192E+02  0.76823583718E+02  0.80816996878E+02  0.00000000000E+00 0. -1.
         11    1    1    2    0    0  0.25120591302E+02  0.88391195743E+02  0.16722217928E+03  0.19080698319E+03  0.00000000000E+00 0.  1.
</event>
<event>
 7    1  0.6992302E-006  0.1291927E+03  0.7561462E-02  0.1228659E+00
         -1   -1    0    0    0  501 -0.00000000000E+00  0.00000000000E+00  0.47350967515E+02  0.47350967515E+02  0.00000000000E+00 0.  1.
          1   -1    0    0  501    0  0.00000000000E+00 -0.00000000000E+00 -0.58148038381E+03  0.58148038381E+03  0.00000000000E+00 0. -1.
         23    2    1    2    0    0 -0.45800803503E+02 -0.80565746254E+02 -0.12497262833E+03  0.19963570841E+03  0.12509078771E+03 0.  0.
          5    1    3    3  502    0 -0.59896197326E+02 -0.70017245431E+01 -0.10636763597E+03  0.12234428872E+03  0.41800000000E+01 0. -1.
         -5    1    3    3    0  502  0.14095393823E+02 -0.73564021711E+02 -0.18604992363E+02  0.77291419693E+02  0.41800000000E+01 0. -1.
        -11    1    1    2    0    0 -0.17850401792E+02  0.48428834594E+02 -0.10781462533E+03  0.11953234834E+03  0.00000000000E+00 0.  1.
         11    1    1    2    0    0  0.63651205295E+02  0.32136911660E+02 -0.30134216264E+03  0.30966329458E+03  0.00000000000E+00 0. -1.
</event>
<event>
 7    1  0.6992302E-006  0.1183023E+03  0.7561462E-02  0.1245924E+00
         -2   -1    0    0    0  501 -0.00000000000E+00  0.00000000000E+00  0.17787340937E+03  0.17787340937E+03  0.00000000000E+00 0.  1.
          2   -1    0    0  501    0  0.00000000000E+00 -0.00000000000E+00 -0.10744313488E+03  0.10744313488E+03  0.00000000000E+00 0. -1.
         23    2    1    2    0    0  0.79119771081E+02 -0.18179995869E+02  0.67089881439E+02  0.16359758923E+03  0.12519052913E+03 0.  0.
          5    1    3    3  502    0 -0.19995713230E+02  0.31703361594E+02  0.22665678731E+02  0.44001557657E+02  0.41800000000E+01 0. -1.
         -5    1    3    3    0  502  0.99115484312E+02 -0.49883357462E+02  0.44424202708E+02  0.11959603157E+03  0.41800000000E+01 0. -1.
        -11    1    1    2    0    0 -0.49077964176E+02 -0.57893787939E+01  0.43714006964E+02  0.65977859009E+02  0.00000000000E+00 0.  1.
         11    1    1    2    0    0 -0.30041806905E+02  0.23969374663E+02 -0.40373613909E+02  0.55741096006E+02  0.00000000000E+00 0. -1.
</event>
<event>
 7    1  0.6992302E-006  0.2536157E+03  0.7561462E-02  0.1111041E+00
          3   -1    0    0  501    0  0.00000000000E+00  0.00000000000E+00  0.13067063402E+03  0.13067063402E+03  0.00000000000E+00 0. -1.
         -3   -1    0    0    0  501 -0.00000000000E+00 -0.00000000000E+00 -0.66415046073E+03  0.66415046073E+03  0.00000000000E+00 0.  1.
         23    2    1    2    0    0 -0.18724442204E+03 -0.15748387036E+03 -0.44192183241E+03  0.52039107558E+03  0.12510124926E+03 0.  0.
          5    1    3    3  502    0 -0.12881669913E+03 -0.13329240233E+03 -0.21080944391E+03  0.28074668392E+03  0.41800000000E+01 0.  1.
         -5    1    3    3    0  502 -0.58427722916E+02 -0.24191468034E+02 -0.23111238851E+03  0.23964439166E+03  0.41800000000E+01 0.  1.
        -11    1    1    2    0    0  0.17689798126E+03  0.10663723827E+03 -0.68150744195E+02  0.21750613852E+03  0.00000000000E+00 0.  1.
         11    1    1    2    0    0  0.10346440788E+02  0.50846632094E+02 -0.23407250096E+02  0.56923880660E+02  0.00000000000E+00 0. -1.
</event>
<event>
 7    1  0.6992302E-006  0.1343164E+03  0.7561462E-02  0.1221188E+00
          2   -1    0    0  501    0  0.00000000000E+00  0.00000000000E+00  0.42460995678E+03  0.42460995678E+03  0.00000000000E+00 0. -1.
         -2   -1    0    0    0  501 -0.00000000000E+00 -0.00000000000E+00 -0.90025167641E+02  0.90025167641E+02  0.00000000000E+00 0.  1.
         23    2    1    2    0    0  0.76132793486E+02 -0.87139654851E+02  0.24629362596E+02  0.17217785438E+03  0.12509630829E+03 0.  0.
          5    1    3    3  502    0 -0.15344146213E+02  0.23722517187E+00  0.41541254315E+02  0.44481988589E+02  0.41800000000E+01 0. -1.
         -5    1    3    3    0  502  0.91476939699E+02 -0.87376880023E+02 -0.16911891719E+02  0.12769586579E+03  0.41800000000E+01 0. -1.
        -11    1    1    2    0    0 -0.39403744190E+00  0.33131536313E+02  0.17770765574E+03  0.18077019907E+03  0.00000000000E+00 0. -1.
         11    1    1    2    0    0 -0.75738756044E+02  0.54008118538E+02  0.13224777081E+03  0.16168707097E+03  0.00000000000E+00 0.  1.
</event>
<event>
 7    1  0.6992302E-006  0.1034062E+03  0.7561462E-02  0.1273292E+00
         -2   -1    0    0    0  501 -0.00000000000E+00  0.00000000000E+00  0.12522851968E+03  0.12522851968E+03  0.00000000000E+00 0.  1.
          2   -1    0    0  501    0  0.00000000000E+00 -0.00000000000E+00 -0.12868173225E+03  0.12868173225E+03  0.00000000000E+00 0. -1.
         23    2    1    2    0    0 -0.46857689456E+01  0.25541276104E+02  0.57469795921E+02  0.14008795504E+03  0.12509014544E+03 0.  0.
          5    1    3    3  502    0 -0.58033386442E+02  0.15270605507E+02  0.60760597780E+02  0.85500806879E+02  0.41800000000E+01 0. -1.
         -5    1    3    3    0  502  0.53347617496E+02  0.10270670598E+02 -0.32908018587E+01  0.54587148157E+02  0.41800000000E+01 0. -1.
        -11    1    1    2    0    0  0.43462064280E+02 -0.30474310032E+02 -0.18688882135E+02  0.56275295813E+02  0.00000000000E+00 0. -1.
         11    1    1    2    0    0 -0.38776295335E+02  0.49330339277E+01 -0.42234126357E+02  0.57547001076E+02  0.00000000000E+00 0.  1.
</event>
<event>
 7    1  0.6992302E-006  0.7877110E+02  0.7561462E-02  0.1332575E+00
         -2   -1    0    0    0  501 -0.00000000000E+00  0.00000000000E+00  0.56292251736E+02  0.56292251736E+02  0.00000000000E+00 0.  1.
          2   -1    0    0  501    0  0.00000000000E+00 -0.00000000000E+00 -0.27445732126E+03  0.27445732126E+03  0.00000000000E+00 0. -1.
         23    2    1    2    0    0 -0.26350789607E+02  0.41520914149E+02 -0.75748278895E+02  0.15428691408E+03  0.12509316398E+03 0.  0.
          5    1    3    3  502    0 -0.37862803459E+02  0.43951696412E+02 -0.10636141943E+03  0.12122527561E+03  0.41800000000E+01 0. -1.
         -5    1    3    3    0  502  0.11512013853E+02 -0.24307822625E+01  0.30613140531E+02  0.33061638473E+02  0.41800000000E+01 0. -1.
        -11    1    1    2    0    0  0.39550722172E+02  0.37592669292E+01 -0.18405915020E+02  0.43785493258E+02  0.00000000000E+00 0.  1.
         11    1    1    2    0    0 -0.13199932565E+02 -0.45280181078E+02 -0.12401087561E+03  0.13267716566E+03  0.00000000000E+00 0. -1.
</event>
<event>
 7    1  0.6992302E-006  0.1903614E+03  0.7561462E-02  0.1158136E+00
         -1   -1    0    0    0  501 -0.00000000000E+00  0.00000000000E+00  0.47735356336E+03  0.47735356336E+03  0.00000000000E+00 0.  1.
          1   -1    0    0  501    0  0.00000000000E+00 -0.00000000000E+00 -0.89908070524E+02  0.89908070524E+02  0.00000000000E+00 0. -1.
         23    2    1    2    0    0  0.14689309051E+03 -0.86404779792E+02  0.25464824890E+03  0.33096244655E+03  0.12508814632E+03 0.  0.
          5    1    3    3  502    0 -0.19260665135E+02 -0.15337193272E+02  0.10286982237E+02  0.27009204403E+02  0.41800000000E+01 0.  1.
         -5    1    3    3    0  502  0.16615375564E+03 -0.71067586520E+02  0.24436126666E+03  0.30395324215E+03  0.41800000000E+01 0.  1.
        -11    1    1    2    0    0 -0.38997207010E+02  0.39601301210E+01  0.82779773748E+02  0.91591242632E+02  0.00000000000E+00 0.  1.
         11    1    1    2    0    0 -0.10789588350E+03  0.82444649671E+02  0.50017470194E+02  0.14470794470E+03  0.00000000000E+00 0. -1.
</event>
<event>
 7    1  0.6992302E-006  0.1425061E+03  0.7561462E-02  0.1209996E+00
          4   -1    0    0  501    0  0.00000000000E+00  0.00000000000E+00  0.70542049984E+02  0.70542049984E+02  0.00000000000E+00 0. -1.
         -4   -1    0    0    0  501 -0.00000000000E+00 -0.00000000000E+00 -0.29706123256E+03  0.29706123256E+03  0.00000000000E+00 0.  1.
         23    2    1    2    0    0  0.50853239219E+02  0.80103407527E+02 -0.14004258156E+03  0.21038278317E+03  0.12508550263E+03 0.  0.
          5    1    3    3  502    0 -0.41043899054E+02  0.20752763757E+02 -0.29474001626E+02  0.54785655284E+02  0.41800000000E+01 0.  1.
         -5    1    3    3    0  502  0.91897138273E+02  0.59350643770E+02 -0.11056857993E+03  0.15559712789E+03  0.41800000000E+01 0.  1.
        -11    1    1    2    0    0  0.24806962383E+02 -0.11996836704E+02 -0.80273058302E+01  0.28700994973E+02  0.00000000000E+00 0.  1.
         11    1    1    2    0    0 -0.75660201602E+02 -0.68106570823E+02 -0.78449295190E+02  0.12851950440E+03  0.00000000000E+00 0. -1.
</event>
<event>
 7    1  0.6992302E-006  0.1112911E+03  0.7561462E-02  0.1258198E+00
          2   -1    0    0  501    0  0.00000000000E+00  0.00000000000E+00  0.74673515726E+03  0.74673515726E+03  0.00000000000E+00 0.  1.
         -2   -1    0    0    0  501 -0.00000000000E+00 -0.00000000000E+00 -0.21610775724E+02  0.21610775724E+02  0.00000000000E+00 0. -1.
         23    2    1    2    0    0  0.40513848109E+02 -0.14465752430E+02  0.25760719020E+03  0.28958484344E+03  0.12508911713E+03 0.  0.
          5    1    3    3  502    0 -0.39242173376E+02 -0.47796170190E+01  0.15030289664E+03  0.15547098137E+03  0.41800000000E+01 0. -1.
         -5    1    3    3    0  502  0.79756021485E+02 -0.96861354106E+01  0.10730429357E+03  0.13411386207E+03  0.41800000000E+01 0. -1.
        -11    1    1    2    0    0  0.30417593928E+02  0.46852133842E+01  0.16875358909E+03  0.17153703703E+03  0.00000000000E+00 0.  1.
         11    1    1    2    0    0 -0.70931442037E+02  0.97805390454E+01  0.29876360225E+03  0.30722405251E+03  0.00000000000E+00 0. -1.
</event>
<event>
 7    1  0.6992302E-006  0.1058136E+03  0.7561462E-02  0.1268525E+00
         -2   -1    0    0    0  501 -0.00000000000E+00  0.00000000000E+00  0.79258760578E+02  0.79258760578E+02  0.00000000000E+00 0. -1.
          2   -1    0    0  501    0  0.00000000000E+00 -0.00000000000E+00 -0.19052167183E+03  0.19052167183E+03  0.00000000000E+00 0.  1.
         23    2    1    2    0    0 -0.47453694535E+01 -0.21005563984E+01  0.20536536075E+01  0.12521235097E+03  0.12508790699E+03 0.  0.
          5    1    3    3  502    0 -0.14249572601E+02 -0.61164540389E+02 -0.10851130304E+02  0.63869951849E+02  0.41800000000E+01 0. -1.
         -5    1    3    3    0  502  0.95042031478E+01  0.59063983991E+02  0.12904783911E+02  0.61342399123E+02  0.41800000000E+01 0. -1.
        -11    1    1    2    0    0 -0.20343327249E+02  0.39063312712E+02 -0.67326293489E+02  0.80452614368E+02  0.00000000000E+00 0.  1.
         11    1    1    2    0    0  0.25088696703E+02 -0.36962756313E+02 -0.45990271369E+02  0.64115467066E+02  0.00000000000E+00 0. -1.
</event>
<event>
 6    1  0.6992302E-006  0.1016875E+03  0.7561462E-02  0.1276787E+00
         -1   -1    0    0    0  501 -0.00000000000E+00  0.00000000000E+00  0.48775423629E+02  0.48775423629E+02  0.00000000000E+00 0.  1.
          1   -1    0    0  501    0  0.00000000000E+00 -0.00000000000E+00 -0.43062266158E+03  0.43062266158E+03  0.00000000000E+00 0. -1.
          5    1    1    2  502    0 -0.80336938611E+02  0.28059479363E+02 -0.21659628339E+03  0.23275046824E+03  0.41800000000E+01 0. -1.
         -5    1    1    2    0  502  0.23184384342E+02  0.15163344541E+02  0.14765648705E+02  0.31669219704E+02  0.41800000000E+01 0.  1.
        -11    1    1    2    0    0  0.27593899448E+02 -0.52389718213E+02 -0.17353569660E+03  0.18335960258E+03  0.00000000000E+00 0. -1.
         11    1    1    2    0    0  0.29558654821E+02  0.91668943098E+01 -0.64809066569E+01  0.31618794683E+02  0.00000000000E+00 0.  1.
</event>
<event>
 7    1  0.6992302E-006  0.1792884E+03  0.7561462E-02  0.1168493E+00
         -1   -1    0    0    0  501 -0.00000000000E+00  0.00000000000E+00  0.56694131264E+02  0.56694131264E+02  0.00000000000E+00 0.  1.
          1   -1    0    0  501    0  0.00000000000E+00 -0.00000000000E+00 -0.83649821542E+03  0.83649821542E+03  0.00000000000E+00 0. -1.
         23    2    1    2    0    0 -0.12799163058E+03 -0.83520626780E+02 -0.17796075271E+03  0.26584805139E+03  0.12509038464E+03 0.  0.
          5    1    3    3  502    0  0.16455442354E+02 -0.43692390021E+02 -0.52453916866E+02  0.70346942530E+02  0.41800000000E+01 0. -1.
         -5    1    3    3    0  502 -0.14444707294E+03 -0.39828236759E+02 -0.12550683584E+03  0.19550110886E+03  0.41800000000E+01 0. -1.
        -11    1    1    2    0    0  0.80494105523E+02  0.81072346734E+02 -0.52245016859E+03  0.53479547968E+03  0.00000000000E+00 0. -1.
         11    1    1    2    0    0  0.47497525060E+02  0.24482800455E+01 -0.79393162858E+02  0.92548815609E+02  0.00000000000E+00 0.  1.
</event>
<event>
 7    1  0.6992302E-006  0.9901361E+02  0.7561462E-02  0.1282384E+00
         -1   -1    0    0    0  501 -0.00000000000E+00  0.00000000000E+00  0.37723940620E+02  0.37723940620E+02  0.00000000000E+00 0.  1.
          1   -1    0    0  501    0  0.00000000000E+00 -0.00000000000E+00 -0.33710590328E+03  0.33710590328E+03  0.00000000000E+00 0. -1.
         23    2    1    2    0    0 -0.11092856256E+02 -0.28111729093E+02 -0.18100342084E+03  0.22208907566E+03  0.12509195977E+03 0.  0.
          5    1    3    3  502    0  0.28645697573E+02 -0.49733582625E+02 -0.16361974269E+03  0.17344422109E+03  0.41800000000E+01 0. -1.
         -5    1    3    3    0  502 -0.39738553828E+02  0.21621853531E+02 -0.17383678147E+02  0.48644854573E+02  0.41800000000E+01 0. -1.
        -11    1    1    2    0    0 -0.38248550902E+02  0.24824428087E+02 -0.43587881898E+02  0.63080165855E+02  0.00000000000E+00 0.  1.
         11    1    1    2    0    0  0.49341407157E+02  0.32873010069E+01 -0.74790659922E+02  0.89660602383E+02  0.00000000000E+00 0. -1.
</event>
<event>
 7    1  0.6992302E-006  0.1362408E+03  0.7561462E-02  0.1218479E+00
         -2   -1    0    0    0  501 -0.00000000000E+00  0.00000000000E+00  0.60640038034E+02  0.60640038034E+02  0.00000000000E+00 0.  1.
          2   -1    0    0  501    0  0.00000000000E+00 -0.00000000000E+00 -0.50606724411E+03  0.50606724411E+03  0.00000000000E+00 0. -1.
         23    2    1    2    0    0  0.85945919404E+02  0.50698606509E+02 -0.83559454818E+02  0.18044397400E+03  0.12498318087E+03 0.  0.
          5    1    3    3  502    0 -0.49852645700E+01  0.65060121919E+02 -0.50221061688E+02  0.82445738301E+02  0.41800000000E+01 0. -1.
         -5    1    3    3    0  502  0.90931183974E+02 -0.14361515410E+02 -0.33338393129E+02  0.97998235700E+02  0.41800000000E+01 0.  1.
        -11    1    1    2    0    0 -0.13964958979E+02 -0.39754173385E+02 -0.47152428839E+02  0.63235796241E+02  0.00000000000E+00 0.  1.
         11    1    1    2    0    0 -0.71980960425E+02 -0.10944433124E+02 -0.31471532242E+03  0.32302751190E+03  0.00000000000E+00 0. -1.
</event>
<event>
 7    1  0.6992302E-006  0.1056802E+03  0.7561462E-02  0.1268785E+00
          1   -1    0    0  501    0  0.00000000000E+00  0.00000000000E+00  0.69401874891E+02  0.69401874891E+02  0.00000000000E+00 0.  1.
         -1   -1    0    0    0  501 -0.00000000000E+00 -0.00000000000E+00 -0.19154298592E+03  0.19154298592E+03  0.00000000000E+00 0. -1.
         23    2    1    2    0    0 -0.33082326827E+02  0.20697709263E+02 -0.86482827213E+02  0.15700255345E+03  0.12509071457E+03 0.  0.
          5    1    3    3  502    0  0.23223348195E+02 -0.30625234479E+02 -0.68428030051E+02  0.78594507346E+02  0.41800000000E+01 0. -1.
         -5    1    3    3    0  502 -0.56305675022E+02  0.51322943742E+02 -0.18054797162E+02  0.78408046108E+02  0.41800000000E+01 0. -1.
        -11    1    1    2    0    0 -0.49653195843E+01  0.31453426160E+02 -0.41629558867E+01  0.32113900689E+02  0.00000000000E+00 0.  1.
         11    1    1    2    0    0  0.38047646411E+02 -0.52151135423E+02 -0.31495327933E+02  0.71828406671E+02  0.00000000000E+00 0. -1.
</event>
<event>
 7    1  0.6992302E-006  0.1213057E+03  0.7561462E-02  0.1240958E+00
          1   -1    0    0  501    0  0.00000000000E+00  0.00000000000E+00  0.97229415094E+02  0.97229415094E+02  0.00000000000E+00 0. -1.
         -1   -1    0    0    0  501 -0.00000000000E+00 -0.00000000000E+00 -0.21342370739E+03  0.21342370739E+03  0.00000000000E+00 0.  1.
         23    2    1    2    0    0  0.90187466451E+02  0.90721822821E+01 -0.80434394449E+02  0.17585032512E+03  0.12742669045E+03 0.  0.
          5    1    3    3  502    0  0.17863372934E-01  0.51720422863E+02 -0.48517449437E+02  0.71038142994E+02  0.41800000000E+01 0. -1.
         -5    1    3    3    0  502  0.90169603078E+02 -0.42648240581E+02 -0.31916945012E+02  0.10481218213E+03  0.41800000000E+01 0.  1.
        -11    1    1    2    0    0 -0.33089510044E+02 -0.65690373677E+01  0.31765814619E+02  0.46337187067E+02  0.00000000000E+00 0. -1.
         11    1    1    2    0    0 -0.57097956406E+02 -0.25031449143E+01 -0.67525712463E+02  0.88465610290E+02  0.00000000000E+00 0.  1.
</event>
<event>
 7    1  0.6992302E-006  0.9088782E+02  0.7561462E-02  0.1300716E+00
          2   -1    0    0  501    0  0.00000000000E+00  0.00000000000E+00  0.27335506970E+02  0.27335506970E+02  0.00000000000E+00 0. -1.
         -2   -1    0    0    0  501 -0.00000000000E+00 -0.00000000000E+00 -0.51991661536E+03  0.51991661536E+03  0.00000000000E+00 0.  1.
         23    2    1    2    0    0  0.39959921130E+02  0.28051314821E+02 -0.23790391122E+03  0.27317683000E+03  0.12507452945E+03 0.  0.
          5    1    3    3  502    0  0.32092307558E+02  0.51245645102E+02 -0.37572693683E+02  0.71310672812E+02  0.41800000000E+01 0. -1.
         -5    1    3    3    0  502  0.78676135720E+01 -0.23194330281E+02 -0.20033121753E+03  0.20186615719E+03  0.41800000000E+01 0. -1.
        -11    1    1    2    0    0 -0.38163753459E+02 -0.56298944883E+02 -0.21377811209E+03  0.22433707781E+03  0.00000000000E+00 0. -1.
         11    1    1    2    0    0 -0.17961676708E+01  0.28247630062E+02 -0.40899085082E+02  0.49738214513E+02  0.00000000000E+00 0.  1.
</event>
<event>
 7    1  0.6992302E-006  0.7227223E+02  0.7561462E-02  0.1352532E+00
         -1   -1    0    0    0  501 -0.00000000000E+00  0.00000000000E+00  0.31701193806E+03  0.31701193806E+03  0.00000000000E+00 0.  1.
          1   -1    0    0  501    0  0.00000000000E+00 -0.00000000000E+00 -0.40556627546E+02  0.40556627546E+02  0.00000000000E+00 0. -1.
         23    2    1    2    0    0 -0.71103413730E+01  0.12568132540E+02  0.19967185478E+03  0.23606131938E+03  0.12509029541E+03 0.  0.
          5    1    3    3  502    0  0.98154983899E+01  0.51364981500E+02  0.28538184699E+02  0.59721065957E+02  0.41800000000E+01 0. -1.
         -5    1    3    3    0  502 -0.16925839763E+02 -0.38796848960E+02  0.17113367008E+03  0.17634025342E+03  0.41800000000E+01 0. -1.
        -11    1    1    2    0    0 -0.22516309445E+01  0.17712112868E+02  0.86526183190E+02  0.88349132206E+02  0.00000000000E+00 0.  1.
         11    1    1    2    0    0  0.93619723175E+01 -0.30280245407E+02 -0.97427274527E+01  0.33158114027E+02  0.00000000000E+00 0. -1.
</event>
<event>
 7    1  0.6992302E-006  0.1105239E+03  0.7561462E-02  0.1259603E+00
         -4   -1    0    0    0  501 -0.00000000000E+00  0.00000000000E+00  0.79268442114E+02  0.79268442114E+02  0.00000000000E+00 0. -1.
          4   -1    0    0  501    0  0.00000000000E+00 -0.00000000000E+00 -0.18070965883E+03  0.18070965883E+03  0.00000000000E+00 0.  1.
         23    2    1    2    0    0 -0.41159549841E+02  0.24754131840E+01 -0.23622020839E+02  0.13381389237E+03  0.12509165324E+03 0.  0.
          5    1    3    3  502    0 -0.85642736950E+02 -0.46085401360E+01 -0.21539418214E+02  0.88528729639E+02  0.41800000000E+01 0.  1.
         -5    1    3    3    0  502  0.44483187109E+02  0.70839533201E+01 -0.20826026245E+01  0.45285162732E+02  0.41800000000E+01 0.  1.
        -11    1    1    2    0    0 -0.24325470446E+02  0.11903347843E+01 -0.48603299709E+02  0.54363831284E+02  0.00000000000E+00 0.  1.
         11    1    1    2    0    0  0.65485020288E+02 -0.36657479683E+01 -0.29215896172E+02  0.71800377293E+02  0.00000000000E+00 0. -1.
</event>
<event>
 7    1  0.6992302E-006  0.1188748E+03  0.7561462E-02  0.1244965E+00
         -2   -1    0    0    0  501 -0.00000000000E+00  0.00000000000E+00  0.55428906220E+02  0.55428906220E+02  0.00000000000E+00 0.  1.
          2   -1    0    0  501    0  0.00000000000E+00 -0.00000000000E+00 -0.26952581881E+03  0.26952581881E+03  0.00000000000E+00 0. -1.
         23    2    1    2    0    0  0.46864370284E+02 -0.80216985835E+00 -0.11556218148E+03  0.17663401655E+03  0.12509214737E+03 0.  0.
          5    1    3    3  502    0  0.12018268136E+02 -0.61495928715E+02 -0.45773166554E+02  0.77709994170E+02  0.41800000000E+01 0. -1.
         -5    1    3    3    0  502  0.34846102148E+02  0.60693758857E+02 -0.69789014925E+02  0.98924022377E+02  0.41800000000E+01 0. -1.
        -11    1    1    2    0    0  0.28924898541E+02 -0.20526004384E+01 -0.77324900489E+01  0.30010903461E+02  0.00000000000E+00 0. -1.
         11    1    1    2    0    0 -0.75789268826E+02  0.28547702967E+01 -0.90802241062E+02  0.11830980502E+03  0.00000000000E+00 0.  1.
</event>
<event>
 7    1  0.6992302E-006  0.1937856E+03  0.7561462E-02  0.1155091E+00
          2   -1    0    0  501    0  0.00000000000E+00  0.00000000000E+00  0.45432280208E+03  0.45432280208E+03  0.00000000000E+00 0. -1.
         -2   -1    0    0    0  501 -0.00000000000E+00 -0.00000000000E+00 -0.86284738608E+02  0.86284738608E+02  0.00000000000E+00 0.  1.
         23    2    1    2    0    0  0.12342871836E+03  0.10504558864E+03  0.14547508466E+03  0.25115531704E+03  0.12508704495E+03 0.  0.
          5    1    3    3  502    0 -0.14827224263E+02  0.55731899573E+02  0.43972862270E+02  0.72642798856E+02  0.41800000000E+01 0.  1.
         -5    1    3    3    0  502  0.13825594262E+03  0.49313689066E+02  0.10150222239E+03  0.17851251818E+03  0.41800000000E+01 0.  1.
        -11    1    1    2    0    0 -0.25948129957E+02 -0.77316711443E+02  0.77594968425E+02  0.11257068198E+03  0.00000000000E+00 0. -1.
         11    1    1    2    0    0 -0.97480588400E+02 -0.27728877196E+02  0.14496801039E+03  0.17688154166E+03  0.00000000000E+00 0.  1.
</event>
<event>
 7    1  0.6992302E-006  0.2419557E+03  0.7561462E-02  0.1118497E+00
         -2   -1    0    0    0  501 -0.00000000000E+00  0.00000000000E+00  0.62421682321E+02  0.62421682321E+02  0.00000000000E+00 0.  1.
          2   -1    0    0  501    0  0.00000000000E+00 -0.00000000000E+00 -0.99094197861E+03  0.99094197861E+03  0.00000000000E+00 0. -1.
         23    2    1    2    0    0 -0.20318908436E+03 -0.80654409543E+02 -0.41868331716E+03  0.48858975131E+03  0.12503314455E+03 0.  0.
          5    1    3    3  502    0 -0.34292976932E+02 -0.67770939358E+02 -0.18424966544E+03  0.19933469368E+03  0.41800000000E+01 0.  1.
         -5    1    3    3    0  502 -0.16889610743E+03 -0.12883470185E+02 -0.23443365172E+03  0.28925505763E+03  0.41800000000E+01 0.  1.
        -11    1    1    2    0    0  0.12201105022E+03 -0.27157755687E+01 -0.20627799513E+03  0.23967620467E+03  0.00000000000E+00 0.  1.
         11    1    1    2    0    0  0.81178034148E+02  0.83370185111E+02 -0.30355898400E+03  0.32509770494E+03  0.00000000000E+00 0. -1.
</event>
<event>
 7    1  0.6992302E-006  0.9300513E+02  0.7561462E-02  0.1295733E+00
          1   -1    0    0  501    0  0.00000000000E+00  0.00000000000E+00  0.14201712206E+03  0.14201712206E+03  0.00000000000E+00 0.  1.
         -1   -1    0    0    0  501 -0.00000000000E+00 -0.00000000000E+00 -0.10213274330E+03  0.10213274330E+03  0.00000000000E+00 0. -1.
         23    2    1    2    0    0  0.37796020655E+02 -0.20549077499E+02 -0.67136697381E+01  0.13245033128E+03  0.12508882097E+03 0.  0.
          5    1    3    3  502    0  0.83699756805E+02 -0.64400626472E+01 -0.30456681060E+01  0.84106314806E+02  0.41800000000E+01 0. -1.
         -5    1    3    3    0  502 -0.45903736150E+02 -0.14109014852E+02 -0.36680016321E+01  0.48344016471E+02  0.41800000000E+01 0. -1.
        -11    1    1    2    0    0 -0.12022797633E+02  0.24868033284E+02 -0.23892125655E+02  0.36521232327E+02  0.00000000000E+00 0. -1.
         11    1    1    2    0    0 -0.25773223022E+02 -0.43189557851E+01  0.70490174150E+02  0.75178301761E+02  0.00000000000E+00 0.  1.
</event>
<event>
 7    1  0.6992302E-006  0.1297910E+03  0.7561462E-02  0.1227766E+00
         -3   -1    0    0    0  501 -0.00000000000E+00  0.00000000000E+00  0.49995779712E+02  0.49995779712E+02  0.00000000000E+00 0.  1.
          3   -1    0    0  501    0  0.00000000000E+00 -0.00000000000E+00 -0.40519331676E+03  0.40519331676E+03  0.00000000000E+00 0. -1.
         23    2    1    2    0    0  0.75385747736E+02 -0.48028150478E+02 -0.14986948397E+03  0.21471096390E+03  0.12510084569E+03 0.  0.
          5    1    3    3  502    0  0.10470889800E+03 -0.35609032268E+02 -0.76278708873E+02  0.13441677844E+03  0.41800000000E+01 0. -1.
         -5    1    3    3    0  502 -0.29323150265E+02 -0.12419118210E+02 -0.73590775095E+02  0.80294185454E+02  0.41800000000E+01 0. -1.
        -11    1    1    2    0    0  0.56422824835E+01  0.34108700391E+02 -0.26181840576E+02  0.43367356040E+02  0.00000000000E+00 0. -1.
         11    1    1    2    0    0 -0.81028030219E+02  0.13919450087E+02 -0.17914621251E+03  0.19711077654E+03  0.00000000000E+00 0.  1.
</event>
<event>
 7    1  0.6992302E-006  0.1330502E+03  0.7561462E-02  0.1222999E+00
         -1   -1    0    0    0  501 -0.00000000000E+00  0.00000000000E+00  0.10322947806E+03  0.10322947806E+03  0.00000000000E+00 0.  1.
          1   -1    0    0  501    0  0.00000000000E+00 -0.00000000000E+00 -0.19151443045E+03  0.19151443045E+03  0.00000000000E+00 0. -1.
         23    2    1    2    0    0 -0.67968746026E+02 -0.50495957882E+02 -0.10935998277E+02  0.15145024762E+03  0.12509192319E+03 0.  0.
          5    1    3    3  502    0 -0.40795324770E+02 -0.89902061838E+02  0.94316334442E+01  0.99262618116E+02  0.41800000000E+01 0.  1.
         -5    1    3    3    0  502 -0.27173421255E+02  0.39406103956E+02 -0.20367631721E+02  0.52187629508E+02  0.41800000000E+01 0.  1.
        -11    1    1    2    0    0  0.72764852771E+02  0.44050004232E+01 -0.57657283087E+02  0.92943478096E+02  0.00000000000E+00 0. -1.
         11    1    1    2    0    0 -0.47961067458E+01  0.46090957459E+02 -0.19691671029E+02  0.50350182793E+02  0.00000000000E+00 0.  1.
</event>
<event>
 7    1  0.6992302E-006  0.1611115E+03  0.7561462E-02  0.1187448E+00
         -2   -1    0    0    0  501 -0.00000000000E+00  0.00000000000E+00  0.15670517121E+03  0.15670517121E+03  0.00000000000E+00 0.  1.
          2   -1    0    0  501    0  0.00000000000E+00 -0.00000000000E+00 -0.19198627363E+03  0.19198627363E+03  0.00000000000E+00 0. -1.
         23    2    1    2    0    0  0.12647355351E+03  0.39577353286E+02 -0.21873459580E+02  0.18354936536E+03  0.12509993868E+03 0.  0.
          5    1    3    3  502    0  0.73185105094E+02 -0.22188616344E+02  0.34806574042E+02  0.84127072333E+02  0.41800000000E+01 0.  1.
         -5    1    3    3    0  502  0.53288448413E+02  0.61765969629E+02 -0.56680033621E+02  0.99422293022E+02  0.41800000000E+01 0.  1.
        -11    1    1    2    0    0 -0.51489673658E+02  0.31724498811E+02  0.20959621750E+01  0.60514654223E+02  0.00000000000E+00 0.  1.
         11    1    1    2    0    0 -0.74983879848E+02 -0.71301852096E+02 -0.15503605010E+02  0.10462742527E+03  0.00000000000E+00 0. -1.
</event>
<event>
 7    1  0.6992302E-006  0.1309694E+03  0.7561462E-02  0.1226024E+00
          2   -1    0    0  501    0  0.00000000000E+00  0.00000000000E+00  0.66773380349E+03  0.66773380349E+03  0.00000000000E+00 0. -1.
         -2   -1    0    0    0  501 -0.00000000000E+00 -0.00000000000E+00 -0.36503377059E+02  0.36503377059E+02  0.00000000000E+00 0.  1.
         23    2    1    2    0    0 -0.10448392468E+03  0.40223917759E+02  0.30183291297E+03  0.34537942931E+03  0.12509591826E+03 0.  0.
          5    1    3    3  502    0 -0.93216659436E+02  0.25916970292E+01  0.28921922125E+03  0.30391000779E+03  0.41800000000E+01 0.  1.
         -5    1    3    3    0  502 -0.11267265242E+02  0.37632220729E+02  0.12613691714E+02  0.41469421526E+02  0.41800000000E+01 0.  1.
        -11    1    1    2    0    0  0.17915705072E+02  0.17496009779E+02  0.18848764105E+02  0.31342602871E+02  0.00000000000E+00 0.  1.
         11    1    1    2    0    0  0.86568219606E+02 -0.57719927538E+02  0.31054874936E+03  0.32751514837E+03  0.00000000000E+00 0. -1.
</event>
<event>
 7    1  0.6992302E-006  0.7640744E+02  0.7561462E-02  0.1339567E+00
          1   -1    0    0  501    0  0.00000000000E+00  0.00000000000E+00  0.81561034065E+02  0.81561034065E+02  0.00000000000E+00 0. -1.
         -1   -1    0    0    0  501 -0.00000000000E+00 -0.00000000000E+00 -0.17252583778E+03  0.17252583778E+03  0.00000000000E+00 0.  1.
         23    2    1    2    0    0 -0.42285581185E+02  0.21292988480E+02 -0.43200301835E+02  0.14054983983E+03  0.12508608901E+03 0.  0.
          5    1    3    3  502    0 -0.22905508900E+01  0.12303000049E+01  0.43030563795E+02  0.43311223511E+02  0.41800000000E+01 0.  1.
         -5    1    3    3    0  502 -0.39995030295E+02  0.20062688476E+02 -0.86230865629E+02  0.97238616323E+02  0.41800000000E+01 0.  1.
        -11    1    1    2    0    0  0.23144394741E+02 -0.57507720481E+02 -0.27048472756E+02  0.67634464596E+02  0.00000000000E+00 0. -1.
         11    1    1    2    0    0  0.19141186444E+02  0.36214732000E+02 -0.20716029120E+02  0.45902567410E+02  0.00000000000E+00 0.  1.
</event>
<event>
 7    1  0.6992302E-006  0.8864082E+02  0.7561462E-02  0.1306177E+00
         -1   -1    0    0    0  501 -0.00000000000E+00  0.00000000000E+00  0.59463428052E+02  0.59463428052E+02  0.00000000000E+00 0.  1.
          1   -1    0    0  501    0  0.00000000000E+00 -0.00000000000E+00 -0.28253314445E+03  0.28253314445E+03  0.00000000000E+00 0. -1.
         23    2    1    2    0    0 -0.55441036184E+02 -0.96024646817E+01 -0.70317859016E+02  0.15413773554E+03  0.12509166399E+03 0.  0.
          5    1    3    3  502    0 -0.16553856667E+02  0.14164623607E+02 -0.98114600510E+02  0.10059132152E+03  0.41800000000E+01 0.  1.
         -5    1    3    3    0  502 -0.38887179518E+02 -0.23767088289E+02  0.27796741494E+02  0.53546414018E+02  0.41800000000E+01 0.  1.
        -11    1    1    2    0    0 -0.25522030098E+01 -0.35668804134E+02 -0.48256851106E+02  0.60062475866E+02  0.00000000000E+00 0. -1.
         11    1    1    2    0    0  0.57993239194E+02  0.45271268815E+02 -0.10449500628E+03  0.12779636109E+03  0.00000000000E+00 0.  1.
</event>
<event>
 7    1  0.6992302E-006  0.1183051E+03  0.7561462E-02  0.1245920E+00
          1   -1    0    0  501    0  0.00000000000E+00  0.00000000000E+00  0.11574943279E+03  0.11574943279E+03  0.00000000000E+00 0. -1.
         -1   -1    0    0    0  501 -0.00000000000E+00 -0.00000000000E+00 -0.18889101392E+03  0.18889101392E+03  0.00000000000E+00 0.  1.
         23    2    1    2    0    0  0.29488634436E+02  0.94825833295E+02 -0.40594320454E+02  0.16481133681E+03  0.12511338724E+03 0.  0.
          5    1    3    3  502    0 -0.22254516273E+02 -0.11585060303E+01 -0.50383564059E+02  0.55250172470E+02  0.41800000000E+01 0.  1.
         -5    1    3    3    0  502  0.51743150709E+02  0.95984339325E+02  0.97892436050E+01  0.10956116434E+03  0.41800000000E+01 0.  1.
        -11    1    1    2    0    0 -0.33091367258E+02 -0.50715053189E+02  0.26446678108E+02  0.66079361301E+02  0.00000000000E+00 0. -1.
         11    1    1    2    0    0  0.36027328216E+01 -0.44110780106E+02 -0.58993938789E+02  0.73749748604E+02  0.00000000000E+00 0.  1.
</event>
<event>
 7    1  0.6992302E-006  0.1212457E+03  0.7561462E-02  0.1241056E+00
          2   -1    0    0  501    0  0.00000000000E+00  0.00000000000E+00  0.32350297192E+03  0.32350297192E+03  0.00000000000E+00 0. -1.
         -2   -1    0    0    0  501 -0.00000000000E+00 -0.00000000000E+00 -0.51111052092E+02  0.51111052092E+02  0.00000000000E+00 0.  1.
         23    2    1    2    0    0  0.40358475658E+02 -0.43547996232E+02  0.10042086097E+03  0.17111962833E+03  0.12518923016E+03 0.  0.
          5    1    3    3  502    0  0.31986511260E+02  0.39047787709E+02  0.17184649343E+02  0.53485055862E+02  0.41800000000E+01 0.  1.
         -5    1    3    3    0  502  0.83719643981E+01 -0.82595783941E+02  0.83236211632E+02  0.11763457247E+03  0.41800000000E+01 0.  1.
        -11    1    1    2    0    0  0.16169463682E+02 -0.18641366459E+02  0.42261479088E+02  0.48938581037E+02  0.00000000000E+00 0.  1.
         11    1    1    2    0    0 -0.56527939340E+02  0.62189362690E+02  0.12970957977E+03  0.15455581465E+03  0.00000000000E+00 0. -1.
</event>
<event>
 7    1  0.6992302E-006  0.7566520E+02  0.7561462E-02  0.1341823E+00
          2   -1    0    0  501    0  0.00000000000E+00  0.00000000000E+00  0.29188452674E+03  0.29188452674E+03  0.00000000000E+00 0. -1.
         -2   -1    0    0    0  501 -0.00000000000E+00 -0.00000000000E+00 -0.49796003283E+02  0.49796003283E+02  0.00000000000E+00 0.  1.
         23    2    1    2    0    0  0.25268907432E+02 -0.90135319982E+01  0.70796019931E+02  0.14621672945E+03  0.12508994400E+03 0.  0.
          5    1    3    3  502    0  0.37409589963E+02  0.22165369981E+02  0.95098892274E+02  0.10465205569E+03  0.41800000000E+01 0. -1.
         -5    1    3    3    0  502 -0.12140682531E+02 -0.31178901980E+02 -0.24302872343E+02  0.41564673764E+02  0.41800000000E+01 0. -1.
        -11    1    1    2    0    0 -0.46692596647E+02 -0.69544606231E+01  0.15935159712E+03  0.16619715584E+03  0.00000000000E+00 0. -1.
         11    1    1    2    0    0  0.21423689215E+02  0.15967992621E+02  0.11940906399E+02  0.29266644727E+02  0.00000000000E+00 0.  1.
</event>
<event>
 7    1  0.6992302E-006  0.1233083E+03  0.7561462E-02  0.1237737E+00
         -1   -1    0    0    0  501 -0.00000000000E+00  0.00000000000E+00  0.66840678153E+02  0.66840678153E+02  0.00000000000E+00 0.  1.
          1   -1    0    0  501    0  0.00000000000E+00 -0.00000000000E+00 -0.33542671839E+03  0.33542671839E+03  0.00000000000E+00 0. -1.
         23    2    1    2    0    0  0.99003201019E+02 -0.35999999646E+01 -0.10840173976E+03  0.19290802551E+03  0.12509186749E+03 0.  0.
          5    1    3    3  502    0 -0.22662439978E+02  0.53931539712E+01 -0.54598776260E+02  0.59507739535E+02  0.41800000000E+01 0. -1.
         -5    1    3    3    0  502  0.12166564100E+03 -0.89931539359E+01 -0.53802963497E+02  0.13340028597E+03  0.41800000000E+01 0. -1.
        -11    1    1    2    0    0 -0.36084946231E+02 -0.78485410781E+01 -0.51306097303E-01  0.36928655186E+02  0.00000000000E+00 0.  1.
         11    1    1    2    0    0 -0.62918254788E+02  0.11448541043E+02 -0.16013299438E+03  0.17243071585E+03  0.00000000000E+00 0. -1.
</event>
<event>
 7    1  0.6992302E-006  0.2033255E+03  0.7561462E-02  0.1146963E+00
          1   -1    0    0  501    0  0.00000000000E+00  0.00000000000E+00  0.40285159414E+03  0.40285159414E+03  0.00000000000E+00 0. -1.
         -1   -1    0    0    0  501 -0.00000000000E+00 -0.00000000000E+00 -0.12820715380E+03  0.12820715380E+03  0.00000000000E+00 0.  1.
         23    2    1    2    0    0  0.10630972489E+03 -0.16836793175E+03  0.17624988720E+03  0.29387383893E+03  0.12509313501E+03 0.  0.
          5    1    3    3  502    0  0.55364554562E+02 -0.11220333443E+03  0.29469340350E+02  0.12861079496E+03  0.41800000000E+01 0.  1.
         -5    1    3    3    0  502  0.50945170325E+02 -0.56164597315E+02  0.14678054685E+03  0.16526304397E+03  0.41800000000E+01 0.  1.
        -11    1    1    2    0    0 -0.60792225597E+02  0.50039625103E+02  0.74048981022E+02  0.10808751252E+03  0.00000000000E+00 0.  1.
         11    1    1    2    0    0 -0.45517499291E+02  0.11832830665E+03  0.24345572116E+02  0.12909739648E+03  0.00000000000E+00 0. -1.
</event>
<event>
 6    1  0.6992302E-006  0.1123621E+03  0.7561462E-02  0.1256257E+00
         -3   -1    0    0    0  501 -0.00000000000E+00  0.00000000000E+00  0.24493942220E+03  0.24493942220E+03  0.00000000000E+00 0.  1.
          3   -1    0    0  501    0  0.00000000000E+00 -0.00000000000E+00 -0.12622726265E+03  0.12622726265E+03  0.00000000000E+00 0. -1.
          5    1    1    2  502    0  0.67758917661E+02 -0.23663191212E+02  0.49288512984E+02  0.87166779527E+02  0.41800000000E+01 0. -1.
         -5    1    1    2    0  502 -0.58424741375E+02  0.11565668631E+02  0.14962518840E+03  0.16109743791E+03  0.41800000000E+01 0.  1.
        -11    1    1    2    0    0 -0.33001540563E+02 -0.30150066377E+02 -0.38111785275E+02  0.58742117420E+02  0.00000000000E+00 0.  1.
         11    1    1    2    0    0  0.23667364278E+02  0.42247588958E+02 -0.42089756558E+02  0.64160349997E+02  0.00000000000E+00 0. -1.
</event>
<event>
 7    1  0.6992302E-006  0.1555082E+03  0.7561462E-02  0.1193863E+00
         -2   -1    0    0    0  501 -0.00000000000E+00  0.00000000000E+00  0.48380604500E+02  0.48380604500E+02  0.00000000000E+00 0.  1.
          2   -1    0    0  501    0  0.00000000000E+00 -0.00000000000E+00 -0.67196846701E+03  0.67196846701E+03  0.00000000000E+00 0. -1.
         23    2    1    2    0    0  0.13707376960E+01  0.12484638604E+03 -0.18583083003E+03  0.25645530456E+03  0.12509087422E+03 0.  0.
          5    1    3    3  502    0 -0.57071353952E+02  0.84860387336E+02 -0.13392189340E+03  0.16855554192E+03  0.41800000000E+01 0.  1.
         -5    1    3    3    0  502  0.58442091648E+02  0.39985998704E+02 -0.51908936635E+02  0.87899762634E+02  0.41800000000E+01 0.  1.
        -11    1    1    2    0    0  0.28338245542E+02 -0.65259175023E+02 -0.32711254585E+03  0.33476026308E+03  0.00000000000E+00 0.  1.
         11    1    1    2    0    0 -0.29708983238E+02 -0.59587211018E+02 -0.11064448662E+03  0.12913350387E+03  0.00000000000E+00 0. -1.
</event>
<event>
 7    1  0.6992302E-006  0.1027175E+03  0.7561462E-02  0.1274683E+00
         -3   -1    0    0    0  501 -0.00000000000E+00  0.00000000000E+00  0.38327001447E+03  0.38327001447E+03  0.00000000000E+00 0.  1.
          3   -1    0    0  501    0  0.00000000000E+00 -0.00000000000E+00 -0.34951172783E+02  0.34951172783E+02  0.00000000000E+00 0. -1.
         23    2    1    2    0    0  0.29355186071E+02 -0.39630833470E+02  0.19018971184E+03  0.22914315802E+03  0.11790729607E+03 0.  0.
          5    1    3    3  502    0  0.23437217173E+02  0.26614166678E+02  0.10085112254E+02  0.37105240950E+02  0.41800000000E+01 0. -1.
         -5    1    3    3    0  502  0.59179688977E+01 -0.66245000148E+02  0.18010459958E+03  0.19203791707E+03  0.41800000000E+01 0.  1.
        -11    1    1    2    0    0  0.86658330900E+01 -0.25907260193E+02  0.51105327333E+02  0.57948574406E+02  0.00000000000E+00 0.  1.
         11    1    1    2    0    0 -0.38021019161E+02  0.65538093663E+02  0.10702380252E+03  0.13112945483E+03  0.00000000000E+00 0. -1.
</event>
<event>
 7    1  0.6992302E-006  0.8500930E+02  0.7561462E-02  0.1315408E+00
         -3   -1    0    0    0  501 -0.00000000000E+00  0.00000000000E+00  0.61363280235E+03  0.61363280235E+03  0.00000000000E+00 0.  1.
          3   -1    0    0  501    0  0.00000000000E+00 -0.00000000000E+00 -0.28205200413E+02  0.28205200413E+02  0.00000000000E+00 0. -1.
         23    2    1    2    0    0 -0.39979229636E+02 -0.20255693780E+02  0.48589106981E+03  0.50373144476E+03  0.12508638930E+03 0.  0.
          5    1    3    3  502    0  0.37029362325E+02  0.11707995994E+02  0.25979607117E+03  0.26271604793E+03  0.41800000000E+01 0. -1.
         -5    1    3    3    0  502 -0.77008591961E+02 -0.31963689775E+02  0.22609499864E+03  0.24101539683E+03  0.41800000000E+01 0. -1.
        -11    1    1    2    0    0  0.23734845416E+02  0.32485109559E+01 -0.10083655043E+02  0.25991841208E+02  0.00000000000E+00 0. -1.
         11    1    1    2    0    0  0.16244384220E+02  0.17007182824E+02  0.10962018717E+03  0.11211471679E+03  0.00000000000E+00 0.  1.
</event>
<event>
 7    1  0.6992302E-006  0.2463386E+03  0.7561462E-02  0.1115641E+00
          1   -1    0    0  501    0  0.00000000000E+00  0.00000000000E+00  0.54102117141E+03  0.54102117141E+03  0.00000000000E+00 0. -1.
         -1   -1    0    0    0  501 -0.00000000000E+00 -0.00000000000E+00 -0.14399597889E+03  0.14399597889E+03  0.00000000000E+00 0.  1.
         23    2    1    2    0    0 -0.72191831969E+02  0.22325328895E+03  0.83195843640E+02  0.27858626746E+03  0.12504026708E+03 0.  0.
          5    1    3    3  502    0  0.26760158999E+02  0.48656907535E+02 -0.11144350241E+02  0.56791458009E+02  0.41800000000E+01 0. -1.
         -5    1    3    3    0  502 -0.98951990968E+02  0.17459638141E+03  0.94340193881E+02  0.22179480945E+03  0.41800000000E+01 0. -1.
        -11    1    1    2    0    0  0.61251079829E+02 -0.14738332916E+03  0.28074412099E+03  0.32294086451E+03  0.00000000000E+00 0. -1.
         11    1    1    2    0    0  0.10940752140E+02 -0.75869959786E+02  0.33085227886E+02  0.83490018324E+02  0.00000000000E+00 0.  1.
</event>
<event>
 7    1  0.6992302E-006  0.1089053E+03  0.7561462E-02  0.1262611E+00
          1   -1    0    0  501    0  0.00000000000E+00  0.00000000000E+00  0.24188922272E+03  0.24188922272E+03  0.00000000000E+00 0. -1.
         -1   -1    0    0    0  501 -0.00000000000E+00 -0.00000000000E+00 -0.62510179622E+02  0.62510179622E+02  0.00000000000E+00 0.  1.
         23    2    1    2    0    0  0.27974250158E+02 -0.52353359161E+02  0.78213562345E+02  0.15902708326E+03  0.12509523968E+03 0.  0.
          5    1    3    3  502    0 -0.14016643912E+02 -0.70754036979E+02  0.48459183954E+01  0.72412397975E+02  0.41800000000E+01 0.  1.
         -5    1    3    3    0  502  0.41990894070E+02  0.18400677818E+02  0.73367643950E+02  0.86614685289E+02  0.41800000000E+01 0.  1.
        -11    1    1    2    0    0  0.26693774472E+02  0.30809274765E+02  0.63887323755E+02  0.75784953280E+02  0.00000000000E+00 0. -1.
         11    1    1    2    0    0 -0.54668024629E+02  0.21544084396E+02  0.37278156992E+02  0.69587365794E+02  0.00000000000E+00 0.  1.
</event>
<event>
 7    1  0.6992302E-006  0.9057352E+02  0.7561462E-02  0.1301469E+00
         -1   -1    0    0    0  501 -0.00000000000E+00  0.00000000000E+00  0.15196641775E+03  0.15196641775E+03  0.00000000000E+00 0.  1.
          1   -1    0    0  501    0  0.00000000000E+00 -0.00000000000E+00 -0.87232408198E+02  0.87232408198E+02  0.00000000000E+00 0. -1.
         23    2    1    2    0    0  0.29966003688E+02 -0.27205354948E+02  0.47004670995E+02  0.13961682622E+03  0.12508127899E+03 0.  0.
          5    1    3    3  502    0 -0.30367645237E+02 -0.54636185473E+02  0.36142237298E+02  0.72325931430E+02  0.41800000000E+01 0.  1.
         -5    1    3    3    0  502  0.60333648925E+02  0.27430830525E+02  0.10862433697E+02  0.67290894790E+02  0.41800000000E+01 0.  1.
        -11    1    1    2    0    0 -0.13839343141E+02  0.32331426396E+02 -0.31693422490E+02  0.47342597948E+02  0.00000000000E+00 0. -1.
         11    1    1    2    0    0 -0.16126660546E+02 -0.51260714477E+01  0.49422761046E+02  0.52239401779E+02  0.00000000000E+00 0.  1.
</event>
<event>
 7    1  0.6992302E-006  0.8545920E+02  0.7561462E-02  0.1314236E+00
          2   -1    0    0  501    0  0.00000000000E+00  0.00000000000E+00  0.56301040000E+02  0.56301040000E+02  0.00000000000E+00 0. -1.
         -2   -1    0    0    0  501 -0.00000000000E+00 -0.00000000000E+00 -0.24178548923E+03  0.24178548923E+03  0.00000000000E+00 0.  1.
         23    2    1    2    0    0 -0.17927510453E+02  0.34412828075E+02 -0.14221280373E+03  0.19333417427E+03  0.12509189833E+03 0.  0.
          5    1    3    3  502    0 -0.34376172200E+02 -0.30583259598E+01 -0.14778888455E+03  0.15182259835E+03  0.41800000000E+01 0. -1.
         -5    1    3    3    0  502  0.16448661747E+02  0.37471154035E+02  0.55760808222E+01  0.41511575920E+02  0.41800000000E+01 0. -1.
        -11    1    1    2    0    0  0.52624984182E+02 -0.28416518026E+02 -0.22689610517E+02  0.63966443408E+02  0.00000000000E+00 0. -1.
         11    1    1    2    0    0 -0.34697473730E+02 -0.59963100498E+01 -0.20582034991E+02  0.40785911560E+02  0.00000000000E+00 0.  1.
</event>
<event>
 7    1  0.6992302E-006  0.1389288E+03  0.7561462E-02  0.1214778E+00
          1   -1    0    0  501    0  0.00000000000E+00  0.00000000000E+00  0.88843169605E+03  0.88843169605E+03  0.00000000000E+00 0. -1.
         -1   -1    0    0    0  501 -0.00000000000E+00 -0.00000000000E+00 -0.29876919384E+02  0.29876919384E+02  0.00000000000E+00 0.  1.
         23    2    1    2    0    0 -0.40628306333E+02 -0.11438752888E+03  0.45366471633E+03  0.48599916902E+03  0.12509337077E+03 0.  0.
          5    1    3    3  502    0 -0.50173058334E+02 -0.55939438372E+02  0.39650987867E+03  0.40358903953E+03  0.41800000000E+01 0. -1.
         -5    1    3    3    0  502  0.95447520006E+01 -0.58448090509E+02  0.57154837661E+02  0.82410129493E+02  0.41800000000E+01 0. -1.
        -11    1    1    2    0    0  0.59161690207E+02  0.54141730355E+02  0.15409079428E+03  0.17371069465E+03  0.00000000000E+00 0. -1.
         11    1    1    2    0    0 -0.18533383874E+02  0.60245798526E+02  0.25079926606E+03  0.25859875176E+03  0.00000000000E+00 0.  1.
</event>
<event>
 7    1  0.6992302E-006  0.1380062E+03  0.7561462E-02  0.1216037E+00
          1   -1    0    0  501    0  0.00000000000E+00  0.00000000000E+00  0.76952430029E+03  0.76952430029E+03  0.00000000000E+00 0. -1.
         -1   -1    0    0    0  501 -0.00000000000E+00 -0.00000000000E+00 -0.29012569653E+02  0.29012569653E+02  0.00000000000E+00 0.  1.
         23    2    1    2    0    0 -0.50052136188E+02 -0.80489318284E+02  0.29424620921E+03  0.33348437041E+03  0.12508895625E+03 0.  0.
          5    1    3    3  502    0  0.12691219363E+02  0.22297552346E+02  0.11220297835E+03  0.11517477432E+03  0.41800000000E+01 0. -1.
         -5    1    3    3    0  502 -0.62743355551E+02 -0.10278687063E+03  0.18204323086E+03  0.21830959609E+03  0.41800000000E+01 0. -1.
        -11    1    1    2    0    0  0.75242830977E+02  0.67944300091E+02  0.31940565368E+03  0.33510876313E+03  0.00000000000E+00 0.  1.
         11    1    1    2    0    0 -0.25190694789E+02  0.12545018193E+02  0.12685986774E+03  0.12994373640E+03  0.00000000000E+00 0. -1.
</event>
<event>
 7    1  0.6992302E-006  0.3845864E+03  0.7561462E-02  0.1049252E+00
          2   -1    0    0  501    0  0.00000000000E+00  0.00000000000E+00  0.79333250935E+03  0.79333250935E+03  0.00000000000E+00 0. -1.
         -2   -1    0    0    0  501 -0.00000000000E+00 -0.00000000000E+00 -0.22601114101E+03  0.22601114101E+03  0.00000000000E+00 0.  1.
         23    2    1    2    0    0  0.35215007219E+03 -0.13807356272E+03  0.99632751655E+02  0.41066631017E+03  0.12508457554E+03 0.  0.
          5    1    3    3  502    0  0.28864752586E+03 -0.14291585706E+03  0.11988896929E+03  0.34370506796E+03  0.41800000000E+01 0.  1.
         -5    1    3    3    0  502  0.63502546333E+02  0.48422943410E+01 -0.20256217633E+02  0.66961242208E+02  0.41800000000E+01 0.  1.
        -11    1    1    2    0    0 -0.27526953807E+03  0.79317505765E+02  0.29816034445E+03  0.41347814490E+03  0.00000000000E+00 0. -1.
         11    1    1    2    0    0 -0.76880534125E+02  0.58756056951E+02  0.16952827223E+03  0.19519919529E+03  0.00000000000E+00 0.  1.
</event>
<event>
 7    1  0.6992302E-006  0.9131764E+02  0.7561462E-02  0.1299692E+00
          1   -1    0    0  501    0  0.00000000000E+00  0.00000000000E+00  0.28922822147E+03  0.28922822147E+03  0.00000000000E+00 0. -1.
         -1   -1    0    0    0  501 -0.00000000000E+00 -0.00000000000E+00 -0.49265314101E+02  0.49265314101E+02  0.00000000000E+00 0.  1.
         23    2    1    2    0    0  0.46107313404E+02 -0.19006887142E+02  0.14239070355E+03  0.19598241880E+03  0.12508736913E+03 0.  0.
          5    1    3    3  502    0 -0.28813063855E+02 -0.38769847796E+02  0.23176861489E+02  0.53739492511E+02  0.41800000000E+01 0.  1.
         -5    1    3    3    0  502  0.74920377259E+02  0.19762960655E+02  0.11921384206E+03  0.14224292629E+03  0.41800000000E+01 0.  1.
        -11    1    1    2    0    0 -0.10756548605E+02  0.18264045802E+02 -0.14045065607E+02  0.25427201475E+02  0.00000000000E+00 0.  1.
         11    1    1    2    0    0 -0.35350764799E+02  0.74284133948E+00  0.11161726943E+03  0.11708391529E+03  0.00000000000E+00 0. -1.
</event>
<event>
 6    1  0.6992302E-006  0.1251151E+03  0.7561462E-02  0.1234889E+00
         -2   -1    0    0    0  501 -0.00000000000E+00  0.00000000000E+00  0.11978888911E+03  0.11978888911E+03  0.00000000000E+00 0.  1.
          2   -1    0    0  501    0  0.00000000000E+00 -0.00000000000E+00 -0.10824223677E+04  0.10824223677E+04  0.00000000000E+00 0. -1.
          5    1    1    2  502    0 -0.51797515647E+02  0.85105707033E+02 -0.44426161746E+03  0.45531507898E+03  0.41800000000E+01 0. -1.
         -5    1    1    2    0  502  0.19582922436E+02  0.23090683299E+01  0.10659055454E+03  0.10847968181E+03  0.41800000000E+01 0.  1.
        -11    1    1    2    0    0  0.23307916006E+02  0.14894492814E+02 -0.12831259571E+03  0.13126015040E+03  0.00000000000E+00 0.  1.
         11    1    1    2    0    0  0.89066772051E+01 -0.10230926818E+03 -0.49664981995E+03  0.50715634563E+03  0.00000000000E+00 0. -1.
</event>
<event>
 7    1  0.6992302E-006  0.9207348E+02  0.7561462E-02  0.1297907E+00
         -2   -1    0    0    0  501 -0.00000000000E+00  0.00000000000E+00  0.12572688931E+04  0.12572688931E+04  0.00000000000E+00 0.  1.
          2   -1    0    0  501    0  0.00000000000E+00 -0.00000000000E+00 -0.11750076546E+02  0.11750076546E+02  0.00000000000E+00 0. -1.
         23    2    1    2    0    0  0.32500105196E+02  0.36028608323E+02  0.89040313745E+03  0.90044462123E+03  0.12501380427E+03 0.  0.
          5    1    3    3  502    0 -0.16572170813E+02  0.44334675751E+02  0.74853290730E+03  0.75003945631E+03  0.41800000000E+01 0. -1.
         -5    1    3    3    0  502  0.49072276009E+02 -0.83060674287E+01  0.14187023015E+03  0.15040516491E+03  0.41800000000E+01 0. -1.
        -11    1    1    2    0    0 -0.48866445644E+02 -0.19775391709E+01  0.28266730926E+03  0.28686695156E+03  0.00000000000E+00 0.  1.
         11    1    1    2    0    0  0.16366340447E+02 -0.34051069152E+02  0.72448369888E+02  0.81707396908E+02  0.00000000000E+00 0. -1.
</event>
<event>
 7    1  0.6992302E-006  0.1062193E+03  0.7561462E-02  0.1267736E+00
         -1   -1    0    0    0  501 -0.00000000000E+00  0.00000000000E+00  0.66066229858E+02  0.66066229858E+02  0.00000000000E+00 0.  1.
          1   -1    0    0  501    0  0.00000000000E+00 -0.00000000000E+00 -0.19976798569E+03  0.19976798569E+03  0.00000000000E+00 0. -1.
         23    2    1    2    0    0 -0.46774619427E+01  0.28267646481E+02 -0.41401181673E+02  0.13484262512E+03  0.12509011639E+03 0.  0.
          5    1    3    3  502    0 -0.45281444190E+01  0.74662170199E+02 -0.38599184640E+01  0.75015432554E+02  0.41800000000E+01 0.  1.
         -5    1    3    3    0  502 -0.14931752366E+00 -0.46394523719E+02 -0.37541263209E+02  0.59827192565E+02  0.41800000000E+01 0.  1.
        -11    1    1    2    0    0 -0.14224931424E+02  0.28095559411E+02 -0.19653990043E+02  0.37121266913E+02  0.00000000000E+00 0.  1.
         11    1    1    2    0    0  0.18902393366E+02 -0.56363205892E+02 -0.72646584116E+02  0.93870323516E+02  0.00000000000E+00 0. -1.
</event>
<event>
 7    1  0.6992302E-006  0.9738919E+02  0.7561462E-02  0.1285884E+00
         -1   -1    0    0    0  501 -0.00000000000E+00  0.00000000000E+00  0.10609002379E+04  0.10609002379E+04  0.00000000000E+00 0.  1.
          1   -1    0    0  501    0  0.00000000000E+00 -0.00000000000E+00 -0.16282502442E+02  0.16282502442E+02  0.00000000000E+00 0. -1.
         23    2    1    2    0    0 -0.24906004892E+02  0.22467256459E+02  0.84798378703E+03  0.85781643835E+03  0.12508977632E+03 0.  0.
          5    1    3    3  502    0  0.37642003374E+02  0.24807317812E+02  0.61084985113E+03  0.61252537617E+03  0.41800000000E+01 0. -1.
         -5    1    3    3    0  502 -0.62548008266E+02 -0.23400613528E+01  0.23713393591E+03  0.24529106218E+03  0.41800000000E+01 0. -1.
        -11    1    1    2    0    0 -0.25538591774E+02 -0.25691082029E+02  0.13437079089E+03  0.13916810271E+03  0.00000000000E+00 0.  1.
         11    1    1    2    0    0  0.50444596666E+02  0.32238255694E+01  0.62263157569E+02  0.80198199323E+02  0.00000000000E+00 0. -1.
</event>
<event>
 7    1  0.6992302E-006  0.1045374E+03  0.7561462E-02  0.1271034E+00
         -4   -1    0    0    0  501 -0.00000000000E+00  0.00000000000E+00  0.23098847809E+03  0.23098847809E+03  0.00000000000E+00 0.  1.
          4   -1    0    0  501    0  0.00000000000E+00 -0.00000000000E+00 -0.13933863985E+03  0.13933863985E+03  0.00000000000E+00 0. -1.
         23    2    1    2    0    0  0.59539072545E+02 -0.18188569811E+02  0.15402954625E+03  0.20795853860E+03  0.12508368169E+03 0.  0.
          5    1    3    3  502    0  0.82341367526E+02 -0.18545519997E+01  0.42295458449E+02  0.92681812534E+02  0.41800000000E+01 0.  1.
         -5    1    3    3    0  502 -0.22802294981E+02 -0.16334017811E+02  0.11173408781E+03  0.11527672606E+03  0.41800000000E+01 0.  1.
        -11    1    1    2    0    0 -0.77204641447E+02  0.21786271355E+02 -0.95462335402E+02  0.12469264518E+03  0.00000000000E+00 0. -1.
         11    1    1    2    0    0  0.17665568902E+02 -0.35977015446E+01  0.33082627387E+02  0.37675934173E+02  0.00000000000E+00 0.  1.
</event>
<event>
 7    1  0.6992302E-006  0.1121830E+03  0.7561462E-02  0.1256580E+00
         -3   -1    0    0    0  501 -0.00000000000E+00  0.00000000000E+00  0.52270333481E+02  0.52270333481E+02  0.00000000000E+00 0.  1.
          3   -1    0    0  501    0  0.00000000000E+00 -0.00000000000E+00 -0.30683545566E+03  0.30683545566E+03  0.00000000000E+00 0. -1.
         23    2    1    2    0    0  0.18294960406E+02  0.27708614844E+02 -0.66092463326E+02  0.14576104289E+03  0.12560093551E+03 0.  0.
          5    1    3    3  502    0 -0.31859305128E+02  0.57543563045E+02 -0.55799223264E+02  0.86355675483E+02  0.41800000000E+01 0. -1.
         -5    1    3    3    0  502  0.50154265534E+02 -0.29834948202E+02 -0.10293240062E+02  0.59405367404E+02  0.41800000000E+01 0.  1.
        -11    1    1    2    0    0  0.38508086149E+02 -0.52239624369E+01 -0.71306547553E+02  0.81208289025E+02  0.00000000000E+00 0.  1.
         11    1    1    2    0    0 -0.56803046555E+02 -0.22484652407E+02 -0.11716611130E+03  0.13213645723E+03  0.00000000000E+00 0. -1.
</event>
<event>
 7    1  0.6992302E-006  0.1501640E+03  0.7561462E-02  0.1200272E+00
         -1   -1    0    0    0  501 -0.00000000000E+00  0.00000000000E+00  0.12405697320E+03  0.12405697320E+03  0.00000000000E+00 0.  1.
          1   -1    0    0  501    0  0.00000000000E+00 -0.00000000000E+00 -0.25090350665E+03  0.25090350665E+03  0.00000000000E+00 0. -1.
         23    2    1    2    0    0 -0.11679674633E+03  0.28063034182E+02  0.55982515678E+01  0.17351842221E+03  0.12509311965E+03 0.  0.
          5    1    3    3  502    0  0.24921915739E+01  0.38687568326E+02  0.32431326965E+02  0.50716884078E+02  0.41800000000E+01 0.  1.
         -5    1    3    3    0  502 -0.11928893790E+03 -0.10624534144E+02 -0.26833075397E+02  0.12280153813E+03  0.41800000000E+01 0.  1.
        -11    1    1    2    0    0  0.49785498338E+02  0.25293956875E+02 -0.89819387712E+02  0.10576342708E+03  0.00000000000E+00 0. -1.
         11    1    1    2    0    0  0.67011247992E+02 -0.53356991057E+02 -0.42625397306E+02  0.95678630569E+02  0.00000000000E+00 0.  1.
</event>
<event>
 6    1  0.6992302E-006  0.1164280E+03  0.7561462E-02  0.1249109E+00
         -1   -1    0    0    0  501 -0.00000000000E+00  0.00000000000E+00  0.11141864159E+03  0.11141864159E+03  0.00000000000E+00 0.  1.
          1   -1    0    0  501    0  0.00000000000E+00 -0.00000000000E+00 -0.35344692753E+03  0.35344692753E+03  0.00000000000E+00 0. -1.
          5    1    1    2  502    0 -0.41032876154E+02 -0.21423534472E+02 -0.65271713525E+01  0.46933368946E+02  0.41800000000E+01 0. -1.
         -5    1    1    2    0  502  0.87413134873E+02  0.20889414112E+02  0.58265522288E+02  0.10719033192E+03  0.41800000000E+01 0.  1.
        -11    1    1    2    0    0 -0.16050728279E+02  0.42040432541E+02 -0.18565115484E+03  0.19102715812E+03  0.00000000000E+00 0.  1.
         11    1    1    2    0    0 -0.30329530440E+02 -0.41506312181E+02 -0.10811548204E+03  0.11971471014E+03  0.00000000000E+00 0. -1.
</event>
<event>
 7    1  0.6992302E-006  0.9582345E+02  0.7561462E-02  0.1289332E+00
          1   -1    0    0  501    0  0.00000000000E+00  0.00000000000E+00  0.80928692253E+02  0.80928692253E+02  0.00000000000E+00 0. -1.
         -1   -1    0    0    0  501 -0.00000000000E+00 -0.00000000000E+00 -0.20885598875E+03  0.20885598875E+03  0.00000000000E+00 0.  1.
         23    2    1    2    0    0 -0.20761634660E+02 -0.14236646296E+02 -0.14869451903E+03  0.19593699573E+03  0.12509004250E+03 0.  0.
          5    1    3    3  502    0 -0.70608178941E+02 -0.14033442139E+02 -0.58728672145E+02  0.92999901955E+02  0.41800000000E+01 0. -1.
         -5    1    3    3    0  502  0.49846544281E+02 -0.20320415696E+00 -0.89965846886E+02  0.10293709377E+03  0.41800000000E+01 0. -1.
        -11    1    1    2    0    0 -0.95268953918E+01 -0.20993595511E+02 -0.21140160264E+02  0.31279372824E+02  0.00000000000E+00 0.  1.
         11    1    1    2    0    0  0.30288530052E+02  0.35230241807E+02  0.41907382796E+02  0.62568312453E+02  0.00000000000E+00 0. -1.
</event>
<event>
 7    1  0.6992302E-006  0.2856144E+03  0.7561462E-02  0.1092661E+00
         -2   -1    0    0    0  501 -0.00000000000E+00  0.00000000000E+00  0.17785739815E+03  0.17785739815E+03  0.00000000000E+00 0.  1.
          2   -1    0    0  501    0  0.00000000000E+00 -0.00000000000E+00 -0.62424557300E+03  0.62424557300E+03  0.00000000000E+00 0. -1.
         23    2    1    2    0    0 -0.17222436944E+03  0.22020785311E+03 -0.52807236130E+02  0.31078805727E+03  0.12509148795E+03 0.  0.
          5    1    3    3  502    0 -0.16601207573E+03  0.21817897910E+03 -0.17618520859E+02  0.27475436463E+03  0.41800000000E+01 0. -1.
         -5    1    3    3    0  502 -0.62122937052E+01  0.20288740123E+01 -0.35188715271E+02  0.36033692640E+02  0.41800000000E+01 0. -1.
        -11    1    1    2    0    0  0.16553763767E+03 -0.16519096709E+03 -0.34938312794E+03  0.42042756235E+03  0.00000000000E+00 0.  1.
         11    1    1    2    0    0  0.66867317644E+01 -0.55016886018E+02 -0.44197810774E+02  0.70887351524E+02  0.00000000000E+00 0. -1.
</event>
<event>
 7    1  0.6992302E-006  0.1248223E+03  0.7561462E-02  0.1235347E+00
         -1   -1    0    0    0  501 -0.00000000000E+00  0.00000000000E+00  0.59637191966E+02  0.59637191966E+02  0.00000000000E+00 0.  1.
          1   -1    0    0  501    0  0.00000000000E+00 -0.00000000000E+00 -0.30997172430E+03  0.30997172430E+03  0.00000000000E+00 0. -1.
         23    2    1    2    0    0  0.55530941594E+02 -0.51173869779E+02 -0.97818154845E+02  0.17585286444E+03  0.12511350084E+03 0.  0.
          5    1    3    3  502    0  0.77205687974E+02 -0.78005065204E+02 -0.84764347506E+02  0.13873707313E+03  0.41800000000E+01 0.  1.
         -5    1    3    3    0  502 -0.21674746380E+02  0.26831195426E+02 -0.13053807340E+02  0.37115791311E+02  0.41800000000E+01 0.  1.
        -11    1    1    2    0    0 -0.34725219967E+02 -0.13403580524E+02 -0.14465716679E+02  0.39934369053E+02  0.00000000000E+00 0.  1.
         11    1    1    2    0    0 -0.20805721627E+02  0.64577450303E+02 -0.13805066081E+03  0.15382168277E+03  0.00000000000E+00 0. -1.
</event>
<event>
 7    1  0.6992302E-006  0.1016857E+03  0.7561462E-02  0.1276790E+00
         -1   -1    0    0    0  501 -0.00000000000E+00  0.00000000000E+00  0.12868601069E+04  0.12868601069E+04  0.00000000000E+00 0.  1.
          1   -1    0    0  501    0  0.00000000000E+00 -0.00000000000E+00 -0.21079637573E+02  0.21079637573E+02  0.00000000000E+00 0. -1.
         23    2    1    2    0    0  0.72531282320E+02 -0.15679602363E+02  0.10639800807E+04  0.10738748126E+04  0.12508742636E+03 0.  0.
          5    1    3    3  502    0 -0.17659699247E+02  0.15393491729E+02  0.49628592873E+02  0.55039024298E+02  0.41800000000E+01 0.  1.
         -5    1    3    3    0  502  0.90190981568E+02 -0.31073094092E+02  0.10143514878E+04  0.10188357883E+04  0.41800000000E+01 0.  1.
        -11    1    1    2    0    0 -0.40369627963E+02 -0.11505860700E+02  0.18334047394E+03  0.18808461148E+03  0.00000000000E+00 0.  1.
         11    1    1    2    0    0 -0.32161654358E+02  0.27185463063E+02  0.18459914740E+02  0.45980320412E+02  0.00000000000E+00 0. -1.
</event>
<event>
 7    1  0.6992302E-006  0.1273020E+03  0.7561462E-02  0.1231515E+00
          2   -1    0    0  501    0  0.00000000000E+00  0.00000000000E+00  0.12797055036E+03  0.12797055036E+03  0.00000000000E+00 0.  1.
         -2   -1    0    0    0  501 -0.00000000000E+00 -0.00000000000E+00 -0.16167111239E+03  0.16167111239E+03  0.00000000000E+00 0. -1.
         23    2    1    2    0    0 -0.38361106783E+02 -0.53713549944E+02 -0.79179799878E+02  0.16209233539E+03  0.12509102494E+03 0.  0.
          5    1    3    3  502    0  0.43178557117E+02 -0.36989096724E+02 -0.42124129920E+02  0.70883677900E+02  0.41800000000E+01 0.  1.
         -5    1    3    3    0  502 -0.81539663900E+02 -0.16724453220E+02 -0.37055669958E+02  0.91208657486E+02  0.41800000000E+01 0.  1.
        -11    1    1    2    0    0 -0.22941828510E+02  0.47356682200E+02  0.39162443535E+02  0.65594815558E+02  0.00000000000E+00 0.  1.
         11    1    1    2    0    0  0.61302935294E+02  0.63568677442E+01  0.63167943058E+01  0.61954511809E+02  0.00000000000E+00 0. -1.
</event>
<event>
 7    1  0.6992302E-006  0.1403240E+03  0.7561462E-02  0.1212894E+00
         -3   -1    0    0    0  501 -0.00000000000E+00  0.00000000000E+00  0.16039012091E+03  0.16039012091E+03  0.00000000000E+00 0.  1.
          3   -1    0    0  501    0  0.00000000000E+00 -0.00000000000E+00 -0.17914106450E+03  0.17914106450E+03  0.00000000000E+00 0. -1.
         23    2    1    2    0    0  0.23154798377E+02 -0.12050282666E+03  0.30630027725E+02  0.17801814711E+03  0.12528043015E+03 0.  0.
          5    1    3    3  502    0  0.84932239463E+01 -0.50005690008E+01  0.57473059257E+02  0.58461658236E+02  0.41800000000E+01 0.  1.
         -5    1    3    3    0  502  0.14661574431E+02 -0.11550225766E+03 -0.26843031532E+02  0.11955648887E+03  0.41800000000E+01 0.  1.
        -11    1    1    2    0    0  0.33294921607E+02  0.22000191414E+02 -0.17613806297E+02  0.43621169165E+02  0.00000000000E+00 0.  1.
         11    1    1    2    0    0 -0.56449719984E+02  0.98502635246E+02 -0.31767165013E+02  0.11789186914E+03  0.00000000000E+00 0. -1.
</event>
<event>
 7    1  0.6992302E-006  0.8534258E+02  0.7561462E-02  0.1314539E+00
          2   -1    0    0  501    0  0.00000000000E+00  0.00000000000E+00  0.19087085108E+03  0.19087085108E+03  0.00000000000E+00 0. -1.
         -2   -1    0    0    0  501 -0.00000000000E+00 -0.00000000000E+00 -0.62725932490E+02  0.62725932490E+02  0.00000000000E+00 0.  1.
         23    2    1    2    0    0 -0.14023886509E+01 -0.26834235199E+01  0.57018061799E+02  0.13750272215E+03  0.12508705677E+03 0.  0.
          5    1    3    3  502    0 -0.34649205756E+01 -0.61152529279E+02  0.97285551413E+01  0.62159107917E+02  0.41800000000E+01 0.  1.
         -5    1    3    3    0  502  0.20625319247E+01  0.58469105759E+02  0.47289506658E+02  0.75343614236E+02  0.41800000000E+01 0.  1.
        -11    1    1    2    0    0 -0.23432293696E+02 -0.62389543675E+01 -0.13287875956E+02  0.27650761054E+02  0.00000000000E+00 0.  1.
         11    1    1    2    0    0  0.24834682347E+02  0.89223778875E+01  0.84414732743E+02  0.88443300360E+02  0.00000000000E+00 0. -1.
</event>
<event>
 7    1  0.9563346E-006  0.9418647E+02  0.7561462E-02  0.1293019E+00
         -1   -1    0    0    0  501 -0.00000000000E+00  0.00000000000E+00  0.43877272731E+02  0.43877272731E+02  0.00000000000E+00 0.  1.
          1   -1    0    0  501    0  0.00000000000E+00 -0.00000000000E+00 -0.33119323805E+03  0.33119323805E+03  0.00000000000E+00 0. -1.
         23    2    1    2    0    0 -0.16896622069E+02  0.47102218194E+02 -0.14263217606E+03  0.19620315852E+03  0.12509047513E+03 0.  0.
          5    1    3    3  502    0 -0.49022253419E+01  0.79159295106E+02 -0.42032103332E+02  0.89857642554E+02  0.41800000000E+01 0.  1.
         -5    1    3    3    0  502 -0.11994396727E+02 -0.32057076912E+02 -0.10060007273E+03  0.10634551597E+03  0.41800000000E+01 0.  1.
        -11    1    1    2    0    0  0.12064557427E+02 -0.59736880657E+02 -0.15180433118E+03  0.16358057165E+03  0.00000000000E+00 0. -1.
         11    1    1    2    0    0  0.48320646423E+01  0.12634662463E+02  0.71205419194E+01  0.15286780612E+02  0.00000000000E+00 0.  1.
</event>
<event>
 7    1  0.6992302E-006  0.1568783E+03  0.7561462E-02  0.1192267E+00
          2   -1    0    0  501    0  0.00000000000E+00  0.00000000000E+00  0.85180057310E+03  0.85180057310E+03  0.00000000000E+00 0. -1.
         -2   -1    0    0    0  501 -0.00000000000E+00 -0.00000000000E+00 -0.36275648943E+02  0.36275648943E+02  0.00000000000E+00 0.  1.
         23    2    1    2    0    0 -0.12955401998E+03 -0.24454440429E+02  0.32702835321E+03  0.37413566253E+03  0.12509071278E+03 0.  0.
          5    1    3    3  502    0  0.99821282620E+01 -0.38704369177E+02  0.55910355960E+02  0.68855728749E+02  0.41800000000E+01 0. -1.
         -5    1    3    3    0  502 -0.13953614824E+03  0.14249928748E+02  0.27111799725E+03  0.30527993378E+03  0.41800000000E+01 0. -1.
        -11    1    1    2    0    0  0.58351647577E+02  0.20798511354E+02  0.90894619252E+02  0.10999693022E+03  0.00000000000E+00 0.  1.
         11    1    1    2    0    0  0.71202372402E+02  0.36559290751E+01  0.39760195169E+03  0.40394362928E+03  0.00000000000E+00 0. -1.
</event>
<event>
 7    1  0.6992302E-006  0.1495458E+03  0.7561462E-02  0.1201032E+00
          1   -1    0    0  501    0  0.00000000000E+00  0.00000000000E+00  0.25506413575E+03  0.25506413575E+03  0.00000000000E+00 0. -1.
         -1   -1    0    0    0  501 -0.00000000000E+00 -0.00000000000E+00 -0.10936870725E+03  0.10936870725E+03  0.00000000000E+00 0.  1.
         23    2    1    2    0    0 -0.52048627109E+02 -0.11016347295E+03  0.41739408058E+02  0.17954025788E+03  0.12508987032E+03 0.  0.
          5    1    3    3  502    0 -0.91458068813E+02 -0.55360974930E+02  0.25765175607E+02  0.11004877360E+03  0.41800000000E+01 0. -1.
         -5    1    3    3    0  502  0.39409441703E+02 -0.54802498023E+02  0.15974232450E+02  0.69491484279E+02  0.41800000000E+01 0. -1.
        -11    1    1    2    0    0  0.12792800258E+01  0.27034708607E+02  0.80182991547E+02  0.84627561470E+02  0.00000000000E+00 0. -1.
         11    1    1    2    0    0  0.50769347084E+02  0.83128764346E+02  0.23773028897E+02  0.10026502365E+03  0.00000000000E+00 0.  1.
</event>
<event>
 7    1  0.6992302E-006  0.1261128E+03  0.7561462E-02  0.1233340E+00
          2   -1    0    0  501    0  0.00000000000E+00  0.00000000000E+00  0.51680814160E+03  0.51680814160E+03  0.00000000000E+00 0. -1.
         -2   -1    0    0    0  501 -0.00000000000E+00 -0.00000000000E+00 -0.34389681573E+02  0.34389681573E+02  0.00000000000E+00 0.  1.
         23    2    1    2    0    0  0.14522883144E+02  0.76908507196E+02  0.25045086283E+03  0.29068648103E+03  0.12508862036E+03 0.  0.
          5    1    3    3  502    0 -0.29178708317E+02  0.93140924678E+02  0.19514318679E+03  0.21823144737E+03  0.41800000000E+01 0. -1.
         -5    1    3    3    0  502  0.43701591461E+02 -0.16232417482E+02  0.55307676037E+02  0.72455033657E+02  0.41800000000E+01 0. -1.
        -11    1    1    2    0    0  0.18347065782E+02  0.53763756143E+01  0.10138884481E+02  0.21640638070E+02  0.00000000000E+00 0.  1.
         11    1    1    2    0    0 -0.32869948925E+02 -0.82284882810E+02  0.22182871272E+03  0.23887070408E+03  0.00000000000E+00 0. -1.
</event>
<event>
 7    1  0.6992302E-006  0.9695696E+02  0.7561462E-02  0.1286828E+00
         -1   -1    0    0    0  501 -0.00000000000E+00  0.00000000000E+00  0.33579766817E+02  0.33579766817E+02  0.00000000000E+00 0.  1.
          1   -1    0    0  501    0  0.00000000000E+00 -0.00000000000E+00 -0.48784653084E+03  0.48784653084E+03  0.00000000000E+00 0. -1.
         23    2    1    2    0    0  0.61858574505E+02 -0.32484896282E+02 -0.28401815045E+03  0.31811052093E+03  0.12508493920E+03 0.  0.
          5    1    3    3  502    0 -0.17083445145E+02 -0.36714365393E+02 -0.19403662396E+03  0.19826112216E+03  0.41800000000E+01 0.  1.
         -5    1    3    3    0  502  0.78942019650E+02  0.42294691107E+01 -0.89981526494E+02  0.11984939877E+03  0.41800000000E+01 0.  1.
        -11    1    1    2    0    0 -0.45384714862E+02  0.35079921049E+02 -0.17643723149E+03  0.18552754474E+03  0.00000000000E+00 0. -1.
         11    1    1    2    0    0 -0.16473859642E+02 -0.25950247671E+01  0.61886179199E+01  0.17788231976E+02  0.00000000000E+00 0.  1.
</event>
<event>
 7    1  0.6992302E-006  0.1120980E+03  0.7561462E-02  0.1256733E+00
          2   -1    0    0  501    0  0.00000000000E+00  0.00000000000E+00  0.43395506826E+03  0.43395506826E+03  0.00000000000E+00 0. -1.
         -2   -1    0    0    0  501 -0.00000000000E+00 -0.00000000000E+00 -0.34131718326E+02  0.34131718326E+02  0.00000000000E+00 0.  1.
         23    2    1    2    0    0  0.47555680329E+02 -0.29731750315E+01  0.16421602232E+03  0.21186215713E+03  0.12509312186E+03 0.  0.
          5    1    3    3  502    0  0.86326468705E+02 -0.97520041842E+01  0.77315352712E+02  0.11637223444E+03  0.41800000000E+01 0. -1.
         -5    1    3    3    0  502 -0.38770788376E+02  0.67788291526E+01  0.86900669607E+02  0.95489922684E+02  0.41800000000E+01 0. -1.
        -11    1    1    2    0    0 -0.46757462096E+02 -0.35781022823E+02  0.10991470982E+03  0.12469075865E+03  0.00000000000E+00 0.  1.
         11    1    1    2    0    0 -0.79821823212E+00  0.38754197854E+02  0.12569261780E+03  0.13153387082E+03  0.00000000000E+00 0. -1.
</event>
<event>
 7    1  0.6992302E-006  0.8633659E+02  0.7561462E-02  0.1311974E+00
          1   -1    0    0  501    0  0.00000000000E+00  0.00000000000E+00  0.68164785551E+02  0.68164785551E+02  0.00000000000E+00 0. -1.
         -1   -1    0    0    0  501 -0.00000000000E+00 -0.00000000000E+00 -0.22327397837E+03  0.22327397837E+03  0.00000000000E+00 0.  1.
         23    2    1    2    0    0 -0.18985225008E+02 -0.43572243082E+02 -0.13532804080E+03  0.19031634776E+03  0.12509058504E+03 0.  0.
          5    1    3    3  502    0 -0.53846241206E+02  0.15413134129E+02 -0.27606898088E+02  0.62582710214E+02  0.41800000000E+01 0. -1.
         -5    1    3    3    0  502  0.34861016198E+02 -0.58985377211E+02 -0.10772114271E+03  0.12773363755E+03  0.41800000000E+01 0. -1.
        -11    1    1    2    0    0  0.89052112075E+01  0.27371689328E+02  0.33711861071E+02  0.44328340146E+02  0.00000000000E+00 0. -1.
         11    1    1    2    0    0  0.10080013800E+02  0.16200553755E+02 -0.53493013093E+02  0.56794076011E+02  0.00000000000E+00 0.  1.
</event>
<event>
 7    1  0.6992302E-006  0.9508334E+02  0.7561462E-02  0.1290989E+00
         -2   -1    0    0    0  501 -0.00000000000E+00  0.00000000000E+00  0.40336977233E+02  0.40336977233E+02  0.00000000000E+00 0.  1.
          2   -1    0    0  501    0  0.00000000000E+00 -0.00000000000E+00 -0.38889483494E+03  0.38889483494E+03  0.00000000000E+00 0. -1.
         23    2    1    2    0    0  0.12959176065E+02  0.39834117495E+02 -0.10956676284E+03  0.17148655341E+03  0.12509222726E+03 0.  0.
          5    1    3    3  502    0  0.21374615205E+01  0.65418964024E+02 -0.79607289077E+01  0.66068564389E+02  0.41800000000E+01 0. -1.
         -5    1    3    3    0  502  0.10821714545E+02 -0.25584846529E+02 -0.10160603393E+03  0.10541798902E+03  0.41800000000E+01 0. -1.
        -11    1    1    2    0    0  0.72800831334E+01  0.26319060961E+02 -0.70634387639E+02  0.75729183922E+02  0.00000000000E+00 0. -1.
         11    1    1    2    0    0 -0.20239259198E+02 -0.66153178456E+02 -0.16835670724E+03  0.18201607485E+03  0.00000000000E+00 0.  1.
</event>
<event>
 7    1  0.6992302E-006  0.1600654E+03  0.7561462E-02  0.1188623E+00
          1   -1    0    0  501    0  0.00000000000E+00  0.00000000000E+00  0.10161642604E+04  0.10161642604E+04  0.00000000000E+00 0. -1.
         -1   -1    0    0    0  501 -0.00000000000E+00 -0.00000000000E+00 -0.25914360719E+02  0.25914360719E+02  0.00000000000E+00 0.  1.
         23    2    1    2    0    0  0.36661883552E+02 -0.30938126138E+02  0.33432118707E+03  0.35532819082E+03  0.11039114871E+03 0.  0.
          5    1    3    3  502    0 -0.37485355979E+02  0.15228425417E+01  0.13446106946E+03  0.13965930890E+03  0.41800000000E+01 0. -1.
         -5    1    3    3    0  502  0.74147239531E+02 -0.32460968680E+02  0.19986011762E+03  0.21566888193E+03  0.41800000000E+01 0.  1.
        -11    1    1    2    0    0  0.12070593057E+01  0.11192415274E+03  0.41277959442E+03  0.42768617762E+03  0.00000000000E+00 0.  1.
         11    1    1    2    0    0 -0.37868942858E+02 -0.80986026599E+02  0.24314911815E+03  0.25906425264E+03  0.00000000000E+00 0. -1.
</event>
<event>
 7    1  0.8072369E-006  0.1880377E+03  0.7561462E-02  0.1160243E+00
         -1   -1    0    0    0  501 -0.00000000000E+00  0.00000000000E+00  0.21870622099E+02  0.21870622099E+02  0.00000000000E+00 0.  1.
          1   -1    0    0  501    0  0.00000000000E+00 -0.00000000000E+00 -0.19911297906E+04  0.19911297906E+04  0.00000000000E+00 0. -1.
         23    2    1    2    0    0  0.89138813231E+02  0.15228580531E+03 -0.99549173633E+03  0.10187194173E+04  0.12509500244E+03 0.  0.
          5    1    3    3  502    0  0.34668727769E+02  0.56596809788E+02 -0.12787489666E+03  0.14413390010E+03  0.41800000000E+01 0.  1.
         -5    1    3    3    0  502  0.54470085462E+02  0.95688995519E+02 -0.86761683968E+03  0.87458551724E+03  0.41800000000E+01 0.  1.
        -11    1    1    2    0    0 -0.36011692092E+02 -0.14040258421E+03 -0.64967456699E+03  0.66564763247E+03  0.00000000000E+00 0. -1.
         11    1    1    2    0    0 -0.53127121139E+02 -0.11883221101E+02 -0.32409286516E+03  0.32863336287E+03  0.00000000000E+00 0.  1.
</event>
<event>
 7    1  0.6992302E-006  0.8419461E+02  0.7561462E-02  0.1317552E+00
          3   -1    0    0  501    0  0.00000000000E+00  0.00000000000E+00  0.12144389304E+03  0.12144389304E+03  0.00000000000E+00 0. -1.
         -3   -1    0    0    0  501 -0.00000000000E+00 -0.00000000000E+00 -0.11017859342E+03  0.11017859342E+03  0.00000000000E+00 0.  1.
         23    2    1    2    0    0 -0.40700410084E+02 -0.46803534279E+01  0.25576927529E+02  0.13407610280E+03  0.12507514954E+03 0.  0.
          5    1    3    3  502    0 -0.57380079163E+02  0.16282198620E+02 -0.33883996802E+02  0.68725403716E+02  0.41800000000E+01 0.  1.
         -5    1    3    3    0  502  0.16679669079E+02 -0.20962552048E+02  0.59460924331E+02  0.65350699088E+02  0.41800000000E+01 0.  1.
        -11    1    1    2    0    0 -0.20046007668E+02 -0.29455916892E+01 -0.28242183198E+02  0.34758306138E+02  0.00000000000E+00 0.  1.
         11    1    1    2    0    0  0.60746417751E+02  0.76259451172E+01  0.13930555291E+02  0.62788077525E+02  0.00000000000E+00 0. -1.
</event>
<event>
 7    1  0.6992302E-006  0.1768494E+03  0.7561462E-02  0.1170888E+00
          1   -1    0    0  501    0  0.00000000000E+00  0.00000000000E+00  0.40858268339E+02  0.40858268339E+02  0.00000000000E+00 0. -1.
         -1   -1    0    0    0  501 -0.00000000000E+00 -0.00000000000E+00 -0.82934643018E+03  0.82934643018E+03  0.00000000000E+00 0.  1.
         23    2    1    2    0    0  0.11560760516E+03  0.93737905200E+02 -0.41722705782E+03  0.46005881329E+03  0.12419251454E+03 0.  0.
          5    1    3    3  502    0  0.13435863168E+03  0.97103983889E+02 -0.31495073076E+03  0.35593940608E+03  0.41800000000E+01 0. -1.
         -5    1    3    3    0  502 -0.18751026522E+02 -0.33660786890E+01 -0.10227632706E+03  0.10411940721E+03  0.41800000000E+01 0.  1.
        -11    1    1    2    0    0 -0.67679896691E+02 -0.54376001882E+01 -0.20429568080E+03  0.21528321138E+03  0.00000000000E+00 0.  1.
         11    1    1    2    0    0 -0.47927708469E+02 -0.88300305012E+02 -0.16696542322E+03  0.19486267384E+03  0.00000000000E+00 0. -1.
</event>
<event>
 7    1  0.6992302E-006  0.1357731E+03  0.7561462E-02  0.1219132E+00
          2   -1    0    0  501    0  0.00000000000E+00  0.00000000000E+00  0.15704540917E+03  0.15704540917E+03  0.00000000000E+00 0. -1.
         -2   -1    0    0    0  501 -0.00000000000E+00 -0.00000000000E+00 -0.23534206420E+03  0.23534206420E+03  0.00000000000E+00 0.  1.
         23    2    1    2    0    0 -0.65832658349E+02  0.78994340987E+02 -0.16407785419E+03  0.23052776611E+03  0.12508982332E+03 0.  0.
          5    1    3    3  502    0 -0.95422292289E+02  0.87046165574E+02 -0.11784716737E+03  0.17489389945E+03  0.41800000000E+01 0. -1.
         -5    1    3    3    0  502  0.29589633939E+02 -0.80518245875E+01 -0.46230686819E+02  0.55633866661E+02  0.41800000000E+01 0. -1.
        -11    1    1    2    0    0  0.66500774121E+02 -0.52134307730E+02  0.10043614682E+03  0.13125455645E+03  0.00000000000E+00 0.  1.
         11    1    1    2    0    0 -0.66811577210E+00 -0.26860033256E+02 -0.14654947655E+02  0.30605150808E+02  0.00000000000E+00 0. -1.
</event>
<event>
 7    1  0.8832456E-006  0.1376151E+03  0.7561462E-02  0.1216574E+00
          1   -1    0    0  501    0  0.00000000000E+00  0.00000000000E+00  0.30099821928E+03  0.30099821928E+03  0.00000000000E+00 0. -1.
         -1   -1    0    0    0  501 -0.00000000000E+00 -0.00000000000E+00 -0.94380581065E+02  0.94380581065E+02  0.00000000000E+00 0.  1.
         23    2    1    2    0    0 -0.57140380107E+01  0.12403420065E+03  0.59038371062E+02  0.18587698758E+03  0.12509033572E+03 0.  0.
          5    1    3    3  502    0 -0.16023945102E+02  0.51856284418E+02 -0.36561065155E+02  0.65574575374E+02  0.41800000000E+01 0. -1.
         -5    1    3    3    0  502  0.10309907091E+02  0.72177916235E+02  0.95599436217E+02  0.12030241220E+03  0.41800000000E+01 0. -1.
        -11    1    1    2    0    0 -0.35697638842E+02 -0.78376703946E+02  0.74292753630E+02  0.11373936162E+03  0.00000000000E+00 0.  1.
         11    1    1    2    0    0  0.41411676853E+02 -0.45657496707E+02  0.73286513519E+02  0.95762451144E+02  0.00000000000E+00 0. -1.
</event>
<event>
 7    1  0.6992302E-006  0.1174386E+03  0.7561462E-02  0.1247383E+00
         -2   -1    0    0    0  501 -0.00000000000E+00  0.00000000000E+00  0.49524401884E+02  0.49524401884E+02  0.00000000000E+00 0.  1.
          2   -1    0    0  501    0  0.00000000000E+00 -0.00000000000E+00 -0.32395759641E+03  0.32395759641E+03  0.00000000000E+00 0. -1.
         23    2    1    2    0    0 -0.21167189017E+02  0.32764835134E+02 -0.12433929197E+03  0.18063343666E+03  0.12508634858E+03 0.  0.
          5    1    3    3  502    0 -0.20841668535E+02 -0.38835638273E+02 -0.91709981471E+02  0.10183700236E+03  0.41800000000E+01 0. -1.
         -5    1    3    3    0  502 -0.32552048167E+00  0.71600473408E+02 -0.32629310504E+02  0.78796434309E+02  0.41800000000E+01 0. -1.
        -11    1    1    2    0    0 -0.39899725266E+02 -0.41060929586E+02 -0.54072471782E+02  0.78751636297E+02  0.00000000000E+00 0.  1.
         11    1    1    2    0    0  0.61066914283E+02  0.82960944514E+01 -0.96021430767E+02  0.11409692533E+03  0.00000000000E+00 0. -1.
</event>
<event>
 7    1  0.6992302E-006  0.1723413E+03  0.7561462E-02  0.1175428E+00
         -2   -1    0    0    0  501 -0.00000000000E+00  0.00000000000E+00  0.51946865092E+02  0.51946865092E+02  0.00000000000E+00 0.  1.
          2   -1    0    0  501    0  0.00000000000E+00 -0.00000000000E+00 -0.73566898670E+03  0.73566898670E+03  0.00000000000E+00 0. -1.
         23    2    1    2    0    0  0.34040916127E+02  0.14732873870E+03 -0.23753881012E+03  0.30811794118E+03  0.12508972039E+03 0.  0.
          5    1    3    3  502    0 -0.40189658765E+00  0.15075871798E+03 -0.22539538481E+03  0.27119901265E+03  0.41800000000E+01 0.  1.
         -5    1    3    3    0  502  0.34442812715E+02 -0.34299792825E+01 -0.12143425307E+02  0.36918928529E+02  0.41800000000E+01 0.  1.
        -11    1    1    2    0    0  0.12792210770E+02 -0.36768119321E+02 -0.39499795115E+02  0.55459616559E+02  0.00000000000E+00 0. -1.
         11    1    1    2    0    0 -0.46833126897E+02 -0.11056061938E+03 -0.40668351637E+03  0.42403829405E+03  0.00000000000E+00 0.  1.
</event>
<event>
 7    1  0.6992302E-006  0.1112744E+03  0.7561462E-02  0.1258228E+00
         -1   -1    0    0    0  501 -0.00000000000E+00  0.00000000000E+00  0.25376068623E+02  0.25376068623E+02  0.00000000000E+00 0.  1.
          1   -1    0    0  501    0  0.00000000000E+00 -0.00000000000E+00 -0.67514937952E+03  0.67514937952E+03  0.00000000000E+00 0. -1.
         23    2    1    2    0    0 -0.44007891896E+02  0.53305459309E+02 -0.34786771396E+03  0.37608297006E+03  0.12509311498E+03 0.  0.
          5    1    3    3  502    0 -0.32592194777E+02 -0.14722351079E+02 -0.20360772527E+02  0.41364625462E+02  0.41800000000E+01 0.  1.
         -5    1    3    3    0  502 -0.11415697119E+02  0.68027810388E+02 -0.32750694143E+03  0.33471834460E+03  0.41800000000E+01 0.  1.
        -11    1    1    2    0    0 -0.30273110273E+02 -0.17632969443E+02 -0.11402391208E+03  0.11928468193E+03  0.00000000000E+00 0.  1.
         11    1    1    2    0    0  0.74281002169E+02 -0.35672489866E+02 -0.18788168486E+03  0.20515779615E+03  0.00000000000E+00 0. -1.
</event>
<event>
 7    1  0.6992302E-006  0.1640796E+03  0.7561462E-02  0.1184166E+00
         -1   -1    0    0    0  501 -0.00000000000E+00  0.00000000000E+00  0.99503812590E+02  0.99503812590E+02  0.00000000000E+00 0.  1.
          1   -1    0    0  501    0  0.00000000000E+00 -0.00000000000E+00 -0.28059590571E+03  0.28059590571E+03  0.00000000000E+00 0. -1.
         23    2    1    2    0    0 -0.12326624425E+03  0.27055927192E+02 -0.10594499225E+03  0.20687745588E+03  0.12508936885E+03 0.  0.
          5    1    3    3  502    0 -0.18717210854E+02 -0.45729714441E+02 -0.37747377153E+02  0.62320764171E+02  0.41800000000E+01 0.  1.
         -5    1    3    3    0  502 -0.10454903340E+03  0.72785641633E+02 -0.68197615093E+02  0.14455669171E+03  0.41800000000E+01 0.  1.
        -11    1    1    2    0    0  0.94335545718E+02 -0.56395809882E+02 -0.34135602029E+02  0.11508658429E+03  0.00000000000E+00 0.  1.
         11    1    1    2    0    0  0.28930698535E+02  0.29339882690E+02 -0.41011498844E+02  0.58135678128E+02  0.00000000000E+00 0. -1.
</event>
<event>
 7    1  0.6992302E-006  0.8593028E+02  0.7561462E-02  0.1313018E+00
         -4   -1    0    0    0  501 -0.00000000000E+00  0.00000000000E+00  0.13451225371E+03  0.13451225371E+03  0.00000000000E+00 0.  1.
          4   -1    0    0  501    0  0.00000000000E+00 -0.00000000000E+00 -0.11977853149E+03  0.11977853149E+03  0.00000000000E+00 0. -1.
         23    2    1    2    0    0  0.61953154389E+02  0.19092230367E+02  0.16489821010E+02  0.14185430985E+03  0.12509206380E+03 0.  0.
          5    1    3    3  502    0  0.52950890449E+02  0.24523913856E+02 -0.48434638045E+02  0.75951337794E+02  0.41800000000E+01 0.  1.
         -5    1    3    3    0  502  0.90022639403E+01 -0.54316834891E+01  0.64924459055E+02  0.65902972051E+02  0.41800000000E+01 0.  1.
        -11    1    1    2    0    0 -0.47444285549E+02 -0.49367675750E+02  0.21303411685E+02  0.71707482103E+02  0.00000000000E+00 0.  1.
         11    1    1    2    0    0 -0.14508868840E+02  0.30275445383E+02 -0.23059510469E+02  0.40728993251E+02  0.00000000000E+00 0. -1.
</event>
<event>
 7    1  0.6992302E-006  0.6866250E+02  0.7561462E-02  0.1364701E+00
         -1   -1    0    0    0  501 -0.00000000000E+00  0.00000000000E+00  0.10124582844E+03  0.10124582844E+03  0.00000000000E+00 0.  1.
          1   -1    0    0  501    0  0.00000000000E+00 -0.00000000000E+00 -0.13402189872E+03  0.13402189872E+03  0.00000000000E+00 0. -1.
         23    2    1    2    0    0 -0.33374620988E+02 -0.15524326196E+02 -0.27578913086E+01  0.13042125012E+03  0.12508887436E+03 0.  0.
          5    1    3    3  502    0 -0.12851464707E+02 -0.19683551400E+02  0.59762143679E+02  0.64355175067E+02  0.41800000000E+01 0. -1.
         -5    1    3    3    0  502 -0.20523156281E+02  0.41592252032E+01 -0.62520034988E+02  0.66066075053E+02  0.41800000000E+01 0. -1.
        -11    1    1    2    0    0  0.59858079910E+02 -0.27460796378E+01  0.13157675672E+01  0.59935481379E+02  0.00000000000E+00 0.  1.
         11    1    1    2    0    0 -0.26483458922E+02  0.18270405834E+02 -0.31333946536E+02  0.44910995662E+02  0.00000000000E+00 0. -1.
</event>
<event>
 7    1  0.6992302E-006  0.1059857E+03  0.7561462E-02  0.1268190E+00
         -1   -1    0    0    0  501 -0.00000000000E+00  0.00000000000E+00  0.13526409949E+03  0.13526409949E+03  0.00000000000E+00 0.  1.
          1   -1    0    0  501    0  0.00000000000E+00 -0.00000000000E+00 -0.11514670868E+03  0.11514670868E+03  0.00000000000E+00 0. -1.
         23    2    1    2    0    0  0.13843534667E+02  0.28506478278E+02  0.63296216564E+02  0.14372410209E+03  0.12508374689E+03 0.  0.
          5    1    3    3  502    0  0.54443089125E+02 -0.21964666381E+02  0.99160625915E+01  0.59684983204E+02  0.41800000000E+01 0. -1.
         -5    1    3    3    0  502 -0.40599554458E+02  0.50471144659E+02  0.53380153972E+02  0.84039118888E+02  0.41800000000E+01 0. -1.
        -11    1    1    2    0    0 -0.12211491334E+02  0.28589344044E+02  0.55820786526E+01  0.31585292709E+02  0.00000000000E+00 0.  1.
         11    1    1    2    0    0 -0.16320433335E+01 -0.57095822322E+02 -0.48760904404E+02  0.75101413371E+02  0.00000000000E+00 0. -1.
</event>
<event>
 7    1  0.6992302E-006  0.1704696E+03  0.7561462E-02  0.1177359E+00
         -1   -1    0    0    0  501 -0.00000000000E+00  0.00000000000E+00  0.13360437978E+03  0.13360437978E+03  0.00000000000E+00 0.  1.
          1   -1    0    0  501    0  0.00000000000E+00 -0.00000000000E+00 -0.22003702513E+03  0.22003702513E+03  0.00000000000E+00 0. -1.
         23    2    1    2    0    0 -0.12871285314E+03 -0.32826444268E+02 -0.36440915285E+02  0.18606595502E+03  0.12509206731E+03 0.  0.
          5    1    3    3  502    0 -0.56709806676E+02  0.47576259922E+02 -0.20165459310E+02  0.76835023463E+02  0.41800000000E+01 0.  1.
         -5    1    3    3    0  502 -0.72003046460E+02 -0.80402704191E+02 -0.16275455975E+02  0.10923093155E+03  0.41800000000E+01 0.  1.
        -11    1    1    2    0    0  0.12660222612E+03  0.53906169781E+02 -0.36153335868E+02  0.14227108805E+03  0.00000000000E+00 0. -1.
         11    1    1    2    0    0  0.21106270122E+01 -0.21079725513E+02 -0.13838394202E+02  0.25304361841E+02  0.00000000000E+00 0.  1.
</event>
<event>
 7    1  0.6992302E-006  0.1437319E+03  0.7561462E-02  0.1208394E+00
         -1   -1    0    0    0  501 -0.00000000000E+00  0.00000000000E+00  0.39107173154E+02  0.39107173154E+02  0.00000000000E+00 0.  1.
          1   -1    0    0  501    0  0.00000000000E+00 -0.00000000000E+00 -0.71717801565E+03  0.71717801565E+03  0.00000000000E+00 0. -1.
         23    2    1    2    0    0  0.87615798249E+02  0.86695399155E+02 -0.29200207782E+03  0.34074366871E+03  0.12509362085E+03 0.  0.
          5    1    3    3  502    0 -0.20007276572E+02  0.41933290259E+02 -0.34382552432E+02  0.57951050547E+02  0.41800000000E+01 0. -1.
         -5    1    3    3    0  502  0.10762307482E+03  0.44762108897E+02 -0.25761952539E+03  0.28279261817E+03  0.41800000000E+01 0. -1.
        -11    1    1    2    0    0 -0.59446595856E+02 -0.68242886353E+02 -0.36446169589E+03  0.37553071388E+03  0.00000000000E+00 0. -1.
         11    1    1    2    0    0 -0.28169202393E+02 -0.18452512802E+02 -0.21607068782E+02  0.40010806209E+02  0.00000000000E+00 0.  1.
</event>
<event>
 7    1  0.6992302E-006  0.9224948E+02  0.7561462E-02  0.1297494E+00
         -1   -1    0    0    0  501 -0.00000000000E+00  0.00000000000E+00  0.30805200873E+02  0.30805200873E+02  0.00000000000E+00 0.  1.
          1   -1    0    0  501    0  0.00000000000E+00 -0.00000000000E+00 -0.51719654361E+03  0.51719654361E+03  0.00000000000E+00 0. -1.
         23    2    1    2    0    0 -0.28299751966E+02  0.47836286216E+02 -0.19657754046E+03  0.23954789327E+03  0.12510506591E+03 0.  0.
          5    1    3    3  502    0  0.41656002900E+01  0.74761443113E+02 -0.58502027895E+02  0.95113538836E+02  0.41800000000E+01 0.  1.
         -5    1    3    3    0  502 -0.32465352256E+02 -0.26925156898E+02 -0.13807551257E+03  0.14443435444E+03  0.41800000000E+01 0.  1.
        -11    1    1    2    0    0  0.12477538663E+02  0.38570104667E+01  0.57798957951E+00  0.13072856336E+02  0.00000000000E+00 0.  1.
         11    1    1    2    0    0  0.15822213303E+02 -0.51693296682E+02 -0.29039179186E+03  0.29538099488E+03  0.00000000000E+00 0. -1.
</event>
<event>
 7    1  0.6992302E-006  0.1884336E+03  0.7561462E-02  0.1159882E+00
          2   -1    0    0  501    0  0.00000000000E+00  0.00000000000E+00  0.10642535403E+04  0.10642535403E+04  0.00000000000E+00 0. -1.
         -2   -1    0    0    0  501 -0.00000000000E+00 -0.00000000000E+00 -0.45093893610E+02  0.45093893610E+02  0.00000000000E+00 0.  1.
         23    2    1    2    0    0  0.31946322805E+02  0.17953895238E+03  0.38589602622E+03  0.44476620230E+03  0.12508568542E+03 0.  0.
          5    1    3    3  502    0  0.10453978947E+02  0.11958877229E+01  0.13872452479E+03  0.13918578232E+03  0.41800000000E+01 0. -1.
         -5    1    3    3    0  502  0.21492343858E+02  0.17834306466E+03  0.24717150143E+03  0.30558041998E+03  0.41800000000E+01 0. -1.
        -11    1    1    2    0    0  0.74767914734E+01 -0.16329113016E+02  0.13475749896E+02  0.22453021576E+02  0.00000000000E+00 0.  1.
         11    1    1    2    0    0 -0.39423114278E+02 -0.16320983936E+03  0.61978787055E+03  0.64212821001E+03  0.00000000000E+00 0. -1.
</event>
<event>
 7    1  0.6992302E-006  0.7389929E+02  0.7561462E-02  0.1347314E+00
         -1   -1    0    0    0  501 -0.00000000000E+00  0.00000000000E+00  0.57511104638E+03  0.57511104638E+03  0.00000000000E+00 0.  1.
          1   -1    0    0  501    0  0.00000000000E+00 -0.00000000000E+00 -0.26828705135E+02  0.26828705135E+02  0.00000000000E+00 0. -1.
         23    2    1    2    0    0 -0.19606598848E+02  0.12391242278E+02  0.44477113062E+03  0.46260849234E+03  0.12508915600E+03 0.  0.
          5    1    3    3  502    0  0.33103407093E+02  0.29251906209E+02  0.34985465734E+03  0.35265743043E+03  0.41800000000E+01 0. -1.
         -5    1    3    3    0  502 -0.52710005941E+02 -0.16860663930E+02  0.94916473282E+02  0.10995106191E+03  0.41800000000E+01 0. -1.
        -11    1    1    2    0    0 -0.11296334280E+02 -0.12733350828E+02 -0.11301365602E+02  0.20431990993E+02  0.00000000000E+00 0. -1.
         11    1    1    2    0    0  0.30902933128E+02  0.34210854948E+00  0.11481257623E+03  0.11889926818E+03  0.00000000000E+00 0.  1.
</event>
<event>
 7    1  0.6992302E-006  0.1159566E+03  0.7561462E-02  0.1249920E+00
         -1   -1    0    0    0  501 -0.00000000000E+00  0.00000000000E+00  0.63424083092E+02  0.63424083092E+02  0.00000000000E+00 0.  1.
          1   -1    0    0  501    0  0.00000000000E+00 -0.00000000000E+00 -0.32104865919E+03  0.32104865919E+03  0.00000000000E+00 0. -1.
         23    2    1    2    0    0 -0.20827870414E+02  0.88042545832E+02 -0.11182907299E+03  0.19061778652E+03  0.12507641228E+03 0.  0.
          5    1    3    3  502    0  0.18651768437E+02  0.20389815180E+02 -0.10856942289E+03  0.11210898722E+03  0.41800000000E+01 0. -1.
         -5    1    3    3    0  502 -0.39479638850E+02  0.67652730652E+02 -0.32596500969E+01  0.78508799298E+02  0.41800000000E+01 0. -1.
        -11    1    1    2    0    0  0.19788872742E+02  0.13513315400E+02 -0.15044993643E+02  0.28294186880E+02  0.00000000000E+00 0.  1.
         11    1    1    2    0    0  0.10389976715E+01 -0.10155586123E+03 -0.13075050946E+03  0.16556076888E+03  0.00000000000E+00 0. -1.
</event>
<event>
 7    1  0.6992302E-006  0.1004484E+03  0.7561462E-02  0.1279356E+00
          1   -1    0    0  501    0  0.00000000000E+00  0.00000000000E+00  0.67948292214E+03  0.67948292214E+03  0.00000000000E+00 0. -1.
         -1   -1    0    0    0  501 -0.00000000000E+00 -0.00000000000E+00 -0.27659720505E+02  0.27659720505E+02  0.00000000000E+00 0.  1.
         23    2    1    2    0    0  0.75795853569E+02  0.27509974042E+02  0.31942921206E+03  0.35239743674E+03  0.12508845596E+03 0.  0.
          5    1    3    3  502    0 -0.12071371029E+02  0.90884119192E+01 -0.44359037928E+01  0.16293154151E+02  0.41800000000E+01 0. -1.
         -5    1    3    3    0  502  0.87867224598E+02  0.18421562123E+02  0.32386511585E+03  0.33610428259E+03  0.41800000000E+01 0. -1.
        -11    1    1    2    0    0 -0.61536309921E+01  0.13279543346E+02  0.21633344489E+01  0.14795048557E+02  0.00000000000E+00 0.  1.
         11    1    1    2    0    0 -0.69642222577E+02 -0.40789517388E+02  0.33023065512E+03  0.33995015734E+03  0.00000000000E+00 0. -1.
</event>
<event>
 7    1  0.6992302E-006  0.1245108E+03  0.7561462E-02  0.1235836E+00
         -2   -1    0    0    0  501 -0.00000000000E+00  0.00000000000E+00  0.59896676104E+02  0.59896676104E+02  0.00000000000E+00 0.  1.
          2   -1    0    0  501    0  0.00000000000E+00 -0.00000000000E+00 -0.40728624622E+03  0.40728624622E+03  0.00000000000E+00 0. -1.
         23    2    1    2    0    0  0.12085188682E+02  0.62135112379E+02 -0.49089940800E+02  0.14853983133E+03  0.12508970872E+03 0.  0.
          5    1    3    3  502    0 -0.16904074879E+02 -0.34481055926E+02 -0.19863761910E+02  0.43436533039E+02  0.41800000000E+01 0. -1.
         -5    1    3    3    0  502  0.28989263561E+02  0.96616168305E+02 -0.29226178890E+02  0.10510329829E+03  0.41800000000E+01 0. -1.
        -11    1    1    2    0    0 -0.38914326620E+02 -0.71179419269E+02 -0.24789709792E+03  0.26083290762E+03  0.00000000000E+00 0. -1.
         11    1    1    2    0    0  0.26829137938E+02  0.90443068898E+01 -0.50402531400E+02  0.57810183369E+02  0.00000000000E+00 0.  1.
</event>
<event>
 7    1  0.6992302E-006  0.1540648E+03  0.7561462E-02  0.1195565E+00
          1   -1    0    0  501    0  0.00000000000E+00  0.00000000000E+00  0.45502950790E+03  0.45502950790E+03  0.00000000000E+00 0. -1.
         -1   -1    0    0    0  501 -0.00000000000E+00 -0.00000000000E+00 -0.54812731683E+02  0.54812731683E+02  0.00000000000E+00 0.  1.
         23    2    1    2    0    0 -0.94965187282E+02  0.29139191435E+02  0.17380451440E+03  0.23605603609E+03  0.12508782386E+03 0.  0.
          5    1    3    3  502    0  0.20644631493E+02 -0.19865677298E+02  0.59641654659E+02  0.66298154684E+02  0.41800000000E+01 0.  1.
         -5    1    3    3    0  502 -0.11560981877E+03  0.49004868734E+02  0.11416285974E+03  0.16975788141E+03  0.41800000000E+01 0.  1.
        -11    1    1    2    0    0  0.54968572674E+02  0.43845684284E+02  0.11352591098E+03  0.13353696296E+03  0.00000000000E+00 0.  1.
         11    1    1    2    0    0  0.39996614607E+02 -0.72984875719E+02  0.11288635084E+03  0.14024924053E+03  0.00000000000E+00 0. -1.
</event>
<event>
 7    1  0.6992302E-006  0.1642700E+03  0.7561462E-02  0.1183959E+00
          1   -1    0    0  501    0  0.00000000000E+00  0.00000000000E+00  0.69675737337E+03  0.69675737337E+03  0.00000000000E+00 0. -1.
         -1   -1    0    0    0  501 -0.00000000000E+00 -0.00000000000E+00 -0.49719268895E+02  0.49719268895E+02  0.00000000000E+00 0.  1.
         23    2    1    2    0    0 -0.11217601877E+03  0.10084308212E+03  0.36027286262E+03  0.41011842993E+03  0.12509118524E+03 0.  0.
          5    1    3    3  502    0 -0.82027846667E+01  0.16280225253E+01 -0.95294562679E+01  0.13349871550E+02  0.41800000000E+01 0. -1.
         -5    1    3    3    0  502 -0.10397323410E+03  0.99215059598E+02  0.36980231889E+03  0.39676855838E+03  0.41800000000E+01 0. -1.
        -11    1    1    2    0    0  0.54303034323E+02 -0.10414033866E+03  0.20214449306E+03  0.23378713768E+03  0.00000000000E+00 0. -1.
         11    1    1    2    0    0  0.57872984445E+02  0.32972565333E+01  0.84620748788E+02  0.10257107465E+03  0.00000000000E+00 0.  1.
</event>
<event>
 7    1  0.6992302E-006  0.8922202E+02  0.7561462E-02  0.1304747E+00
          2   -1    0    0  501    0  0.00000000000E+00  0.00000000000E+00  0.16051381200E+02  0.16051381200E+02  0.00000000000E+00 0. -1.
         -2   -1    0    0    0  501 -0.00000000000E+00 -0.00000000000E+00 -0.10368774710E+04  0.10368774710E+04  0.00000000000E+00 0.  1.
         23    2    1    2    0    0  0.36813281430E+02  0.10351080675E+02 -0.81224354546E+03  0.82270886377E+03  0.12509170570E+03 0.  0.
          5    1    3    3  502    0  0.22517723627E+02  0.61575840533E+02 -0.61074398207E+03  0.61426730017E+03  0.41800000000E+01 0. -1.
         -5    1    3    3    0  502  0.14295557804E+02 -0.51224759858E+02 -0.20149956338E+03  0.20844156361E+03  0.41800000000E+01 0. -1.
        -11    1    1    2    0    0 -0.46290772359E+02 -0.13201625505E+01 -0.21174688619E+03  0.21675175258E+03  0.00000000000E+00 0.  1.
         11    1    1    2    0    0  0.94774909287E+01 -0.90309181250E+01  0.31643418783E+01  0.13468235816E+02  0.00000000000E+00 0. -1.
</event>
<event>
 7    1  0.6992302E-006  0.9624088E+02  0.7561462E-02  0.1288406E+00
          2   -1    0    0  501    0  0.00000000000E+00  0.00000000000E+00  0.55078898626E+03  0.55078898626E+03  0.00000000000E+00 0. -1.
         -2   -1    0    0    0  501 -0.00000000000E+00 -0.00000000000E+00 -0.33737251370E+02  0.33737251370E+02  0.00000000000E+00 0.  1.
         23    2    1    2    0    0  0.75050999267E+02  0.13373392734E+02  0.22316421943E+03  0.26694397699E+03  0.12508124517E+03 0.  0.
          5    1    3    3  502    0  0.24569324740E+02 -0.30270060287E+02  0.59335928077E+01  0.39656124263E+02  0.41800000000E+01 0. -1.
         -5    1    3    3    0  502  0.50481674527E+02  0.43643453021E+02  0.21723062662E+03  0.22728785272E+03  0.41800000000E+01 0. -1.
        -11    1    1    2    0    0 -0.95438812461E+01 -0.18381065827E+02  0.49833319853E+01  0.21302179415E+02  0.00000000000E+00 0.  1.
         11    1    1    2    0    0 -0.65507118021E+02  0.50076730929E+01  0.28890418348E+03  0.29628008123E+03  0.00000000000E+00 0. -1.
</event>
<event>
 7    1  0.6992302E-006  0.1699363E+03  0.7561462E-02  0.1177914E+00
         -1   -1    0    0    0  501 -0.00000000000E+00  0.00000000000E+00  0.63628530202E+02  0.63628530202E+02  0.00000000000E+00 0.  1.
          1   -1    0    0  501    0  0.00000000000E+00 -0.00000000000E+00 -0.81449936778E+03  0.81449936778E+03  0.00000000000E+00 0. -1.
         23    2    1    2    0    0  0.11712728759E+03  0.91109657572E+02 -0.13039096726E+03  0.23381713702E+03  0.12509547562E+03 0.  0.
          5    1    3    3  502    0  0.86583815500E+02  0.11859717180E+03 -0.75627207775E+02  0.16522406974E+03  0.41800000000E+01 0. -1.
         -5    1    3    3    0  502  0.30543472092E+02 -0.27487514228E+02 -0.54763759489E+02  0.68593067283E+02  0.41800000000E+01 0. -1.
        -11    1    1    2    0    0 -0.17518170446E+02 -0.30202135864E+02 -0.44221405728E+02  0.56343482597E+02  0.00000000000E+00 0.  1.
         11    1    1    2    0    0 -0.99609117146E+02 -0.60907521708E+02 -0.57625846459E+03  0.58796727837E+03  0.00000000000E+00 0. -1.
</event>
<event>
 7    1  0.6992302E-006  0.1688616E+03  0.7561462E-02  0.1179040E+00
         -2   -1    0    0    0  501 -0.00000000000E+00  0.00000000000E+00  0.32591792266E+03  0.32591792266E+03  0.00000000000E+00 0.  1.
          2   -1    0    0  501    0  0.00000000000E+00 -0.00000000000E+00 -0.98256623427E+02  0.98256623427E+02  0.00000000000E+00 0. -1.
         23    2    1    2    0    0  0.13616409402E+03 -0.11025336387E+02  0.16452155294E+03  0.24774483966E+03  0.12509174894E+03 0.  0.
          5    1    3    3  502    0 -0.39159507062E+01  0.33707108141E+02  0.13054911194E+02  0.36597908621E+02  0.41800000000E+01 0. -1.
         -5    1    3    3    0  502  0.14008004472E+03 -0.44732444529E+02  0.15146664175E+03  0.21114693104E+03  0.41800000000E+01 0. -1.
        -11    1    1    2    0    0 -0.77671698508E+02  0.44009131005E+02  0.63024296178E+02  0.10927835225E+03  0.00000000000E+00 0.  1.
         11    1    1    2    0    0 -0.58492395509E+02 -0.32983794617E+02  0.11545011173E+00  0.67151354182E+02  0.00000000000E+00 0. -1.
</event>
<event>
 7    1  0.6992302E-006  0.1417322E+03  0.7561462E-02  0.1211017E+00
          2   -1    0    0  501    0  0.00000000000E+00  0.00000000000E+00  0.50049863473E+03  0.50049863473E+03  0.00000000000E+00 0. -1.
         -2   -1    0    0    0  501 -0.00000000000E+00 -0.00000000000E+00 -0.40718582128E+02  0.40718582128E+02  0.00000000000E+00 0.  1.
         23    2    1    2    0    0  0.81716908349E+02 -0.64352650965E+02  0.24905059989E+03  0.29746973970E+03  0.12507249072E+03 0.  0.
          5    1    3    3  502    0  0.10734963701E+03 -0.17769912839E+02  0.15657687013E+03  0.19071838670E+03  0.41800000000E+01 0. -1.
         -5    1    3    3    0  502 -0.25632728660E+02 -0.46582738127E+02  0.92473729763E+02  0.10675135300E+03  0.41800000000E+01 0. -1.
        -11    1    1    2    0    0 -0.48148723177E+02 -0.57083350172E+00  0.67077465116E+02  0.82571252388E+02  0.00000000000E+00 0. -1.
         11    1    1    2    0    0 -0.33568185171E+02  0.64923484467E+02  0.14365198760E+03  0.16117622477E+03  0.00000000000E+00 0.  1.
</event>
<event>
 7    1  0.6992302E-006  0.1731152E+03  0.7561462E-02  0.1174638E+00
         -1   -1    0    0    0  501 -0.00000000000E+00  0.00000000000E+00  0.56255273470E+03  0.56255273470E+03  0.00000000000E+00 0.  1.
          1   -1    0    0  501    0  0.00000000000E+00 -0.00000000000E+00 -0.86528927429E+02  0.86528927429E+02  0.00000000000E+00 0. -1.
         23    2    1    2    0    0 -0.11871622214E+03  0.10168439196E+03  0.40107487287E+03  0.44826546899E+03  0.12509044757E+03 0.  0.
          5    1    3    3  502    0  0.17856712120E+02 -0.90291503079E+00  0.10358526036E+03  0.10520007598E+03  0.41800000000E+01 0.  1.
         -5    1    3    3    0  502 -0.13657293426E+03  0.10258730699E+03  0.29748961251E+03  0.34306539301E+03  0.41800000000E+01 0.  1.
        -11    1    1    2    0    0  0.85344373185E+01 -0.13080789681E+02  0.56032008236E+02  0.58168115201E+02  0.00000000000E+00 0.  1.
         11    1    1    2    0    0  0.11018178482E+03 -0.88603602282E+02  0.18916926161E+02  0.14264807793E+03  0.00000000000E+00 0. -1.
</event>
<event>
 7    1  0.6992302E-006  0.1336157E+03  0.7561462E-02  0.1222187E+00
         -1   -1    0    0    0  501 -0.00000000000E+00  0.00000000000E+00  0.40484463973E+02  0.40484463973E+02  0.00000000000E+00 0. -1.
          1   -1    0    0  501    0  0.00000000000E+00 -0.00000000000E+00 -0.62589996552E+03  0.62589996552E+03  0.00000000000E+00 0.  1.
         23    2    1    2    0    0 -0.20837403950E+02 -0.11529132765E+03 -0.31127896022E+03  0.35534115793E+03  0.12508580980E+03 0.  0.
          5    1    3    3  502    0 -0.93538259550E+01 -0.88563721584E+01 -0.20148009724E+03  0.20193472057E+03  0.41800000000E+01 0.  1.
         -5    1    3    3    0  502 -0.11483577995E+02 -0.10643495549E+03 -0.10979886298E+03  0.15340643737E+03  0.41800000000E+01 0.  1.
        -11    1    1    2    0    0  0.49800956129E+02  0.10429268340E+03 -0.22518311679E+03  0.25310972942E+03  0.00000000000E+00 0.  1.
         11    1    1    2    0    0 -0.28963552178E+02  0.10998644250E+02 -0.48953424543E+02  0.57933542138E+02  0.00000000000E+00 0. -1.
</event>
<event>
 7    1  0.6992302E-006  0.1216289E+03  0.7561462E-02  0.1240434E+00
         -2   -1    0    0    0  501 -0.00000000000E+00  0.00000000000E+00  0.53625152255E+02  0.53625152255E+02  0.00000000000E+00 0.  1.
          2   -1    0    0  501    0  0.00000000000E+00 -0.00000000000E+00 -0.34006227013E+03  0.34006227013E+03  0.00000000000E+00 0. -1.
         23    2    1    2    0    0  0.77187107798E+02 -0.13944291549E+02 -0.18528360739E+03  0.23691674568E+03  0.12508891374E+03 0.  0.
          5    1    3    3  502    0  0.91948240840E+02  0.32453992482E+02 -0.10885964290E+03  0.14620408638E+03  0.41800000000E+01 0.  1.
         -5    1    3    3    0  502 -0.14761133042E+02 -0.46398284031E+02 -0.76423964484E+02  0.90712659299E+02  0.41800000000E+01 0.  1.
        -11    1    1    2    0    0 -0.42599993283E+02 -0.21112771330E+02 -0.38326080435E+01  0.47699029606E+02  0.00000000000E+00 0.  1.
         11    1    1    2    0    0 -0.34587114515E+02  0.35057062879E+02 -0.97320902444E+02  0.10907164710E+03  0.00000000000E+00 0. -1.
</event>
<event>
 7    1  0.6992302E-006  0.1103410E+03  0.7561462E-02  0.1259940E+00
         -1   -1    0    0    0  501 -0.00000000000E+00  0.00000000000E+00  0.46872632276E+02  0.46872632276E+02  0.00000000000E+00 0.  1.
          1   -1    0    0  501    0  0.00000000000E+00 -0.00000000000E+00 -0.38608149414E+03  0.38608149414E+03  0.00000000000E+00 0. -1.
         23    2    1    2    0    0  0.62706166700E+02  0.25593180050E+02 -0.11976996148E+03  0.18595527375E+03  0.12508975160E+03 0.  0.
          5    1    3    3  502    0  0.97819870882E+02  0.37414913318E+02 -0.84549256937E+02  0.13466496251E+03  0.41800000000E+01 0.  1.
         -5    1    3    3    0  502 -0.35113704182E+02 -0.11821733268E+02 -0.35220704543E+02  0.51290311242E+02  0.41800000000E+01 0.  1.
        -11    1    1    2    0    0 -0.55061663836E+02 -0.34648770732E+01 -0.21648173986E+03  0.22340128892E+03  0.00000000000E+00 0. -1.
         11    1    1    2    0    0 -0.76445028648E+01 -0.22128302976E+02 -0.29571605257E+01  0.23597563752E+02  0.00000000000E+00 0.  1.
</event>
<event>
 7    1  0.6992302E-006  0.8997666E+02  0.7561462E-02  0.1302908E+00
         -1   -1    0    0    0  501 -0.00000000000E+00  0.00000000000E+00  0.12946433888E+03  0.12946433888E+03  0.00000000000E+00 0.  1.
          1   -1    0    0  501    0  0.00000000000E+00 -0.00000000000E+00 -0.11530780707E+03  0.11530780707E+03  0.00000000000E+00 0. -1.
         23    2    1    2    0    0 -0.18047895077E+02 -0.42944841305E+02  0.38394793196E+02  0.13887825758E+03  0.12507207671E+03 0.  0.
          5    1    3    3  502    0 -0.23467209852E+02  0.31100971027E+02 -0.20311465081E+02  0.44136247584E+02  0.41800000000E+01 0.  1.
         -5    1    3    3    0  502  0.54193147745E+01 -0.74045812332E+02  0.58706258277E+02  0.94742009993E+02  0.41800000000E+01 0.  1.
        -11    1    1    2    0    0 -0.13439740857E+02  0.29013545112E+02 -0.52417881732E+02  0.61400706507E+02  0.00000000000E+00 0. -1.
         11    1    1    2    0    0  0.31487635934E+02  0.13931296193E+02  0.28179620345E+02  0.44493181872E+02  0.00000000000E+00 0.  1.
</event>
<event>
 6    1  0.6992302E-006  0.1449099E+03  0.7561462E-02  0.1206871E+00
          3   -1    0    0  501    0  0.00000000000E+00  0.00000000000E+00  0.56731555780E+02  0.56731555780E+02  0.00000000000E+00 0. -1.
         -3   -1    0    0    0  501 -0.00000000000E+00 -0.00000000000E+00 -0.42062949433E+03  0.42062949433E+03  0.00000000000E+00 0.  1.
          5    1    1    2  502    0 -0.75874691266E+02 -0.24945904982E+01 -0.91568248503E+02  0.11901852079E+03  0.41800000000E+01 0. -1.
         -5    1    1    2    0  502  0.71883363475E+02 -0.80505796069E+02 -0.16427924619E+03  0.19660504641E+03  0.41800000000E+01 0.  1.
        -11    1    1    2    0    0  0.34703670058E+02  0.40315920203E+02 -0.92834286591E+02  0.10699496672E+03  0.00000000000E+00 0.  1.
         11    1    1    2    0    0 -0.30712342267E+02  0.42684466365E+02 -0.15216157262E+02  0.54742516184E+02  0.00000000000E+00 0. -1.
</event>
<event>
 7    1  0.6992302E-006  0.1059451E+03  0.7561462E-02  0.1268269E+00
          4   -1    0    0  501    0  0.00000000000E+00  0.00000000000E+00  0.50311364613E+02  0.50311364613E+02  0.00000000000E+00 0. -1.
         -4   -1    0    0    0  501 -0.00000000000E+00 -0.00000000000E+00 -0.53438404846E+03  0.53438404846E+03  0.00000000000E+00 0.  1.
         23    2    1    2    0    0  0.95278238292E+02  0.55154482771E+01 -0.41710598675E+03  0.44500546117E+03  0.12224603646E+03 0.  0.
          5    1    3    3  502    0  0.22638722274E+02 -0.15472413385E+02 -0.78846729571E+01  0.28836570354E+02  0.41800000000E+01 0. -1.
         -5    1    3    3    0  502  0.72639516018E+02  0.20987861662E+02 -0.40922131379E+03  0.41616889082E+03  0.41800000000E+01 0.  1.
        -11    1    1    2    0    0 -0.95817383979E+02 -0.16671664157E+02 -0.31075420689E+02  0.10210091689E+03  0.00000000000E+00 0. -1.
         11    1    1    2    0    0  0.53914568633E+00  0.11156215880E+02 -0.35891276407E+02  0.37589035010E+02  0.00000000000E+00 0.  1.
</event>
<event>
 7    1  0.6992302E-006  0.1049490E+03  0.7561462E-02  0.1270220E+00
          1   -1    0    0  501    0  0.00000000000E+00  0.00000000000E+00  0.77766861900E+02  0.77766861900E+02  0.00000000000E+00 0. -1.
         -1   -1    0    0    0  501 -0.00000000000E+00 -0.00000000000E+00 -0.18376793903E+03  0.18376793903E+03  0.00000000000E+00 0.  1.
         23    2    1    2    0    0 -0.86198251174E+01 -0.49600026986E+02 -0.71400170453E+02  0.15256728091E+03  0.12507728332E+03 0.  0.
          5    1    3    3  502    0  0.70945338839E+01  0.41485965539E+02 -0.21658251022E+02  0.47518101657E+02  0.41800000000E+01 0. -1.
         -5    1    3    3    0  502 -0.15714359001E+02 -0.91085992525E+02 -0.49741919431E+02  0.10504917925E+03  0.41800000000E+01 0. -1.
        -11    1    1    2    0    0  0.32431318348E+02  0.26203486347E+02  0.19001557131E+02  0.45819998690E+02  0.00000000000E+00 0. -1.
         11    1    1    2    0    0 -0.23811493231E+02  0.23396540639E+02 -0.53602463803E+02  0.63147521325E+02  0.00000000000E+00 0.  1.
</event>
<event>
 7    1  0.6992302E-006  0.1458687E+03  0.7561462E-02  0.1205643E+00
          1   -1    0    0  501    0  0.00000000000E+00  0.00000000000E+00  0.10933362728E+03  0.10933362728E+03  0.00000000000E+00 0. -1.
         -1   -1    0    0    0  501 -0.00000000000E+00 -0.00000000000E+00 -0.25957850572E+03  0.25957850572E+03  0.00000000000E+00 0.  1.
         23    2    1    2    0    0 -0.31773677211E+02 -0.11843417320E+03 -0.12342586743E+03  0.21427999509E+03  0.12508297884E+03 0.  0.
          5    1    3    3  502    0 -0.27006075764E+02 -0.13592416325E+03 -0.65305285948E+02  0.15325455640E+03  0.41800000000E+01 0.  1.
         -5    1    3    3    0  502 -0.47676014471E+01  0.17489990044E+02 -0.58120581486E+02  0.61025438692E+02  0.41800000000E+01 0.  1.
        -11    1    1    2    0    0  0.47665323255E+02  0.92884376277E+02  0.12472653771E+02  0.10514303348E+03  0.00000000000E+00 0.  1.
         11    1    1    2    0    0 -0.15891646044E+02  0.25549796928E+02 -0.39291664771E+02  0.49489104432E+02  0.00000000000E+00 0. -1.
</event>
<event>
 7    1  0.6992302E-006  0.5126343E+02  0.7561462E-02  0.1438644E+00
          2   -1    0    0  501    0  0.00000000000E+00  0.00000000000E+00  0.92038235424E+02  0.92038235424E+02  0.00000000000E+00 0.  1.
         -2   -1    0    0    0  501 -0.00000000000E+00 -0.00000000000E+00 -0.18503407510E+03  0.18503407510E+03  0.00000000000E+00 0. -1.
         23    2    1    2    0    0 -0.10512798022E+01  0.29940325836E+01 -0.12555492874E+03  0.17726068598E+03  0.12508893334E+03 0.  0.
          5    1    3    3  502    0  0.22004957016E+01  0.34357343060E+02  0.11519977637E+02  0.36543829687E+02  0.41800000000E+01 0.  1.
         -5    1    3    3    0  502 -0.32517755038E+01 -0.31363310476E+02 -0.13707490637E+03  0.14071685629E+03  0.41800000000E+01 0.  1.
        -11    1    1    2    0    0  0.98010333440E+01 -0.16942609006E+02  0.62581133611E+02  0.65570653029E+02  0.00000000000E+00 0.  1.
         11    1    1    2    0    0 -0.87497535418E+01  0.13948576423E+02 -0.30022044551E+02  0.34240971515E+02  0.00000000000E+00 0. -1.
</event>
<event>
 7    1  0.6992302E-006  0.3221242E+03  0.7561462E-02  0.1074676E+00
          1   -1    0    0  501    0  0.00000000000E+00  0.00000000000E+00  0.36380557464E+03  0.36380557464E+03  0.00000000000E+00 0. -1.
         -1   -1    0    0    0  501 -0.00000000000E+00 -0.00000000000E+00 -0.47805398880E+03  0.47805398880E+03  0.00000000000E+00 0.  1.
         23    2    1    2    0    0  0.30420535535E+03  0.27638828520E+02 -0.32224243615E+03  0.46131440536E+03  0.12516385210E+03 0.  0.
          5    1    3    3  502    0  0.82413003083E+02  0.64646093806E+02 -0.11294164750E+03  0.15409188383E+03  0.41800000000E+01 0. -1.
         -5    1    3    3    0  502  0.22179235227E+03 -0.37007265285E+02 -0.20930078865E+03  0.30722252153E+03  0.41800000000E+01 0. -1.
        -11    1    1    2    0    0 -0.20918143056E+03  0.16337409162E+02  0.16674380113E+03  0.26800611382E+03  0.00000000000E+00 0. -1.
         11    1    1    2    0    0 -0.95023924791E+02 -0.43976237682E+02  0.41250220863E+02  0.11253904427E+03  0.00000000000E+00 0.  1.
</event>
<event>
 7    1  0.6992302E-006  0.8818223E+02  0.7561462E-02  0.1307314E+00
          2   -1    0    0  501    0  0.00000000000E+00  0.00000000000E+00  0.18207975871E+03  0.18207975871E+03  0.00000000000E+00 0. -1.
         -2   -1    0    0    0  501 -0.00000000000E+00 -0.00000000000E+00 -0.67312032063E+02  0.67312032063E+02  0.00000000000E+00 0.  1.
         23    2    1    2    0    0 -0.26601402382E+01 -0.22001022414E+02  0.76761360651E+02  0.14841815488E+03  0.12507805913E+03 0.  0.
          5    1    3    3  502    0 -0.27265877994E+02 -0.52516572835E+02 -0.30530496672E+01  0.59398754511E+02  0.41800000000E+01 0.  1.
         -5    1    3    3    0  502  0.24605737756E+02  0.30515550421E+02  0.79814410318E+02  0.89019400371E+02  0.41800000000E+01 0.  1.
        -11    1    1    2    0    0 -0.35423204377E+02  0.16731324062E+02 -0.90509117213E+01  0.40207705930E+02  0.00000000000E+00 0.  1.
         11    1    1    2    0    0  0.38083344615E+02  0.52696983522E+01  0.47057277722E+02  0.60765929964E+02  0.00000000000E+00 0. -1.
</event>
<event>
 7    1  0.6992302E-006  0.1445751E+03  0.7561462E-02  0.1207302E+00
         -3   -1    0    0    0  501 -0.00000000000E+00  0.00000000000E+00  0.35267404415E+02  0.35267404415E+02  0.00000000000E+00 0.  1.
          3   -1    0    0  501    0  0.00000000000E+00 -0.00000000000E+00 -0.61251134549E+03  0.61251134549E+03  0.00000000000E+00 0. -1.
         23    2    1    2    0    0  0.59929968859E+02  0.78684691133E+02 -0.31339894594E+03  0.35164193432E+03  0.12510103464E+03 0.  0.
          5    1    3    3  502    0 -0.35698780970E+02  0.45750160375E+02 -0.10941012746E+03  0.12391742625E+03  0.41800000000E+01 0. -1.
         -5    1    3    3    0  502  0.95628749828E+02  0.32934530758E+02 -0.20398881848E+03  0.22772450807E+03  0.41800000000E+01 0. -1.
        -11    1    1    2    0    0  0.19153129457E+02 -0.33693442274E+02 -0.11835715995E+03  0.12454118889E+03  0.00000000000E+00 0. -1.
         11    1    1    2    0    0 -0.79083098316E+02 -0.44991248859E+02 -0.14548783518E+03  0.17159562669E+03  0.00000000000E+00 0.  1.
</event>
<event>
 7    1  0.1004533E-005  0.1371542E+03  0.7561462E-02  0.1217210E+00
         -1   -1    0    0    0  501 -0.00000000000E+00  0.00000000000E+00  0.31140637108E+02  0.31140637108E+02  0.00000000000E+00 0.  1.
          1   -1    0    0  501    0  0.00000000000E+00 -0.00000000000E+00 -0.67852208976E+03  0.67852208976E+03  0.00000000000E+00 0. -1.
         23    2    1    2    0    0 -0.95718067802E+02 -0.12778358555E+02 -0.36040091776E+03  0.39352486947E+03  0.12509103253E+03 0.  0.
          5    1    3    3  502    0 -0.11505397851E+03  0.19517309720E+02 -0.30333090316E+03  0.32503146396E+03  0.41800000000E+01 0. -1.
         -5    1    3    3    0  502  0.19335910713E+02 -0.32295668276E+02 -0.57070014598E+02  0.68493405512E+02  0.41800000000E+01 0. -1.
        -11    1    1    2    0    0  0.60715881070E+02 -0.27197448750E+02 -0.22434248222E+03  0.23399929223E+03  0.00000000000E+00 0. -1.
         11    1    1    2    0    0  0.35002186732E+02  0.39975807305E+02 -0.62638052666E+02  0.82138565166E+02  0.00000000000E+00 0.  1.
</event>
<event>
 7    1  0.6992302E-006  0.1102812E+03  0.7561462E-02  0.1260050E+00
          1   -1    0    0  501    0  0.00000000000E+00  0.00000000000E+00  0.45540124642E+03  0.45540124642E+03  0.00000000000E+00 0. -1.
         -1   -1    0    0    0  501 -0.00000000000E+00 -0.00000000000E+00 -0.35012058782E+02  0.35012058782E+02  0.00000000000E+00 0.  1.
         23    2    1    2    0    0  0.33938751576E+02  0.33336192918E+02  0.15011866247E+03  0.20111075911E+03  0.12508710562E+03 0.  0.
          5    1    3    3  502    0  0.31413825207E+02 -0.40403632587E+02  0.28307883466E+02  0.58635233492E+02  0.41800000000E+01 0. -1.
         -5    1    3    3    0  502  0.25249263692E+01  0.73739825505E+02  0.12181077900E+03  0.14247552561E+03  0.41800000000E+01 0. -1.
        -11    1    1    2    0    0 -0.60869040170E+02 -0.30923081532E+02  0.13416604576E+03  0.15053838334E+03  0.00000000000E+00 0.  1.
         11    1    1    2    0    0  0.26930288594E+02 -0.24131113861E+01  0.13610447941E+03  0.13876416276E+03  0.00000000000E+00 0. -1.
</event>
<event>
 7    1  0.6992302E-006  0.2020901E+03  0.7561462E-02  0.1147987E+00
          2   -1    0    0  501    0  0.00000000000E+00  0.00000000000E+00  0.19431904957E+04  0.19431904957E+04  0.00000000000E+00 0. -1.
         -2   -1    0    0    0  501 -0.00000000000E+00 -0.00000000000E+00 -0.25279090689E+02  0.25279090689E+02  0.00000000000E+00 0.  1.
         23    2    1    2    0    0 -0.18547927078E+03  0.52877951493E+02  0.10227745693E+04  0.10482904631E+04  0.12508572157E+03 0.  0.
          5    1    3    3  502    0 -0.31134309357E+01  0.20099596181E+02  0.34525761351E+03  0.34588145267E+03  0.41800000000E+01 0.  1.
         -5    1    3    3    0  502 -0.18236583984E+03  0.32778355312E+02  0.67751695583E+03  0.70240901044E+03  0.41800000000E+01 0.  1.
        -11    1    1    2    0    0  0.62370407433E+02  0.39355706146E+01  0.14510419088E+03  0.15798981819E+03  0.00000000000E+00 0.  1.
         11    1    1    2    0    0  0.12310886334E+03 -0.56813522107E+02  0.75003264475E+03  0.76218930504E+03  0.00000000000E+00 0. -1.
</event>
<event>
 7    1  0.6992302E-006  0.1864239E+03  0.7561462E-02  0.1161727E+00
          4   -1    0    0  501    0  0.00000000000E+00  0.00000000000E+00  0.74798473446E+02  0.74798473446E+02  0.00000000000E+00 0. -1.
         -4   -1    0    0    0  501 -0.00000000000E+00 -0.00000000000E+00 -0.61207203275E+03  0.61207203275E+03  0.00000000000E+00 0.  1.
         23    2    1    2    0    0  0.36225968189E+02 -0.16136217273E+03 -0.40905460477E+03  0.45859911196E+03  0.12504960714E+03 0.  0.
          5    1    3    3  502    0  0.53701317436E+01 -0.15105896307E+03 -0.39493052381E+03  0.42288915768E+03  0.41800000000E+01 0. -1.
         -5    1    3    3    0  502  0.30855836445E+02 -0.10303209652E+02 -0.14124080955E+02  0.35709954281E+02  0.41800000000E+01 0. -1.
        -11    1    1    2    0    0  0.30931474581E+02  0.51463121881E+02 -0.42378738368E+02  0.73492628877E+02  0.00000000000E+00 0. -1.
         11    1    1    2    0    0 -0.67157442770E+02  0.10989905085E+03 -0.85840216169E+02  0.15477876537E+03  0.00000000000E+00 0.  1.
</event>
<event>
 7    1  0.6992302E-006  0.1209914E+03  0.7561462E-02  0.1241470E+00
          2   -1    0    0  501    0  0.00000000000E+00  0.00000000000E+00  0.33682451666E+03  0.33682451666E+03  0.00000000000E+00 0. -1.
         -2   -1    0    0    0  501 -0.00000000000E+00 -0.00000000000E+00 -0.56712309980E+02  0.56712309980E+02  0.00000000000E+00 0.  1.
         23    2    1    2    0    0 -0.41418301678E+02  0.44493743027E+02  0.68305251571E+02  0.15494515078E+03  0.12508886231E+03 0.  0.
          5    1    3    3  502    0 -0.81452651846E+02  0.65469873730E+01  0.27925192316E+02  0.86456268149E+02  0.41800000000E+01 0.  1.
         -5    1    3    3    0  502  0.40034350168E+02  0.37946755654E+02  0.40380059255E+02  0.68488882627E+02  0.41800000000E+01 0.  1.
        -11    1    1    2    0    0  0.67544047331E+02 -0.39490289009E+02  0.18481780394E+03  0.20069704011E+03  0.00000000000E+00 0. -1.
         11    1    1    2    0    0 -0.26125745654E+02 -0.50034540172E+01  0.26989151169E+02  0.37894635753E+02  0.00000000000E+00 0.  1.
</event>
<event>
 7    1  0.6992302E-006  0.9577876E+02  0.7561462E-02  0.1289432E+00
          2   -1    0    0  501    0  0.00000000000E+00  0.00000000000E+00  0.50728725083E+03  0.50728725083E+03  0.00000000000E+00 0. -1.
         -2   -1    0    0    0  501 -0.00000000000E+00 -0.00000000000E+00 -0.28095516925E+02  0.28095516925E+02  0.00000000000E+00 0.  1.
         23    2    1    2    0    0  0.56551901614E+01  0.50471052452E+02  0.23357223903E+03  0.26978291746E+03  0.12509006113E+03 0.  0.
          5    1    3    3  502    0 -0.30290971360E+02  0.44230777282E+02  0.27370467180E+02  0.60336717499E+02  0.41800000000E+01 0. -1.
         -5    1    3    3    0  502  0.35946161521E+02  0.62402751694E+01  0.20620177185E+03  0.20944619996E+03  0.41800000000E+01 0. -1.
        -11    1    1    2    0    0 -0.28760750002E+02 -0.66828058751E+02  0.17597205612E+03  0.19041884022E+03  0.00000000000E+00 0.  1.
         11    1    1    2    0    0  0.23105559841E+02  0.16357006299E+02  0.69647438760E+02  0.75181010079E+02  0.00000000000E+00 0. -1.
</event>
<event>
 7    1  0.6992302E-006  0.1144777E+03  0.7561462E-02  0.1252496E+00
          2   -1    0    0  501    0  0.00000000000E+00  0.00000000000E+00  0.63769725162E+02  0.63769725162E+02  0.00000000000E+00 0. -1.
         -2   -1    0    0    0  501 -0.00000000000E+00 -0.00000000000E+00 -0.21118434502E+03  0.21118434502E+03  0.00000000000E+00 0.  1.
         23    2    1    2    0    0 -0.36133730322E+02  0.27723989457E+02 -0.85846246677E+02  0.15840227882E+03  0.12508971903E+03 0.  0.
          5    1    3    3  502    0 -0.55643065519E+02  0.67943789957E+02 -0.51685982952E+02  0.10198736475E+03  0.41800000000E+01 0.  1.
         -5    1    3    3    0  502  0.19509335197E+02 -0.40219800500E+02 -0.34160263724E+02  0.56414914073E+02  0.41800000000E+01 0.  1.
        -11    1    1    2    0    0  0.37527468764E+02  0.23902387319E+02 -0.42410529196E+02  0.61467780325E+02  0.00000000000E+00 0.  1.
         11    1    1    2    0    0 -0.13937384425E+01 -0.51626376776E+02 -0.19157843985E+02  0.55084011038E+02  0.00000000000E+00 0. -1.
</event>
<event>
 7    1  0.6992302E-006  0.1592515E+03  0.7561462E-02  0.1189544E+00
         -1   -1    0    0    0  501 -0.00000000000E+00  0.00000000000E+00  0.37360599990E+02  0.37360599990E+02  0.00000000000E+00 0.  1.
          1   -1    0    0  501    0  0.00000000000E+00 -0.00000000000E+00 -0.82330470432E+03  0.82330470432E+03  0.00000000000E+00 0. -1.
         23    2    1    2    0    0  0.75251148973E+02  0.10969119676E+03 -0.50980410912E+03  0.54151899869E+03  0.12509077581E+03 0.  0.
          5    1    3    3  502    0  0.57394922332E+02 -0.10624106825E+02 -0.20868513033E+03  0.21673487209E+03  0.41800000000E+01 0. -1.
         -5    1    3    3    0  502  0.17856226642E+02  0.12031530358E+03 -0.30111897879E+03  0.32478412660E+03  0.41800000000E+01 0. -1.
        -11    1    1    2    0    0 -0.16986124345E+02 -0.57840403290E+02 -0.20464983613E+03  0.21334384477E+03  0.00000000000E+00 0.  1.
         11    1    1    2    0    0 -0.58265024628E+02 -0.51850793465E+02 -0.71490159076E+02  0.10580246085E+03  0.00000000000E+00 0. -1.
</event>
<event>
 7    1  0.6992302E-006  0.1103266E+03  0.7561462E-02  0.1259966E+00
         -1   -1    0    0    0  501 -0.00000000000E+00  0.00000000000E+00  0.21213392312E+03  0.21213392312E+03  0.00000000000E+00 0.  1.
          1   -1    0    0  501    0  0.00000000000E+00 -0.00000000000E+00 -0.59632222084E+02  0.59632222084E+02  0.00000000000E+00 0. -1.
         23    2    1    2    0    0  0.36654914254E+02  0.41768339628E+01  0.89160731043E+02  0.15798004194E+03  0.12508808500E+03 0.  0.
          5    1    3    3  502    0 -0.41912056757E+02 -0.16710271214E+02  0.14646070921E+02  0.47621775052E+02  0.41800000000E+01 0. -1.
         -5    1    3    3    0  502  0.78566971011E+02  0.20887105177E+02  0.74514660121E+02  0.11035826688E+03  0.41800000000E+01 0. -1.
        -11    1    1    2    0    0  0.18045091492E+02  0.25858693747E+02  0.27390380040E+02  0.41767574601E+02  0.00000000000E+00 0.  1.
         11    1    1    2    0    0 -0.54700005746E+02 -0.30035527710E+02  0.35950589952E+02  0.72018528667E+02  0.00000000000E+00 0. -1.
</event>
<event>
 7    1  0.6992302E-006  0.1300913E+03  0.7561462E-02  0.1227320E+00
          1   -1    0    0  501    0  0.00000000000E+00  0.00000000000E+00  0.91225949810E+03  0.91225949810E+03  0.00000000000E+00 0. -1.
         -1   -1    0    0    0  501 -0.00000000000E+00 -0.00000000000E+00 -0.19293376146E+02  0.19293376146E+02  0.00000000000E+00 0.  1.
         23    2    1    2    0    0  0.62959010823E+02 -0.41410731524E+02  0.45404285845E+03  0.47694634813E+03  0.12507684020E+03 0.  0.
          5    1    3    3  502    0  0.51376125976E+02 -0.84939005023E+02  0.34126886330E+03  0.35543782910E+03  0.41800000000E+01 0. -1.
         -5    1    3    3    0  502  0.11582884847E+02  0.43528273499E+02  0.11277399514E+03  0.12150851903E+03  0.41800000000E+01 0. -1.
        -11    1    1    2    0    0 -0.40764519781E+02  0.69024103226E+02  0.34585049953E+03  0.35501921205E+03  0.00000000000E+00 0. -1.
         11    1    1    2    0    0 -0.22194491043E+02 -0.27613371702E+02  0.93072763973E+02  0.99587314066E+02  0.00000000000E+00 0.  1.
</event>
<event>
 7    1  0.6992302E-006  0.1319582E+03  0.7561462E-02  0.1224579E+00
          1   -1    0    0  501    0  0.00000000000E+00  0.00000000000E+00  0.53054065378E+03  0.53054065378E+03  0.00000000000E+00 0. -1.
         -1   -1    0    0    0  501 -0.00000000000E+00 -0.00000000000E+00 -0.98177087214E+02  0.98177087214E+02  0.00000000000E+00 0.  1.
         23    2    1    2    0    0 -0.56542274363E+02  0.10046651613E+03 -0.28130519329E+01  0.17014000118E+03  0.12509659103E+03 0.  0.
          5    1    3    3  502    0 -0.59845770552E+02  0.97384339608E+02 -0.48357219102E+02  0.12418179775E+03  0.41800000000E+01 0.  1.
         -5    1    3    3    0  502  0.33034961894E+01  0.30821765166E+01  0.45544167169E+02  0.45958203427E+02  0.41800000000E+01 0.  1.
        -11    1    1    2    0    0  0.72335748435E+02 -0.43817207233E+02  0.28547687860E+03  0.29774058569E+03  0.00000000000E+00 0. -1.
         11    1    1    2    0    0 -0.15793474072E+02 -0.56649308892E+02  0.14969973991E+03  0.16083715413E+03  0.00000000000E+00 0.  1.
</event>
<event>
 7    1  0.6992302E-006  0.2057674E+03  0.7561462E-02  0.1144962E+00
         -4   -1    0    0    0  501 -0.00000000000E+00  0.00000000000E+00  0.64340198075E+02  0.64340198075E+02  0.00000000000E+00 0.  1.
          4   -1    0    0  501    0  0.00000000000E+00 -0.00000000000E+00 -0.72594103406E+03  0.72594103406E+03  0.00000000000E+00 0. -1.
         23    2    1    2    0    0  0.12742177297E+03 -0.13630987168E+03 -0.33459590239E+03  0.40301224494E+03  0.12509101618E+03 0.  0.
          5    1    3    3  502    0  0.87612680261E+02 -0.10756817839E+02 -0.96267369126E+02  0.13067734934E+03  0.41800000000E+01 0.  1.
         -5    1    3    3    0  502  0.39809092711E+02 -0.12555305384E+03 -0.23832853326E+03  0.27233489559E+03  0.41800000000E+01 0.  1.
        -11    1    1    2    0    0 -0.71480001065E+02  0.10574796847E+03 -0.13882475725E+03  0.18858509117E+03  0.00000000000E+00 0. -1.
         11    1    1    2    0    0 -0.55941771907E+02  0.30561903210E+02 -0.18818017635E+03  0.19868389603E+03  0.00000000000E+00 0.  1.
</event>
<event>
 7    1  0.6992302E-006  0.8586160E+02  0.7561462E-02  0.1313195E+00
         -1   -1    0    0    0  501 -0.00000000000E+00  0.00000000000E+00  0.64850580167E+02  0.64850580167E+02  0.00000000000E+00 0.  1.
          1   -1    0    0  501    0  0.00000000000E+00 -0.00000000000E+00 -0.22722987358E+03  0.22722987358E+03  0.00000000000E+00 0. -1.
         23    2    1    2    0    0  0.39318823281E+02  0.17908660679E+02 -0.50399212537E+02  0.14161273169E+03  0.12508954856E+03 0.  0.
          5    1    3    3  502    0  0.81124150150E+02  0.23262769486E+02 -0.13759359947E+02  0.85610026095E+02  0.41800000000E+01 0.  1.
         -5    1    3    3    0  502 -0.41805326869E+02 -0.53541088070E+01 -0.36639852590E+02  0.56002705592E+02  0.41800000000E+01 0.  1.
        -11    1    1    2    0    0 -0.83912597380E+01 -0.97960679863E+01  0.14849809911E+02  0.19669596905E+02  0.00000000000E+00 0.  1.
         11    1    1    2    0    0 -0.30927563543E+02 -0.81125926927E+01 -0.12682989079E+03  0.13079812516E+03  0.00000000000E+00 0. -1.
</event>
<event>
 7    1  0.6992302E-006  0.6661902E+02  0.7561462E-02  0.1371983E+00
          3   -1    0    0  501    0  0.00000000000E+00  0.00000000000E+00  0.29276645756E+03  0.29276645756E+03  0.00000000000E+00 0. -1.
         -3   -1    0    0    0  501 -0.00000000000E+00 -0.00000000000E+00 -0.42724475254E+02  0.42724475254E+02  0.00000000000E+00 0.  1.
         23    2    1    2    0    0 -0.22503982280E+02  0.11195113915E+02  0.12479165864E+03  0.17846771238E+03  0.12508399778E+03 0.  0.
          5    1    3    3  502    0 -0.29188264712E+02  0.95643720107E+01 -0.17735429006E+02  0.35713440760E+02  0.41800000000E+01 0.  1.
         -5    1    3    3    0  502  0.66842824321E+01  0.16307419042E+01  0.14252708765E+03  0.14275427162E+03  0.41800000000E+01 0.  1.
        -11    1    1    2    0    0 -0.33768241961E+02  0.80542570803E+01  0.54226123096E+02  0.64386626315E+02  0.00000000000E+00 0. -1.
         11    1    1    2    0    0  0.56272224241E+02 -0.19249370995E+02  0.71024200567E+02  0.92636594124E+02  0.00000000000E+00 0.  1.
</event>
<event>
 7    1  0.6992302E-006  0.1068703E+03  0.7561462E-02  0.1266478E+00
          2   -1    0    0  501    0  0.00000000000E+00  0.00000000000E+00  0.48169491590E+02  0.48169491590E+02  0.00000000000E+00 0.  1.
         -2   -1    0    0    0  501 -0.00000000000E+00 -0.00000000000E+00 -0.36456936664E+03  0.36456936664E+03  0.00000000000E+00 0. -1.
         23    2    1    2    0    0 -0.22627258259E+02 -0.69884150950E+02 -0.20185453850E+03  0.24857323367E+03  0.12509040895E+03 0.  0.
          5    1    3    3  502    0 -0.43143968850E+02 -0.34219292280E+02 -0.19966149745E+03  0.20715826794E+03  0.41800000000E+01 0.  1.
         -5    1    3    3    0  502  0.20516710591E+02 -0.35664858670E+02 -0.21930410581E+01  0.41414965731E+02  0.41800000000E+01 0.  1.
        -11    1    1    2    0    0  0.55895493988E+02  0.60974852516E+02 -0.87175275887E+02  0.12017390571E+03  0.00000000000E+00 0.  1.
         11    1    1    2    0    0 -0.33268235729E+02  0.89092984340E+01 -0.27370060659E+02  0.43991718852E+02  0.00000000000E+00 0. -1.
</event>
<event>
 7    1  0.6992302E-006  0.1022656E+03  0.7561462E-02  0.1275603E+00
          2   -1    0    0  501    0  0.00000000000E+00  0.00000000000E+00  0.29037013240E+03  0.29037013240E+03  0.00000000000E+00 0. -1.
         -2   -1    0    0    0  501 -0.00000000000E+00 -0.00000000000E+00 -0.53923028744E+02  0.53923028744E+02  0.00000000000E+00 0.  1.
         23    2    1    2    0    0 -0.48952446862E+02  0.33438795140E+02  0.12363488796E+03  0.18560083922E+03  0.12509033106E+03 0.  0.
          5    1    3    3  502    0  0.34522563534E+02  0.39172010217E+02  0.64330175613E+02  0.82958409289E+02  0.41800000000E+01 0. -1.
         -5    1    3    3    0  502 -0.83475010395E+02 -0.57332150763E+01  0.59304712344E+02  0.10264242993E+03  0.41800000000E+01 0. -1.
        -11    1    1    2    0    0  0.26473654006E+02  0.18459528932E+01 -0.10451790668E+02  0.28521953417E+02  0.00000000000E+00 0.  1.
         11    1    1    2    0    0  0.22478792855E+02 -0.35284748033E+02  0.12326400636E+03  0.13017036851E+03  0.00000000000E+00 0. -1.
</event>
<event>
 7    1  0.7220209E-006  0.2983234E+03  0.7561462E-02  0.1086082E+00
         -2   -1    0    0    0  501 -0.00000000000E+00  0.00000000000E+00  0.69160630147E+02  0.69160630147E+02  0.00000000000E+00 0.  1.
          2   -1    0    0  501    0  0.00000000000E+00 -0.00000000000E+00 -0.15629163212E+04  0.15629163212E+04  0.00000000000E+00 0. -1.
         23    2    1    2    0    0 -0.34182360709E+02  0.28615265212E+03 -0.48233264128E+03  0.57562476409E+03  0.12508924051E+03 0.  0.
          5    1    3    3  502    0  0.21637572836E+02  0.19092849348E+03 -0.37614623948E+03  0.42240423773E+03  0.41800000000E+01 0.  1.
         -5    1    3    3    0  502 -0.55819933545E+02  0.95224158640E+02 -0.10618640180E+03  0.15322052636E+03  0.41800000000E+01 0.  1.
        -11    1    1    2    0    0 -0.14568812852E+02 -0.11860991913E+03 -0.55710483599E+03  0.56977746666E+03  0.00000000000E+00 0. -1.
         11    1    1    2    0    0  0.48751173560E+02 -0.16754273299E+03 -0.45431821380E+03  0.48667472062E+03  0.00000000000E+00 0.  1.
</event>
<event>
 7    1  0.6992302E-006  0.9938083E+02  0.7561462E-02  0.1281603E+00
         -4   -1    0    0    0  501 -0.00000000000E+00  0.00000000000E+00  0.14472069798E+04  0.14472069798E+04  0.00000000000E+00 0.  1.
          4   -1    0    0  501    0  0.00000000000E+00 -0.00000000000E+00 -0.83326887681E+01  0.83326887681E+01  0.00000000000E+00 0. -1.
         23    2    1    2    0    0  0.11012858820E+02 -0.25800313807E+02  0.10125204780E+04  0.10206040297E+04  0.12509167799E+03 0.  0.
          5    1    3    3  502    0 -0.47158749498E+02 -0.28293728521E+02  0.25803267119E+03  0.26386135475E+03  0.41800000000E+01 0.  1.
         -5    1    3    3    0  502  0.58171608318E+02  0.24934147142E+01  0.75448780680E+03  0.75674267498E+03  0.41800000000E+01 0.  1.
        -11    1    1    2    0    0 -0.46039200267E+02  0.17364335702E+02  0.27371488596E+03  0.27810243960E+03  0.00000000000E+00 0.  1.
         11    1    1    2    0    0  0.35026341447E+02  0.84359781051E+01  0.15263892705E+03  0.15683319921E+03  0.00000000000E+00 0. -1.
</event>
<event>
 7    1  0.6992302E-006  0.1041329E+03  0.7561462E-02  0.1271837E+00
         -1   -1    0    0    0  501 -0.00000000000E+00  0.00000000000E+00  0.11639945712E+03  0.11639945712E+03  0.00000000000E+00 0.  1.
          1   -1    0    0  501    0  0.00000000000E+00 -0.00000000000E+00 -0.15225361565E+03  0.15225361565E+03  0.00000000000E+00 0. -1.
         23    2    1    2    0    0 -0.12151254377E+02 -0.15895426706E+02  0.51726333596E+02  0.13683191050E+03  0.12508813121E+03 0.  0.
          5    1    3    3  502    0 -0.30441264596E+02 -0.64841462410E+02  0.43115246368E+02  0.83710708437E+02  0.41800000000E+01 0.  1.
         -5    1    3    3    0  502  0.18290010219E+02  0.48946035703E+02  0.86110872285E+01  0.53121202058E+02  0.41800000000E+01 0.  1.
        -11    1    1    2    0    0 -0.32203957485E+02  0.22450055470E+02 -0.73890852405E+01  0.39946194424E+02  0.00000000000E+00 0.  1.
         11    1    1    2    0    0  0.44355211862E+02 -0.65546287631E+01 -0.80191406892E+02  0.91874967847E+02  0.00000000000E+00 0. -1.
</event>
<event>
 7    1  0.6992302E-006  0.1202347E+03  0.7561462E-02  0.1242710E+00
          1   -1    0    0  501    0  0.00000000000E+00  0.00000000000E+00  0.29854835706E+03  0.29854835706E+03  0.00000000000E+00 0. -1.
         -1   -1    0    0    0  501 -0.00000000000E+00 -0.00000000000E+00 -0.51854083566E+02  0.51854083566E+02  0.00000000000E+00 0.  1.
         23    2    1    2    0    0  0.37225511882E+02  0.53804652577E+02  0.11206126804E+03  0.18023682530E+03  0.12508759341E+03 0.  0.
          5    1    3    3  502    0  0.80342389297E+02  0.47391757700E+02  0.55203874139E+02  0.10847035695E+03  0.41800000000E+01 0.  1.
         -5    1    3    3    0  502 -0.43116877414E+02  0.64128948774E+01  0.56857393900E+02  0.71766468353E+02  0.41800000000E+01 0.  1.
        -11    1    1    2    0    0 -0.43165032581E+02  0.56697808713E+01  0.67047648406E+02  0.79942189172E+02  0.00000000000E+00 0.  1.
         11    1    1    2    0    0  0.59395206986E+01 -0.59474433448E+02  0.67585357052E+02  0.90223426160E+02  0.00000000000E+00 0. -1.
</event>
<event>
 7    1  0.6992302E-006  0.8860040E+02  0.7561462E-02  0.1306277E+00
         -1   -1    0    0    0  501 -0.00000000000E+00  0.00000000000E+00  0.17529847251E+03  0.17529847251E+03  0.00000000000E+00 0.  1.
          1   -1    0    0  501    0  0.00000000000E+00 -0.00000000000E+00 -0.80481536183E+02  0.80481536183E+02  0.00000000000E+00 0. -1.
         23    2    1    2    0    0 -0.32907309790E+02 -0.24906750883E+02  0.85442640924E+02  0.15700585695E+03  0.12508859641E+03 0.  0.
          5    1    3    3  502    0  0.11226858357E+01 -0.62660740700E+02  0.66668193037E+01  0.63162866688E+02  0.41800000000E+01 0.  1.
         -5    1    3    3    0  502 -0.34029995625E+02  0.37753989818E+02  0.78775821620E+02  0.93842990262E+02  0.41800000000E+01 0.  1.
        -11    1    1    2    0    0  0.27222657070E+02 -0.92607978875E+01  0.42192118343E+02  0.51058890369E+02  0.00000000000E+00 0.  1.
         11    1    1    2    0    0  0.56846527195E+01  0.34167548770E+02 -0.32817822939E+02  0.47715261374E+02  0.00000000000E+00 0. -1.
</event>
<event>
 7    1  0.6992302E-006  0.9071461E+02  0.7561462E-02  0.1301130E+00
          2   -1    0    0  501    0  0.00000000000E+00  0.00000000000E+00  0.43066275466E+03  0.43066275466E+03  0.00000000000E+00 0. -1.
         -2   -1    0    0    0  501 -0.00000000000E+00 -0.00000000000E+00 -0.38838391831E+02  0.38838391831E+02  0.00000000000E+00 0.  1.
         23    2    1    2    0    0  0.18931138765E+02  0.46887944910E+02  0.12949234665E+03  0.18700890535E+03  0.12508875028E+03 0.  0.
          5    1    3    3  502    0 -0.12778372938E+02  0.42453954594E+02 -0.84596152655E+01  0.45328385875E+02  0.41800000000E+01 0. -1.
         -5    1    3    3    0  502  0.31709511703E+02  0.44339903157E+01  0.13795196191E+03  0.14168051948E+03  0.41800000000E+01 0. -1.
        -11    1    1    2    0    0  0.16660147033E+02 -0.63270229236E+02  0.17231238173E+03  0.18431559702E+03  0.00000000000E+00 0. -1.
         11    1    1    2    0    0 -0.35591285798E+02  0.16382284326E+02  0.90019634441E+02  0.98176644114E+02  0.00000000000E+00 0.  1.
</event>
<event>
 7    1  0.6992302E-006  0.8712010E+02  0.7561462E-02  0.1309980E+00
         -4   -1    0    0    0  501 -0.00000000000E+00  0.00000000000E+00  0.21520574663E+03  0.21520574663E+03  0.00000000000E+00 0.  1.
          4   -1    0    0  501    0  0.00000000000E+00 -0.00000000000E+00 -0.66637122508E+02  0.66637122508E+02  0.00000000000E+00 0. -1.
         23    2    1    2    0    0 -0.31292133401E+02 -0.23078411038E+02  0.11930316410E+03  0.17718198622E+03  0.12509356741E+03 0.  0.
          5    1    3    3  502    0 -0.50377374841E+02 -0.16589623436E+02 -0.28757779292E+01  0.53280746995E+02  0.41800000000E+01 0. -1.
         -5    1    3    3    0  502  0.19085241440E+02 -0.64887876013E+01  0.12217894203E+03  0.12390123922E+03  0.41800000000E+01 0. -1.
        -11    1    1    2    0    0 -0.18844757575E+01 -0.34202871711E+02  0.11307979578E+02  0.36072955026E+02  0.00000000000E+00 0.  1.
         11    1    1    2    0    0  0.33176609158E+02  0.57281282749E+02  0.17957480439E+02  0.68587927891E+02  0.00000000000E+00 0. -1.
</event>
<event>
 7    1  0.6992302E-006  0.8688859E+02  0.7561462E-02  0.1310566E+00
         -1   -1    0    0    0  501 -0.00000000000E+00  0.00000000000E+00  0.55275176733E+02  0.55275176733E+02  0.00000000000E+00 0.  1.
          1   -1    0    0  501    0  0.00000000000E+00 -0.00000000000E+00 -0.22219851896E+03  0.22219851896E+03  0.00000000000E+00 0. -1.
         23    2    1    2    0    0  0.22869700555E+02 -0.14424624580E+01 -0.93127334269E+02  0.15763899580E+03  0.12510894735E+03 0.  0.
          5    1    3    3  502    0  0.57388698046E+02 -0.22053676168E+02 -0.63987537742E+01  0.61953561204E+02  0.41800000000E+01 0.  1.
         -5    1    3    3    0  502 -0.34518997491E+02  0.20611213710E+02 -0.86728580495E+02  0.95685434592E+02  0.41800000000E+01 0.  1.
        -11    1    1    2    0    0 -0.40252636855E+02 -0.19325329340E+02 -0.38363031869E+01  0.44815849317E+02  0.00000000000E+00 0.  1.
         11    1    1    2    0    0  0.17382936300E+02  0.20767791798E+02 -0.69959704770E+02  0.75018850579E+02  0.00000000000E+00 0. -1.
</event>
<event>
 7    1  0.7587349E-006  0.1084861E+03  0.7561462E-02  0.1263399E+00
          1   -1    0    0  501    0  0.00000000000E+00  0.00000000000E+00  0.25892104209E+03  0.25892104209E+03  0.00000000000E+00 0. -1.
         -1   -1    0    0    0  501 -0.00000000000E+00 -0.00000000000E+00 -0.74752428478E+02  0.74752428478E+02  0.00000000000E+00 0.  1.
         23    2    1    2    0    0 -0.74467661605E+02 -0.17100191404E+02  0.49945975399E+02  0.15485445142E+03  0.12508977374E+03 0.  0.
          5    1    3    3  502    0 -0.66582750345E+02 -0.59369476041E+02  0.63496872648E+02  0.10957792919E+03  0.41800000000E+01 0. -1.
         -5    1    3    3    0  502 -0.78849112600E+01  0.42269284637E+02 -0.13550897249E+02  0.45276522233E+02  0.41800000000E+01 0. -1.
        -11    1    1    2    0    0  0.44765741180E+02 -0.81255157805E+01  0.13218669435E+03  0.13979741683E+03  0.00000000000E+00 0. -1.
         11    1    1    2    0    0  0.29701920425E+02  0.25225707185E+02  0.20359438667E+01  0.39021602317E+02  0.00000000000E+00 0.  1.
</event>
<event>
 7    1  0.6992302E-006  0.1008528E+03  0.7561462E-02  0.1278513E+00
          4   -1    0    0  501    0  0.00000000000E+00  0.00000000000E+00  0.82271958427E+03  0.82271958427E+03  0.00000000000E+00 0. -1.
         -4   -1    0    0    0  501 -0.00000000000E+00 -0.00000000000E+00 -0.18482525390E+02  0.18482525390E+02  0.00000000000E+00 0.  1.
         23    2    1    2    0    0 -0.54413085133E+02  0.15764290540E+02  0.43548651551E+03  0.45662696792E+03  0.12510150261E+03 0.  0.
          5    1    3    3  502    0 -0.81756390832E+00 -0.26253285455E+02  0.32953481375E+03  0.33060636607E+03  0.41800000000E+01 0.  1.
         -5    1    3    3    0  502 -0.53595521225E+02  0.42017575995E+02  0.10595170175E+03  0.12602060186E+03  0.41800000000E+01 0.  1.
        -11    1    1    2    0    0  0.78795143210E+02 -0.21810040553E+02  0.24439426917E+03  0.25770702603E+03  0.00000000000E+00 0.  1.
         11    1    1    2    0    0 -0.24382058076E+02  0.60457500130E+01  0.12435627421E+03  0.12686811571E+03  0.00000000000E+00 0. -1.
</event>
<event>
 7    1  0.6992302E-006  0.1022939E+03  0.7561462E-02  0.1275545E+00
         -1   -1    0    0    0  501 -0.00000000000E+00  0.00000000000E+00  0.22557738914E+03  0.22557738914E+03  0.00000000000E+00 0.  1.
          1   -1    0    0  501    0  0.00000000000E+00 -0.00000000000E+00 -0.59132951592E+02  0.59132951592E+02  0.00000000000E+00 0. -1.
         23    2    1    2    0    0  0.31515501311E+02  0.18014185322E+02  0.94524289223E+02  0.16093153329E+03  0.12508548860E+03 0.  0.
          5    1    3    3  502    0 -0.33733339672E+02 -0.19697016938E+02  0.72241124416E+02  0.82232372814E+02  0.41800000000E+01 0.  1.
         -5    1    3    3    0  502  0.65248840984E+02  0.37711202260E+02  0.22283164807E+02  0.78699160475E+02  0.41800000000E+01 0.  1.
        -11    1    1    2    0    0 -0.30367734396E+02 -0.49631576185E+02  0.71440362655E+02  0.92136952756E+02  0.00000000000E+00 0. -1.
         11    1    1    2    0    0 -0.11477669155E+01  0.31617390863E+02  0.47978567194E+00  0.31641854689E+02  0.00000000000E+00 0.  1.
</event>
<event>
 7    1  0.6992302E-006  0.9885064E+02  0.7561462E-02  0.1282732E+00
         -2   -1    0    0    0  501 -0.00000000000E+00  0.00000000000E+00  0.27403100724E+02  0.27403100724E+02  0.00000000000E+00 0.  1.
          2   -1    0    0  501    0  0.00000000000E+00 -0.00000000000E+00 -0.48649339316E+03  0.48649339316E+03  0.00000000000E+00 0. -1.
         23    2    1    2    0    0 -0.15125015035E+02 -0.32460614115E+02 -0.24598778542E+03  0.27828090058E+03  0.12509121272E+03 0.  0.
          5    1    3    3  502    0  0.10847306895E+02 -0.73276108205E+02 -0.19109759177E+03  0.20499466842E+03  0.41800000000E+01 0. -1.
         -5    1    3    3    0  502 -0.25972321930E+02  0.40815494091E+02 -0.54890193647E+02  0.73286232151E+02  0.41800000000E+01 0. -1.
        -11    1    1    2    0    0  0.40323502163E+02  0.10859331916E+02 -0.35119879126E+02  0.54564785587E+02  0.00000000000E+00 0.  1.
         11    1    1    2    0    0 -0.25198487128E+02  0.21601282198E+02 -0.17798262789E+03  0.18105080772E+03  0.00000000000E+00 0. -1.
</event>
<event>
 7    1  0.6992302E-006  0.9382678E+02  0.7561462E-02  0.1293841E+00
          4   -1    0    0  501    0  0.00000000000E+00  0.00000000000E+00  0.19865332251E+03  0.19865332251E+03  0.00000000000E+00 0. -1.
         -4   -1    0    0    0  501 -0.00000000000E+00 -0.00000000000E+00 -0.89337943606E+02  0.89337943606E+02  0.00000000000E+00 0.  1.
         23    2    1    2    0    0 -0.31234497797E+02  0.29326265635E+02 -0.11007011582E+02  0.13268187621E+03  0.12509077608E+03 0.  0.
          5    1    3    3  502    0 -0.74671157897E+02  0.25161413790E+02 -0.30644148599E+02  0.84648773228E+02  0.41800000000E+01 0.  1.
         -5    1    3    3    0  502  0.43436660101E+02  0.41648518446E+01  0.19637137017E+02  0.48033102980E+02  0.41800000000E+01 0.  1.
        -11    1    1    2    0    0  0.83094717764E+01 -0.39111645576E+02  0.86769236196E+01  0.40915243423E+02  0.00000000000E+00 0.  1.
         11    1    1    2    0    0  0.22925026020E+02  0.97853799405E+01  0.11164546687E+03  0.11439414649E+03  0.00000000000E+00 0. -1.
</event>
<event>
 6    1  0.6992302E-006  0.7467457E+02  0.7561462E-02  0.1344882E+00
          1   -1    0    0  501    0  0.00000000000E+00  0.00000000000E+00  0.22895985863E+03  0.22895985863E+03  0.00000000000E+00 0. -1.
         -1   -1    0    0    0  501 -0.00000000000E+00 -0.00000000000E+00 -0.14256649099E+03  0.14256649099E+03  0.00000000000E+00 0.  1.
          5    1    1    2  502    0  0.35497044412E+02 -0.19740298166E+02  0.80142103817E+02  0.89944142321E+02  0.41800000000E+01 0. -1.
         -5    1    1    2    0  502 -0.79356227312E+01  0.95929836644E+01 -0.12145816680E+03  0.12216610875E+03  0.41800000000E+01 0.  1.
        -11    1    1    2    0    0 -0.19191410725E+02 -0.40094457724E+02  0.57564069821E+02  0.72728934546E+02  0.00000000000E+00 0.  1.
         11    1    1    2    0    0 -0.83700109561E+01  0.50241772226E+02  0.70145360811E+02  0.86687164004E+02  0.00000000000E+00 0. -1.
</event>
<event>
 7    1  0.6992302E-006  0.1170958E+03  0.7561462E-02  0.1247966E+00
          1   -1    0    0  501    0  0.00000000000E+00  0.00000000000E+00  0.17217335655E+03  0.17217335655E+03  0.00000000000E+00 0. -1.
         -1   -1    0    0    0  501 -0.00000000000E+00 -0.00000000000E+00 -0.15778928328E+03  0.15778928328E+03  0.00000000000E+00 0.  1.
         23    2    1    2    0    0  0.48748803325E+02  0.96828382795E+02 -0.49669775859E+02  0.17282046859E+03  0.12509055196E+03 0.  0.
          5    1    3    3  502    0  0.26667525379E+02  0.80908472921E+02  0.28510219314E+02  0.89931323273E+02  0.41800000000E+01 0. -1.
         -5    1    3    3    0  502  0.22081277946E+02  0.15919909874E+02 -0.78179995174E+02  0.82889145317E+02  0.41800000000E+01 0. -1.
        -11    1    1    2    0    0 -0.65765884201E+01 -0.72245368881E+02 -0.48426243511E+01  0.72705542090E+02  0.00000000000E+00 0.  1.
         11    1    1    2    0    0 -0.42172214904E+02 -0.24583013914E+02  0.68896473487E+02  0.84436629149E+02  0.00000000000E+00 0. -1.
</event>
<event>
 7    1  0.6992302E-006  0.1647030E+03  0.7561462E-02  0.1183487E+00
          2   -1    0    0  501    0  0.00000000000E+00  0.00000000000E+00  0.82587102277E+03  0.82587102277E+03  0.00000000000E+00 0. -1.
         -2   -1    0    0    0  501 -0.00000000000E+00 -0.00000000000E+00 -0.37369348301E+02  0.37369348301E+02  0.00000000000E+00 0.  1.
         23    2    1    2    0    0 -0.34083321008E+02 -0.13211032405E+03  0.38360200309E+03  0.42592542140E+03  0.12508859789E+03 0.  0.
          5    1    3    3  502    0 -0.40544844455E+01 -0.14651208656E+03  0.26728308287E+03  0.30486054048E+03  0.41800000000E+01 0. -1.
         -5    1    3    3    0  502 -0.30028836562E+02  0.14401762515E+02  0.11631892023E+03  0.12106488092E+03  0.41800000000E+01 0. -1.
        -11    1    1    2    0    0  0.51258346908E+02  0.87467103914E+02  0.17285534547E+03  0.20039182332E+03  0.00000000000E+00 0.  1.
         11    1    1    2    0    0 -0.17175025900E+02  0.44643220135E+02  0.23204432591E+03  0.23692312636E+03  0.00000000000E+00 0. -1.
</event>
<event>
 7    1  0.6992302E-006  0.1303177E+03  0.7561462E-02  0.1226985E+00
         -2   -1    0    0    0  501 -0.00000000000E+00  0.00000000000E+00  0.35050196192E+03  0.35050196192E+03  0.00000000000E+00 0.  1.
          2   -1    0    0  501    0  0.00000000000E+00 -0.00000000000E+00 -0.62949699575E+02  0.62949699575E+02  0.00000000000E+00 0. -1.
         23    2    1    2    0    0 -0.96920067882E+02  0.21825865229E+02  0.17137486990E+03  0.23427888511E+03  0.12508949606E+03 0.  0.
          5    1    3    3  502    0 -0.83770281246E+02  0.50305517738E+02  0.51975018640E+02  0.11075639980E+03  0.41800000000E+01 0.  1.
         -5    1    3    3    0  502 -0.13149786636E+02 -0.28479652509E+02  0.11939985126E+03  0.12352248531E+03  0.41800000000E+01 0.  1.
        -11    1    1    2    0    0  0.20283729966E+02  0.31751821133E+02  0.57612480574E+02  0.68838984336E+02  0.00000000000E+00 0.  1.
         11    1    1    2    0    0  0.76636337917E+02 -0.53577686362E+02  0.58564911874E+02  0.11033379205E+03  0.00000000000E+00 0. -1.
</event>
<event>
 7    1  0.6992302E-006  0.1397694E+03  0.7561462E-02  0.1213640E+00
          1   -1    0    0  501    0  0.00000000000E+00  0.00000000000E+00  0.14820210674E+03  0.14820210674E+03  0.00000000000E+00 0. -1.
         -1   -1    0    0    0  501 -0.00000000000E+00 -0.00000000000E+00 -0.20024816325E+03  0.20024816325E+03  0.00000000000E+00 0.  1.
         23    2    1    2    0    0  0.10533482851E+03  0.37291627280E+02 -0.34578773094E+02  0.17125652908E+03  0.12508803156E+03 0.  0.
          5    1    3    3  502    0  0.25899944714E+02  0.74844083032E+02 -0.10092323768E+02  0.79948554084E+02  0.41800000000E+01 0. -1.
         -5    1    3    3    0  502  0.79434883798E+02 -0.37552455752E+02 -0.24486449326E+02  0.91307974995E+02  0.41800000000E+01 0. -1.
        -11    1    1    2    0    0 -0.29711532202E+02 -0.15784901207E+02  0.58744282397E+02  0.67696594938E+02  0.00000000000E+00 0. -1.
         11    1    1    2    0    0 -0.75623296311E+02 -0.21506726073E+02 -0.76211565813E+02  0.10949714597E+03  0.00000000000E+00 0.  1.
</event>
<event>
 7    1  0.6992302E-006  0.1945919E+03  0.7561462E-02  0.1154384E+00
         -1   -1    0    0    0  501 -0.00000000000E+00  0.00000000000E+00  0.86003871067E+02  0.86003871067E+02  0.00000000000E+00 0.  1.
          1   -1    0    0  501    0  0.00000000000E+00 -0.00000000000E+00 -0.64624488887E+03  0.64624488887E+03  0.00000000000E+00 0. -1.
         23    2    1    2    0    0  0.16959477024E+03 -0.30015372710E+01 -0.99611075432E+02  0.23312059789E+03  0.12510576123E+03 0.  0.
          5    1    3    3  502    0  0.39944575482E+02  0.55066173830E+02 -0.24935462004E+02  0.72574804691E+02  0.41800000000E+01 0.  1.
         -5    1    3    3    0  502  0.12965019476E+03 -0.58067711101E+02 -0.74675613428E+02  0.16054579320E+03  0.41800000000E+01 0.  1.
        -11    1    1    2    0    0 -0.13541315089E+03 -0.21146857391E+02 -0.41577135363E+03  0.43777817387E+03  0.00000000000E+00 0. -1.
         11    1    1    2    0    0 -0.34181619348E+02  0.24148394662E+02 -0.44858588732E+02  0.61349988175E+02  0.00000000000E+00 0.  1.
</event>
<event>
 7    1  0.6992302E-006  0.1530462E+03  0.7561462E-02  0.1196779E+00
          1   -1    0    0  501    0  0.00000000000E+00  0.00000000000E+00  0.91422530184E+03  0.91422530184E+03  0.00000000000E+00 0. -1.
         -1   -1    0    0    0  501 -0.00000000000E+00 -0.00000000000E+00 -0.64647511938E+02  0.64647511938E+02  0.00000000000E+00 0.  1.
         23    2    1    2    0    0  0.10894264991E+03 -0.98732241088E+01  0.59856091067E+02  0.17662402307E+03  0.12508921762E+03 0.  0.
          5    1    3    3  502    0  0.10081815270E+02 -0.55793625488E+02  0.16067098318E+02  0.59077878199E+02  0.41800000000E+01 0. -1.
         -5    1    3    3    0  502  0.98860834638E+02  0.45920401379E+02  0.43788992749E+02  0.11754614487E+03  0.41800000000E+01 0. -1.
        -11    1    1    2    0    0  0.99462835551E+00  0.28615275491E+02  0.12506560877E+03  0.12830132414E+03  0.00000000000E+00 0. -1.
         11    1    1    2    0    0 -0.10993727826E+03 -0.18742051382E+02  0.66465609007E+03  0.67394746657E+03  0.00000000000E+00 0.  1.
</event>
<event>
 7    1  0.6992302E-006  0.1149903E+03  0.7561462E-02  0.1251598E+00
          2   -1    0    0  501    0  0.00000000000E+00  0.00000000000E+00  0.64217665239E+03  0.64217665239E+03  0.00000000000E+00 0. -1.
         -2   -1    0    0    0  501 -0.00000000000E+00 -0.00000000000E+00 -0.25021647533E+02  0.25021647533E+02  0.00000000000E+00 0.  1.
         23    2    1    2    0    0  0.19573020212E+02  0.34504573026E+02  0.20585928746E+03  0.24412957019E+03  0.12509009603E+03 0.  0.
          5    1    3    3  502    0 -0.34501643672E+02  0.61438679747E+02  0.11521739617E+03  0.13512067039E+03  0.41800000000E+01 0.  1.
         -5    1    3    3    0  502  0.54074663884E+02 -0.26934106721E+02  0.90641891286E+02  0.10900889980E+03  0.41800000000E+01 0.  1.
        -11    1    1    2    0    0 -0.28932329549E+02 -0.62741057881E+02  0.30146093952E+03  0.30927692784E+03  0.00000000000E+00 0. -1.
         11    1    1    2    0    0  0.93593093369E+01  0.28236484855E+02  0.10983477787E+03  0.11379180189E+03  0.00000000000E+00 0.  1.
</event>
<event>
 7    1  0.6992302E-006  0.2428135E+03  0.7561462E-02  0.1117933E+00
         -1   -1    0    0    0  501 -0.00000000000E+00  0.00000000000E+00  0.36119893066E+03  0.36119893066E+03  0.00000000000E+00 0.  1.
          1   -1    0    0  501    0  0.00000000000E+00 -0.00000000000E+00 -0.18290674266E+03  0.18290674266E+03  0.00000000000E+00 0. -1.
         23    2    1    2    0    0 -0.18663620995E+03 -0.13009182555E+03  0.14597649767E+03  0.29784814267E+03  0.12508964899E+03 0.  0.
          5    1    3    3  502    0 -0.26271059669E+02  0.21458474227E+02  0.41265396310E+02  0.53581153635E+02  0.41800000000E+01 0.  1.
         -5    1    3    3    0  502 -0.16036515028E+03 -0.15155029977E+03  0.10471110136E+03  0.24426698904E+03  0.41800000000E+01 0.  1.
        -11    1    1    2    0    0  0.70469465978E+02  0.27050158705E+02  0.49137802336E+02  0.90067643134E+02  0.00000000000E+00 0.  1.
         11    1    1    2    0    0  0.11616674397E+03  0.10304166684E+03 -0.16822112002E+02  0.15618988751E+03  0.00000000000E+00 0. -1.
</event>
<event>
 7    1  0.6992302E-006  0.1539211E+03  0.7561462E-02  0.1195736E+00
          1   -1    0    0  501    0  0.00000000000E+00  0.00000000000E+00  0.87286547684E+03  0.87286547684E+03  0.00000000000E+00 0. -1.
         -1   -1    0    0    0  501 -0.00000000000E+00 -0.00000000000E+00 -0.29656315717E+02  0.29656315717E+02  0.00000000000E+00 0.  1.
         23    2    1    2    0    0 -0.11801282392E+03 -0.55335779595E+01  0.43438926944E+03  0.46722529899E+03  0.12509114885E+03 0.  0.
          5    1    3    3  502    0 -0.11785420718E+03 -0.49129243517E+02  0.33860203557E+03  0.36190068749E+03  0.41800000000E+01 0. -1.
         -5    1    3    3    0  502 -0.15861674430E+00  0.43595665558E+02  0.95787233872E+02  0.10532461150E+03  0.41800000000E+01 0. -1.
        -11    1    1    2    0    0 -0.50814552358E+01  0.11997887244E+02  0.65863435009E+01  0.14599671447E+02  0.00000000000E+00 0.  1.
         11    1    1    2    0    0  0.12309427916E+03 -0.64643092847E+01  0.40223354818E+03  0.42069682212E+03  0.00000000000E+00 0. -1.
</event>
<event>
 7    1  0.6992302E-006  0.1133312E+03  0.7561462E-02  0.1254522E+00
          2   -1    0    0  501    0  0.00000000000E+00  0.00000000000E+00  0.51161894807E+03  0.51161894807E+03  0.00000000000E+00 0. -1.
         -2   -1    0    0    0  501 -0.00000000000E+00 -0.00000000000E+00 -0.30779957430E+02  0.30779957430E+02  0.00000000000E+00 0.  1.
         23    2    1    2    0    0 -0.62982708752E+02 -0.17103049242E+02  0.23763317567E+03  0.27636120246E+03  0.12508657861E+03 0.  0.
          5    1    3    3  502    0 -0.64112382133E+02  0.44295204699E+02  0.11259686715E+03  0.13699631234E+03  0.41800000000E+01 0. -1.
         -5    1    3    3    0  502  0.11296733812E+01 -0.61398253941E+02  0.12503630852E+03  0.13936489011E+03  0.41800000000E+01 0. -1.
        -11    1    1    2    0    0  0.23099725047E+02  0.36131023218E+02  0.19886823614E+03  0.20343948359E+03  0.00000000000E+00 0. -1.
         11    1    1    2    0    0  0.39882983705E+02 -0.19027973976E+02  0.44337578823E+02  0.62598219453E+02  0.00000000000E+00 0.  1.
</event>
<event>
 7    1  0.6992302E-006  0.9888497E+02  0.7561462E-02  0.1282658E+00
          2   -1    0    0  501    0  0.00000000000E+00  0.00000000000E+00  0.29025507161E+03  0.29025507161E+03  0.00000000000E+00 0. -1.
         -2   -1    0    0    0  501 -0.00000000000E+00 -0.00000000000E+00 -0.47822233842E+02  0.47822233842E+02  0.00000000000E+00 0.  1.
         23    2    1    2    0    0 -0.26869299388E+02  0.70471107878E+01  0.92017023281E+02  0.15775899477E+03  0.12509655006E+03 0.  0.
          5    1    3    3  502    0 -0.64611218767E+02 -0.53625845239E+01  0.97780663898E+02  0.11739632676E+03  0.41800000000E+01 0.  1.
         -5    1    3    3    0  502  0.37741919379E+02  0.12409695312E+02 -0.57636406168E+01  0.40362668015E+02  0.41800000000E+01 0.  1.
        -11    1    1    2    0    0 -0.30079654060E+02 -0.17722014624E+02  0.90354182663E+02  0.96864512157E+02  0.00000000000E+00 0. -1.
         11    1    1    2    0    0  0.56948953448E+02  0.10674903837E+02  0.60061631823E+02  0.83453798524E+02  0.00000000000E+00 0.  1.
</event>
<event>
 6    1  0.6992302E-006  0.1168162E+03  0.7561462E-02  0.1248444E+00
          2   -1    0    0  501    0  0.00000000000E+00  0.00000000000E+00  0.61568205666E+03  0.61568205666E+03  0.00000000000E+00 0. -1.
         -2   -1    0    0    0  501 -0.00000000000E+00 -0.00000000000E+00 -0.37896346814E+02  0.37896346814E+02  0.00000000000E+00 0.  1.
          5    1    1    2  502    0  0.35745596510E+02 -0.82927107916E+01  0.15954581754E+03  0.16376463909E+03  0.41800000000E+01 0. -1.
         -5    1    1    2    0  502 -0.46402465827E+02 -0.69511719677E+02  0.37133532330E+02  0.91550202789E+02  0.41800000000E+01 0.  1.
        -11    1    1    2    0    0  0.12075675484E+02 -0.15530769865E+02  0.39426099798E+02  0.44061821300E+02  0.00000000000E+00 0.  1.
         11    1    1    2    0    0 -0.14188061666E+01  0.93335200334E+02  0.34168026018E+03  0.35420174029E+03  0.00000000000E+00 0. -1.
</event>
<event>
 6    1  0.6992302E-006  0.1424473E+03  0.7561462E-02  0.1210073E+00
          2   -1    0    0  501    0  0.00000000000E+00  0.00000000000E+00  0.67883758003E+02  0.67883758003E+02  0.00000000000E+00 0. -1.
         -2   -1    0    0    0  501 -0.00000000000E+00 -0.00000000000E+00 -0.75919013177E+03  0.75919013177E+03  0.00000000000E+00 0.  1.
          5    1    1    2  502    0  0.10272402638E+03 -0.29747026562E+02 -0.41822952923E+02  0.11490754099E+03  0.41800000000E+01 0. -1.
         -5    1    1    2    0  502 -0.70079375330E+02 -0.11475355833E+02 -0.56592413262E+03  0.57037741796E+03  0.41800000000E+01 0.  1.
        -11    1    1    2    0    0 -0.64105428803E+02  0.15146230734E+02 -0.25157269517E+02  0.70511009899E+02  0.00000000000E+00 0.  1.
         11    1    1    2    0    0  0.31460777754E+02  0.26076151662E+02 -0.58402018708E+02  0.71277920926E+02  0.00000000000E+00 0. -1.
</event>
<event>
 7    1  0.6992302E-006  0.8215803E+02  0.7561462E-02  0.1323036E+00
          1   -1    0    0  501    0  0.00000000000E+00  0.00000000000E+00  0.11840265381E+03  0.11840265381E+03  0.00000000000E+00 0. -1.
         -1   -1    0    0    0  501 -0.00000000000E+00 -0.00000000000E+00 -0.15600522305E+03  0.15600522305E+03  0.00000000000E+00 0.  1.
         23    2    1    2    0    0  0.15039738539E+02  0.18670552933E+02 -0.10174146416E+03  0.16301653407E+03  0.12509309161E+03 0.  0.
          5    1    3    3  502    0  0.66620805609E+02  0.28220214124E+02 -0.73802039968E+02  0.10343561151E+03  0.41800000000E+01 0.  1.
         -5    1    3    3    0  502 -0.51581067070E+02 -0.95496611918E+01 -0.27939424192E+02  0.59580922561E+02  0.41800000000E+01 0.  1.
        -11    1    1    2    0    0 -0.19642677370E+02  0.35487438558E+00 -0.18186160154E+02  0.26771199660E+02  0.00000000000E+00 0.  1.
         11    1    1    2    0    0  0.46029388313E+01 -0.19025427318E+02  0.82325055072E+02  0.84620143128E+02  0.00000000000E+00 0. -1.
</event>
<event>
 7    1  0.6992302E-006  0.8361065E+02  0.7561462E-02  0.1319106E+00
          2   -1    0    0  501    0  0.00000000000E+00  0.00000000000E+00  0.26329653266E+03  0.26329653266E+03  0.00000000000E+00 0. -1.
         -2   -1    0    0    0  501 -0.00000000000E+00 -0.00000000000E+00 -0.47795776216E+02  0.47795776216E+02  0.00000000000E+00 0.  1.
         23    2    1    2    0    0  0.13974819067E+02  0.26181800983E+02  0.12969405157E+03  0.18261700012E+03  0.12509052501E+03 0.  0.
          5    1    3    3  502    0 -0.54851850677E+02  0.18956244387E+01  0.63014791282E+02  0.83669918341E+02  0.41800000000E+01 0.  1.
         -5    1    3    3    0  502  0.68826669744E+02  0.24286176545E+02  0.66679260293E+02  0.98947081778E+02  0.41800000000E+01 0.  1.
        -11    1    1    2    0    0  0.41251412072E+01 -0.19255504740E+02 -0.15668968020E+02  0.25165607713E+02  0.00000000000E+00 0.  1.
         11    1    1    2    0    0 -0.18099960274E+02 -0.69262962439E+01  0.10147567289E+03  0.10330970104E+03  0.00000000000E+00 0. -1.
</event>
<event>
 7    1  0.6992302E-006  0.1094773E+03  0.7561462E-02  0.1261541E+00
          4   -1    0    0  501    0  0.00000000000E+00  0.00000000000E+00  0.27604851590E+03  0.27604851590E+03  0.00000000000E+00 0. -1.
         -4   -1    0    0    0  501 -0.00000000000E+00 -0.00000000000E+00 -0.11366334811E+03  0.11366334811E+03  0.00000000000E+00 0.  1.
         23    2    1    2    0    0 -0.34785111827E+02  0.59993901821E+02 -0.47122456427E+02  0.15059053182E+03  0.12509080747E+03 0.  0.
          5    1    3    3  502    0 -0.54089008428E+02  0.88964495770E+02 -0.19627864208E+02  0.10603314479E+03  0.41800000000E+01 0.  1.
         -5    1    3    3    0  502  0.19303896601E+02 -0.28970593950E+02 -0.27494592219E+02  0.44557387032E+02  0.41800000000E+01 0.  1.
        -11    1    1    2    0    0 -0.46060496798E+01 -0.29549539460E+02  0.71766130926E+01  0.30755401988E+02  0.00000000000E+00 0.  1.
         11    1    1    2    0    0  0.39391161507E+02 -0.30444362361E+02  0.20233101112E+03  0.20836593020E+03  0.00000000000E+00 0. -1.
</event>
<event>
 7    1  0.6992302E-006  0.1249620E+03  0.7561462E-02  0.1235129E+00
          1   -1    0    0  501    0  0.00000000000E+00  0.00000000000E+00  0.23705972743E+03  0.23705972743E+03  0.00000000000E+00 0. -1.
         -1   -1    0    0    0  501 -0.00000000000E+00 -0.00000000000E+00 -0.86587299017E+02  0.86587299017E+02  0.00000000000E+00 0.  1.
         23    2    1    2    0    0 -0.71223304001E+02 -0.47936158378E+02  0.23327648892E+02  0.15350755189E+03  0.12509898070E+03 0.  0.
          5    1    3    3  502    0 -0.10220902925E+03 -0.57408202971E+02  0.27749445790E+02  0.12053999988E+03  0.41800000000E+01 0. -1.
         -5    1    3    3    0  502  0.30985725249E+02  0.94720445934E+01 -0.44217968981E+01  0.32967552014E+02  0.41800000000E+01 0. -1.
        -11    1    1    2    0    0  0.58705975195E+02  0.94252153808E+01  0.11219068524E+03  0.12697234369E+03  0.00000000000E+00 0. -1.
         11    1    1    2    0    0  0.12517328806E+02  0.38510942997E+02  0.14954094278E+02  0.43167130859E+02  0.00000000000E+00 0.  1.
</event>
<event>
 7    1  0.6992302E-006  0.1341630E+03  0.7561462E-02  0.1221406E+00
         -2   -1    0    0    0  501 -0.00000000000E+00  0.00000000000E+00  0.53783930367E+02  0.53783930367E+02  0.00000000000E+00 0.  1.
          2   -1    0    0  501    0  0.00000000000E+00 -0.00000000000E+00 -0.50147270255E+03  0.50147270255E+03  0.00000000000E+00 0. -1.
         23    2    1    2    0    0  0.21588903202E+02  0.91537762092E+02 -0.10574199705E+03  0.18887903418E+03  0.12509467208E+03 0.  0.
          5    1    3    3  502    0  0.22497528050E+02  0.11647601058E+03 -0.52227225253E+02  0.12968405942E+03  0.41800000000E+01 0. -1.
         -5    1    3    3    0  502 -0.90862484821E+00 -0.24938248489E+02 -0.53514771799E+02  0.59194974766E+02  0.41800000000E+01 0. -1.
        -11    1    1    2    0    0 -0.51281480811E+02 -0.73357366377E+02 -0.18368327525E+03  0.20432973127E+03  0.00000000000E+00 0.  1.
         11    1    1    2    0    0  0.29692577609E+02 -0.18180395715E+02 -0.15826349988E+03  0.16204786746E+03  0.00000000000E+00 0. -1.
</event>
<event>
 7    1  0.6992302E-006  0.1156809E+03  0.7561462E-02  0.1250397E+00
         -1   -1    0    0    0  501 -0.00000000000E+00  0.00000000000E+00  0.35028860636E+02  0.35028860636E+02  0.00000000000E+00 0.  1.
          1   -1    0    0  501    0  0.00000000000E+00 -0.00000000000E+00 -0.44015949857E+03  0.44015949857E+03  0.00000000000E+00 0. -1.
         23    2    1    2    0    0 -0.32043384539E+02 -0.29796113562E+02 -0.14636565176E+03  0.19744764173E+03  0.12509228727E+03 0.  0.
          5    1    3    3  502    0  0.46796304747E+02 -0.14063894586E+01 -0.38272299845E+02  0.60614465309E+02  0.41800000000E+01 0. -1.
         -5    1    3    3    0  502 -0.78839689286E+02 -0.28389724103E+02 -0.10809335192E+03  0.13683317643E+03  0.41800000000E+01 0. -1.
        -11    1    1    2    0    0 -0.27074923331E+02  0.31217792535E+02 -0.11939815831E+03  0.12634683317E+03  0.00000000000E+00 0. -1.
         11    1    1    2    0    0  0.59118307870E+02 -0.14216789736E+01 -0.13936682786E+03  0.15139388430E+03  0.00000000000E+00 0.  1.
</event>
<event>
 7    1  0.6992302E-006  0.9198322E+02  0.7561462E-02  0.1298119E+00
          2   -1    0    0  501    0  0.00000000000E+00  0.00000000000E+00  0.46654255516E+03  0.46654255516E+03  0.00000000000E+00 0.  1.
         -2   -1    0    0    0  501 -0.00000000000E+00 -0.00000000000E+00 -0.30065088067E+02  0.30065088067E+02  0.00000000000E+00 0. -1.
         23    2    1    2    0    0 -0.51101176105E+02 -0.32100327273E+01  0.23114089884E+03  0.26776012871E+03  0.12509091455E+03 0.  0.
          5    1    3    3  502    0 -0.71642205302E+02  0.86345069315E+01  0.57242030828E+02  0.92202401183E+02  0.41800000000E+01 0.  1.
         -5    1    3    3    0  502  0.20541029197E+02 -0.11844539659E+02  0.17389886801E+03  0.17555772753E+03  0.41800000000E+01 0.  1.
        -11    1    1    2    0    0 -0.17674915557E+02  0.62954673915E+01  0.10804160578E+03  0.10965867102E+03  0.00000000000E+00 0.  1.
         11    1    1    2    0    0  0.68776091662E+02 -0.30854346642E+01  0.97294962472E+02  0.11918884350E+03  0.00000000000E+00 0. -1.
</event>
<event>
 7    1  0.6992302E-006  0.9807798E+02  0.7561462E-02  0.1284390E+00
         -2   -1    0    0    0  501 -0.00000000000E+00  0.00000000000E+00  0.34263343057E+03  0.34263343057E+03  0.00000000000E+00 0.  1.
          2   -1    0    0  501    0  0.00000000000E+00 -0.00000000000E+00 -0.60561072823E+02  0.60561072823E+02  0.00000000000E+00 0. -1.
         23    2    1    2    0    0  0.54215549683E+02  0.44805669075E+02  0.23785041492E+03  0.27779167031E+03  0.12509403825E+03 0.  0.
          5    1    3    3  502    0  0.78029796403E+02  0.15998884819E+02  0.71096840753E+02  0.10684964486E+03  0.41800000000E+01 0.  1.
         -5    1    3    3    0  502 -0.23814246720E+02  0.28806784256E+02  0.16675357417E+03  0.17094202545E+03  0.41800000000E+01 0.  1.
        -11    1    1    2    0    0 -0.10635620561E+02  0.57074464421E+01  0.56321433208E+02  0.57600305626E+02  0.00000000000E+00 0.  1.
         11    1    1    2    0    0 -0.43579929121E+02 -0.50513115517E+02 -0.12099490388E+02  0.67802527453E+02  0.00000000000E+00 0. -1.
</event>
<event>
 7    1  0.6992302E-006  0.1456563E+03  0.7561462E-02  0.1205914E+00
          2   -1    0    0  501    0  0.00000000000E+00  0.00000000000E+00  0.51163088436E+03  0.51163088436E+03  0.00000000000E+00 0. -1.
         -2   -1    0    0    0  501 -0.00000000000E+00 -0.00000000000E+00 -0.78112179458E+02  0.78112179458E+02  0.00000000000E+00 0.  1.
         23    2    1    2    0    0  0.10780352879E+03 -0.87379508898E+02  0.88819607852E+02  0.20686450750E+03  0.12508885773E+03 0.  0.
          5    1    3    3  502    0  0.33826591542E+02 -0.16842167665E+02  0.97051688233E+02  0.10423243015E+03  0.41800000000E+01 0.  1.
         -5    1    3    3    0  502  0.73976937244E+02 -0.70537341233E+02 -0.82320803809E+01  0.10263207734E+03  0.41800000000E+01 0.  1.
        -11    1    1    2    0    0 -0.41356623519E+02  0.17346077985E+00  0.18232399064E+03  0.18695571123E+03  0.00000000000E+00 0. -1.
         11    1    1    2    0    0 -0.66446905267E+02  0.87206048118E+02  0.16237510641E+03  0.19592284509E+03  0.00000000000E+00 0.  1.
</event>
<event>
 7    1  0.6992302E-006  0.3144726E+03  0.7561462E-02  0.1078222E+00
         -1   -1    0    0    0  501 -0.00000000000E+00  0.00000000000E+00  0.22092716660E+03  0.22092716660E+03  0.00000000000E+00 0.  1.
          1   -1    0    0  501    0  0.00000000000E+00 -0.00000000000E+00 -0.58147299319E+03  0.58147299319E+03  0.00000000000E+00 0. -1.
         23    2    1    2    0    0 -0.29849322799E+03 -0.74638496230E+02 -0.18598727929E+02  0.33266018501E+03  0.12509106176E+03 0.  0.
          5    1    3    3  502    0 -0.90179631881E+02 -0.39301426328E+02  0.50060331526E+02  0.11045577083E+03  0.41800000000E+01 0. -1.
         -5    1    3    3    0  502 -0.20831359611E+03 -0.35337069902E+02 -0.68659059455E+02  0.22220441418E+03  0.41800000000E+01 0. -1.
        -11    1    1    2    0    0  0.28134281073E+03  0.45011039006E+02 -0.32264032779E+03  0.43043762835E+03  0.00000000000E+00 0. -1.
         11    1    1    2    0    0  0.17150417262E+02  0.29627457224E+02 -0.19306770863E+02  0.39302346431E+02  0.00000000000E+00 0.  1.
</event>
<event>
 7    1  0.6992302E-006  0.2154507E+03  0.7561462E-02  0.1137321E+00
          2   -1    0    0  501    0  0.00000000000E+00  0.00000000000E+00  0.67453240701E+03  0.67453240701E+03  0.00000000000E+00 0.  1.
         -2   -1    0    0    0  501 -0.00000000000E+00 -0.00000000000E+00 -0.72922369210E+02  0.72922369210E+02  0.00000000000E+00 0. -1.
         23    2    1    2    0    0 -0.15344543880E+03 -0.11308888080E+03  0.26492970989E+03  0.34952836522E+03  0.12509088402E+03 0.  0.
          5    1    3    3  502    0 -0.17469197698E+03 -0.10043793494E+03  0.22227811098E+03  0.30005015684E+03  0.41800000000E+01 0. -1.
         -5    1    3    3    0  502  0.21246538179E+02 -0.12650945863E+02  0.42651598906E+02  0.49478208385E+02  0.41800000000E+01 0. -1.
        -11    1    1    2    0    0  0.15031196881E+02  0.49904030708E+02  0.13914231922E+03  0.14858308840E+03  0.00000000000E+00 0.  1.
         11    1    1    2    0    0  0.13841424192E+03  0.63184850091E+02  0.19753800870E+03  0.24934332261E+03  0.00000000000E+00 0. -1.
</event>
<event>
 7    1  0.6992302E-006  0.2228564E+03  0.7561462E-02  0.1131771E+00
         -2   -1    0    0    0  501 -0.00000000000E+00  0.00000000000E+00  0.72639106763E+03  0.72639106763E+03  0.00000000000E+00 0. -1.
          2   -1    0    0  501    0  0.00000000000E+00 -0.00000000000E+00 -0.71616503430E+02  0.71616503430E+02  0.00000000000E+00 0.  1.
         23    2    1    2    0    0 -0.11243882256E+03 -0.16237162446E+03  0.40113298778E+03  0.46428633814E+03  0.12508835539E+03 0.  0.
          5    1    3    3  502    0 -0.12912598181E+03 -0.93867526526E+02  0.23906813839E+03  0.28749900680E+03  0.41800000000E+01 0. -1.
         -5    1    3    3    0  502  0.16687159253E+02 -0.68504097937E+02  0.16206484938E+03  0.17678733134E+03  0.41800000000E+01 0. -1.
        -11    1    1    2    0    0 -0.14348760701E+02  0.12055505487E+02  0.34668800729E+02  0.39409997338E+02  0.00000000000E+00 0. -1.
         11    1    1    2    0    0  0.12678758326E+03  0.15031611898E+03  0.21897277570E+03  0.29431123558E+03  0.00000000000E+00 0.  1.
</event>
<event>
 7    1  0.6992302E-006  0.1108489E+03  0.7561462E-02  0.1259006E+00
         -2   -1    0    0    0  501 -0.00000000000E+00  0.00000000000E+00  0.88008551646E+02  0.88008551646E+02  0.00000000000E+00 0.  1.
          2   -1    0    0  501    0  0.00000000000E+00 -0.00000000000E+00 -0.23613305190E+03  0.23613305190E+03  0.00000000000E+00 0. -1.
         23    2    1    2    0    0  0.16018068227E+02  0.81984996193E+02 -0.32215756999E+02  0.15382557148E+03  0.12508530422E+03 0.  0.
          5    1    3    3  502    0  0.27659183598E+02  0.99703811304E+02  0.12359644636E+02  0.10428860744E+03  0.41800000000E+01 0.  1.
         -5    1    3    3    0  502 -0.11641115371E+02 -0.17718815111E+02 -0.44575401635E+02  0.49536964046E+02  0.41800000000E+01 0.  1.
        -11    1    1    2    0    0 -0.33160647118E+02 -0.46343778917E+02 -0.10783074093E+02  0.57996974477E+02  0.00000000000E+00 0.  1.
         11    1    1    2    0    0  0.17142578891E+02 -0.35641217276E+02 -0.10512566916E+03  0.11231905758E+03  0.00000000000E+00 0. -1.
</event>
<event>
 7    1  0.6992302E-006  0.2007437E+03  0.7561462E-02  0.1149113E+00
         -2   -1    0    0    0  501 -0.00000000000E+00  0.00000000000E+00  0.14128709642E+03  0.14128709642E+03  0.00000000000E+00 0. -1.
          2   -1    0    0  501    0  0.00000000000E+00 -0.00000000000E+00 -0.42951282851E+03  0.42951282851E+03  0.00000000000E+00 0.  1.
         23    2    1    2    0    0  0.15741259554E+03 -0.11734788156E+03 -0.31331648501E+02  0.23490290203E+03  0.12509376740E+03 0.  0.
          5    1    3    3  502    0  0.59021097462E+02 -0.67549527615E+02 -0.74225651937E+02  0.11650471421E+03  0.41800000000E+01 0. -1.
         -5    1    3    3    0  502  0.98391498074E+02 -0.49798353949E+02  0.42894003436E+02  0.11839818782E+03  0.41800000000E+01 0. -1.
        -11    1    1    2    0    0 -0.21673093472E+01  0.15523533633E+02  0.35321888995E+01  0.16067161687E+02  0.00000000000E+00 0. -1.
         11    1    1    2    0    0 -0.15524528619E+03  0.10182434793E+03 -0.26042627249E+03  0.31982986121E+03  0.00000000000E+00 0.  1.
</event>
<event>
 7    1  0.6992302E-006  0.1191105E+03  0.7561462E-02  0.1244572E+00
          2   -1    0    0  501    0  0.00000000000E+00  0.00000000000E+00  0.16311213469E+03  0.16311213469E+03  0.00000000000E+00 0. -1.
         -2   -1    0    0    0  501 -0.00000000000E+00 -0.00000000000E+00 -0.17922509134E+03  0.17922509134E+03  0.00000000000E+00 0.  1.
         23    2    1    2    0    0  0.94413387431E+02  0.30488146291E+02 -0.96778232272E+02  0.18669977956E+03  0.12508943462E+03 0.  0.
          5    1    3    3  502    0  0.73603490199E+02  0.60457879743E+02 -0.14291647370E+02  0.96407222639E+02  0.41800000000E+01 0.  1.
         -5    1    3    3    0  502  0.20809897232E+02 -0.29969733452E+02 -0.82486584902E+02  0.90292556918E+02  0.41800000000E+01 0.  1.
        -11    1    1    2    0    0 -0.53314238711E+02 -0.36508648653E+02 -0.32411813879E+00  0.64617292797E+02  0.00000000000E+00 0.  1.
         11    1    1    2    0    0 -0.41099148720E+02  0.60205023617E+01  0.80989393757E+02  0.91020153676E+02  0.00000000000E+00 0. -1.
</event>
<event>
 7    1  0.6992302E-006  0.1236636E+03  0.7561462E-02  0.1237173E+00
         -2   -1    0    0    0  501 -0.00000000000E+00  0.00000000000E+00  0.69705331605E+02  0.69705331605E+02  0.00000000000E+00 0.  1.
          2   -1    0    0  501    0  0.00000000000E+00 -0.00000000000E+00 -0.36364031084E+03  0.36364031084E+03  0.00000000000E+00 0. -1.
         23    2    1    2    0    0 -0.41203925189E+02  0.68588386707E+02 -0.43265457260E+02  0.15466729420E+03  0.12509173379E+03 0.  0.
          5    1    3    3  502    0 -0.50069064261E+02 -0.19058113376E+02  0.52821566842E+01  0.53995337398E+02  0.41800000000E+01 0. -1.
         -5    1    3    3    0  502  0.88651390724E+01  0.87646500083E+02 -0.48547613944E+02  0.10067195681E+03  0.41800000000E+01 0. -1.
        -11    1    1    2    0    0 -0.15508561352E+02 -0.37821230800E+02 -0.35823663412E+02  0.54353434433E+02  0.00000000000E+00 0.  1.
         11    1    1    2    0    0  0.56712486542E+02 -0.30767155907E+02 -0.21484585856E+03  0.22432491381E+03  0.00000000000E+00 0. -1.
</event>
<event>
 7    1  0.6992302E-006  0.9292743E+02  0.7561462E-02  0.1295913E+00
          2   -1    0    0  501    0  0.00000000000E+00  0.00000000000E+00  0.14609959443E+03  0.14609959443E+03  0.00000000000E+00 0. -1.
         -2   -1    0    0    0  501 -0.00000000000E+00 -0.00000000000E+00 -0.97721160209E+02  0.97721160209E+02  0.00000000000E+00 0.  1.
         23    2    1    2    0    0 -0.44726769579E+02 -0.13907008729E+02  0.10095705189E+02  0.13395440174E+03  0.12509184495E+03 0.  0.
          5    1    3    3  502    0  0.57827298174E+01 -0.48781962876E+02 -0.32568001248E+02  0.59086944171E+02  0.41800000000E+01 0.  1.
         -5    1    3    3    0  502 -0.50509499396E+02  0.34874954147E+02  0.42663706437E+02  0.74867457569E+02  0.41800000000E+01 0.  1.
        -11    1    1    2    0    0  0.35100174370E+02 -0.19577691397E+02 -0.17709154724E+02  0.43919499112E+02  0.00000000000E+00 0.  1.
         11    1    1    2    0    0  0.96265952090E+01  0.33484700126E+02  0.55991883758E+02  0.65946853789E+02  0.00000000000E+00 0. -1.
</event>
<event>
 7    1  0.6992302E-006  0.6363569E+02  0.7561462E-02  0.1383178E+00
          4   -1    0    0  501    0  0.00000000000E+00  0.00000000000E+00  0.57327581601E+02  0.57327581601E+02  0.00000000000E+00 0. -1.
         -4   -1    0    0    0  501 -0.00000000000E+00 -0.00000000000E+00 -0.10721813627E+03  0.10721813627E+03  0.00000000000E+00 0.  1.
         23    2    1    2    0    0  0.17689752499E+02 -0.20344043490E+02 -0.49224945679E+02  0.12648316213E+03  0.11334940483E+03 0.  0.
          5    1    3    3  502    0 -0.31529194625E+02  0.12437796078E+02  0.16536784516E+02  0.37943728429E+02  0.41800000000E+01 0. -1.
         -5    1    3    3    0  502  0.49218947123E+02 -0.32781839569E+02 -0.65761730195E+02  0.88539433699E+02  0.41800000000E+01 0.  1.
        -11    1    1    2    0    0 -0.78461228037E+01  0.22440077188E+02 -0.85652771523E+01  0.25268214815E+02  0.00000000000E+00 0. -1.
         11    1    1    2    0    0 -0.98436296949E+01 -0.20960336975E+01  0.78996681585E+01  0.12794340931E+02  0.00000000000E+00 0.  1.
</event>
<event>
 7    1  0.6992302E-006  0.1044736E+03  0.7561462E-02  0.1271160E+00
          2   -1    0    0  501    0  0.00000000000E+00  0.00000000000E+00  0.74649768062E+02  0.74649768062E+02  0.00000000000E+00 0. -1.
         -2   -1    0    0    0  501 -0.00000000000E+00 -0.00000000000E+00 -0.17753058166E+03  0.17753058166E+03  0.00000000000E+00 0.  1.
         23    2    1    2    0    0 -0.27502541867E+02  0.79555571379E+01 -0.87122328647E+02  0.15510517412E+03  0.12509050400E+03 0.  0.
          5    1    3    3  502    0  0.29968163849E+02  0.46869517604E+02 -0.55594564077E+02  0.78759573893E+02  0.41800000000E+01 0. -1.
         -5    1    3    3    0  502 -0.57470705716E+02 -0.38913960466E+02 -0.31527764570E+02  0.76345600224E+02  0.41800000000E+01 0. -1.
        -11    1    1    2    0    0  0.50836353437E+02  0.12772710958E+02 -0.32483205460E+02  0.61665513968E+02  0.00000000000E+00 0.  1.
         11    1    1    2    0    0 -0.23333811570E+02 -0.20728268096E+02  0.16724720514E+02  0.35409661632E+02  0.00000000000E+00 0. -1.
</event>
<event>
 7    1  0.6992302E-006  0.2180386E+03  0.7561462E-02  0.1135354E+00
         -1   -1    0    0    0  501 -0.00000000000E+00  0.00000000000E+00  0.56161996894E+02  0.56161996894E+02  0.00000000000E+00 0.  1.
          1   -1    0    0  501    0  0.00000000000E+00 -0.00000000000E+00 -0.99789198575E+03  0.99789198575E+03  0.00000000000E+00 0. -1.
         23    2    1    2    0    0  0.19833956049E+03 -0.65509613896E+02 -0.51217011412E+03  0.56709839903E+03  0.12510906289E+03 0.  0.
          5    1    3    3  502    0  0.69202075431E+02 -0.12545676186E+02 -0.55894481446E+02  0.89933234630E+02  0.41800000000E+01 0. -1.
         -5    1    3    3    0  502  0.12913748506E+03 -0.52963937710E+02 -0.45627563268E+03  0.47716516440E+03  0.41800000000E+01 0. -1.
        -11    1    1    2    0    0 -0.11944714418E+03  0.82646207575E+02 -0.23439335224E+03  0.27575035712E+03  0.00000000000E+00 0. -1.
         11    1    1    2    0    0 -0.78892416311E+02 -0.17136593679E+02 -0.19516652249E+03  0.21120522649E+03  0.00000000000E+00 0.  1.
</event>
<event>
 7    1  0.6992302E-006  0.1157311E+03  0.7561462E-02  0.1250310E+00
          1   -1    0    0  501    0  0.00000000000E+00  0.00000000000E+00  0.35551448983E+03  0.35551448983E+03  0.00000000000E+00 0. -1.
         -1   -1    0    0    0  501 -0.00000000000E+00 -0.00000000000E+00 -0.81254859323E+02  0.81254859323E+02  0.00000000000E+00 0.  1.
         23    2    1    2    0    0 -0.10490684467E+03  0.12794309885E+02  0.46938698522E+02  0.17035094777E+03  0.12508822312E+03 0.  0.
          5    1    3    3  502    0 -0.51886439551E+02  0.11286784001E+02  0.88189741244E+02  0.10302668083E+03  0.41800000000E+01 0. -1.
         -5    1    3    3    0  502 -0.53020405123E+02  0.15075258842E+01 -0.41251042722E+02  0.67324266943E+02  0.41800000000E+01 0. -1.
        -11    1    1    2    0    0  0.38901110817E+02  0.27517277134E+02  0.34982949805E+02  0.59112636049E+02  0.00000000000E+00 0.  1.
         11    1    1    2    0    0  0.66005733858E+02 -0.40311587019E+02  0.19233798218E+03  0.20730576533E+03  0.00000000000E+00 0. -1.
</event>
<event>
 7    1  0.6992302E-006  0.1262369E+03  0.7561462E-02  0.1233149E+00
          2   -1    0    0  501    0  0.00000000000E+00  0.00000000000E+00  0.45774850153E+03  0.45774850153E+03  0.00000000000E+00 0. -1.
         -2   -1    0    0    0  501 -0.00000000000E+00 -0.00000000000E+00 -0.50597285034E+02  0.50597285034E+02  0.00000000000E+00 0.  1.
         23    2    1    2    0    0 -0.98375996524E+02  0.67813170447E+01  0.15586251591E+03  0.22285091698E+03  0.12508231042E+03 0.  0.
          5    1    3    3  502    0 -0.11910283271E+02  0.35496717358E+02  0.11840407256E+03  0.12425324378E+03  0.41800000000E+01 0.  1.
         -5    1    3    3    0  502 -0.86465713253E+02 -0.28715400314E+02  0.37458443357E+02  0.98597673209E+02  0.41800000000E+01 0.  1.
        -11    1    1    2    0    0  0.35431541251E+02 -0.39160419582E+02  0.52441747176E+02  0.74424924750E+02  0.00000000000E+00 0.  1.
         11    1    1    2    0    0  0.62944455273E+02  0.32379102537E+02  0.19884695340E+03  0.21106994482E+03  0.00000000000E+00 0. -1.
</event>
<event>
 7    1  0.6992302E-006  0.9927347E+02  0.7561462E-02  0.1281831E+00
         -1   -1    0    0    0  501 -0.00000000000E+00  0.00000000000E+00  0.61559551785E+02  0.61559551785E+02  0.00000000000E+00 0. -1.
          1   -1    0    0  501    0  0.00000000000E+00 -0.00000000000E+00 -0.25039529878E+03  0.25039529878E+03  0.00000000000E+00 0.  1.
         23    2    1    2    0    0  0.19742933606E+02 -0.32716622891E+02 -0.46496897215E+02  0.13881323505E+03  0.12508793681E+03 0.  0.
          5    1    3    3  502    0 -0.20847069635E+02 -0.56046457869E+02  0.14630757374E+02  0.61703623989E+02  0.41800000000E+01 0. -1.
         -5    1    3    3    0  502  0.40590003240E+02  0.23329834978E+02 -0.61127654589E+02  0.77109611066E+02  0.41800000000E+01 0. -1.
        -11    1    1    2    0    0  0.18808024912E+02 -0.19238210218E+02 -0.16268985744E+02  0.31440903782E+02  0.00000000000E+00 0.  1.
         11    1    1    2    0    0 -0.38550958518E+02  0.51954833109E+02 -0.12606986403E+03  0.14170071172E+03  0.00000000000E+00 0. -1.
</event>
<event>
 7    1  0.6992302E-006  0.1175765E+03  0.7561462E-02  0.1247149E+00
         -1   -1    0    0    0  501 -0.00000000000E+00  0.00000000000E+00  0.32006888727E+02  0.32006888727E+02  0.00000000000E+00 0.  1.
          1   -1    0    0  501    0  0.00000000000E+00 -0.00000000000E+00 -0.56532680970E+03  0.56532680970E+03  0.00000000000E+00 0. -1.
         23    2    1    2    0    0 -0.79461810474E+02  0.14391932301E+02 -0.26961293708E+03  0.30799402185E+03  0.12509146502E+03 0.  0.
          5    1    3    3  502    0 -0.83006142109E+02 -0.16985550966E+02 -0.82993212603E+02  0.11867550003E+03  0.41800000000E+01 0. -1.
         -5    1    3    3    0  502  0.35443316348E+01  0.31377483267E+02 -0.18661972447E+03  0.18931852182E+03  0.41800000000E+01 0. -1.
        -11    1    1    2    0    0  0.98506634819E+02 -0.13230225261E+02 -0.20971241090E+03  0.23207302999E+03  0.00000000000E+00 0. -1.
         11    1    1    2    0    0 -0.19044824345E+02 -0.11617070399E+01 -0.53994572992E+02  0.57266646577E+02  0.00000000000E+00 0.  1.
</event>
<event>
 7    1  0.6992302E-006  0.1429025E+03  0.7561462E-02  0.1209476E+00
         -1   -1    0    0    0  501 -0.00000000000E+00  0.00000000000E+00  0.47894770617E+03  0.47894770617E+03  0.00000000000E+00 0.  1.
          1   -1    0    0  501    0  0.00000000000E+00 -0.00000000000E+00 -0.51181524190E+03  0.51181524190E+03  0.00000000000E+00 0. -1.
         23    2    1    2    0    0 -0.39926651418E+02  0.12010729878E+03  0.45085676403E+03  0.48276169354E+03  0.11733341537E+03 0.  0.
          5    1    3    3  502    0 -0.41852051865E+01  0.68976327433E+00  0.22238020190E+03  0.22245992519E+03  0.41800000000E+01 0. -1.
         -5    1    3    3    0  502 -0.35741446231E+02  0.11941753550E+03  0.22847656213E+03  0.26030176835E+03  0.41800000000E+01 0.  1.
        -11    1    1    2    0    0  0.66819673277E+02 -0.10449333834E+03 -0.38228235964E+03  0.40189989921E+03  0.00000000000E+00 0. -1.
         11    1    1    2    0    0 -0.26893021859E+02 -0.15613960438E+02 -0.10144194012E+03  0.10610135532E+03  0.00000000000E+00 0.  1.
</event>
<event>
 7    1  0.6992302E-006  0.1124787E+03  0.7561462E-02  0.1256047E+00
          2   -1    0    0  501    0  0.00000000000E+00  0.00000000000E+00  0.14279199002E+03  0.14279199002E+03  0.00000000000E+00 0. -1.
         -2   -1    0    0    0  501 -0.00000000000E+00 -0.00000000000E+00 -0.18063965050E+03  0.18063965050E+03  0.00000000000E+00 0.  1.
         23    2    1    2    0    0  0.36578133919E+02 -0.40975748039E+02 -0.12712533472E+03  0.18654183926E+03  0.12498013945E+03 0.  0.
          5    1    3    3  502    0  0.54119292808E+02  0.28640806707E+02 -0.38661514907E+02  0.72535362395E+02  0.41800000000E+01 0. -1.
         -5    1    3    3    0  502 -0.17541158888E+02 -0.69616554747E+02 -0.88463819814E+02  0.11400647686E+03  0.41800000000E+01 0. -1.
        -11    1    1    2    0    0 -0.58979938692E+02  0.24519471949E+02  0.28273823068E+02  0.69851605162E+02  0.00000000000E+00 0.  1.
         11    1    1    2    0    0  0.22401804773E+02  0.16456276090E+02  0.61003851165E+02  0.67038196104E+02  0.00000000000E+00 0. -1.
</event>
<event>
 7    1  0.6992302E-006  0.2071940E+03  0.7561462E-02  0.1143808E+00
         -2   -1    0    0    0  501 -0.00000000000E+00  0.00000000000E+00  0.67931299040E+02  0.67931299040E+02  0.00000000000E+00 0.  1.
          2   -1    0    0  501    0  0.00000000000E+00 -0.00000000000E+00 -0.74908244422E+03  0.74908244422E+03  0.00000000000E+00 0. -1.
         23    2    1    2    0    0  0.15798104348E+03  0.10800279973E+03 -0.26787192060E+03  0.35217488255E+03  0.12509663148E+03 0.  0.
          5    1    3    3  502    0  0.19903798638E+02  0.78248403508E+02 -0.13964376897E+03  0.16135931477E+03  0.41800000000E+01 0. -1.
         -5    1    3    3    0  502  0.13807724484E+03  0.29754396223E+02 -0.12822815163E+03  0.19081556778E+03  0.41800000000E+01 0. -1.
        -11    1    1    2    0    0 -0.12765199944E+03 -0.78148644063E+02 -0.21451746998E+03  0.26157214770E+03  0.00000000000E+00 0.  1.
         11    1    1    2    0    0 -0.30329044039E+02 -0.29854155667E+02 -0.19876175460E+03  0.20326671301E+03  0.00000000000E+00 0. -1.
</event>
<event>
 7    1  0.6992302E-006  0.1197234E+03  0.7561462E-02  0.1243554E+00
          1   -1    0    0  501    0  0.00000000000E+00  0.00000000000E+00  0.26779787248E+03  0.26779787248E+03  0.00000000000E+00 0. -1.
         -1   -1    0    0    0  501 -0.00000000000E+00 -0.00000000000E+00 -0.58515385767E+02  0.58515385767E+02  0.00000000000E+00 0.  1.
         23    2    1    2    0    0  0.48466041766E+02  0.35719406958E+02  0.13961807110E+03  0.19689398206E+03  0.12509676716E+03 0.  0.
          5    1    3    3  502    0  0.88794879104E+02  0.71489902123E+01  0.92255977697E+02  0.12831319666E+03  0.41800000000E+01 0.  1.
         -5    1    3    3    0  502 -0.40328837338E+02  0.28570416746E+02  0.47362093407E+02  0.68580785399E+02  0.41800000000E+01 0.  1.
        -11    1    1    2    0    0 -0.28690766491E+02  0.24221540819E+02  0.30822477499E+01  0.37674173816E+02  0.00000000000E+00 0.  1.
         11    1    1    2    0    0 -0.19775275275E+02 -0.59940947777E+02  0.66582167862E+02  0.91745102375E+02  0.00000000000E+00 0. -1.
</event>
<event>
 7    1  0.6992302E-006  0.7976022E+02  0.7561462E-02  0.1329733E+00
         -1   -1    0    0    0  501 -0.00000000000E+00  0.00000000000E+00  0.15455246155E+03  0.15455246155E+03  0.00000000000E+00 0.  1.
          1   -1    0    0  501    0  0.00000000000E+00 -0.00000000000E+00 -0.10974134677E+03  0.10974134677E+03  0.00000000000E+00 0. -1.
         23    2    1    2    0    0  0.17525817938E+02 -0.56540398014E+00  0.94743951612E+02  0.15878506318E+03  0.12620937344E+03 0.  0.
          5    1    3    3  502    0  0.44439088136E+02 -0.32180549440E+02 -0.25314311788E+00  0.55026873417E+02  0.41800000000E+01 0. -1.
         -5    1    3    3    0  502 -0.26913270198E+02  0.31615145459E+02  0.94997094730E+02  0.10375818976E+03  0.41800000000E+01 0.  1.
        -11    1    1    2    0    0 -0.33330511893E+02 -0.18404373484E+02  0.11109509673E+02  0.39661885880E+02  0.00000000000E+00 0.  1.
         11    1    1    2    0    0  0.15804693954E+02  0.18969777464E+02 -0.61042346500E+02  0.65846859259E+02  0.00000000000E+00 0. -1.
</event>
<event>
 6    1  0.6992302E-006  0.9603125E+02  0.7561462E-02  0.1288870E+00
         -2   -1    0    0    0  501 -0.00000000000E+00  0.00000000000E+00  0.34217749399E+02  0.34217749399E+02  0.00000000000E+00 0.  1.
          2   -1    0    0  501    0  0.00000000000E+00 -0.00000000000E+00 -0.48728649513E+03  0.48728649513E+03  0.00000000000E+00 0. -1.
          5    1    1    2  502    0 -0.23755164562E+02 -0.36380992130E+02 -0.18778822894E+03  0.19279464661E+03  0.41800000000E+01 0. -1.
         -5    1    1    2    0  502 -0.14987243957E+02  0.53794365031E+02 -0.12282727069E+02  0.57330523936E+02  0.41800000000E+01 0.  1.
        -11    1    1    2    0    0 -0.25957934210E+02 -0.30421045004E+01 -0.11961943373E+03  0.12244132339E+03  0.00000000000E+00 0.  1.
         11    1    1    2    0    0  0.64700342730E+02 -0.14371268400E+02 -0.13337835599E+03  0.14893775059E+03  0.00000000000E+00 0. -1.
</event>
<event>
 7    1  0.6992302E-006  0.1075021E+03  0.7561462E-02  0.1265267E+00
         -2   -1    0    0    0  501 -0.00000000000E+00  0.00000000000E+00  0.52884465583E+03  0.52884465583E+03  0.00000000000E+00 0. -1.
          2   -1    0    0  501    0  0.00000000000E+00 -0.00000000000E+00 -0.29479262380E+02  0.29479262380E+02  0.00000000000E+00 0.  1.
         23    2    1    2    0    0  0.33979373580E+02 -0.24030772764E+02  0.32340283315E+03  0.34924027301E+03  0.12508916792E+03 0.  0.
          5    1    3    3  502    0  0.76190511964E+02  0.64168769220E+01  0.15423623206E+03  0.17219889112E+03  0.41800000000E+01 0.  1.
         -5    1    3    3    0  502 -0.42211138385E+02 -0.30447649686E+02  0.16916660109E+03  0.17704138188E+03  0.41800000000E+01 0.  1.
        -11    1    1    2    0    0 -0.53007827483E+02 -0.30757763440E+01  0.33408264690E+02  0.62732785082E+02  0.00000000000E+00 0.  1.
         11    1    1    2    0    0  0.19028453903E+02  0.27106549108E+02  0.14255429561E+03  0.14635086012E+03  0.00000000000E+00 0. -1.
</event>
<event>
 7    1  0.6992302E-006  0.1411781E+03  0.7561462E-02  0.1211753E+00
          2   -1    0    0  501    0  0.00000000000E+00  0.00000000000E+00  0.83390536505E+03  0.83390536505E+03  0.00000000000E+00 0. -1.
         -2   -1    0    0    0  501 -0.00000000000E+00 -0.00000000000E+00 -0.34724374392E+02  0.34724374392E+02  0.00000000000E+00 0.  1.
         23    2    1    2    0    0 -0.13103695252E+03  0.87677327832E+00  0.45380255029E+03  0.48862675200E+03  0.12509155230E+03 0.  0.
          5    1    3    3  502    0 -0.11159162570E+03 -0.23016955405E+02  0.18005198620E+03  0.21311654393E+03  0.41800000000E+01 0. -1.
         -5    1    3    3    0  502 -0.19445326815E+02  0.23893728683E+02  0.27375056409E+03  0.27551020806E+03  0.41800000000E+01 0. -1.
        -11    1    1    2    0    0  0.49843030274E+02  0.19527437917E+02  0.50945592682E+02  0.73899268686E+02  0.00000000000E+00 0.  1.
         11    1    1    2    0    0  0.81193922246E+02 -0.20404211196E+02  0.29443284768E+03  0.30610371876E+03  0.00000000000E+00 0. -1.
</event>
<event>
 7    1  0.6992302E-006  0.1255411E+03  0.7561462E-02  0.1234226E+00
          2   -1    0    0  501    0  0.00000000000E+00  0.00000000000E+00  0.10941878693E+04  0.10941878693E+04  0.00000000000E+00 0. -1.
         -2   -1    0    0    0  501 -0.00000000000E+00 -0.00000000000E+00 -0.15025444643E+02  0.15025444643E+02  0.00000000000E+00 0.  1.
         23    2    1    2    0    0 -0.26559392069E+02  0.60638290617E+02  0.52763499992E+03  0.54628176749E+03  0.12507067103E+03 0.  0.
          5    1    3    3  502    0  0.48573180550E+02  0.29432788166E+02  0.27510654853E+03  0.28093901177E+03  0.41800000000E+01 0.  1.
         -5    1    3    3    0  502 -0.75132572619E+02  0.31205502452E+02  0.25252845139E+03  0.26534275572E+03  0.41800000000E+01 0.  1.
        -11    1    1    2    0    0 -0.53589659204E+01 -0.76736301745E+02  0.38530537178E+03  0.39290890553E+03  0.00000000000E+00 0.  1.
         11    1    1    2    0    0  0.31918357989E+02  0.16098011128E+02  0.16622205292E+03  0.17002264089E+03  0.00000000000E+00 0. -1.
</event>
<event>
 7    1  0.6992302E-006  0.1038770E+03  0.7561462E-02  0.1272348E+00
          1   -1    0    0  501    0  0.00000000000E+00  0.00000000000E+00  0.11846086804E+03  0.11846086804E+03  0.00000000000E+00 0. -1.
         -1   -1    0    0    0  501 -0.00000000000E+00 -0.00000000000E+00 -0.10238434335E+03  0.10238434335E+03  0.00000000000E+00 0.  1.
         23    2    1    2    0    0 -0.66210923639E+01 -0.11824992859E+02 -0.95277324401E+01  0.12618489428E+03  0.12509268779E+03 0.  0.
          5    1    3    3  502    0  0.31132541906E+02  0.41153569487E+02 -0.27421014068E+02  0.58585287057E+02  0.41800000000E+01 0.  1.
         -5    1    3    3    0  502 -0.37753634269E+02 -0.52978562346E+02  0.17893281628E+02  0.67599607220E+02  0.41800000000E+01 0.  1.
        -11    1    1    2    0    0  0.34100075305E+02 -0.26814121549E+02  0.81687698845E+01  0.44142281904E+02  0.00000000000E+00 0. -1.
         11    1    1    2    0    0 -0.27478982941E+02  0.38639114408E+02  0.17435487254E+02  0.50518035210E+02  0.00000000000E+00 0.  1.
</event>
<event>
 7    1  0.6992302E-006  0.2279649E+03  0.7561462E-02  0.1128080E+00
         -2   -1    0    0    0  501 -0.00000000000E+00  0.00000000000E+00  0.12947947654E+03  0.12947947654E+03  0.00000000000E+00 0.  1.
          2   -1    0    0  501    0  0.00000000000E+00 -0.00000000000E+00 -0.41659968993E+03  0.41659968993E+03  0.00000000000E+00 0. -1.
         23    2    1    2    0    0  0.20308431252E+03 -0.25311852581E+02 -0.15448729939E+03  0.28530174702E+03  0.12508730276E+03 0.  0.
          5    1    3    3  502    0  0.24251513151E+02  0.35250085009E+02 -0.28176101124E+01  0.43082661362E+02  0.41800000000E+01 0.  1.
         -5    1    3    3    0  502  0.17883279937E+03 -0.60561937590E+02 -0.15166968928E+03  0.24221908566E+03  0.41800000000E+01 0.  1.
        -11    1    1    2    0    0 -0.18076753152E+03  0.53136295027E+02 -0.10532571034E+03  0.21585613626E+03  0.00000000000E+00 0.  1.
         11    1    1    2    0    0 -0.22316780996E+02 -0.27824442446E+02 -0.27307203662E+02  0.44921283188E+02  0.00000000000E+00 0. -1.
</event>
<event>
 7    1  0.6992302E-006  0.9108785E+02  0.7561462E-02  0.1300238E+00
         -4   -1    0    0    0  501 -0.00000000000E+00  0.00000000000E+00  0.13244535922E+03  0.13244535922E+03  0.00000000000E+00 0.  1.
          4   -1    0    0  501    0  0.00000000000E+00 -0.00000000000E+00 -0.11662080170E+03  0.11662080170E+03  0.00000000000E+00 0. -1.
         23    2    1    2    0    0  0.57966281990E+02  0.21860818589E+02  0.15221253987E+02  0.14041957404E+03  0.12509190607E+03 0.  0.
          5    1    3    3  502    0  0.64650559857E+02  0.21223117278E+02  0.62498097849E+02  0.92485675818E+02  0.41800000000E+01 0. -1.
         -5    1    3    3    0  502 -0.66842778670E+01  0.63770131039E+00 -0.47276843862E+02  0.47933898226E+02  0.41800000000E+01 0. -1.
        -11    1    1    2    0    0 -0.98651367409E+01  0.32231435186E+02  0.11134550242E+02  0.35498796404E+02  0.00000000000E+00 0.  1.
         11    1    1    2    0    0 -0.48101145249E+02 -0.54092253775E+02 -0.10531246707E+02  0.73147790465E+02  0.00000000000E+00 0. -1.
</event>
<event>
 7    1  0.6992302E-006  0.1387402E+03  0.7561462E-02  0.1215034E+00
         -1   -1    0    0    0  501 -0.00000000000E+00  0.00000000000E+00  0.33597710020E+03  0.33597710020E+03  0.00000000000E+00 0.  1.
          1   -1    0    0  501    0  0.00000000000E+00 -0.00000000000E+00 -0.75722100945E+02  0.75722100945E+02  0.00000000000E+00 0. -1.
         23    2    1    2    0    0 -0.10526773801E+03 -0.82817822177E+01  0.13578065879E+03  0.21268280478E+03  0.12509078129E+03 0.  0.
          5    1    3    3  502    0  0.18016950633E+02 -0.68645474899E+01 -0.96625849652E+01  0.21967486669E+02  0.41800000000E+01 0.  1.
         -5    1    3    3    0  502 -0.12328468865E+03 -0.14172347278E+01  0.14544324375E+03  0.19071531811E+03  0.41800000000E+01 0.  1.
        -11    1    1    2    0    0  0.47299278244E+02  0.45393989080E+02  0.11256027844E+02  0.66517171691E+02  0.00000000000E+00 0. -1.
         11    1    1    2    0    0  0.57968459769E+02 -0.37112206862E+02  0.11321831263E+03  0.13249922468E+03  0.00000000000E+00 0.  1.
</event>
<event>
 7    1  0.6992302E-006  0.1603213E+03  0.7561462E-02  0.1188335E+00
         -4   -1    0    0    0  501 -0.00000000000E+00  0.00000000000E+00  0.75844835420E+02  0.75844835420E+02  0.00000000000E+00 0.  1.
          4   -1    0    0  501    0  0.00000000000E+00 -0.00000000000E+00 -0.56893593012E+03  0.56893593012E+03  0.00000000000E+00 0. -1.
         23    2    1    2    0    0  0.13322958669E+03 -0.46843851049E+02 -0.93184477931E+02  0.21041777301E+03  0.12509125916E+03 0.  0.
          5    1    3    3  502    0  0.25599657273E+02 -0.39856846284E+02  0.22145227412E+02  0.52457546123E+02  0.41800000000E+01 0. -1.
         -5    1    3    3    0  502  0.10762992942E+03 -0.69870047652E+01 -0.11532970534E+03  0.15796022688E+03  0.41800000000E+01 0. -1.
        -11    1    1    2    0    0 -0.26985309242E+01  0.33869476100E+02 -0.48040569070E+02  0.58841479902E+02  0.00000000000E+00 0.  1.
         11    1    1    2    0    0 -0.13053105577E+03  0.12974374949E+02 -0.35186604770E+03  0.37552151263E+03  0.00000000000E+00 0. -1.
</event>
<event>
 7    1  0.6992302E-006  0.1656204E+03  0.7561462E-02  0.1182494E+00
          1   -1    0    0  501    0  0.00000000000E+00  0.00000000000E+00  0.57681689106E+03  0.57681689106E+03  0.00000000000E+00 0. -1.
         -1   -1    0    0    0  501 -0.00000000000E+00 -0.00000000000E+00 -0.50222890965E+02  0.50222890965E+02  0.00000000000E+00 0.  1.
         23    2    1    2    0    0  0.50463049684E+02  0.11577420887E+03  0.35022896899E+03  0.39275706507E+03  0.12509034582E+03 0.  0.
          5    1    3    3  502    0  0.16085870779E+02  0.13629295493E+03  0.26276430586E+03  0.29647441312E+03  0.41800000000E+01 0. -1.
         -5    1    3    3    0  502  0.34377178905E+02 -0.20518746058E+02  0.87464663134E+02  0.96282651950E+02  0.41800000000E+01 0. -1.
        -11    1    1    2    0    0 -0.73161289965E+02 -0.64193025689E+02  0.10213836646E+03  0.14108708232E+03  0.00000000000E+00 0.  1.
         11    1    1    2    0    0  0.22698240281E+02 -0.51581183180E+02  0.74226664649E+02  0.93195634635E+02  0.00000000000E+00 0. -1.
</event>
<event>
 7    1  0.6992302E-006  0.2240861E+03  0.7561462E-02  0.1130873E+00
          2   -1    0    0  501    0  0.00000000000E+00  0.00000000000E+00  0.72540454252E+03  0.72540454252E+03  0.00000000000E+00 0. -1.
         -2   -1    0    0    0  501 -0.00000000000E+00 -0.00000000000E+00 -0.70251407735E+02  0.70251407735E+02  0.00000000000E+00 0.  1.
         23    2    1    2    0    0 -0.31373940851E+02  0.19432088875E+03  0.31114333376E+03  0.38884574856E+03  0.12508361228E+03 0.  0.
          5    1    3    3  502    0 -0.63886321646E+02  0.43521060880E+02  0.83933899121E+02  0.11418369698E+03  0.41800000000E+01 0.  1.
         -5    1    3    3    0  502  0.32512380794E+02  0.15079982787E+03  0.22720943464E+03  0.27466205159E+03  0.41800000000E+01 0.  1.
        -11    1    1    2    0    0 -0.31554135914E+02 -0.52015167469E+02  0.82416630343E+02  0.10243896767E+03  0.00000000000E+00 0.  1.
         11    1    1    2    0    0  0.62928076765E+02 -0.14230572128E+03  0.26159317068E+03  0.30437123402E+03  0.00000000000E+00 0. -1.
</event>
<event>
 7    1  0.6992302E-006  0.1166040E+03  0.7561462E-02  0.1248807E+00
         -1   -1    0    0    0  501 -0.00000000000E+00  0.00000000000E+00  0.26501790400E+03  0.26501790400E+03  0.00000000000E+00 0.  1.
          1   -1    0    0  501    0  0.00000000000E+00 -0.00000000000E+00 -0.55085101855E+02  0.55085101855E+02  0.00000000000E+00 0. -1.
         23    2    1    2    0    0  0.36898192754E+02  0.35376467715E+02  0.14119395368E+03  0.19543734186E+03  0.12508817267E+03 0.  0.
          5    1    3    3  502    0  0.79431187035E+02  0.39222361393E+02  0.72999415769E+02  0.11486554840E+03  0.41800000000E+01 0. -1.
         -5    1    3    3    0  502 -0.42532994281E+02 -0.38458936782E+01  0.68194537908E+02  0.80571793459E+02  0.41800000000E+01 0. -1.
        -11    1    1    2    0    0 -0.28443092488E+02 -0.64922416767E+02  0.35073676688E+02  0.79082820547E+02  0.00000000000E+00 0. -1.
         11    1    1    2    0    0 -0.84551002663E+01  0.29545949053E+02  0.33665171783E+02  0.45582843451E+02  0.00000000000E+00 0.  1.
</event>
<event>
 7    1  0.6992302E-006  0.2172968E+03  0.7561462E-02  0.1135915E+00
          2   -1    0    0  501    0  0.00000000000E+00  0.00000000000E+00  0.17364363785E+04  0.17364363785E+04  0.00000000000E+00 0. -1.
         -2   -1    0    0    0  501 -0.00000000000E+00 -0.00000000000E+00 -0.29876831570E+02  0.29876831570E+02  0.00000000000E+00 0.  1.
         23    2    1    2    0    0  0.14663835761E+03 -0.13490753881E+03  0.94292783403E+03  0.97183496173E+03  0.12508973053E+03 0.  0.
          5    1    3    3  502    0 -0.12025342549E+02 -0.13655672616E+02  0.19279344499E+02  0.26837507007E+02  0.41800000000E+01 0.  1.
         -5    1    3    3    0  502  0.15866370016E+03 -0.12125186619E+03  0.92364848954E+03  0.94499745472E+03  0.41800000000E+01 0.  1.
        -11    1    1    2    0    0  0.48552670593E+01  0.33588652316E+02  0.17565081213E+03  0.17889935435E+03  0.00000000000E+00 0.  1.
         11    1    1    2    0    0 -0.15149362467E+03  0.10131888649E+03  0.58798090077E+03  0.61557889401E+03  0.00000000000E+00 0. -1.
</event>
<event>
 7    1  0.6992302E-006  0.1276620E+03  0.7561462E-02  0.1230967E+00
         -2   -1    0    0    0  501 -0.00000000000E+00  0.00000000000E+00  0.97143080139E+02  0.97143080139E+02  0.00000000000E+00 0. -1.
          2   -1    0    0  501    0  0.00000000000E+00 -0.00000000000E+00 -0.32742634054E+03  0.32742634054E+03  0.00000000000E+00 0.  1.
         23    2    1    2    0    0 -0.24351496801E+02 -0.74331131740E+02  0.18272696889E+02  0.14866193287E+03  0.12509343024E+03 0.  0.
          5    1    3    3  502    0  0.66360098430E+01  0.29014911811E+02 -0.17668120818E+02  0.34864546854E+02  0.41800000000E+01 0.  1.
         -5    1    3    3    0  502 -0.30987506644E+02 -0.10334604355E+03  0.35940817707E+02  0.11379738601E+03  0.41800000000E+01 0.  1.
        -11    1    1    2    0    0  0.47941735547E+02  0.10271077949E+02 -0.13226781826E+03  0.14106268393E+03  0.00000000000E+00 0.  1.
         11    1    1    2    0    0 -0.23590238745E+02  0.64060053791E+02 -0.11628813902E+03  0.13484480388E+03  0.00000000000E+00 0. -1.
</event>
<event>
 7    1  0.6992302E-006  0.1153753E+03  0.7561462E-02  0.1250927E+00
          2   -1    0    0  501    0  0.00000000000E+00  0.00000000000E+00  0.34174608445E+02  0.34174608445E+02  0.00000000000E+00 0. -1.
         -2   -1    0    0    0  501 -0.00000000000E+00 -0.00000000000E+00 -0.49645773318E+03  0.49645773318E+03  0.00000000000E+00 0.  1.
         23    2    1    2    0    0  0.46086662751E+02 -0.16791916440E+02 -0.37092643824E+03  0.39451150232E+03  0.12508778492E+03 0.  0.
          5    1    3    3  502    0 -0.39318241036E+02  0.89569730642E+01 -0.73151754351E+02  0.83634938927E+02  0.41800000000E+01 0.  1.
         -5    1    3    3    0  502  0.85404903787E+02 -0.25748889504E+02 -0.29777468389E+03  0.31087656339E+03  0.41800000000E+01 0.  1.
        -11    1    1    2    0    0 -0.67041236391E+02  0.32708666968E+02 -0.67805955584E+02  0.10080690395E+03  0.00000000000E+00 0. -1.
         11    1    1    2    0    0  0.20954573639E+02 -0.15916750528E+02 -0.23550730914E+02  0.35313935357E+02  0.00000000000E+00 0.  1.
</event>
<event>
 7    1  0.6992302E-006  0.1127339E+03  0.7561462E-02  0.1255589E+00
          2   -1    0    0  501    0  0.00000000000E+00  0.00000000000E+00  0.41335302801E+03  0.41335302801E+03  0.00000000000E+00 0.  1.
         -2   -1    0    0    0  501 -0.00000000000E+00 -0.00000000000E+00 -0.36606859055E+02  0.36606859055E+02  0.00000000000E+00 0. -1.
         23    2    1    2    0    0  0.58907228045E+02  0.31184917968E+01  0.18804616397E+03  0.23342809649E+03  0.12509008729E+03 0.  0.
          5    1    3    3  502    0  0.68744404741E+01 -0.48807224345E+02  0.27013884746E+02  0.56361560031E+02  0.41800000000E+01 0.  1.
         -5    1    3    3    0  502  0.52032787571E+02  0.51925716142E+02  0.16103227923E+03  0.17706653646E+03  0.41800000000E+01 0.  1.
        -11    1    1    2    0    0 -0.77845931633E+02  0.11178031008E+02  0.16603011900E+03  0.18371428323E+03  0.00000000000E+00 0.  1.
         11    1    1    2    0    0  0.18938703587E+02 -0.14296522805E+02  0.22669885979E+02  0.32817507343E+02  0.00000000000E+00 0. -1.
</event>
<event>
 7    1  0.6992302E-006  0.1640299E+03  0.7561462E-02  0.1184221E+00
          1   -1    0    0  501    0  0.00000000000E+00  0.00000000000E+00  0.11582803183E+04  0.11582803183E+04  0.00000000000E+00 0. -1.
         -1   -1    0    0    0  501 -0.00000000000E+00 -0.00000000000E+00 -0.27366600091E+02  0.27366600091E+02  0.00000000000E+00 0.  1.
         23    2    1    2    0    0  0.89121263648E+02 -0.10930232669E+03  0.54783101467E+03  0.57935800678E+03  0.12508909280E+03 0.  0.
          5    1    3    3  502    0 -0.96101276729E+01  0.52199089645E+01  0.19648939535E+03  0.19683789495E+03  0.41800000000E+01 0. -1.
         -5    1    3    3    0  502  0.98731391321E+02 -0.11452223565E+03  0.35134161932E+03  0.38252011184E+03  0.41800000000E+01 0. -1.
        -11    1    1    2    0    0 -0.47949571210E+02 -0.36102858696E+00  0.14000710184E+03  0.14799081149E+03  0.00000000000E+00 0. -1.
         11    1    1    2    0    0 -0.41171692438E+02  0.10966335527E+03  0.44307560172E+03  0.45829810013E+03  0.00000000000E+00 0.  1.
</event>
<event>
 7    1  0.6992302E-006  0.8603333E+02  0.7561462E-02  0.1312752E+00
         -2   -1    0    0    0  501 -0.00000000000E+00  0.00000000000E+00  0.20584488971E+02  0.20584488971E+02  0.00000000000E+00 0.  1.
          2   -1    0    0  501    0  0.00000000000E+00 -0.00000000000E+00 -0.62093916244E+03  0.62093916244E+03  0.00000000000E+00 0. -1.
         23    2    1    2    0    0 -0.32964876329E+02  0.68101428267E+01 -0.33881478448E+03  0.36273666174E+03  0.12509742792E+03 0.  0.
          5    1    3    3  502    0 -0.38502497847E+02  0.39440024957E+02 -0.31938173533E+03  0.32412979371E+03  0.41800000000E+01 0.  1.
         -5    1    3    3    0  502  0.55376215183E+01 -0.32629882130E+02 -0.19433049155E+02  0.38606868034E+02  0.41800000000E+01 0.  1.
        -11    1    1    2    0    0  0.18563695154E+02 -0.41722215513E+02 -0.20990560520E+03  0.21481554213E+03  0.00000000000E+00 0. -1.
         11    1    1    2    0    0  0.14401181175E+02  0.34912072686E+02 -0.51634283790E+02  0.63971447545E+02  0.00000000000E+00 0.  1.
</event>
<event>
 7    1  0.6992302E-006  0.1165516E+03  0.7561462E-02  0.1248897E+00
         -1   -1    0    0    0  501 -0.00000000000E+00  0.00000000000E+00  0.84509846993E+02  0.84509846993E+02  0.00000000000E+00 0.  1.
          1   -1    0    0  501    0  0.00000000000E+00 -0.00000000000E+00 -0.30807197084E+03  0.30807197084E+03  0.00000000000E+00 0. -1.
         23    2    1    2    0    0  0.18441203048E+02 -0.78059479127E+02 -0.13179846179E+02  0.14917251645E+03  0.12508145773E+03 0.  0.
          5    1    3    3  502    0 -0.45667502489E+02 -0.43467758881E+02 -0.35999909456E+02  0.72721611138E+02  0.41800000000E+01 0. -1.
         -5    1    3    3    0  502  0.64108705536E+02 -0.34591720247E+02  0.22820063278E+02  0.76450905313E+02  0.41800000000E+01 0. -1.
        -11    1    1    2    0    0 -0.26606592807E+02  0.10030382002E+02 -0.14813234856E+03  0.15083670652E+03  0.00000000000E+00 0. -1.
         11    1    1    2    0    0  0.81653897595E+01  0.68029097125E+02 -0.62249929109E+02  0.92572594863E+02  0.00000000000E+00 0.  1.
</event>
<event>
 7    1  0.6992302E-006  0.1091691E+03  0.7561462E-02  0.1262116E+00
          1   -1    0    0  501    0  0.00000000000E+00  0.00000000000E+00  0.35767497187E+03  0.35767497187E+03  0.00000000000E+00 0. -1.
         -1   -1    0    0    0  501 -0.00000000000E+00 -0.00000000000E+00 -0.55225199673E+02  0.55225199673E+02  0.00000000000E+00 0.  1.
         23    2    1    2    0    0  0.30542413967E+02  0.53509249696E+02  0.71768846858E+02  0.15682124878E+03  0.12508420298E+03 0.  0.
          5    1    3    3  502    0  0.14766777886E+02 -0.25713452117E+02  0.69753907071E+02  0.75909942040E+02  0.41800000000E+01 0. -1.
         -5    1    3    3    0  502  0.15775636082E+02  0.79222701813E+02  0.20149397870E+01  0.80911306742E+02  0.41800000000E+01 0. -1.
        -11    1    1    2    0    0 -0.53842905030E+02 -0.54762906775E+01  0.83405016106E+02  0.99425574644E+02  0.00000000000E+00 0. -1.
         11    1    1    2    0    0  0.23300491062E+02 -0.48032959019E+02  0.14727590924E+03  0.15665334812E+03  0.00000000000E+00 0.  1.
</event>
<event>
 6    1  0.6992302E-006  0.1520625E+03  0.7561462E-02  0.1197961E+00
         -1   -1    0    0    0  501 -0.00000000000E+00  0.00000000000E+00  0.88592779239E+02  0.88592779239E+02  0.00000000000E+00 0.  1.
          1   -1    0    0  501    0  0.00000000000E+00 -0.00000000000E+00 -0.41290057121E+03  0.41290057121E+03  0.00000000000E+00 0. -1.
          5    1    1    2  502    0  0.58394522065E+02 -0.66608183949E+02 -0.19669032683E+02  0.90834539812E+02  0.41800000000E+01 0. -1.
         -5    1    1    2    0  502 -0.10414031534E+03  0.28234229352E+01 -0.26967084016E+02  0.10769342142E+03  0.41800000000E+01 0.  1.
        -11    1    1    2    0    0 -0.22608002462E+02  0.18201184870E+02 -0.28821495252E+02  0.40903343318E+02  0.00000000000E+00 0.  1.
         11    1    1    2    0    0  0.68353795738E+02  0.45583576144E+02 -0.24885018002E+03  0.26206204591E+03  0.00000000000E+00 0. -1.
</event>
<event>
 7    1  0.6992302E-006  0.9428964E+02  0.7561462E-02  0.1292784E+00
          3   -1    0    0  501    0  0.00000000000E+00  0.00000000000E+00  0.32408501506E+02  0.32408501506E+02  0.00000000000E+00 0. -1.
         -3   -1    0    0    0  501 -0.00000000000E+00 -0.00000000000E+00 -0.75949461806E+03  0.75949461806E+03  0.00000000000E+00 0.  1.
         23    2    1    2    0    0  0.32409778209E+02  0.28521720012E+02 -0.66603266897E+03  0.67905203181E+03  0.12509301951E+03 0.  0.
          5    1    3    3  502    0 -0.38594649658E+02  0.21789321420E+02 -0.43379066704E+03  0.43606895868E+03  0.41800000000E+01 0. -1.
         -5    1    3    3    0  502  0.71004427867E+02  0.67323985914E+01 -0.23224200192E+03  0.24298307313E+03  0.41800000000E+01 0. -1.
        -11    1    1    2    0    0 -0.12524125935E+02 -0.45050263867E+02 -0.23000315256E+00  0.46759308233E+02  0.00000000000E+00 0. -1.
         11    1    1    2    0    0 -0.19885652274E+02  0.16528543856E+02 -0.60823444432E+02  0.66091779526E+02  0.00000000000E+00 0.  1.
</event>
<event>
 7    1  0.6992302E-006  0.1170760E+03  0.7561462E-02  0.1248000E+00
         -2   -1    0    0    0  501 -0.00000000000E+00  0.00000000000E+00  0.57311384718E+03  0.57311384718E+03  0.00000000000E+00 0.  1.
          2   -1    0    0  501    0  0.00000000000E+00 -0.00000000000E+00 -0.25364722552E+02  0.25364722552E+02  0.00000000000E+00 0. -1.
         23    2    1    2    0    0  0.28829121565E+02  0.42072314990E+02  0.27641217761E+03  0.30765647330E+03  0.12509043007E+03 0.  0.
          5    1    3    3  502    0  0.75654121971E+02  0.31676956466E+02  0.21113095266E+03  0.22654078509E+03  0.41800000000E+01 0. -1.
         -5    1    3    3    0  502 -0.46825000406E+02  0.10395358525E+02  0.65281224951E+02  0.81115688205E+02  0.41800000000E+01 0. -1.
        -11    1    1    2    0    0 -0.60026799244E+02 -0.13390992232E+02  0.17769137003E+03  0.18803392854E+03  0.00000000000E+00 0.  1.
         11    1    1    2    0    0  0.31197677679E+02 -0.28681322758E+02  0.93645576999E+02  0.10278816789E+03  0.00000000000E+00 0. -1.
</event>
<event>
 7    1  0.6992302E-006  0.2940081E+03  0.7561462E-02  0.1088275E+00
         -2   -1    0    0    0  501 -0.00000000000E+00  0.00000000000E+00  0.19462487142E+03  0.19462487142E+03  0.00000000000E+00 0.  1.
          2   -1    0    0  501    0  0.00000000000E+00 -0.00000000000E+00 -0.50052235380E+03  0.50052235380E+03  0.00000000000E+00 0. -1.
         23    2    1    2    0    0 -0.21503795919E+02  0.28827782090E+03 -0.10757430652E+03  0.33282617829E+03  0.12503806729E+03 0.  0.
          5    1    3    3  502    0  0.24409381116E+02  0.17078887705E+03 -0.92260949417E+01  0.17282144438E+03  0.41800000000E+01 0. -1.
         -5    1    3    3    0  502 -0.45913177035E+02  0.11748894385E+03 -0.98348211583E+02  0.16000473391E+03  0.41800000000E+01 0. -1.
        -11    1    1    2    0    0  0.18144656680E+02 -0.18259566282E+03 -0.17599622807E+03  0.25425396151E+03  0.00000000000E+00 0.  1.
         11    1    1    2    0    0  0.33591392391E+01 -0.10568215808E+03 -0.22326947787E+02  0.10806708542E+03  0.00000000000E+00 0. -1.
</event>
<event>
 6    1  0.6992302E-006  0.1883155E+03  0.7561462E-02  0.1159989E+00
          2   -1    0    0  501    0  0.00000000000E+00  0.00000000000E+00  0.14639289903E+04  0.14639289903E+04  0.00000000000E+00 0. -1.
         -2   -1    0    0    0  501 -0.00000000000E+00 -0.00000000000E+00 -0.37276794561E+02  0.37276794561E+02  0.00000000000E+00 0.  1.
          5    1    1    2  502    0  0.10057809151E+03  0.58941608432E+01  0.89381278066E+03  0.89948288082E+03  0.41800000000E+01 0. -1.
         -5    1    1    2    0  502 -0.15107910546E+03  0.36475193636E+02  0.25355278443E+03  0.29742532298E+03  0.41800000000E+01 0.  1.
        -11    1    1    2    0    0 -0.21059008038E+02  0.17214064611E+02  0.52219223735E+02  0.58878291139E+02  0.00000000000E+00 0.  1.
         11    1    1    2    0    0  0.71560021996E+02 -0.59583419090E+02  0.22706740687E+03  0.24541928987E+03  0.00000000000E+00 0. -1.
</event>
<event>
 7    1  0.6992302E-006  0.1623077E+03  0.7561462E-02  0.1186116E+00
         -1   -1    0    0    0  501 -0.00000000000E+00  0.00000000000E+00  0.37360626681E+02  0.37360626681E+02  0.00000000000E+00 0. -1.
          1   -1    0    0  501    0  0.00000000000E+00 -0.00000000000E+00 -0.10268637145E+04  0.10268637145E+04  0.00000000000E+00 0.  1.
         23    2    1    2    0    0  0.10263395921E+03 -0.12547254796E+03 -0.48007002347E+03  0.52191057929E+03  0.12508531272E+03 0.  0.
          5    1    3    3  502    0  0.64150284790E+02 -0.76593960789E+02 -0.11872466397E+03  0.15522535908E+03  0.41800000000E+01 0. -1.
         -5    1    3    3    0  502  0.38483674421E+02 -0.48878587172E+02 -0.36134535950E+03  0.36668522020E+03  0.41800000000E+01 0. -1.
        -11    1    1    2    0    0 -0.82356583255E+02  0.10510384126E+03 -0.48937738926E+03  0.50726684631E+03  0.00000000000E+00 0.  1.
         11    1    1    2    0    0 -0.20277375955E+02  0.20368706706E+02 -0.20055675088E+02  0.35046915581E+02  0.00000000000E+00 0. -1.
</event>
<event>
 7    1  0.6992302E-006  0.1319189E+03  0.7561462E-02  0.1224636E+00
         -1   -1    0    0    0  501 -0.00000000000E+00  0.00000000000E+00  0.54506069168E+02  0.54506069168E+02  0.00000000000E+00 0.  1.
          1   -1    0    0  501    0  0.00000000000E+00 -0.00000000000E+00 -0.41475328189E+03  0.41475328189E+03  0.00000000000E+00 0. -1.
         23    2    1    2    0    0  0.56492594124E+02  0.75380955873E+02 -0.12833351301E+03  0.20246089949E+03  0.12508886266E+03 0.  0.
          5    1    3    3  502    0  0.62424052364E+02  0.62020721591E+01 -0.78753042534E+01  0.63361824703E+02  0.41800000000E+01 0.  1.
         -5    1    3    3    0  502 -0.59314582402E+01  0.69178883714E+02 -0.12045820876E+03  0.13909907479E+03  0.41800000000E+01 0.  1.
        -11    1    1    2    0    0 -0.66082885752E+02 -0.11823989016E+02 -0.12995022944E+03  0.14626625256E+03  0.00000000000E+00 0.  1.
         11    1    1    2    0    0  0.95902916282E+01 -0.63556966858E+02 -0.10196347027E+03  0.12053219902E+03  0.00000000000E+00 0. -1.
</event>
<event>
 7    1  0.6992302E-006  0.1620927E+03  0.7561462E-02  0.1186354E+00
         -2   -1    0    0    0  501 -0.00000000000E+00  0.00000000000E+00  0.35878112152E+02  0.35878112152E+02  0.00000000000E+00 0.  1.
          2   -1    0    0  501    0  0.00000000000E+00 -0.00000000000E+00 -0.87561389164E+03  0.87561389164E+03  0.00000000000E+00 0. -1.
         23    2    1    2    0    0 -0.10801377894E+03  0.78839199996E+02 -0.33602222748E+03  0.38267890976E+03  0.12509842013E+03 0.  0.
          5    1    3    3  502    0 -0.45630024766E+01 -0.29412859853E+02 -0.32885495735E+02  0.44551829885E+02  0.41800000000E+01 0. -1.
         -5    1    3    3    0  502 -0.10345077647E+03  0.10825205985E+03 -0.30313673174E+03  0.33812707987E+03  0.41800000000E+01 0. -1.
        -11    1    1    2    0    0  0.49882979013E+02 -0.46712847650E+01 -0.30256678762E+03  0.30668680028E+03  0.00000000000E+00 0. -1.
         11    1    1    2    0    0  0.58130799932E+02 -0.74167915231E+02 -0.20114676439E+03  0.22212629375E+03  0.00000000000E+00 0.  1.
</event>
<event>
 7    1  0.6992302E-006  0.1279831E+03  0.7561462E-02  0.1230480E+00
         -1   -1    0    0    0  501 -0.00000000000E+00  0.00000000000E+00  0.10595896409E+03  0.10595896409E+03  0.00000000000E+00 0.  1.
          1   -1    0    0  501    0  0.00000000000E+00 -0.00000000000E+00 -0.29916737440E+03  0.29916737440E+03  0.00000000000E+00 0. -1.
         23    2    1    2    0    0 -0.98509327263E+01 -0.10172669475E+03  0.17764605872E+02  0.15391266065E+03  0.11370208700E+03 0.  0.
          5    1    3    3  502    0  0.20507891558E+02  0.12328629139E+02 -0.18317398935E+02  0.30423152637E+02  0.41800000000E+01 0. -1.
         -5    1    3    3    0  502 -0.30358824285E+02 -0.11405532389E+03  0.36082004807E+02  0.12348950802E+03  0.41800000000E+01 0.  1.
        -11    1    1    2    0    0 -0.19209752818E+02  0.24992365974E+02 -0.83527949661E+01  0.32609847348E+02  0.00000000000E+00 0.  1.
         11    1    1    2    0    0  0.29060685544E+02  0.76734328774E+02 -0.20262022121E+03  0.21860383048E+03  0.00000000000E+00 0. -1.
</event>
<event>
 7    1  0.6992302E-006  0.2299010E+03  0.7561462E-02  0.1126709E+00
         -3   -1    0    0    0  501 -0.00000000000E+00  0.00000000000E+00  0.11244350230E+03  0.11244350230E+03  0.00000000000E+00 0.  1.
          3   -1    0    0  501    0  0.00000000000E+00 -0.00000000000E+00 -0.65976451466E+03  0.65976451466E+03  0.00000000000E+00 0. -1.
         23    2    1    2    0    0  0.17279052697E+03 -0.11482891796E+03 -0.84048306708E+02  0.25642413021E+03  0.12508784946E+03 0.  0.
          5    1    3    3  502    0  0.14548106290E+01 -0.59009491049E+02 -0.43260142721E+01  0.59333155211E+02  0.41800000000E+01 0. -1.
         -5    1    3    3    0  502  0.17133571634E+03 -0.55819426911E+02 -0.79722292436E+02  0.19709097500E+03  0.41800000000E+01 0. -1.
        -11    1    1    2    0    0 -0.68567070167E+02  0.90169311967E+02 -0.29840777829E+03  0.31918513448E+03  0.00000000000E+00 0. -1.
         11    1    1    2    0    0 -0.10422345680E+03  0.24659605994E+02 -0.16486492736E+03  0.19659875226E+03  0.00000000000E+00 0.  1.
</event>
<event>
 7    1  0.6992302E-006  0.2310969E+03  0.7561462E-02  0.1125870E+00
         -1   -1    0    0    0  501 -0.00000000000E+00  0.00000000000E+00  0.88328086983E+02  0.88328086983E+02  0.00000000000E+00 0.  1.
          1   -1    0    0  501    0  0.00000000000E+00 -0.00000000000E+00 -0.66819095398E+03  0.66819095398E+03  0.00000000000E+00 0. -1.
         23    2    1    2    0    0  0.17798128817E+02 -0.21146715139E+03 -0.23131550715E+03  0.33791963758E+03  0.12509071949E+03 0.  0.
          5    1    3    3  502    0  0.42045375411E+02 -0.21647780071E+03 -0.21473397383E+03  0.30782885458E+03  0.41800000000E+01 0. -1.
         -5    1    3    3    0  502 -0.24247246595E+02  0.50106493205E+01 -0.16581533323E+02  0.30090782997E+02  0.41800000000E+01 0. -1.
        -11    1    1    2    0    0 -0.31590442950E+02  0.16708860503E+03 -0.19778031786E+03  0.26083253660E+03  0.00000000000E+00 0.  1.
         11    1    1    2    0    0  0.13792314134E+02  0.44378546363E+02 -0.15076704198E+03  0.15776686678E+03  0.00000000000E+00 0. -1.
</event>
<event>
 6    1  0.6992302E-006  0.1172460E+03  0.7561462E-02  0.1247711E+00
         -1   -1    0    0    0  501 -0.00000000000E+00  0.00000000000E+00  0.66405358797E+02  0.66405358797E+02  0.00000000000E+00 0.  1.
          1   -1    0    0  501    0  0.00000000000E+00 -0.00000000000E+00 -0.25288940964E+03  0.25288940964E+03  0.00000000000E+00 0. -1.
          5    1    1    2  502    0  0.48779284717E+02  0.43033257533E+01 -0.37264860340E+01  0.49287892309E+02  0.41800000000E+01 0. -1.
         -5    1    1    2    0  502 -0.72469317754E+02  0.51555967837E+02 -0.79020503186E+02  0.11904424454E+03  0.41800000000E+01 0.  1.
        -11    1    1    2    0    0 -0.19452328524E+02  0.64753245768E+01  0.22824373615E+01  0.20628437500E+02  0.00000000000E+00 0.  1.
         11    1    1    2    0    0  0.43142361560E+02 -0.62334618167E+02 -0.10601949899E+03  0.13033419409E+03  0.00000000000E+00 0. -1.
</event>
<event>
 7    1  0.6992302E-006  0.1053804E+03  0.7561462E-02  0.1269372E+00
          1   -1    0    0  501    0  0.00000000000E+00  0.00000000000E+00  0.11052875999E+03  0.11052875999E+03  0.00000000000E+00 0. -1.
         -1   -1    0    0    0  501 -0.00000000000E+00 -0.00000000000E+00 -0.18485447544E+03  0.18485447544E+03  0.00000000000E+00 0.  1.
         23    2    1    2    0    0 -0.90015349685E+02  0.22920766768E+02 -0.41928268852E+02  0.16134624053E+03  0.12508598992E+03 0.  0.
          5    1    3    3  502    0 -0.39591287524E+02  0.31578861990E+02 -0.81833787026E+02  0.96327232242E+02  0.41800000000E+01 0.  1.
         -5    1    3    3    0  502 -0.50424062161E+02 -0.86580952218E+01  0.39905518174E+02  0.65019008286E+02  0.41800000000E+01 0.  1.
        -11    1    1    2    0    0  0.86499316726E+02 -0.10950009550E+01 -0.54928325984E+02  0.10247171227E+03  0.00000000000E+00 0.  1.
         11    1    1    2    0    0  0.35160329591E+01 -0.21825765813E+02  0.22530879387E+02  0.31565282623E+02  0.00000000000E+00 0. -1.
</event>
<event>
 7    1  0.6992302E-006  0.7700345E+02  0.7561462E-02  0.1337777E+00
          2   -1    0    0  501    0  0.00000000000E+00  0.00000000000E+00  0.24358716867E+03  0.24358716867E+03  0.00000000000E+00 0. -1.
         -2   -1    0    0    0  501 -0.00000000000E+00 -0.00000000000E+00 -0.62510434731E+02  0.62510434731E+02  0.00000000000E+00 0.  1.
         23    2    1    2    0    0 -0.43885016999E+02 -0.26559545211E+02  0.62259668371E+02  0.14884433601E+03  0.12508823245E+03 0.  0.
          5    1    3    3  502    0  0.13054649500E+02 -0.13755775289E+02 -0.32275238191E+02  0.37667076176E+02  0.41800000000E+01 0. -1.
         -5    1    3    3    0  502 -0.56939666499E+02 -0.12803769922E+02  0.94534906562E+02  0.11117725983E+03  0.41800000000E+01 0. -1.
        -11    1    1    2    0    0 -0.27717370731E+01  0.29213066249E+02 -0.24825647130E+00  0.29345313039E+02  0.00000000000E+00 0.  1.
         11    1    1    2    0    0  0.46656754072E+02 -0.26535210381E+01  0.11906532204E+03  0.12790795435E+03  0.00000000000E+00 0. -1.
</event>
<event>
 7    1  0.6992302E-006  0.1800279E+03  0.7561462E-02  0.1167776E+00
          2   -1    0    0  501    0  0.00000000000E+00  0.00000000000E+00  0.96029995615E+03  0.96029995615E+03  0.00000000000E+00 0. -1.
         -2   -1    0    0    0  501 -0.00000000000E+00 -0.00000000000E+00 -0.40929515638E+02  0.40929515638E+02  0.00000000000E+00 0.  1.
         23    2    1    2    0    0 -0.62374109896E+02 -0.15765296691E+03  0.43541176841E+03  0.48369503164E+03  0.12502994842E+03 0.  0.
          5    1    3    3  502    0 -0.41409513932E+02 -0.16301856368E+03  0.27949400723E+03  0.32622717916E+03  0.41800000000E+01 0.  1.
         -5    1    3    3    0  502 -0.20964595964E+02  0.53655967610E+01  0.15591776118E+03  0.15746785248E+03  0.41800000000E+01 0.  1.
        -11    1    1    2    0    0  0.21268679492E+02  0.65396679048E+02  0.10630970035E+03  0.12661293277E+03  0.00000000000E+00 0. -1.
         11    1    1    2    0    0  0.41105430404E+02  0.92256287867E+02  0.37764897175E+03  0.39092150737E+03  0.00000000000E+00 0.  1.
</event>
<event>
 7    1  0.6992302E-006  0.1161143E+03  0.7561462E-02  0.1249648E+00
          2   -1    0    0  501    0  0.00000000000E+00  0.00000000000E+00  0.43320898739E+03  0.43320898739E+03  0.00000000000E+00 0. -1.
         -2   -1    0    0    0  501 -0.00000000000E+00 -0.00000000000E+00 -0.48321509778E+02  0.48321509778E+02  0.00000000000E+00 0.  1.
         23    2    1    2    0    0  0.28461723935E+01 -0.52015689740E+02  0.79981797722E+02  0.15735193105E+03  0.12509520200E+03 0.  0.
          5    1    3    3  502    0  0.35056769590E+02  0.24229864032E+02  0.94483946294E+00  0.42830229123E+02  0.41800000000E+01 0. -1.
         -5    1    3    3    0  502 -0.32210597197E+02 -0.76245553772E+02  0.79036958259E+02  0.11452170193E+03  0.41800000000E+01 0. -1.
        -11    1    1    2    0    0 -0.47690366836E+02  0.21645125223E+02  0.10908365057E+03  0.12100465015E+03  0.00000000000E+00 0.  1.
         11    1    1    2    0    0  0.44844194443E+02  0.30370564517E+02  0.19582202931E+03  0.20317391597E+03  0.00000000000E+00 0. -1.
</event>
<event>
 7    1  0.6992302E-006  0.1570121E+03  0.7561462E-02  0.1192112E+00
         -1   -1    0    0    0  501 -0.00000000000E+00  0.00000000000E+00  0.39289770974E+02  0.39289770974E+02  0.00000000000E+00 0.  1.
          1   -1    0    0  501    0  0.00000000000E+00 -0.00000000000E+00 -0.76026409543E+03  0.76026409543E+03  0.00000000000E+00 0. -1.
         23    2    1    2    0    0  0.12450354142E+03 -0.46636810252E+02 -0.39436378966E+03  0.43456505804E+03  0.12509143527E+03 0.  0.
          5    1    3    3  502    0  0.13842140412E+03 -0.37474210551E+02 -0.24270343451E+03  0.28193479937E+03  0.41800000000E+01 0. -1.
         -5    1    3    3    0  502 -0.13917862705E+02 -0.91625997010E+01 -0.15166035515E+03  0.15263025867E+03  0.41800000000E+01 0. -1.
        -11    1    1    2    0    0 -0.24060933956E+02 -0.21287373620E+02 -0.27692258590E+02  0.42413936440E+02  0.00000000000E+00 0. -1.
         11    1    1    2    0    0 -0.10044260746E+03  0.67924183872E+02 -0.29891827620E+03  0.32257487192E+03  0.00000000000E+00 0.  1.
</event>
<event>
 7    1  0.6992302E-006  0.1267983E+03  0.7561462E-02  0.1232285E+00
         -2   -1    0    0    0  501 -0.00000000000E+00  0.00000000000E+00  0.12675028938E+03  0.12675028938E+03  0.00000000000E+00 0. -1.
          2   -1    0    0  501    0  0.00000000000E+00 -0.00000000000E+00 -0.20082293504E+03  0.20082293504E+03  0.00000000000E+00 0.  1.
         23    2    1    2    0    0 -0.74094916749E+02 -0.89652731653E+02 -0.35488773812E+02  0.17446197498E+03  0.12509939515E+03 0.  0.
          5    1    3    3  502    0 -0.85800085122E+02 -0.90203566772E+02  0.12217393745E+02  0.12516019805E+03  0.41800000000E+01 0.  1.
         -5    1    3    3    0  502  0.11705168373E+02  0.55083511840E+00 -0.47706167557E+02  0.49301776935E+02  0.41800000000E+01 0.  1.
        -11    1    1    2    0    0  0.17186854929E+02  0.26466493742E+02 -0.57870969776E+02  0.65915949634E+02  0.00000000000E+00 0.  1.
         11    1    1    2    0    0  0.56908061820E+02  0.63186237911E+02  0.19287097924E+02  0.87195299804E+02  0.00000000000E+00 0. -1.
</event>
<event>
 7    1  0.6992302E-006  0.1027959E+03  0.7561462E-02  0.1274524E+00
          1   -1    0    0  501    0  0.00000000000E+00  0.00000000000E+00  0.54539924482E+02  0.54539924482E+02  0.00000000000E+00 0. -1.
         -1   -1    0    0    0  501 -0.00000000000E+00 -0.00000000000E+00 -0.30215789396E+03  0.30215789396E+03  0.00000000000E+00 0.  1.
         23    2    1    2    0    0  0.21588841822E+02  0.65316101102E+02 -0.15337526704E+03  0.20953034850E+03  0.12508686281E+03 0.  0.
          5    1    3    3  502    0  0.11621054888E+02  0.96677368794E+02 -0.14601069649E+03  0.17555101380E+03  0.41800000000E+01 0. -1.
         -5    1    3    3    0  502  0.99677869346E+01 -0.31361267692E+02 -0.73645705463E+01  0.33979334704E+02  0.41800000000E+01 0. -1.
        -11    1    1    2    0    0  0.42302234969E+01 -0.34483122421E+02 -0.10062040790E+03  0.10644926965E+03  0.00000000000E+00 0.  1.
         11    1    1    2    0    0 -0.25819065319E+02 -0.30832978681E+02  0.63777054620E+01  0.40718200295E+02  0.00000000000E+00 0. -1.
</event>
<event>
 7    1  0.6992302E-006  0.1428517E+03  0.7561462E-02  0.1209542E+00
         -1   -1    0    0    0  501 -0.00000000000E+00  0.00000000000E+00  0.28017255294E+02  0.28017255294E+02  0.00000000000E+00 0.  1.
          1   -1    0    0  501    0  0.00000000000E+00 -0.00000000000E+00 -0.86496128271E+03  0.86496128271E+03  0.00000000000E+00 0. -1.
         23    2    1    2    0    0 -0.19370482587E+02  0.97923021149E+02 -0.31325996054E+03  0.35176336132E+03  0.12506608583E+03 0.  0.
          5    1    3    3  502    0  0.49925259417E+02  0.23698355092E+02 -0.79970814997E+02  0.97298238490E+02  0.41800000000E+01 0. -1.
         -5    1    3    3    0  502 -0.69295742003E+02  0.74224666056E+02 -0.23328914554E+03  0.25446512283E+03  0.41800000000E+01 0. -1.
        -11    1    1    2    0    0 -0.31122440187E+02 -0.50856745160E+02 -0.15394928141E+03  0.16509208357E+03  0.00000000000E+00 0.  1.
         11    1    1    2    0    0  0.50492922774E+02 -0.47066275989E+02 -0.36973478546E+03  0.37612309310E+03  0.00000000000E+00 0. -1.
</event>
<event>
 7    1  0.6992302E-006  0.1657911E+03  0.7561462E-02  0.1182309E+00
         -1   -1    0    0    0  501 -0.00000000000E+00  0.00000000000E+00  0.50089612101E+03  0.50089612101E+03  0.00000000000E+00 0.  1.
          1   -1    0    0  501    0  0.00000000000E+00 -0.00000000000E+00 -0.72321342525E+02  0.72321342525E+02  0.00000000000E+00 0. -1.
         23    2    1    2    0    0 -0.81930198968E+02 -0.11443727716E+03  0.31495000290E+03  0.36694885071E+03  0.12509798882E+03 0.  0.
          5    1    3    3  502    0 -0.10964969755E+03 -0.77657641251E+02  0.18255946460E+03  0.22671390767E+03  0.41800000000E+01 0. -1.
         -5    1    3    3    0  502  0.27719498578E+02 -0.36779635904E+02  0.13239053830E+03  0.14023494304E+03  0.41800000000E+01 0. -1.
        -11    1    1    2    0    0  0.84779010065E+02  0.80687360632E+02  0.37417957750E+02  0.12287405859E+03  0.00000000000E+00 0.  1.
         11    1    1    2    0    0 -0.28488110975E+01  0.33749916524E+02  0.76206817837E+02  0.83394554228E+02  0.00000000000E+00 0. -1.
</event>
<event>
 7    1  0.6992302E-006  0.1102711E+03  0.7561462E-02  0.1260069E+00
          2   -1    0    0  501    0  0.00000000000E+00  0.00000000000E+00  0.49601794597E+03  0.49601794597E+03  0.00000000000E+00 0. -1.
         -2   -1    0    0    0  501 -0.00000000000E+00 -0.00000000000E+00 -0.34903837498E+02  0.34903837498E+02  0.00000000000E+00 0.  1.
         23    2    1    2    0    0  0.48266939915E+01 -0.72964359291E+02  0.24416841588E+03  0.28393393160E+03  0.12511261926E+03 0.  0.
          5    1    3    3  502    0 -0.23951489085E+01  0.23050426921E+02  0.24078156096E+01  0.23671267299E+02  0.41800000000E+01 0.  1.
         -5    1    3    3    0  502  0.72218429000E+01 -0.96014786212E+02  0.24176060027E+03  0.26026266430E+03  0.41800000000E+01 0.  1.
        -11    1    1    2    0    0 -0.25564503013E+02  0.75513250616E+02  0.98533298445E+02  0.12674622572E+03  0.00000000000E+00 0.  1.
         11    1    1    2    0    0  0.20737809021E+02 -0.25488913249E+01  0.11841239415E+03  0.12024162614E+03  0.00000000000E+00 0. -1.
</event>
<event>
 7    1  0.6992302E-006  0.1073588E+03  0.7561462E-02  0.1265541E+00
         -2   -1    0    0    0  501 -0.00000000000E+00  0.00000000000E+00  0.25832872281E+02  0.25832872281E+02  0.00000000000E+00 0.  1.
          2   -1    0    0  501    0  0.00000000000E+00 -0.00000000000E+00 -0.68155179730E+03  0.68155179730E+03  0.00000000000E+00 0. -1.
         23    2    1    2    0    0 -0.72803332700E+02  0.96069005309E+01 -0.30806949250E+03  0.34051021129E+03  0.12509106281E+03 0.  0.
          5    1    3    3  502    0 -0.53413491941E+02  0.46332617558E+02 -0.28319875162E+03  0.29192245185E+03  0.41800000000E+01 0. -1.
         -5    1    3    3    0  502 -0.19389840759E+02 -0.36725717027E+02 -0.24870740872E+02  0.48587759440E+02  0.41800000000E+01 0. -1.
        -11    1    1    2    0    0  0.40814339170E+02  0.30422087254E+02 -0.26333995873E+03  0.26821492788E+03  0.00000000000E+00 0.  1.
         11    1    1    2    0    0  0.31988993530E+02 -0.40028987784E+02 -0.84309473797E+02  0.98659530417E+02  0.00000000000E+00 0. -1.
</event>
<event>
 7    1  0.6992302E-006  0.1548335E+03  0.7561462E-02  0.1194656E+00
         -1   -1    0    0    0  501 -0.00000000000E+00  0.00000000000E+00  0.31748120433E+03  0.31748120433E+03  0.00000000000E+00 0.  1.
          1   -1    0    0  501    0  0.00000000000E+00 -0.00000000000E+00 -0.81744896140E+02  0.81744896140E+02  0.00000000000E+00 0. -1.
         23    2    1    2    0    0 -0.77199273478E+02 -0.88894571787E+02  0.10412006414E+03  0.20087368260E+03  0.12508907181E+03 0.  0.
          5    1    3    3  502    0 -0.10545246064E+03 -0.43766457833E+02  0.49595760307E+02  0.12455093788E+03  0.41800000000E+01 0.  1.
         -5    1    3    3    0  502  0.28253187161E+02 -0.45128113953E+02  0.54524303829E+02  0.76322744721E+02  0.41800000000E+01 0.  1.
        -11    1    1    2    0    0 -0.34954216771E+00 -0.13532808284E+02 -0.11720001501E+01  0.13587960264E+02  0.00000000000E+00 0. -1.
         11    1    1    2    0    0  0.77548815646E+02  0.10242738007E+03  0.13278824421E+03  0.18476445761E+03  0.00000000000E+00 0.  1.
</event>
<event>
 7    1  0.6992302E-006  0.1425125E+03  0.7561462E-02  0.1209988E+00
          2   -1    0    0  501    0  0.00000000000E+00  0.00000000000E+00  0.29305895444E+03  0.29305895444E+03  0.00000000000E+00 0.  1.
         -2   -1    0    0    0  501 -0.00000000000E+00 -0.00000000000E+00 -0.85697664681E+02  0.85697664681E+02  0.00000000000E+00 0. -1.
         23    2    1    2    0    0 -0.65687655697E+02  0.93631906960E+02  0.11469910074E+03  0.20465928316E+03  0.12509091238E+03 0.  0.
          5    1    3    3  502    0  0.81015038997E+01 -0.79784441880E+01 -0.18139008709E+02  0.21812518746E+02  0.41800000000E+01 0.  1.
         -5    1    3    3    0  502 -0.73789159597E+02  0.10161035115E+03  0.13283810945E+03  0.18284676441E+03  0.41800000000E+01 0.  1.
        -11    1    1    2    0    0  0.30626213646E+01  0.18541823428E+02  0.14278601709E+02  0.23602062037E+02  0.00000000000E+00 0.  1.
         11    1    1    2    0    0  0.62625034333E+02 -0.11217373039E+03  0.78383587310E+02  0.15049527393E+03  0.00000000000E+00 0. -1.
</event>
<event>
 7    1  0.6992302E-006  0.1647502E+03  0.7561462E-02  0.1183436E+00
         -1   -1    0    0    0  501 -0.00000000000E+00  0.00000000000E+00  0.20250211800E+03  0.20250211800E+03  0.00000000000E+00 0.  1.
          1   -1    0    0  501    0  0.00000000000E+00 -0.00000000000E+00 -0.33169387802E+03  0.33169387802E+03  0.00000000000E+00 0. -1.
         23    2    1    2    0    0  0.10345292638E+03  0.70641088769E+02 -0.36789071841E+02  0.18081635540E+03  0.12509375354E+03 0.  0.
          5    1    3    3  502    0  0.76941462103E+02  0.25619914481E+02  0.37867330605E+02  0.89597855642E+02  0.41800000000E+01 0.  1.
         -5    1    3    3    0  502  0.26511464278E+02  0.45021174288E+02 -0.74656402446E+02  0.91218499761E+02  0.41800000000E+01 0.  1.
        -11    1    1    2    0    0  0.51365487268E+00  0.42341806817E+02  0.99193084039E+02  0.10785342075E+03  0.00000000000E+00 0.  1.
         11    1    1    2    0    0 -0.10396658125E+03 -0.11298289559E+03 -0.19159577221E+03  0.24552621987E+03  0.00000000000E+00 0. -1.
</event>
<event>
 7    1  0.6992302E-006  0.1179051E+03  0.7561462E-02  0.1246594E+00
          1   -1    0    0  501    0  0.00000000000E+00  0.00000000000E+00  0.33994637431E+03  0.33994637431E+03  0.00000000000E+00 0. -1.
         -1   -1    0    0    0  501 -0.00000000000E+00 -0.00000000000E+00 -0.93848998530E+02  0.93848998530E+02  0.00000000000E+00 0.  1.
         23    2    1    2    0    0 -0.97549469716E+02 -0.15319286491E+02  0.68614000083E+01  0.15951433865E+03  0.12508863195E+03 0.  0.
          5    1    3    3  502    0 -0.51789234083E+02 -0.23953305756E+02 -0.56739234398E+02  0.80577284291E+02  0.41800000000E+01 0.  1.
         -5    1    3    3    0  502 -0.45760235633E+02  0.86340192643E+01  0.63600634407E+02  0.78937054358E+02  0.41800000000E+01 0.  1.
        -11    1    1    2    0    0 -0.84729874307E+01 -0.18671558236E+02  0.21377803516E+02  0.29621429508E+02  0.00000000000E+00 0.  1.
         11    1    1    2    0    0  0.10602245715E+03  0.33990844727E+02  0.21785817226E+03  0.24465960469E+03  0.00000000000E+00 0. -1.
</event>
<event>
 6    1  0.6992302E-006  0.2402016E+03  0.7561462E-02  0.1119659E+00
          1   -1    0    0  501    0  0.00000000000E+00  0.00000000000E+00  0.16763484337E+03  0.16763484337E+03  0.00000000000E+00 0. -1.
         -1   -1    0    0    0  501 -0.00000000000E+00 -0.00000000000E+00 -0.68662243455E+03  0.68662243455E+03  0.00000000000E+00 0.  1.
          5    1    1    2  502    0 -0.77569171505E+02  0.11839196619E+03 -0.46333330678E+03  0.48448824506E+03  0.41800000000E+01 0. -1.
         -5    1    1    2    0  502 -0.76544410967E+02  0.49537825056E+02 -0.79378473386E+02  0.12096056134E+03  0.41800000000E+01 0.  1.
        -11    1    1    2    0    0  0.16423769238E+03 -0.13352745290E+03  0.17278076540E+02  0.21237262584E+03  0.00000000000E+00 0. -1.
         11    1    1    2    0    0 -0.10124109907E+02 -0.34402338350E+02  0.64461124498E+01  0.36435845689E+02  0.00000000000E+00 0.  1.
</event>
<event>
 7    1  0.6992302E-006  0.1250717E+03  0.7561462E-02  0.1234957E+00
         -1   -1    0    0    0  501 -0.00000000000E+00  0.00000000000E+00  0.58518608181E+02  0.58518608181E+02  0.00000000000E+00 0.  1.
          1   -1    0    0  501    0  0.00000000000E+00 -0.00000000000E+00 -0.34087128327E+03  0.34087128327E+03  0.00000000000E+00 0. -1.
         23    2    1    2    0    0 -0.61594694313E+01 -0.80101053230E+02 -0.11501322275E+03  0.18795677233E+03  0.12508232916E+03 0.  0.
          5    1    3    3  502    0  0.41023721495E+02 -0.23313125238E+02  0.43214578128E+01  0.47566741861E+02  0.41800000000E+01 0.  1.
         -5    1    3    3    0  502 -0.47183190927E+02 -0.56787927992E+02 -0.11933468056E+03  0.14039003047E+03  0.41800000000E+01 0.  1.
        -11    1    1    2    0    0  0.43946246169E+02  0.43375713377E+01 -0.65526471702E+02  0.79017754784E+02  0.00000000000E+00 0. -1.
         11    1    1    2    0    0 -0.37786776738E+02  0.75763481892E+02 -0.10181298064E+03  0.13241536433E+03  0.00000000000E+00 0.  1.
</event>
<event>
 6    1  0.6992302E-006  0.7681058E+02  0.7561462E-02  0.1338354E+00
          3   -1    0    0  501    0  0.00000000000E+00  0.00000000000E+00  0.96795798788E+02  0.96795798788E+02  0.00000000000E+00 0. -1.
         -3   -1    0    0    0  501 -0.00000000000E+00 -0.00000000000E+00 -0.24926693682E+03  0.24926693682E+03  0.00000000000E+00 0.  1.
          5    1    1    2  502    0  0.42978362186E+02  0.12187861955E+02  0.26046714972E+02  0.51880510368E+02  0.41800000000E+01 0. -1.
         -5    1    1    2    0  502 -0.39930927622E+02 -0.40112418243E+02 -0.21965722778E+03  0.22687056925E+03  0.41800000000E+01 0.  1.
        -11    1    1    2    0    0 -0.77161084726E+01 -0.10645545975E+02  0.44672075295E+01  0.13886033349E+02  0.00000000000E+00 0. -1.
         11    1    1    2    0    0  0.46686739087E+01  0.38570102262E+02  0.36672167240E+02  0.53425622642E+02  0.00000000000E+00 0.  1.
</event>
<event>
 7    1  0.6992302E-006  0.1668102E+03  0.7561462E-02  0.1181216E+00
         -4   -1    0    0    0  501 -0.00000000000E+00  0.00000000000E+00  0.19050338586E+03  0.19050338586E+03  0.00000000000E+00 0.  1.
          4   -1    0    0  501    0  0.00000000000E+00 -0.00000000000E+00 -0.20342076081E+03  0.20342076081E+03  0.00000000000E+00 0. -1.
         23    2    1    2    0    0  0.14389143988E+03  0.10250339851E+01  0.71372676159E+02  0.20358480303E+03  0.12508763312E+03 0.  0.
          5    1    3    3  502    0  0.12489712939E+02  0.45002406015E+02  0.39569498390E+02  0.61354927098E+02  0.41800000000E+01 0.  1.
         -5    1    3    3    0  502  0.13140172694E+03 -0.43977372030E+02  0.31803177769E+02  0.14222987594E+03  0.41800000000E+01 0.  1.
        -11    1    1    2    0    0 -0.31492540031E+02 -0.14918502396E+02  0.16659283349E+02  0.38624778485E+02  0.00000000000E+00 0.  1.
         11    1    1    2    0    0 -0.11239889985E+03  0.13893468411E+02 -0.10094933445E+03  0.15171456515E+03  0.00000000000E+00 0. -1.
</event>
<event>
 7    1  0.6992302E-006  0.6734245E+02  0.7561462E-02  0.1369371E+00
         -2   -1    0    0    0  501 -0.00000000000E+00  0.00000000000E+00  0.24227262773E+03  0.24227262773E+03  0.00000000000E+00 0. -1.
          2   -1    0    0  501    0  0.00000000000E+00 -0.00000000000E+00 -0.64090296669E+02  0.64090296669E+02  0.00000000000E+00 0.  1.
         23    2    1    2    0    0 -0.58015721370E+02 -0.13445679009E+02  0.84991889988E+02  0.16253408141E+03  0.12508835296E+03 0.  0.
          5    1    3    3  502    0 -0.23756577494E+02 -0.11662734773E+02  0.11419033803E+03  0.11729151741E+03  0.41800000000E+01 0. -1.
         -5    1    3    3    0  502 -0.34259143876E+02 -0.17829442364E+01 -0.29198448045E+02  0.45242564002E+02  0.41800000000E+01 0. -1.
        -11    1    1    2    0    0  0.18258623380E+02 -0.15664741916E+02 -0.12576785481E+02  0.27146583580E+02  0.00000000000E+00 0.  1.
         11    1    1    2    0    0  0.39757097990E+02  0.29110420925E+02  0.10576722655E+03  0.11668225941E+03  0.00000000000E+00 0. -1.
</event>
<event>
 7    1  0.6992302E-006  0.1090368E+03  0.7561462E-02  0.1262364E+00
          1   -1    0    0  501    0  0.00000000000E+00  0.00000000000E+00  0.23629755103E+02  0.23629755103E+02  0.00000000000E+00 0. -1.
         -1   -1    0    0    0  501 -0.00000000000E+00 -0.00000000000E+00 -0.69442477116E+03  0.69442477116E+03  0.00000000000E+00 0.  1.
         23    2    1    2    0    0 -0.34227344488E+02  0.53960077890E+02 -0.45036322862E+03  0.47175983022E+03  0.12508836320E+03 0.  0.
          5    1    3    3  502    0 -0.13694125463E+02 -0.25644398527E+02 -0.29019024880E+03  0.29167279123E+03  0.41800000000E+01 0.  1.
         -5    1    3    3    0  502 -0.20533219026E+02  0.79604476417E+02 -0.16017297982E+03  0.18008703899E+03  0.41800000000E+01 0.  1.
        -11    1    1    2    0    0  0.50571613559E+02 -0.68066313600E+02 -0.14646023741E+03  0.16923685263E+03  0.00000000000E+00 0. -1.
         11    1    1    2    0    0 -0.16344269070E+02  0.14106235710E+02 -0.73971550028E+02  0.77057843409E+02  0.00000000000E+00 0.  1.
</event>
<event>
 6    1  0.6992302E-006  0.1138592E+03  0.7561462E-02  0.1253586E+00
         -1   -1    0    0    0  501 -0.00000000000E+00  0.00000000000E+00  0.36195655191E+02  0.36195655191E+02  0.00000000000E+00 0.  1.
          1   -1    0    0  501    0  0.00000000000E+00 -0.00000000000E+00 -0.67235409421E+03  0.67235409421E+03  0.00000000000E+00 0. -1.
          5    1    1    2  502    0  0.17432402227E+02  0.50682268274E+02 -0.25370144046E+03  0.25933467615E+03  0.41800000000E+01 0. -1.
         -5    1    1    2    0  502  0.37773676988E+02 -0.78488003101E+02 -0.49376230279E+02  0.10021328166E+03  0.41800000000E+01 0.  1.
        -11    1    1    2    0    0 -0.64357707305E+02  0.78938226338E+01 -0.31174491137E+03  0.31841657728E+03  0.00000000000E+00 0. -1.
         11    1    1    2    0    0  0.91516280896E+01  0.19911912194E+02 -0.21335856910E+02  0.30585214304E+02  0.00000000000E+00 0.  1.
</event>
<event>
 7    1  0.6992302E-006  0.8900403E+02  0.7561462E-02  0.1305282E+00
          2   -1    0    0  501    0  0.00000000000E+00  0.00000000000E+00  0.17976692815E+03  0.17976692815E+03  0.00000000000E+00 0. -1.
         -2   -1    0    0    0  501 -0.00000000000E+00 -0.00000000000E+00 -0.85257224842E+02  0.85257224842E+02  0.00000000000E+00 0.  1.
         23    2    1    2    0    0  0.54898378326E+02  0.11932785751E+02  0.29649909227E+02  0.14029439902E+03  0.12508868038E+03 0.  0.
          5    1    3    3  502    0  0.42802365859E+01 -0.25034903017E+02  0.63797116009E+02  0.68793976520E+02  0.41800000000E+01 0.  1.
         -5    1    3    3    0  502  0.50618141740E+02  0.36967688768E+02 -0.34147206783E+02  0.71500422496E+02  0.41800000000E+01 0.  1.
        -11    1    1    2    0    0 -0.49566024759E+02 -0.38242511037E+02  0.96553286788E+01  0.63344343336E+02  0.00000000000E+00 0.  1.
         11    1    1    2    0    0 -0.53323535674E+01  0.26309725286E+02  0.55204465398E+02  0.61385410637E+02  0.00000000000E+00 0. -1.
</event>
<event>
 7    1  0.1115271E-005  0.2130019E+03  0.7561462E-02  0.1139211E+00
          1   -1    0    0  501    0  0.00000000000E+00  0.00000000000E+00  0.15873247174E+03  0.15873247174E+03  0.00000000000E+00 0. -1.
         -1   -1    0    0    0  501 -0.00000000000E+00 -0.00000000000E+00 -0.37655830529E+03  0.37655830529E+03  0.00000000000E+00 0.  1.
         23    2    1    2    0    0 -0.12083080962E+03  0.16957308931E+03 -0.18440991055E+03  0.30497470046E+03  0.12508971038E+03 0.  0.
          5    1    3    3  502    0 -0.11883606329E+03  0.12352791087E+03 -0.19272455308E+03  0.25795615996E+03  0.41800000000E+01 0.  1.
         -5    1    3    3    0  502 -0.19947463324E+01  0.46045178437E+02  0.83146425343E+01  0.47018540500E+02  0.41800000000E+01 0.  1.
        -11    1    1    2    0    0  0.93169806568E+02 -0.13389560647E+03  0.15374051966E+02  0.16384446210E+03  0.00000000000E+00 0. -1.
         11    1    1    2    0    0  0.27661003057E+02 -0.35677482838E+02 -0.48789974972E+02  0.66471614465E+02  0.00000000000E+00 0.  1.
</event>
<event>
 7    1  0.6992302E-006  0.1326660E+03  0.7561462E-02  0.1223553E+00
         -2   -1    0    0    0  501 -0.00000000000E+00  0.00000000000E+00  0.10631279979E+03  0.10631279979E+03  0.00000000000E+00 0.  1.
          2   -1    0    0  501    0  0.00000000000E+00 -0.00000000000E+00 -0.21330761555E+03  0.21330761555E+03  0.00000000000E+00 0. -1.
         23    2    1    2    0    0 -0.51577742390E+02  0.62751481336E+02  0.10618962991E+01  0.14914349139E+03  0.12507854125E+03 0.  0.
          5    1    3    3  502    0 -0.42421265804E+02  0.99520342119E+02  0.13362074282E+02  0.10908656983E+03  0.41800000000E+01 0. -1.
         -5    1    3    3    0  502 -0.91564765863E+01 -0.36768860783E+02 -0.12300177982E+02  0.40056921564E+02  0.41800000000E+01 0. -1.
        -11    1    1    2    0    0  0.54480431000E+02  0.16236153990E+01 -0.13674145884E+02  0.56193734122E+02  0.00000000000E+00 0.  1.
         11    1    1    2    0    0 -0.29026886105E+01 -0.64375096735E+02 -0.94382566168E+02  0.11428318983E+03  0.00000000000E+00 0. -1.
</event>
<event>
 7    1  0.6992302E-006  0.1424738E+03  0.7561462E-02  0.1210039E+00
         -2   -1    0    0    0  501 -0.00000000000E+00  0.00000000000E+00  0.21358584007E+03  0.21358584007E+03  0.00000000000E+00 0.  1.
          2   -1    0    0  501    0  0.00000000000E+00 -0.00000000000E+00 -0.11054038509E+03  0.11054038509E+03  0.00000000000E+00 0. -1.
         23    2    1    2    0    0 -0.10545737110E+03  0.24141851396E+02  0.67573118704E+02  0.17865443310E+03  0.12508874444E+03 0.  0.
          5    1    3    3  502    0 -0.13130251186E+03  0.25814421444E+02  0.72055153080E+02  0.15203996666E+03  0.41800000000E+01 0.  1.
         -5    1    3    3    0  502  0.25845140764E+02 -0.16725700477E+01 -0.44820343764E+01  0.26614466438E+02  0.41800000000E+01 0.  1.
        -11    1    1    2    0    0  0.92733145303E+02 -0.42891830133E+02  0.54575058650E+02  0.11583428835E+03  0.00000000000E+00 0.  1.
         11    1    1    2    0    0  0.12724225798E+02  0.18749978737E+02 -0.19102722365E+02  0.29637503717E+02  0.00000000000E+00 0. -1.
</event>
<event>
 7    1  0.6992302E-006  0.1094910E+03  0.7561462E-02  0.1261515E+00
          1   -1    0    0  501    0  0.00000000000E+00  0.00000000000E+00  0.66561789371E+03  0.66561789371E+03  0.00000000000E+00 0. -1.
         -1   -1    0    0    0  501 -0.00000000000E+00 -0.00000000000E+00 -0.29448037335E+02  0.29448037335E+02  0.00000000000E+00 0.  1.
         23    2    1    2    0    0  0.72275754195E+02  0.41234385944E+02  0.27428046798E+03  0.31273279671E+03  0.12509183744E+03 0.  0.
          5    1    3    3  502    0 -0.23677148616E+02  0.15283408526E+02  0.97490367318E+01  0.30111560238E+02  0.41800000000E+01 0.  1.
         -5    1    3    3    0  502  0.95952902811E+02  0.25950977418E+02  0.26453143125E+03  0.28262123647E+03  0.41800000000E+01 0.  1.
        -11    1    1    2    0    0 -0.53869853752E+02 -0.10059162789E+02  0.32864198770E+03  0.33317968723E+03  0.00000000000E+00 0. -1.
         11    1    1    2    0    0 -0.18405900444E+02 -0.31175223155E+02  0.33247400696E+02  0.49153447111E+02  0.00000000000E+00 0.  1.
</event>
<event>
 7    1  0.6992302E-006  0.1030073E+03  0.7561462E-02  0.1274096E+00
          2   -1    0    0  501    0  0.00000000000E+00  0.00000000000E+00  0.18214813866E+03  0.18214813866E+03  0.00000000000E+00 0. -1.
         -2   -1    0    0    0  501 -0.00000000000E+00 -0.00000000000E+00 -0.64592807114E+02  0.64592807114E+02  0.00000000000E+00 0.  1.
         23    2    1    2    0    0  0.92830356883E+01  0.22861459276E+02  0.68009733566E+02  0.14450517558E+03  0.12509037069E+03 0.  0.
          5    1    3    3  502    0 -0.24360694201E+01  0.69074863939E+02  0.11069673521E+02  0.70123329458E+02  0.41800000000E+01 0. -1.
         -5    1    3    3    0  502  0.11719105108E+02 -0.46213404662E+02  0.56940060045E+02  0.74381846125E+02  0.41800000000E+01 0. -1.
        -11    1    1    2    0    0  0.37993420381E+02 -0.15640339263E+02  0.17446067119E+02  0.44637265401E+02  0.00000000000E+00 0.  1.
         11    1    1    2    0    0 -0.47276456070E+02 -0.72211200135E+01  0.32099530863E+02  0.57598504793E+02  0.00000000000E+00 0. -1.
</event>
<event>
 7    1  0.6992302E-006  0.6283217E+02  0.7561462E-02  0.1386317E+00
         -1   -1    0    0    0  501 -0.00000000000E+00  0.00000000000E+00  0.10663553062E+03  0.10663553062E+03  0.00000000000E+00 0.  1.
          1   -1    0    0  501    0  0.00000000000E+00 -0.00000000000E+00 -0.12184522449E+03  0.12184522449E+03  0.00000000000E+00 0. -1.
         23    2    1    2    0    0  0.19764228629E+02  0.13420117174E+02  0.17394203357E+02  0.12852258198E+03  0.12507906096E+03 0.  0.
          5    1    3    3  502    0  0.18244402803E+02  0.24643708545E+02  0.68947894472E+02  0.75574169904E+02  0.41800000000E+01 0.  1.
         -5    1    3    3    0  502  0.15198258262E+01 -0.11223591371E+02 -0.51553691115E+02  0.52948412076E+02  0.41800000000E+01 0.  1.
        -11    1    1    2    0    0  0.23956035222E+02 -0.27728498513E+02  0.92197321172E+01  0.37785773959E+02  0.00000000000E+00 0.  1.
         11    1    1    2    0    0 -0.43720263851E+02  0.14308381339E+02 -0.41823629346E+02  0.62172399177E+02  0.00000000000E+00 0. -1.
</event>
<event>
 6    1  0.6992302E-006  0.1926027E+03  0.7561462E-02  0.1156135E+00
          1   -1    0    0  501    0  0.00000000000E+00  0.00000000000E+00  0.90966984413E+03  0.90966984413E+03  0.00000000000E+00 0. -1.
         -1   -1    0    0    0  501 -0.00000000000E+00 -0.00000000000E+00 -0.55156912269E+02  0.55156912269E+02  0.00000000000E+00 0.  1.
          5    1    1    2  502    0  0.33392928063E+02 -0.33745151123E+02  0.21915180723E+03  0.22427396167E+03  0.41800000000E+01 0. -1.
         -5    1    1    2    0  502  0.13875050425E+03 -0.76059226272E+01  0.10513040132E+03  0.17429694825E+03  0.41800000000E+01 0.  1.
        -11    1    1    2    0    0 -0.35617430710E+02  0.50382871886E+02  0.15260157142E+03  0.16460338620E+03  0.00000000000E+00 0. -1.
         11    1    1    2    0    0 -0.13652600160E+03 -0.90317981359E+01  0.37762915188E+03  0.40165246027E+03  0.00000000000E+00 0.  1.
</event>
<event>
 7    1  0.6992302E-006  0.9249586E+02  0.7561462E-02  0.1296918E+00
          3   -1    0    0  501    0  0.00000000000E+00  0.00000000000E+00  0.70292878708E+02  0.70292878708E+02  0.00000000000E+00 0. -1.
         -3   -1    0    0    0  501 -0.00000000000E+00 -0.00000000000E+00 -0.27112723207E+03  0.27112723207E+03  0.00000000000E+00 0.  1.
         23    2    1    2    0    0 -0.13313149305E+02  0.82128157953E+02 -0.13295913863E+03  0.20061900787E+03  0.12509028539E+03 0.  0.
          5    1    3    3  502    0 -0.38498696621E+01  0.21891675045E+02  0.23518306581E+02  0.32628976036E+02  0.41800000000E+01 0.  1.
         -5    1    3    3    0  502 -0.94632796433E+01  0.60236482908E+02 -0.15647744521E+03  0.16799003183E+03  0.41800000000E+01 0.  1.
        -11    1    1    2    0    0 -0.16506551487E+02 -0.31079814639E+01 -0.52282493195E+02  0.54914341346E+02  0.00000000000E+00 0.  1.
         11    1    1    2    0    0  0.29819700792E+02 -0.79020176489E+02 -0.15592721539E+02  0.85886761568E+02  0.00000000000E+00 0. -1.
</event>
<event>
 7    1  0.6992302E-006  0.1348426E+03  0.7561462E-02  0.1220442E+00
         -3   -1    0    0    0  501 -0.00000000000E+00  0.00000000000E+00  0.12359428510E+03  0.12359428510E+03  0.00000000000E+00 0.  1.
          3   -1    0    0  501    0  0.00000000000E+00 -0.00000000000E+00 -0.20792746082E+03  0.20792746082E+03  0.00000000000E+00 0. -1.
         23    2    1    2    0    0 -0.99651387425E+02 -0.29375765785E+02  0.99716566999E+01  0.16291250787E+03  0.12509083361E+03 0.  0.
          5    1    3    3  502    0 -0.39834064658E+02  0.29501708126E+02  0.49381873111E+02  0.70093831979E+02  0.41800000000E+01 0.  1.
         -5    1    3    3    0  502 -0.59817322767E+02 -0.58877473911E+02 -0.39410216411E+02  0.92818675894E+02  0.41800000000E+01 0.  1.
        -11    1    1    2    0    0  0.14215556735E+02 -0.29090279183E+02 -0.68641079300E+01  0.33097467787E+02  0.00000000000E+00 0. -1.
         11    1    1    2    0    0  0.85435830690E+02  0.58466044967E+02 -0.87440724485E+02  0.13551177026E+03  0.00000000000E+00 0.  1.
</event>
<event>
 7    1  0.6992302E-006  0.1323130E+03  0.7561462E-02  0.1224063E+00
         -4   -1    0    0    0  501 -0.00000000000E+00  0.00000000000E+00  0.17626260137E+03  0.17626260137E+03  0.00000000000E+00 0.  1.
          4   -1    0    0  501    0  0.00000000000E+00 -0.00000000000E+00 -0.15294923480E+03  0.15294923480E+03  0.00000000000E+00 0. -1.
         23    2    1    2    0    0  0.50529777972E+01  0.86416356077E+02  0.99907565694E+02  0.18199418240E+03  0.12508813518E+03 0.  0.
          5    1    3    3  502    0 -0.22527306994E+02 -0.26560810397E+02  0.16154580563E+02  0.38618636466E+02  0.41800000000E+01 0.  1.
         -5    1    3    3    0  502  0.27580284791E+02  0.11297716647E+03  0.83752985131E+02  0.14337554593E+03  0.41800000000E+01 0.  1.
        -11    1    1    2    0    0  0.12296497093E+02  0.96044821827E+01  0.84836644869E+01  0.17760137440E+02  0.00000000000E+00 0.  1.
         11    1    1    2    0    0 -0.17349474890E+02 -0.96020838259E+02 -0.85077863606E+02  0.12945751633E+03  0.00000000000E+00 0. -1.
</event>
<event>
 7    1  0.6992302E-006  0.1074266E+03  0.7561462E-02  0.1265411E+00
         -2   -1    0    0    0  501 -0.00000000000E+00  0.00000000000E+00  0.23242833639E+03  0.23242833639E+03  0.00000000000E+00 0.  1.
          2   -1    0    0  501    0  0.00000000000E+00 -0.00000000000E+00 -0.55097613621E+02  0.55097613621E+02  0.00000000000E+00 0. -1.
         23    2    1    2    0    0 -0.10047526365E+02 -0.36357746001E+02  0.12257562658E+03  0.17923369413E+03  0.12520820420E+03 0.  0.
          5    1    3    3  502    0 -0.39791383429E+02 -0.67631615055E+02  0.45512485403E+02  0.90808855723E+02  0.41800000000E+01 0. -1.
         -5    1    3    3    0  502  0.29743857064E+02  0.31273869053E+02  0.77063141181E+02  0.88424838407E+02  0.41800000000E+01 0. -1.
        -11    1    1    2    0    0 -0.35225600577E+02  0.61751233832E+00  0.15307324395E+02  0.38412737960E+02  0.00000000000E+00 0.  1.
         11    1    1    2    0    0  0.45273126941E+02  0.35740233663E+02  0.39447771786E+02  0.69879517916E+02  0.00000000000E+00 0. -1.
</event>
<event>
 7    1  0.6992302E-006  0.8725943E+02  0.7561462E-02  0.1309627E+00
          2   -1    0    0  501    0  0.00000000000E+00  0.00000000000E+00  0.33809658406E+02  0.33809658406E+02  0.00000000000E+00 0. -1.
         -2   -1    0    0    0  501 -0.00000000000E+00 -0.00000000000E+00 -0.47210184381E+03  0.47210184381E+03  0.00000000000E+00 0.  1.
         23    2    1    2    0    0  0.86791780587E+01  0.35551062149E+02 -0.35148137670E+03  0.37486799009E+03  0.12509054989E+03 0.  0.
          5    1    3    3  502    0  0.37347247398E+02  0.61255640380E+02 -0.11773813915E+03  0.13793771122E+03  0.41800000000E+01 0.  1.
         -5    1    3    3    0  502 -0.28668069339E+02 -0.25704578231E+02 -0.23374323756E+03  0.23693027887E+03  0.41800000000E+01 0.  1.
        -11    1    1    2    0    0  0.16300442924E+02  0.43295851759E+01  0.12603195108E+02  0.21054459723E+02  0.00000000000E+00 0. -1.
         11    1    1    2    0    0 -0.24979620982E+02 -0.39880647325E+02 -0.99414003804E+02  0.10998905240E+03  0.00000000000E+00 0.  1.
</event>
<event>
 7    1  0.6992302E-006  0.1062852E+03  0.7561462E-02  0.1267608E+00
          1   -1    0    0  501    0  0.00000000000E+00  0.00000000000E+00  0.43672468613E+03  0.43672468613E+03  0.00000000000E+00 0. -1.
         -1   -1    0    0    0  501 -0.00000000000E+00 -0.00000000000E+00 -0.43388180546E+02  0.43388180546E+02  0.00000000000E+00 0.  1.
         23    2    1    2    0    0 -0.50438415030E+02 -0.37083813084E+02  0.11935936466E+03  0.18388485882E+03  0.12509092880E+03 0.  0.
          5    1    3    3  502    0 -0.18049082967E+02 -0.58703209173E+02  0.35810139623E+01  0.61661432226E+02  0.41800000000E+01 0.  1.
         -5    1    3    3    0  502 -0.32389332063E+02  0.21619396089E+02  0.11577835070E+03  0.12222342660E+03  0.41800000000E+01 0.  1.
        -11    1    1    2    0    0  0.26401822230E+02  0.67849562723E+02  0.16103934283E+03  0.17673225319E+03  0.00000000000E+00 0. -1.
         11    1    1    2    0    0  0.24036592800E+02 -0.30765749639E+02  0.11293779809E+03  0.11949575466E+03  0.00000000000E+00 0.  1.
</event>
<event>
 7    1  0.6992302E-006  0.8485081E+02  0.7561462E-02  0.1315823E+00
         -1   -1    0    0    0  501 -0.00000000000E+00  0.00000000000E+00  0.97333146181E+02  0.97333146181E+02  0.00000000000E+00 0.  1.
          1   -1    0    0  501    0  0.00000000000E+00 -0.00000000000E+00 -0.15112553051E+03  0.15112553051E+03  0.00000000000E+00 0. -1.
         23    2    1    2    0    0 -0.39008462362E+01 -0.17639911152E+02 -0.23309833940E+01  0.12641064428E+03  0.12509130440E+03 0.  0.
          5    1    3    3  502    0  0.85698772888E+01  0.35160815941E+02  0.42449855343E+02  0.55939149019E+02  0.41800000000E+01 0. -1.
         -5    1    3    3    0  502 -0.12470723525E+02 -0.52800727092E+02 -0.44780838737E+02  0.70471495264E+02  0.41800000000E+01 0. -1.
        -11    1    1    2    0    0 -0.10618364652E+02  0.45885394243E+02  0.14130483439E+02  0.49172041192E+02  0.00000000000E+00 0.  1.
         11    1    1    2    0    0  0.14519210889E+02 -0.28245483092E+02 -0.65591884370E+02  0.72875991212E+02  0.00000000000E+00 0. -1.
</event>
<event>
 7    1  0.6992302E-006  0.1242510E+03  0.7561462E-02  0.1236244E+00
         -2   -1    0    0    0  501 -0.00000000000E+00  0.00000000000E+00  0.58317193513E+02  0.58317193513E+02  0.00000000000E+00 0.  1.
          2   -1    0    0  501    0  0.00000000000E+00 -0.00000000000E+00 -0.44379856380E+03  0.44379856380E+03  0.00000000000E+00 0. -1.
         23    2    1    2    0    0 -0.47531777766E+01 -0.10754078867E+03 -0.13072016597E+03  0.21053158488E+03  0.12509265572E+03 0.  0.
          5    1    3    3  502    0 -0.16498988953E+02 -0.28350231537E+02 -0.12595600158E+03  0.13022418746E+03  0.41800000000E+01 0.  1.
         -5    1    3    3    0  502  0.11745811176E+02 -0.79190557133E+02 -0.47641643880E+01  0.80307397427E+02  0.41800000000E+01 0.  1.
        -11    1    1    2    0    0 -0.32255729363E+02  0.14941852535E+02 -0.11152784075E+03  0.11705618436E+03  0.00000000000E+00 0.  1.
         11    1    1    2    0    0  0.37008907139E+02  0.92598936134E+02 -0.14323336356E+03  0.17452798806E+03  0.00000000000E+00 0. -1.
</event>
<event>
 6    1  0.6992302E-006  0.1116450E+03  0.7561462E-02  0.1257554E+00
         -1   -1    0    0    0  501 -0.00000000000E+00  0.00000000000E+00  0.11426004409E+04  0.11426004409E+04  0.00000000000E+00 0.  1.
          1   -1    0    0  501    0  0.00000000000E+00 -0.00000000000E+00 -0.13835774669E+02  0.13835774669E+02  0.00000000000E+00 0. -1.
          5    1    1    2  502    0  0.48658527869E+02 -0.29022373975E+02  0.26155933680E+03  0.26765782184E+03  0.41800000000E+01 0. -1.
         -5    1    1    2    0  502 -0.50405710839E+02  0.53631410487E+02  0.60859053887E+03  0.61303913438E+03  0.41800000000E+01 0.  1.
        -11    1    1    2    0    0  0.14596786759E+02  0.31755506571E+02  0.66637672531E+02  0.75246646315E+02  0.00000000000E+00 0.  1.
         11    1    1    2    0    0 -0.12849603789E+02 -0.56364543083E+02  0.19197711802E+03  0.20049261303E+03  0.00000000000E+00 0. -1.
</event>
<event>
 7    1  0.6992302E-006  0.1099588E+03  0.7561462E-02  0.1260646E+00
          1   -1    0    0  501    0  0.00000000000E+00  0.00000000000E+00  0.39080929752E+03  0.39080929752E+03  0.00000000000E+00 0. -1.
         -1   -1    0    0    0  501 -0.00000000000E+00 -0.00000000000E+00 -0.37393950567E+02  0.37393950567E+02  0.00000000000E+00 0.  1.
         23    2    1    2    0    0  0.86075808509E+01 -0.41260003813E+02  0.13716476762E+03  0.19036281645E+03  0.12508936825E+03 0.  0.
          5    1    3    3  502    0  0.48861544403E+02 -0.59880898522E+02  0.49066501517E+02  0.91641510793E+02  0.41800000000E+01 0.  1.
         -5    1    3    3    0  502 -0.40253963552E+02  0.18620894709E+02  0.88098266102E+02  0.98721305662E+02  0.41800000000E+01 0.  1.
        -11    1    1    2    0    0 -0.45118108765E+02  0.32037968067E+01  0.11719080493E+03  0.12561684923E+03  0.00000000000E+00 0.  1.
         11    1    1    2    0    0  0.36510527914E+02  0.38056207007E+02  0.99059774413E+02  0.11222358240E+03  0.00000000000E+00 0. -1.
</event>
<event>
 7    1  0.6992302E-006  0.1012086E+03  0.7561462E-02  0.1277775E+00
          3   -1    0    0  501    0  0.00000000000E+00  0.00000000000E+00  0.26223661918E+03  0.26223661918E+03  0.00000000000E+00 0. -1.
         -3   -1    0    0    0  501 -0.00000000000E+00 -0.00000000000E+00 -0.56065066960E+02  0.56065066960E+02  0.00000000000E+00 0.  1.
         23    2    1    2    0    0 -0.40279767967E+02  0.35442757804E+02  0.10247613947E+03  0.17036775763E+03  0.12508063356E+03 0.  0.
          5    1    3    3  502    0 -0.41986928991E+02  0.64470704273E+02  0.15540150409E+02  0.78602433742E+02  0.41800000000E+01 0. -1.
         -5    1    3    3    0  502  0.17071610236E+01 -0.29027946469E+02  0.86935989060E+02  0.91765323891E+02  0.41800000000E+01 0. -1.
        -11    1    1    2    0    0  0.25909908307E+02  0.23706966856E+02  0.10561938247E+02  0.36672853250E+02  0.00000000000E+00 0.  1.
         11    1    1    2    0    0  0.14369859660E+02 -0.59149724659E+02  0.93133474508E+02  0.11126107526E+03  0.00000000000E+00 0. -1.
</event>
<event>
 7    1  0.6992302E-006  0.3087366E+03  0.7561462E-02  0.1080953E+00
         -2   -1    0    0    0  501 -0.00000000000E+00  0.00000000000E+00  0.10187752312E+03  0.10187752312E+03  0.00000000000E+00 0.  1.
          2   -1    0    0  501    0  0.00000000000E+00 -0.00000000000E+00 -0.12250900340E+04  0.12250900340E+04  0.00000000000E+00 0. -1.
         23    2    1    2    0    0 -0.15344530912E+03  0.26391504736E+03 -0.29869178606E+03  0.44296833139E+03  0.11750550815E+03 0.  0.
          5    1    3    3  502    0 -0.90654998304E+02  0.10969440900E+03 -0.66300524867E+02  0.15704911359E+03  0.41800000000E+01 0. -1.
         -5    1    3    3    0  502 -0.62790310815E+02  0.15422063837E+03 -0.23239126119E+03  0.28591921780E+03  0.41800000000E+01 0.  1.
        -11    1    1    2    0    0  0.86183774458E+02 -0.10409365625E+03 -0.47469756919E+03  0.49355943355E+03  0.00000000000E+00 0.  1.
         11    1    1    2    0    0  0.67261534661E+02 -0.15982139111E+03 -0.34982315567E+03  0.39043979221E+03  0.00000000000E+00 0. -1.
</event>
<event>
 7    1  0.6992302E-006  0.1542026E+03  0.7561462E-02  0.1195402E+00
          1   -1    0    0  501    0  0.00000000000E+00  0.00000000000E+00  0.98402375816E+02  0.98402375816E+02  0.00000000000E+00 0. -1.
         -1   -1    0    0    0  501 -0.00000000000E+00 -0.00000000000E+00 -0.43255751721E+03  0.43255751721E+03  0.00000000000E+00 0.  1.
         23    2    1    2    0    0  0.41055064877E+02 -0.14513246753E+03 -0.28846888483E+03  0.34872747917E+03  0.12509039023E+03 0.  0.
          5    1    3    3  502    0  0.50527585688E+02 -0.12609846765E+03 -0.12765189434E+03  0.18645733826E+03  0.41800000000E+01 0.  1.
         -5    1    3    3    0  502 -0.94725208112E+01 -0.19033999872E+02 -0.16081699049E+03  0.16227014091E+03  0.41800000000E+01 0.  1.
        -11    1    1    2    0    0 -0.31116256769E+02  0.11061370330E+03 -0.73845321653E+02  0.13658969333E+03  0.00000000000E+00 0.  1.
         11    1    1    2    0    0 -0.99388081083E+01  0.34518764221E+02  0.28159065093E+02  0.45642720525E+02  0.00000000000E+00 0. -1.
</event>
<event>
 7    1  0.6992302E-006  0.1100995E+03  0.7561462E-02  0.1260386E+00
         -2   -1    0    0    0  501 -0.00000000000E+00  0.00000000000E+00  0.39855534078E+02  0.39855534078E+02  0.00000000000E+00 0.  1.
          2   -1    0    0  501    0  0.00000000000E+00 -0.00000000000E+00 -0.54125961386E+03  0.54125961386E+03  0.00000000000E+00 0. -1.
         23    2    1    2    0    0 -0.46634137233E+02  0.81244155069E+02 -0.21171215479E+03  0.26314969968E+03  0.12510144870E+03 0.  0.
          5    1    3    3  502    0 -0.11510402259E+02  0.10470709153E+02 -0.17532403946E+03  0.17606281926E+03  0.41800000000E+01 0. -1.
         -5    1    3    3    0  502 -0.35123734974E+02  0.70773445916E+02 -0.36388115328E+02  0.87086880427E+02  0.41800000000E+01 0. -1.
        -11    1    1    2    0    0 -0.20613193226E+02 -0.42801949283E+02 -0.15998645616E+03  0.16689091273E+03  0.00000000000E+00 0. -1.
         11    1    1    2    0    0  0.67247330459E+02 -0.38442205785E+02 -0.12970546883E+03  0.15107453552E+03  0.00000000000E+00 0.  1.
</event>
<event>
 7    1  0.6992302E-006  0.1665595E+03  0.7561462E-02  0.1181484E+00
         -1   -1    0    0    0  501 -0.00000000000E+00  0.00000000000E+00  0.60453104100E+03  0.60453104100E+03  0.00000000000E+00 0.  1.
          1   -1    0    0  501    0  0.00000000000E+00 -0.00000000000E+00 -0.48676669940E+02  0.48676669940E+02  0.00000000000E+00 0. -1.
         23    2    1    2    0    0  0.12509208261E+03 -0.34884318572E+02  0.35305029058E+03  0.39642605024E+03  0.12507661977E+03 0.  0.
          5    1    3    3  502    0 -0.37737103682E+01 -0.46467100081E+02  0.13452162299E+03  0.14243234089E+03  0.41800000000E+01 0. -1.
         -5    1    3    3    0  502  0.12886579298E+03  0.11582781509E+02  0.21852866759E+03  0.25399370935E+03  0.41800000000E+01 0. -1.
        -11    1    1    2    0    0 -0.55693404110E+02  0.61100004502E+02  0.95259526719E+02  0.12613224505E+03  0.00000000000E+00 0. -1.
         11    1    1    2    0    0 -0.69398678502E+02 -0.26215685930E+02  0.10754455376E+03  0.13064941565E+03  0.00000000000E+00 0.  1.
</event>
<event>
 6    1  0.6992302E-006  0.1485804E+03  0.7561462E-02  0.1202228E+00
         -2   -1    0    0    0  501 -0.00000000000E+00  0.00000000000E+00  0.10629811147E+03  0.10629811147E+03  0.00000000000E+00 0.  1.
          2   -1    0    0  501    0  0.00000000000E+00 -0.00000000000E+00 -0.23456563591E+03  0.23456563591E+03  0.00000000000E+00 0. -1.
          5    1    1    2  502    0  0.67188597633E+02  0.67645667082E+02 -0.81490255530E+02  0.12549254190E+03  0.41800000000E+01 0. -1.
         -5    1    1    2    0  502  0.24134180604E+02 -0.68891437315E+02  0.11739565452E+02  0.74052539495E+02  0.41800000000E+01 0.  1.
        -11    1    1    2    0    0 -0.60426351842E+02  0.44791557494E+02 -0.32881021151E+02  0.82090128344E+02  0.00000000000E+00 0.  1.
         11    1    1    2    0    0 -0.30896426394E+02 -0.43545787262E+02 -0.25635813208E+02  0.59228537640E+02  0.00000000000E+00 0. -1.
</event>
<event>
 7    1  0.6992302E-006  0.1568745E+03  0.7561462E-02  0.1192271E+00
         -2   -1    0    0    0  501 -0.00000000000E+00  0.00000000000E+00  0.10822938632E+03  0.10822938632E+03  0.00000000000E+00 0.  1.
          2   -1    0    0  501    0  0.00000000000E+00 -0.00000000000E+00 -0.26000186396E+03  0.26000186396E+03  0.00000000000E+00 0. -1.
         23    2    1    2    0    0  0.25022507290E+02 -0.11651278610E+03 -0.34184941343E+02  0.17611658916E+03  0.12508831907E+03 0.  0.
          5    1    3    3  502    0  0.21665088615E+02 -0.13828447974E+03 -0.49984334301E+02  0.14868718666E+03  0.41800000000E+01 0.  1.
         -5    1    3    3    0  502  0.33574186747E+01  0.21771693637E+02  0.15799392958E+02  0.27429402506E+02  0.41800000000E+01 0.  1.
        -11    1    1    2    0    0  0.34649214895E+02  0.28019158984E+02 -0.26847961488E+02  0.52023594639E+02  0.00000000000E+00 0.  1.
         11    1    1    2    0    0 -0.59671722186E+02  0.88493627115E+02 -0.90739574808E+02  0.14009106647E+03  0.00000000000E+00 0. -1.
</event>
<event>
 7    1  0.6992302E-006  0.9391583E+02  0.7561462E-02  0.1293637E+00
          1   -1    0    0  501    0  0.00000000000E+00  0.00000000000E+00  0.20747065928E+02  0.20747065928E+02  0.00000000000E+00 0. -1.
         -1   -1    0    0    0  501 -0.00000000000E+00 -0.00000000000E+00 -0.12548478045E+04  0.12548478045E+04  0.00000000000E+00 0.  1.
         23    2    1    2    0    0  0.65296459383E+02 -0.33277786749E+01 -0.10520961885E+04  0.10615218816E+04  0.12509042211E+03 0.  0.
          5    1    3    3  502    0  0.11233290466E+02 -0.27630699725E+02 -0.55414735511E+02  0.63070656360E+02  0.41800000000E+01 0. -1.
         -5    1    3    3    0  502  0.54063168917E+02  0.24302921050E+02 -0.99668145295E+03  0.99845122528E+03  0.41800000000E+01 0. -1.
        -11    1    1    2    0    0  0.96443920912E+01 -0.17960249036E+02 -0.95529089967E+02  0.97680048496E+02  0.00000000000E+00 0.  1.
         11    1    1    2    0    0 -0.74940851474E+02  0.21288027711E+02 -0.86475460152E+02  0.11639294030E+03  0.00000000000E+00 0. -1.
</event>
<event>
 7    1  0.6992302E-006  0.9889960E+02  0.7561462E-02  0.1282627E+00
          4   -1    0    0  501    0  0.00000000000E+00  0.00000000000E+00  0.86038573432E+03  0.86038573432E+03  0.00000000000E+00 0. -1.
         -4   -1    0    0    0  501 -0.00000000000E+00 -0.00000000000E+00 -0.28301460788E+02  0.28301460788E+02  0.00000000000E+00 0.  1.
         23    2    1    2    0    0  0.44169560348E+01 -0.78086347470E+02  0.21939311351E+03  0.26438150491E+03  0.12508898722E+03 0.  0.
          5    1    3    3  502    0  0.89905900889E+00 -0.63397033438E+02  0.23429319825E+03  0.24275660095E+03  0.41800000000E+01 0. -1.
         -5    1    3    3    0  502  0.35178970259E+01 -0.14689314033E+02 -0.14900084742E+02  0.21624903966E+02  0.41800000000E+01 0. -1.
        -11    1    1    2    0    0  0.77044220081E+01 -0.19126610849E+02  0.76052415707E+02  0.78798193482E+02  0.00000000000E+00 0.  1.
         11    1    1    2    0    0 -0.12121378043E+02  0.97212958319E+02  0.53663874431E+03  0.54550749671E+03  0.00000000000E+00 0. -1.
</event>
<event>
 7    1  0.6992302E-006  0.9939858E+02  0.7561462E-02  0.1281566E+00
          2   -1    0    0  501    0  0.00000000000E+00  0.00000000000E+00  0.24699396146E+03  0.24699396146E+03  0.00000000000E+00 0. -1.
         -2   -1    0    0    0  501 -0.00000000000E+00 -0.00000000000E+00 -0.49179765106E+02  0.49179765106E+02  0.00000000000E+00 0.  1.
         23    2    1    2    0    0  0.17785657844E+02  0.41206417134E+01  0.93102718465E+02  0.15705810027E+03  0.12516317894E+03 0.  0.
          5    1    3    3  502    0 -0.53229462170E+02  0.10461300906E+02  0.48256756021E+02  0.72725520702E+02  0.41800000000E+01 0.  1.
         -5    1    3    3    0  502  0.71015120014E+02 -0.63406591929E+01  0.44845962444E+02  0.84332579571E+02  0.41800000000E+01 0.  1.
        -11    1    1    2    0    0  0.26392018470E+02 -0.10359817585E+02  0.35772579944E+01  0.28577285282E+02  0.00000000000E+00 0.  1.
         11    1    1    2    0    0 -0.44177676314E+02  0.62391758719E+01  0.10113421989E+03  0.11053834101E+03  0.00000000000E+00 0. -1.
</event>
<event>
 7    1  0.6992302E-006  0.9644077E+02  0.7561462E-02  0.1287964E+00
         -2   -1    0    0    0  501 -0.00000000000E+00  0.00000000000E+00  0.15028590591E+03  0.15028590591E+03  0.00000000000E+00 0.  1.
          2   -1    0    0  501    0  0.00000000000E+00 -0.00000000000E+00 -0.11369073000E+03  0.11369073000E+03  0.00000000000E+00 0. -1.
         23    2    1    2    0    0 -0.80860220399E+01  0.65398240287E+02  0.52706947771E+02  0.15087925285E+03  0.12507682843E+03 0.  0.
          5    1    3    3  502    0 -0.66668286730E+01 -0.10047905935E+02  0.71803365948E+02  0.72928751393E+02  0.41800000000E+01 0. -1.
         -5    1    3    3    0  502 -0.14191933669E+01  0.75446146222E+02 -0.19096418177E+02  0.77950501453E+02  0.41800000000E+01 0. -1.
        -11    1    1    2    0    0 -0.32179236870E+02 -0.59217879449E+01  0.13517135434E+02  0.35401748662E+02  0.00000000000E+00 0.  1.
         11    1    1    2    0    0  0.40265258910E+02 -0.59476452342E+02 -0.29628907294E+02  0.77695634406E+02  0.00000000000E+00 0. -1.
</event>
<event>
 6    1  0.6992302E-006  0.8870352E+02  0.7561462E-02  0.1306022E+00
          1   -1    0    0  501    0  0.00000000000E+00  0.00000000000E+00  0.40412528201E+03  0.40412528201E+03  0.00000000000E+00 0. -1.
         -1   -1    0    0    0  501 -0.00000000000E+00 -0.00000000000E+00 -0.36682600620E+02  0.36682600620E+02  0.00000000000E+00 0.  1.
          5    1    1    2  502    0 -0.59552004737E+02 -0.52044122733E+01  0.18346595851E+03  0.19300455308E+03  0.41800000000E+01 0. -1.
         -5    1    1    2    0  502  0.21854233243E+02 -0.19588973496E+02 -0.80672193309E+01  0.30722757379E+02  0.41800000000E+01 0.  1.
        -11    1    1    2    0    0 -0.15691113566E+02 -0.14643347248E+02  0.10735909671E+03  0.10948339742E+03  0.00000000000E+00 0. -1.
         11    1    1    2    0    0  0.53388885060E+02  0.39436733017E+02  0.84684845501E+02  0.10759717476E+03  0.00000000000E+00 0.  1.
</event>
<event>
 7    1  0.6992302E-006  0.8706385E+02  0.7561462E-02  0.1310122E+00
          1   -1    0    0  501    0  0.00000000000E+00  0.00000000000E+00  0.15913695633E+03  0.15913695633E+03  0.00000000000E+00 0. -1.
         -1   -1    0    0    0  501 -0.00000000000E+00 -0.00000000000E+00 -0.86813335415E+02  0.86813335415E+02  0.00000000000E+00 0.  1.
         23    2    1    2    0    0  0.45414109949E+02 -0.10768840308E+02  0.34201259715E+02  0.13781766818E+03  0.12508226969E+03 0.  0.
          5    1    3    3  502    0  0.14665574776E+02  0.23742430054E+02 -0.40806401963E+02  0.49612668841E+02  0.41800000000E+01 0.  1.
         -5    1    3    3    0  502  0.30748535172E+02 -0.34511270362E+02  0.75007661679E+02  0.88204999335E+02  0.41800000000E+01 0.  1.
        -11    1    1    2    0    0  0.20199567110E+02 -0.18741044156E+02  0.19942579415E+01  0.27626550856E+02  0.00000000000E+00 0.  1.
         11    1    1    2    0    0 -0.65613677058E+02  0.29509884464E+02  0.36128103255E+02  0.80506072709E+02  0.00000000000E+00 0. -1.
</event>
<event>
 7    1  0.6992302E-006  0.1090534E+03  0.7561462E-02  0.1262333E+00
         -1   -1    0    0    0  501 -0.00000000000E+00  0.00000000000E+00  0.69685603538E+02  0.69685603538E+02  0.00000000000E+00 0.  1.
          1   -1    0    0  501    0  0.00000000000E+00 -0.00000000000E+00 -0.25277852547E+03  0.25277852547E+03  0.00000000000E+00 0. -1.
         23    2    1    2    0    0 -0.18098571669E+02 -0.53747915901E+02 -0.38704548480E+02  0.14269360839E+03  0.12508807714E+03 0.  0.
          5    1    3    3  502    0 -0.62811780052E+02 -0.33272570639E+00 -0.11898844880E+00  0.62951703535E+02  0.41800000000E+01 0.  1.
         -5    1    3    3    0  502  0.44713208382E+02 -0.53415190194E+02 -0.38585560032E+02  0.79741904857E+02  0.41800000000E+01 0.  1.
        -11    1    1    2    0    0  0.42175134524E+02  0.36153420914E+02 -0.13870278393E+03  0.14941309878E+03  0.00000000000E+00 0. -1.
         11    1    1    2    0    0 -0.24076562855E+02  0.17594494987E+02 -0.56855895247E+01  0.30357421843E+02  0.00000000000E+00 0.  1.
</event>
<event>
 7    1  0.6992302E-006  0.9012882E+02  0.7561462E-02  0.1302540E+00
         -1   -1    0    0    0  501 -0.00000000000E+00  0.00000000000E+00  0.10370310403E+03  0.10370310403E+03  0.00000000000E+00 0.  1.
          1   -1    0    0  501    0  0.00000000000E+00 -0.00000000000E+00 -0.14624580050E+03  0.14624580050E+03  0.00000000000E+00 0. -1.
         23    2    1    2    0    0  0.53442151928E+02 -0.26815932133E+01  0.36866458524E+01  0.13610462093E+03  0.12509045502E+03 0.  0.
          5    1    3    3  502    0  0.85253974510E+02  0.11406932909E+02 -0.26238201514E+02  0.90023740796E+02  0.41800000000E+01 0. -1.
         -5    1    3    3    0  502 -0.31811822582E+02 -0.14088526122E+02  0.29924847367E+02  0.46080880137E+02  0.41800000000E+01 0. -1.
        -11    1    1    2    0    0 -0.38021660884E+02 -0.97966647945E+01  0.20454867377E+02  0.44272146287E+02  0.00000000000E+00 0.  1.
         11    1    1    2    0    0 -0.15420491044E+02  0.12478258008E+02 -0.66684209700E+02  0.69572137312E+02  0.00000000000E+00 0. -1.
</event>
<event>
 7    1  0.6992302E-006  0.1316769E+03  0.7561462E-02  0.1224988E+00
          1   -1    0    0  501    0  0.00000000000E+00  0.00000000000E+00  0.22330090926E+03  0.22330090926E+03  0.00000000000E+00 0. -1.
         -1   -1    0    0    0  501 -0.00000000000E+00 -0.00000000000E+00 -0.13951327089E+03  0.13951327089E+03  0.00000000000E+00 0.  1.
         23    2    1    2    0    0 -0.90838419640E+02 -0.71513132125E+02 -0.38101543152E+02  0.17454198611E+03  0.12508969093E+03 0.  0.
          5    1    3    3  502    0 -0.20779561622E+00 -0.12585438682E+02 -0.62290120905E+02  0.63686482147E+02  0.41800000000E+01 0. -1.
         -5    1    3    3    0  502 -0.90630624024E+02 -0.58927693443E+02  0.24188577753E+02  0.11085550396E+03  0.41800000000E+01 0. -1.
        -11    1    1    2    0    0  0.92179380542E+02  0.25183680051E+02  0.68512403656E+02  0.11758063358E+03  0.00000000000E+00 0.  1.
         11    1    1    2    0    0 -0.13409609015E+01  0.46329452073E+02  0.53376777858E+02  0.70691560459E+02  0.00000000000E+00 0. -1.
</event>
<event>
 7    1  0.6992302E-006  0.1798192E+03  0.7561462E-02  0.1167978E+00
          2   -1    0    0  501    0  0.00000000000E+00  0.00000000000E+00  0.41790365070E+03  0.41790365070E+03  0.00000000000E+00 0.  1.
         -2   -1    0    0    0  501 -0.00000000000E+00 -0.00000000000E+00 -0.11345941440E+03  0.11345941440E+03  0.00000000000E+00 0. -1.
         23    2    1    2    0    0  0.16646320141E+03  0.12992563342E+02  0.56239732454E+02  0.21593725470E+03  0.12484865371E+03 0.  0.
          5    1    3    3  502    0  0.71125901335E+02  0.26140465167E+02  0.86397425391E+02  0.11499654462E+03  0.41800000000E+01 0.  1.
         -5    1    3    3    0  502  0.95337300075E+02 -0.13147901825E+02 -0.30157692938E+02  0.10094071008E+03  0.41800000000E+01 0.  1.
        -11    1    1    2    0    0 -0.97262060832E+02  0.34815882967E+02  0.17827201942E+03  0.20604117814E+03  0.00000000000E+00 0.  1.
         11    1    1    2    0    0 -0.69201140579E+02 -0.47808446309E+02  0.69932484434E+02  0.10938463226E+03  0.00000000000E+00 0. -1.
</event>
<event>
 7    1  0.6992302E-006  0.2489711E+03  0.7561462E-02  0.1113957E+00
          2   -1    0    0  501    0  0.00000000000E+00  0.00000000000E+00  0.91617660250E+03  0.91617660250E+03  0.00000000000E+00 0. -1.
         -2   -1    0    0    0  501 -0.00000000000E+00 -0.00000000000E+00 -0.10126733157E+03  0.10126733157E+03  0.00000000000E+00 0.  1.
         23    2    1    2    0    0 -0.22796180495E+03 -0.28712927853E+02  0.13550401952E+03  0.29461866305E+03  0.12509116902E+03 0.  0.
          5    1    3    3  502    0 -0.50269223209E+02 -0.51611392548E+02  0.38940282328E+01  0.72272861426E+02  0.41800000000E+01 0. -1.
         -5    1    3    3    0  502 -0.17769258174E+03  0.22898464696E+02  0.13160999129E+03  0.22234580162E+03  0.41800000000E+01 0. -1.
        -11    1    1    2    0    0  0.12416846298E+03 -0.29410597775E+02  0.36557494704E+03  0.38720515540E+03  0.00000000000E+00 0.  1.
         11    1    1    2    0    0  0.10379334197E+03  0.58123525627E+02  0.31383030437E+03  0.33562011562E+03  0.00000000000E+00 0. -1.
</event>
<event>
 7    1  0.6992302E-006  0.9770727E+02  0.7561462E-02  0.1285192E+00
          1   -1    0    0  501    0  0.00000000000E+00  0.00000000000E+00  0.14976126594E+03  0.14976126594E+03  0.00000000000E+00 0. -1.
         -1   -1    0    0    0  501 -0.00000000000E+00 -0.00000000000E+00 -0.10160557680E+03  0.10160557680E+03  0.00000000000E+00 0.  1.
         23    2    1    2    0    0 -0.40629278843E+02  0.32672012473E+02  0.78906045777E+01  0.13575247656E+03  0.12509306357E+03 0.  0.
          5    1    3    3  502    0 -0.70172780110E+02  0.16695477046E+02 -0.35678676462E+02  0.80581625550E+02  0.41800000000E+01 0. -1.
         -5    1    3    3    0  502  0.29543501267E+02  0.15976535427E+02  0.43569281040E+02  0.55170851015E+02  0.41800000000E+01 0. -1.
        -11    1    1    2    0    0  0.11670788373E+02  0.23432997102E+02 -0.16304937262E+02  0.30840940866E+02  0.00000000000E+00 0. -1.
         11    1    1    2    0    0  0.28958490470E+02 -0.56105009574E+02  0.56570021820E+02  0.84773425308E+02  0.00000000000E+00 0.  1.
</event>
<event>
 7    1  0.6992302E-006  0.9879545E+02  0.7561462E-02  0.1282850E+00
         -1   -1    0    0    0  501 -0.00000000000E+00  0.00000000000E+00  0.53324112656E+03  0.53324112656E+03  0.00000000000E+00 0.  1.
          1   -1    0    0  501    0  0.00000000000E+00 -0.00000000000E+00 -0.32610814893E+02  0.32610814893E+02  0.00000000000E+00 0. -1.
         23    2    1    2    0    0 -0.44437119234E+01 -0.67903994241E+00  0.43556753479E+03  0.45319515984E+03  0.12508624175E+03 0.  0.
          5    1    3    3  502    0 -0.38234164614E+02  0.48967237381E+02  0.17449108308E+03  0.18526805487E+03  0.41800000000E+01 0.  1.
         -5    1    3    3    0  502  0.33790452690E+02 -0.49646277323E+02  0.26107645171E+03  0.26792710498E+03  0.41800000000E+01 0.  1.
        -11    1    1    2    0    0 -0.21958359551E+02  0.29019872122E+02  0.64337769966E+02  0.73916650197E+02  0.00000000000E+00 0.  1.
         11    1    1    2    0    0  0.26402071475E+02 -0.28340832180E+02  0.72500691565E+00  0.38740131412E+02  0.00000000000E+00 0. -1.
</event>
<event>
 6    1  0.6992302E-006  0.2726030E+03  0.7561462E-02  0.1099799E+00
          1   -1    0    0  501    0  0.00000000000E+00  0.00000000000E+00  0.41418894053E+03  0.41418894053E+03  0.00000000000E+00 0. -1.
         -1   -1    0    0    0  501 -0.00000000000E+00 -0.00000000000E+00 -0.23882737018E+03  0.23882737018E+03  0.00000000000E+00 0.  1.
          5    1    1    2  502    0 -0.96207361462E+02  0.13327307273E+03 -0.63786082497E+02  0.17636242523E+03  0.41800000000E+01 0. -1.
         -5    1    1    2    0  502 -0.24591516650E+02 -0.21143610237E+03  0.41498516175E+02  0.21690912227E+03  0.41800000000E+01 0.  1.
        -11    1    1    2    0    0  0.12753475723E+03  0.46876478470E+02  0.16846813752E+03  0.21643482135E+03  0.00000000000E+00 0. -1.
         11    1    1    2    0    0 -0.67358791210E+01  0.31286551176E+02  0.29180999159E+02  0.43309941860E+02  0.00000000000E+00 0.  1.
</event>
<event>
 7    1  0.6992302E-006  0.8971070E+02  0.7561462E-02  0.1303554E+00
         -1   -1    0    0    0  501 -0.00000000000E+00  0.00000000000E+00  0.83268841511E+02  0.83268841511E+02  0.00000000000E+00 0.  1.
          1   -1    0    0  501    0  0.00000000000E+00 -0.00000000000E+00 -0.20569455745E+03  0.20569455745E+03  0.00000000000E+00 0. -1.
         23    2    1    2    0    0 -0.62532943537E+02  0.37213492407E+02 -0.85109256658E+02  0.16788588188E+03  0.12508745229E+03 0.  0.
          5    1    3    3  502    0 -0.31295544126E+02  0.47285950673E+02 -0.11176596521E+03  0.12539727107E+03  0.41800000000E+01 0. -1.
         -5    1    3    3    0  502 -0.31237399411E+02 -0.10072458266E+02  0.26656708550E+02  0.42488610806E+02  0.41800000000E+01 0. -1.
        -11    1    1    2    0    0  0.73863248778E+01 -0.33390862936E+02  0.21473103611E+02  0.40380709522E+02  0.00000000000E+00 0.  1.
         11    1    1    2    0    0  0.55146618659E+02 -0.38226294708E+01 -0.58789562893E+02  0.80696807562E+02  0.00000000000E+00 0. -1.
</event>
<event>
 6    1  0.6992302E-006  0.2998273E+03  0.7561462E-02  0.1085327E+00
         -2   -1    0    0    0  501 -0.00000000000E+00  0.00000000000E+00  0.10696271130E+03  0.10696271130E+03  0.00000000000E+00 0.  1.
          2   -1    0    0  501    0  0.00000000000E+00 -0.00000000000E+00 -0.17264489740E+04  0.17264489740E+04  0.00000000000E+00 0. -1.
          5    1    1    2  502    0 -0.14611947705E+03  0.30648620849E+02 -0.52099986034E+03  0.54198576218E+03  0.41800000000E+01 0. -1.
         -5    1    1    2    0  502 -0.68089695768E+02  0.14996929852E+03 -0.11420689914E+02  0.16515114812E+03  0.41800000000E+01 0.  1.
        -11    1    1    2    0    0  0.10332206404E+02  0.34219080322E+01 -0.10135843330E+02  0.14872769204E+02  0.00000000000E+00 0.  1.
         11    1    1    2    0    0  0.20387696641E+03 -0.18403982740E+03 -0.10769298691E+04  0.11114020058E+04  0.00000000000E+00 0. -1.
</event>
<event>
 7    1  0.6992302E-006  0.1035392E+03  0.7561462E-02  0.1273025E+00
          1   -1    0    0  501    0  0.00000000000E+00  0.00000000000E+00  0.62026812704E+02  0.62026812704E+02  0.00000000000E+00 0. -1.
         -1   -1    0    0    0  501 -0.00000000000E+00 -0.00000000000E+00 -0.20551740505E+03  0.20551740505E+03  0.00000000000E+00 0.  1.
         23    2    1    2    0    0  0.12376845959E+02  0.17866007711E+02 -0.10858196520E+03  0.16719078892E+03  0.12526107211E+03 0.  0.
          5    1    3    3  502    0  0.12847769132E+02 -0.52917754507E+02 -0.60568541141E+02  0.81555959254E+02  0.41800000000E+01 0. -1.
         -5    1    3    3    0  502 -0.47092317259E+00  0.70783762219E+02 -0.48013424058E+02  0.85634829668E+02  0.41800000000E+01 0. -1.
        -11    1    1    2    0    0  0.31388211815E+02 -0.20859212183E+02  0.85057410237E+01  0.38635142089E+02  0.00000000000E+00 0. -1.
         11    1    1    2    0    0 -0.43765057774E+02  0.29932044724E+01 -0.43414368172E+02  0.61718286745E+02  0.00000000000E+00 0.  1.
</event>
<event>
 7    1  0.6992302E-006  0.2096454E+03  0.7561462E-02  0.1141847E+00
         -1   -1    0    0    0  501 -0.00000000000E+00  0.00000000000E+00  0.56090593430E+03  0.56090593430E+03  0.00000000000E+00 0.  1.
          1   -1    0    0  501    0  0.00000000000E+00 -0.00000000000E+00 -0.10472773921E+03  0.10472773921E+03  0.00000000000E+00 0. -1.
         23    2    1    2    0    0 -0.19466026108E+03  0.77465143110E+02  0.16041759249E+03  0.29201731343E+03  0.12508733637E+03 0.  0.
          5    1    3    3  502    0 -0.15855129039E+03  0.63036082560E+02  0.54585431121E+02  0.17919012551E+03  0.41800000000E+01 0.  1.
         -5    1    3    3    0  502 -0.36108970688E+02  0.14429060549E+02  0.10583216137E+03  0.11282718792E+03  0.41800000000E+01 0.  1.
        -11    1    1    2    0    0  0.63674156992E+02 -0.25504165918E+02  0.17525870978E+03  0.18820328398E+03  0.00000000000E+00 0.  1.
         11    1    1    2    0    0  0.13098610409E+03 -0.51960977191E+02  0.12050189281E+03  0.18541307609E+03  0.00000000000E+00 0. -1.
</event>
<event>
 7    1  0.6992302E-006  0.1506284E+03  0.7561462E-02  0.1199703E+00
          2   -1    0    0  501    0  0.00000000000E+00  0.00000000000E+00  0.56741008376E+03  0.56741008376E+03  0.00000000000E+00 0.  1.
         -2   -1    0    0    0  501 -0.00000000000E+00 -0.00000000000E+00 -0.53518702215E+02  0.53518702215E+02  0.00000000000E+00 0. -1.
         23    2    1    2    0    0 -0.12693794765E+03  0.45843125028E+02  0.33498563503E+03  0.38220081015E+03  0.12508896407E+03 0.  0.
          5    1    3    3  502    0 -0.48448583914E+02 -0.76322602732E+01  0.24963459965E+03  0.25444139291E+03  0.41800000000E+01 0. -1.
         -5    1    3    3    0  502 -0.78489363740E+02  0.53475385301E+02  0.85351035382E+02  0.12775941724E+03  0.41800000000E+01 0. -1.
        -11    1    1    2    0    0 -0.30065882938E+01  0.13702414686E+02  0.88836780107E+01  0.16604682363E+02  0.00000000000E+00 0.  1.
         11    1    1    2    0    0  0.12994453595E+03 -0.59545539713E+02  0.17002206850E+03  0.22212329346E+03  0.00000000000E+00 0. -1.
</event>
<event>
 7    1  0.6992302E-006  0.1709223E+03  0.7561462E-02  0.1176889E+00
          1   -1    0    0  501    0  0.00000000000E+00  0.00000000000E+00  0.25885408537E+02  0.25885408537E+02  0.00000000000E+00 0. -1.
         -1   -1    0    0    0  501 -0.00000000000E+00 -0.00000000000E+00 -0.13164162625E+04  0.13164162625E+04  0.00000000000E+00 0.  1.
         23    2    1    2    0    0 -0.10216045360E+03  0.10801789588E+03 -0.66473912051E+03  0.69255333934E+03  0.12508958941E+03 0.  0.
          5    1    3    3  502    0 -0.11340048430E+03  0.12085455505E+03 -0.64572663666E+03  0.66666772459E+03  0.41800000000E+01 0. -1.
         -5    1    3    3    0  502  0.11240030697E+02 -0.12836659172E+02 -0.19012483853E+02  0.25885614751E+02  0.41800000000E+01 0. -1.
        -11    1    1    2    0    0  0.81054714504E+02 -0.46467594400E+02 -0.49413256533E+03  0.50288775705E+03  0.00000000000E+00 0.  1.
         11    1    1    2    0    0  0.21105739098E+02 -0.61550301482E+02 -0.13165916813E+03  0.14686057466E+03  0.00000000000E+00 0. -1.
</event>
<event>
 7    1  0.6992302E-006  0.2058212E+03  0.7561462E-02  0.1144919E+00
         -1   -1    0    0    0  501 -0.00000000000E+00  0.00000000000E+00  0.61727874362E+03  0.61727874362E+03  0.00000000000E+00 0.  1.
          1   -1    0    0  501    0  0.00000000000E+00 -0.00000000000E+00 -0.76879497682E+02  0.76879497682E+02  0.00000000000E+00 0. -1.
         23    2    1    2    0    0  0.14338564744E+03 -0.12135157716E+03  0.30195040361E+03  0.37697130999E+03  0.12509065970E+03 0.  0.
          5    1    3    3  502    0  0.13657365207E+03 -0.46032090897E+02  0.15527680425E+03  0.21189543216E+03  0.41800000000E+01 0. -1.
         -5    1    3    3    0  502  0.68119953740E+01 -0.75319486264E+02  0.14667359936E+03  0.16507587783E+03  0.41800000000E+01 0. -1.
        -11    1    1    2    0    0 -0.28379223174E+02  0.46569198967E+02  0.13429664816E+03  0.14494709486E+03  0.00000000000E+00 0.  1.
         11    1    1    2    0    0 -0.11500642427E+03  0.74782378194E+02  0.10415219417E+03  0.17223983645E+03  0.00000000000E+00 0. -1.
</event>
<event>
 7    1  0.6992302E-006  0.1062676E+03  0.7561462E-02  0.1267642E+00
          1   -1    0    0  501    0  0.00000000000E+00  0.00000000000E+00  0.12352018785E+03  0.12352018785E+03  0.00000000000E+00 0. -1.
         -1   -1    0    0    0  501 -0.00000000000E+00 -0.00000000000E+00 -0.13124867306E+03  0.13124867306E+03  0.00000000000E+00 0.  1.
         23    2    1    2    0    0  0.13107558236E+02  0.10489877392E+02 -0.66827815393E+02  0.14281145995E+03  0.12508921045E+03 0.  0.
          5    1    3    3  502    0  0.29211958782E+02 -0.52683619450E+02 -0.38441400959E+02  0.71582930940E+02  0.41800000000E+01 0. -1.
         -5    1    3    3    0  502 -0.16104400546E+02  0.63173496842E+02 -0.28386414434E+02  0.71228529008E+02  0.41800000000E+01 0. -1.
        -11    1    1    2    0    0  0.87413534001E+01  0.35150798441E+02  0.48034951261E+02  0.60161004255E+02  0.00000000000E+00 0. -1.
         11    1    1    2    0    0 -0.21848911636E+02 -0.45640675833E+02  0.11064378922E+02  0.51796396699E+02  0.00000000000E+00 0.  1.
</event>
<event>
 7    1  0.6992302E-006  0.8378919E+02  0.7561462E-02  0.1318630E+00
          1   -1    0    0  501    0  0.00000000000E+00  0.00000000000E+00  0.82905209162E+02  0.82905209162E+02  0.00000000000E+00 0. -1.
         -1   -1    0    0    0  501 -0.00000000000E+00 -0.00000000000E+00 -0.47814758037E+03  0.47814758037E+03  0.00000000000E+00 0.  1.
         23    2    1    2    0    0 -0.16339591281E+02  0.33011959518E+02 -0.43728927644E+03  0.45631818055E+03  0.12509036293E+03 0.  0.
          5    1    3    3  502    0 -0.67798809471E+01 -0.20618259146E+02 -0.36517970713E+03  0.36584801529E+03  0.41800000000E+01 0. -1.
         -5    1    3    3    0  502 -0.95597103339E+01  0.53630218664E+02 -0.72109569312E+02  0.90470165259E+02  0.41800000000E+01 0. -1.
        -11    1    1    2    0    0  0.18522556573E+02  0.25925021210E+02  0.31532423529E+02  0.44827285891E+02  0.00000000000E+00 0. -1.
         11    1    1    2    0    0 -0.21829652918E+01 -0.58936980728E+02  0.10514481699E+02  0.59907323093E+02  0.00000000000E+00 0.  1.
</event>
<event>
 7    1  0.6992302E-006  0.1238773E+03  0.7561462E-02  0.1236834E+00
          1   -1    0    0  501    0  0.00000000000E+00  0.00000000000E+00  0.39449926220E+03  0.39449926220E+03  0.00000000000E+00 0. -1.
         -1   -1    0    0    0  501 -0.00000000000E+00 -0.00000000000E+00 -0.21969060220E+03  0.21969060220E+03  0.00000000000E+00 0.  1.
         23    2    1    2    0    0 -0.11760663808E+02 -0.94509403868E+02 -0.18148122120E+03  0.23362341415E+03  0.11213440755E+03 0.  0.
          5    1    3    3  502    0 -0.12949223260E+02  0.12362909213E+02  0.46362167067E+01  0.18960242947E+02  0.41800000000E+01 0. -1.
         -5    1    3    3    0  502  0.11885594527E+01 -0.10687231308E+03 -0.18611743791E+03  0.21466317120E+03  0.41800000000E+01 0.  1.
        -11    1    1    2    0    0 -0.22371453650E+02  0.47994060856E+00  0.21054597036E+02  0.30724718676E+02  0.00000000000E+00 0.  1.
         11    1    1    2    0    0  0.34132117458E+02  0.94029463260E+02  0.33523528416E+03  0.34984173158E+03  0.00000000000E+00 0. -1.
</event>
<event>
 7    1  0.6992302E-006  0.1078126E+03  0.7561462E-02  0.1264675E+00
          2   -1    0    0  501    0  0.00000000000E+00  0.00000000000E+00  0.63675933108E+03  0.63675933108E+03  0.00000000000E+00 0. -1.
         -2   -1    0    0    0  501 -0.00000000000E+00 -0.00000000000E+00 -0.29391996141E+02  0.29391996141E+02  0.00000000000E+00 0.  1.
         23    2    1    2    0    0 -0.18075722426E+00 -0.79155083413E+02  0.27109697311E+03  0.30888826020E+03  0.12511126470E+03 0.  0.
          5    1    3    3  502    0  0.44386761124E+02 -0.21601702841E+02  0.20356546032E+03  0.20950700982E+03  0.41800000000E+01 0.  1.
         -5    1    3    3    0  502 -0.44567518349E+02 -0.57553380573E+02  0.67531512791E+02  0.99381250379E+02  0.41800000000E+01 0.  1.
        -11    1    1    2    0    0 -0.21511593733E+02  0.17239878472E+02  0.19491631954E+02  0.33762194699E+02  0.00000000000E+00 0.  1.
         11    1    1    2    0    0  0.21692350957E+02  0.61915204942E+02  0.31677872988E+03  0.32350087233E+03  0.00000000000E+00 0. -1.
</event>
<event>
 7    1  0.6992302E-006  0.1414459E+03  0.7561462E-02  0.1211396E+00
          1   -1    0    0  501    0  0.00000000000E+00  0.00000000000E+00  0.85468210602E+02  0.85468210602E+02  0.00000000000E+00 0. -1.
         -1   -1    0    0    0  501 -0.00000000000E+00 -0.00000000000E+00 -0.25900524623E+03  0.25900524623E+03  0.00000000000E+00 0.  1.
         23    2    1    2    0    0 -0.33784989974E+02  0.82389080519E+02 -0.14339766928E+03  0.21009357243E+03  0.12508809491E+03 0.  0.
          5    1    3    3  502    0 -0.16918887374E+01 -0.33179600713E+02 -0.33445096240E+02  0.47326475186E+02  0.41800000000E+01 0. -1.
         -5    1    3    3    0  502 -0.32093101236E+02  0.11556868123E+03 -0.10995257304E+03  0.16276709725E+03  0.41800000000E+01 0. -1.
        -11    1    1    2    0    0 -0.31897810388E+02 -0.40239720361E+02 -0.22170117697E+02  0.55930488296E+02  0.00000000000E+00 0. -1.
         11    1    1    2    0    0  0.65682800362E+02 -0.42149360158E+02 -0.79692486544E+01  0.78449396105E+02  0.00000000000E+00 0.  1.
</event>
<event>
 7    1  0.6992302E-006  0.1248517E+03  0.7561462E-02  0.1235301E+00
          2   -1    0    0  501    0  0.00000000000E+00  0.00000000000E+00  0.25254010354E+03  0.25254010354E+03  0.00000000000E+00 0. -1.
         -2   -1    0    0    0  501 -0.00000000000E+00 -0.00000000000E+00 -0.90096629981E+02  0.90096629981E+02  0.00000000000E+00 0.  1.
         23    2    1    2    0    0  0.70503743548E+02 -0.37894925298E+02  0.12457357111E+02  0.15018015925E+03  0.12645984053E+03 0.  0.
          5    1    3    3  502    0  0.76776751823E+02  0.12994946976E+02  0.44292221411E+02  0.89681723583E+02  0.41800000000E+01 0. -1.
         -5    1    3    3    0  502 -0.62730082745E+01 -0.50889872274E+02 -0.31834864300E+02  0.60498435664E+02  0.41800000000E+01 0.  1.
        -11    1    1    2    0    0 -0.92130453457E+02  0.34538831905E+02  0.11702794511E+03  0.15289372551E+03  0.00000000000E+00 0.  1.
         11    1    1    2    0    0  0.21626709909E+02  0.33560933934E+01  0.32958171336E+02  0.39562848762E+02  0.00000000000E+00 0. -1.
</event>
<event>
 7    1  0.6992302E-006  0.1124399E+03  0.7561462E-02  0.1256117E+00
          1   -1    0    0  501    0  0.00000000000E+00  0.00000000000E+00  0.15032154353E+03  0.15032154353E+03  0.00000000000E+00 0. -1.
         -1   -1    0    0    0  501 -0.00000000000E+00 -0.00000000000E+00 -0.98372212558E+02  0.98372212558E+02  0.00000000000E+00 0.  1.
         23    2    1    2    0    0 -0.44736434444E+02  0.11157079412E+02 -0.33604953299E+01  0.13336447482E+03  0.12509580819E+03 0.  0.
          5    1    3    3  502    0  0.23916766716E+02 -0.40407670030E+02  0.24557653791E+01  0.47204816608E+02  0.41800000000E+01 0. -1.
         -5    1    3    3    0  502 -0.68653201160E+02  0.51564749442E+02 -0.58162607090E+01  0.86159658212E+02  0.41800000000E+01 0. -1.
        -11    1    1    2    0    0  0.59665380130E+02  0.15122309448E+02  0.12311141817E+02  0.62771060544E+02  0.00000000000E+00 0.  1.
         11    1    1    2    0    0 -0.14928945685E+02 -0.26279388860E+02  0.42998684481E+02  0.52558220720E+02  0.00000000000E+00 0. -1.
</event>
<event>
 7    1  0.6992302E-006  0.9597064E+02  0.7561462E-02  0.1289005E+00
         -1   -1    0    0    0  501 -0.00000000000E+00  0.00000000000E+00  0.10884414670E+04  0.10884414670E+04  0.00000000000E+00 0.  1.
          1   -1    0    0  501    0  0.00000000000E+00 -0.00000000000E+00 -0.13320293423E+02  0.13320293423E+02  0.00000000000E+00 0. -1.
         23    2    1    2    0    0  0.49665129695E+02 -0.42891066139E+01  0.67831571639E+03  0.69155218934E+03  0.12508876019E+03 0.  0.
          5    1    3    3  502    0  0.59999693993E+02  0.26027071338E+02  0.63020932544E+03  0.63360763726E+03  0.41800000000E+01 0.  1.
         -5    1    3    3    0  502 -0.10334564299E+02 -0.30316177952E+02  0.48106390954E+02  0.57944552078E+02  0.41800000000E+01 0.  1.
        -11    1    1    2    0    0 -0.48833966576E+02 -0.31626143991E+02  0.32213249674E+03  0.32734433664E+03  0.00000000000E+00 0.  1.
         11    1    1    2    0    0 -0.83116311830E+00  0.35915250605E+02  0.74672960436E+02  0.82865234438E+02  0.00000000000E+00 0. -1.
</event>
<event>
 7    1  0.6992302E-006  0.7472633E+02  0.7561462E-02  0.1344721E+00
         -1   -1    0    0    0  501 -0.00000000000E+00  0.00000000000E+00  0.24365831543E+04  0.24365831543E+04  0.00000000000E+00 0.  1.
          1   -1    0    0  501    0  0.00000000000E+00 -0.00000000000E+00 -0.87586284941E+01  0.87586284941E+01  0.00000000000E+00 0. -1.
         23    2    1    2    0    0  0.22447357989E+02  0.39400609612E+02  0.20360459131E+04  0.20403890100E+04  0.12509220678E+03 0.  0.
          5    1    3    3  502    0  0.16830269567E+01  0.32225341737E+01  0.19678113165E+01  0.58789444303E+01  0.41800000000E+01 0. -1.
         -5    1    3    3    0  502  0.20764331032E+02  0.36178075438E+02  0.20340781018E+04  0.20345100656E+04  0.41800000000E+01 0. -1.
        -11    1    1    2    0    0  0.33749596847E+02 -0.70009021005E+00  0.11220188524E+03  0.11716991280E+03  0.00000000000E+00 0.  1.
         11    1    1    2    0    0 -0.56196954835E+02 -0.38700519402E+02  0.27957672754E+03  0.28778286001E+03  0.00000000000E+00 0. -1.
</event>
<event>
 7    1  0.6992302E-006  0.1038748E+03  0.7561462E-02  0.1272352E+00
         -1   -1    0    0    0  501 -0.00000000000E+00  0.00000000000E+00  0.17822937337E+03  0.17822937337E+03  0.00000000000E+00 0.  1.
          1   -1    0    0  501    0  0.00000000000E+00 -0.00000000000E+00 -0.14944039539E+03  0.14944039539E+03  0.00000000000E+00 0. -1.
         23    2    1    2    0    0  0.56683264277E+02  0.16347769035E+01  0.12933572669E+03  0.18299772448E+03  0.11638200900E+03 0.  0.
          5    1    3    3  502    0  0.60496039824E+02 -0.39980802083E+02  0.36903197722E+02  0.81471183689E+02  0.41800000000E+01 0. -1.
         -5    1    3    3    0  502 -0.38127755466E+01  0.41615578987E+02  0.92432528972E+02  0.10152654079E+03  0.41800000000E+01 0.  1.
        -11    1    1    2    0    0 -0.67398042359E+02 -0.21332799589E+02 -0.42597518280E+02  0.82535646940E+02  0.00000000000E+00 0. -1.
         11    1    1    2    0    0  0.10714778082E+02  0.19698022685E+02 -0.57949230438E+02  0.62136397348E+02  0.00000000000E+00 0.  1.
</event>
<event>
 7    1  0.6992302E-006  0.1699717E+03  0.7561462E-02  0.1177877E+00
         -4   -1    0    0    0  501 -0.00000000000E+00  0.00000000000E+00  0.20273977120E+03  0.20273977120E+03  0.00000000000E+00 0.  1.
          4   -1    0    0  501    0  0.00000000000E+00 -0.00000000000E+00 -0.16085769185E+03  0.16085769185E+03  0.00000000000E+00 0. -1.
         23    2    1    2    0    0 -0.13137655549E+03  0.58906356118E+02  0.26848652370E+02  0.19261189535E+03  0.12509489987E+03 0.  0.
          5    1    3    3  502    0 -0.48124053608E+02 -0.28830157400E+02 -0.24232647783E+02  0.61251907154E+02  0.41800000000E+01 0. -1.
         -5    1    3    3    0  502 -0.83252501885E+02  0.87736513518E+02  0.51081300153E+02  0.13135998820E+03  0.41800000000E+01 0. -1.
        -11    1    1    2    0    0 -0.48912905505E+01  0.91310903719E+01 -0.12472223801E+02  0.16212893053E+02  0.00000000000E+00 0. -1.
         11    1    1    2    0    0  0.13626784604E+03 -0.68037446490E+02  0.27505650787E+02  0.15477267464E+03  0.00000000000E+00 0.  1.
</event>
<event>
 6    1  0.6992302E-006  0.1228409E+03  0.7561462E-02  0.1238483E+00
         -1   -1    0    0    0  501 -0.00000000000E+00  0.00000000000E+00  0.42156320025E+03  0.42156320025E+03  0.00000000000E+00 0.  1.
          1   -1    0    0  501    0  0.00000000000E+00 -0.00000000000E+00 -0.70737157142E+02  0.70737157142E+02  0.00000000000E+00 0. -1.
          5    1    1    2  502    0  0.71814671138E+02  0.10070128668E+02  0.89144838457E+02  0.11499143057E+03  0.41800000000E+01 0. -1.
         -5    1    1    2    0  502 -0.11287332092E+02 -0.53907711506E+02  0.25319077563E+03  0.25914568584E+03  0.41800000000E+01 0.  1.
        -11    1    1    2    0    0 -0.27559026493E+02 -0.27679013227E+02  0.44154815197E+01  0.39308067766E+02  0.00000000000E+00 0.  1.
         11    1    1    2    0    0 -0.32968312553E+02  0.71516596065E+02  0.40749475039E+01  0.78855173213E+02  0.00000000000E+00 0. -1.
</event>
<event>
 7    1  0.6992302E-006  0.1127150E+03  0.7561462E-02  0.1255623E+00
          2   -1    0    0  501    0  0.00000000000E+00  0.00000000000E+00  0.10168263641E+04  0.10168263641E+04  0.00000000000E+00 0. -1.
         -2   -1    0    0    0  501 -0.00000000000E+00 -0.00000000000E+00 -0.16974530650E+02  0.16974530650E+02  0.00000000000E+00 0.  1.
         23    2    1    2    0    0 -0.55544008083E+01 -0.67917303804E+02  0.51816399680E+03  0.53738743218E+03  0.12509081965E+03 0.  0.
          5    1    3    3  502    0  0.39844903781E+02  0.94635322234E+01  0.27700447496E+03  0.28004665031E+03  0.41800000000E+01 0.  1.
         -5    1    3    3    0  502 -0.45399304590E+02 -0.77380836027E+02  0.24115952183E+03  0.25734078187E+03  0.41800000000E+01 0.  1.
        -11    1    1    2    0    0 -0.14465674811E+02 -0.75890685057E+01  0.11988125867E+02  0.20262400409E+02  0.00000000000E+00 0.  1.
         11    1    1    2    0    0  0.20020075620E+02  0.75506372310E+02  0.46969971076E+03  0.47615106214E+03  0.00000000000E+00 0. -1.
</event>
<event>
 7    1  0.6992302E-006  0.1157157E+03  0.7561462E-02  0.1250337E+00
          1   -1    0    0  501    0  0.00000000000E+00  0.00000000000E+00  0.40009399964E+02  0.40009399964E+02  0.00000000000E+00 0. -1.
         -1   -1    0    0    0  501 -0.00000000000E+00 -0.00000000000E+00 -0.40621439687E+03  0.40621439687E+03  0.00000000000E+00 0.  1.
         23    2    1    2    0    0 -0.53652010079E+02  0.78045097486E+01 -0.27413886767E+03  0.30616905033E+03  0.12509164662E+03 0.  0.
          5    1    3    3  502    0  0.38550166411E+02  0.43324261366E+01 -0.12302611476E+03  0.12906503228E+03  0.41800000000E+01 0. -1.
         -5    1    3    3    0  502 -0.92202176490E+02  0.34720836120E+01 -0.15111275291E+03  0.17710401804E+03  0.41800000000E+01 0. -1.
        -11    1    1    2    0    0  0.54104395254E+02  0.30255351880E+02 -0.34214462906E+02  0.70804670574E+02  0.00000000000E+00 0.  1.
         11    1    1    2    0    0 -0.45238517545E+00 -0.38059861629E+02 -0.57851666335E+02  0.69250075937E+02  0.00000000000E+00 0. -1.
</event>
<event>
 6    1  0.6992302E-006  0.1479495E+03  0.7561462E-02  0.1203015E+00
         -2   -1    0    0    0  501 -0.00000000000E+00  0.00000000000E+00  0.32652892602E+03  0.32652892602E+03  0.00000000000E+00 0.  1.
          2   -1    0    0  501    0  0.00000000000E+00 -0.00000000000E+00 -0.10784655413E+03  0.10784655413E+03  0.00000000000E+00 0. -1.
          5    1    1    2  502    0  0.68287433524E+02  0.36482122422E+01 -0.40526725372E+02  0.79601324733E+02  0.41800000000E+01 0. -1.
         -5    1    1    2    0  502 -0.11717654880E+03 -0.27940639533E+02  0.19729349022E+03  0.23119951689E+03  0.41800000000E+01 0.  1.
        -11    1    1    2    0    0  0.70484776312E+01 -0.34209468428E+02  0.22664462811E+02  0.41637082529E+02  0.00000000000E+00 0. -1.
         11    1    1    2    0    0  0.41840637642E+02  0.58501895719E+02  0.39251144226E+02  0.81937556004E+02  0.00000000000E+00 0.  1.
</event>
<event>
 7    1  0.6992302E-006  0.8602692E+02  0.7561462E-02  0.1312769E+00
         -1   -1    0    0    0  501 -0.00000000000E+00  0.00000000000E+00  0.15588629271E+03  0.15588629271E+03  0.00000000000E+00 0. -1.
          1   -1    0    0  501    0  0.00000000000E+00 -0.00000000000E+00 -0.90033338799E+02  0.90033338799E+02  0.00000000000E+00 0.  1.
         23    2    1    2    0    0 -0.27105472086E+02  0.32202479660E+02  0.32115654156E+02  0.13582892915E+03  0.12508547653E+03 0.  0.
          5    1    3    3  502    0  0.13092087675E+02 -0.14008670632E+02  0.63796001963E+02  0.66746145050E+02  0.41800000000E+01 0. -1.
         -5    1    3    3    0  502 -0.40197559761E+02  0.46211150293E+02 -0.31680347807E+02  0.69082784102E+02  0.41800000000E+01 0. -1.
        -11    1    1    2    0    0 -0.28547102349E+02 -0.45932755444E+01 -0.13632247506E+02  0.31966754681E+02  0.00000000000E+00 0.  1.
         11    1    1    2    0    0  0.55652574434E+02 -0.27609204116E+02  0.47369547264E+02  0.78123947680E+02  0.00000000000E+00 0. -1.
</event>
<event>
 7    1  0.6992302E-006  0.2018990E+03  0.7561462E-02  0.1148147E+00
         -2   -1    0    0    0  501 -0.00000000000E+00  0.00000000000E+00  0.33055982746E+02  0.33055982746E+02  0.00000000000E+00 0.  1.
          2   -1    0    0  501    0  0.00000000000E+00 -0.00000000000E+00 -0.14513645777E+04  0.14513645777E+04  0.00000000000E+00 0. -1.
         23    2    1    2    0    0 -0.69294222662E+02  0.16317765518E+03 -0.50506680094E+03  0.54969769518E+03  0.12508575551E+03 0.  0.
          5    1    3    3  502    0 -0.62824410908E+02  0.20876949418E+02 -0.97425769823E+02  0.11786435699E+03  0.41800000000E+01 0. -1.
         -5    1    3    3    0  502 -0.64698117540E+01  0.14230070577E+03 -0.40764103111E+03  0.43183333819E+03  0.41800000000E+01 0. -1.
        -11    1    1    2    0    0  0.48951254000E+02 -0.24402639865E+02 -0.17768610646E+03  0.18591413752E+03  0.00000000000E+00 0. -1.
         11    1    1    2    0    0  0.20342968661E+02 -0.13877501532E+03 -0.73555568755E+03  0.74880872774E+03  0.00000000000E+00 0.  1.
</event>
<event>
 7    1  0.6992302E-006  0.1104049E+03  0.7561462E-02  0.1259822E+00
         -2   -1    0    0    0  501 -0.00000000000E+00  0.00000000000E+00  0.23811161802E+02  0.23811161802E+02  0.00000000000E+00 0.  1.
          2   -1    0    0  501    0  0.00000000000E+00 -0.00000000000E+00 -0.55505574562E+03  0.55505574562E+03  0.00000000000E+00 0. -1.
         23    2    1    2    0    0 -0.37559918125E+02  0.14420233326E+02 -0.26344811737E+03  0.29439706333E+03  0.12508409080E+03 0.  0.
          5    1    3    3  502    0 -0.83425524877E+02  0.34357168683E+01 -0.15628421315E+03  0.17723952728E+03  0.41800000000E+01 0.  1.
         -5    1    3    3    0  502  0.45865606752E+02  0.10984516458E+02 -0.10716390422E+03  0.11715753604E+03  0.41800000000E+01 0.  1.
        -11    1    1    2    0    0  0.82546031892E-02 -0.42795025876E+02 -0.17816078868E+03  0.18322849378E+03  0.00000000000E+00 0. -1.
         11    1    1    2    0    0  0.37551663522E+02  0.28374792550E+02 -0.89635677765E+02  0.10124135032E+03  0.00000000000E+00 0.  1.
</event>
<event>
 7    1  0.7635298E-006  0.1779647E+03  0.7561462E-02  0.1169787E+00
         -1   -1    0    0    0  501 -0.00000000000E+00  0.00000000000E+00  0.94833861465E+02  0.94833861465E+02  0.00000000000E+00 0.  1.
          1   -1    0    0  501    0  0.00000000000E+00 -0.00000000000E+00 -0.55071081078E+03  0.55071081078E+03  0.00000000000E+00 0. -1.
         23    2    1    2    0    0 -0.13441989923E+03  0.93298179932E+02 -0.71555485496E+02  0.21803868528E+03  0.12508965220E+03 0.  0.
          5    1    3    3  502    0 -0.49427341931E+02  0.94064615348E+02 -0.79203915029E+02  0.13259693265E+03  0.41800000000E+01 0. -1.
         -5    1    3    3    0  502 -0.84992557297E+02 -0.76643541586E+00  0.76484295332E+01  0.85441752635E+02  0.41800000000E+01 0. -1.
        -11    1    1    2    0    0  0.10033012974E+03 -0.78194231633E+02 -0.18365363551E+03  0.22340351526E+03  0.00000000000E+00 0. -1.
         11    1    1    2    0    0  0.34089769488E+02 -0.15103948299E+02 -0.20066782831E+03  0.20410247171E+03  0.00000000000E+00 0.  1.
</event>
<event>
 7    1  0.6992302E-006  0.2191732E+03  0.7561462E-02  0.1134501E+00
         -2   -1    0    0    0  501 -0.00000000000E+00  0.00000000000E+00  0.10811856744E+03  0.10811856744E+03  0.00000000000E+00 0.  1.
          2   -1    0    0  501    0  0.00000000000E+00 -0.00000000000E+00 -0.48583082680E+03  0.48583082680E+03  0.00000000000E+00 0. -1.
         23    2    1    2    0    0 -0.19279782545E+03  0.49896205673E+02 -0.23125361496E+03  0.32982685889E+03  0.12508752766E+03 0.  0.
          5    1    3    3  502    0 -0.89758544002E+02 -0.24722828730E+02 -0.43143245041E+02  0.10269676954E+03  0.41800000000E+01 0. -1.
         -5    1    3    3    0  502 -0.10303928145E+03  0.74619034403E+02 -0.18811036992E+03  0.22713008935E+03  0.41800000000E+01 0. -1.
        -11    1    1    2    0    0  0.59876587630E+02 -0.59733837456E+02 -0.74192279718E+02  0.11250702846E+03  0.00000000000E+00 0.  1.
         11    1    1    2    0    0  0.13292123782E+03  0.98376317835E+01 -0.72266364677E+02  0.15161550688E+03  0.00000000000E+00 0. -1.
</event>
<event>
 7    1  0.6992302E-006  0.8970238E+02  0.7561462E-02  0.1303574E+00
         -3   -1    0    0    0  501 -0.00000000000E+00  0.00000000000E+00  0.35220276490E+03  0.35220276490E+03  0.00000000000E+00 0.  1.
          3   -1    0    0  501    0  0.00000000000E+00 -0.00000000000E+00 -0.50382881172E+02  0.50382881172E+02  0.00000000000E+00 0. -1.
         23    2    1    2    0    0  0.13344702557E+02  0.27563811087E+02  0.27720204895E+03  0.30228974625E+03  0.11662019541E+03 0.  0.
          5    1    3    3  502    0 -0.13594077387E+02  0.63200449148E+02  0.97412611126E+02  0.11698625953E+03  0.41800000000E+01 0. -1.
         -5    1    3    3    0  502  0.26938779943E+02 -0.35636638061E+02  0.17978943783E+03  0.18530348672E+03  0.41800000000E+01 0.  1.
        -11    1    1    2    0    0  0.19931769581E+02 -0.30407730889E+02  0.47495282437E+02  0.59813939765E+02  0.00000000000E+00 0.  1.
         11    1    1    2    0    0 -0.33276472137E+02  0.28439198022E+01 -0.22877447666E+02  0.40481960050E+02  0.00000000000E+00 0. -1.
</event>
<event>
 7    1  0.6992302E-006  0.1133199E+03  0.7561462E-02  0.1254543E+00
          1   -1    0    0  501    0  0.00000000000E+00  0.00000000000E+00  0.19540106369E+03  0.19540106369E+03  0.00000000000E+00 0. -1.
         -1   -1    0    0    0  501 -0.00000000000E+00 -0.00000000000E+00 -0.71765890779E+02  0.71765890779E+02  0.00000000000E+00 0.  1.
         23    2    1    2    0    0 -0.12429572874E+02  0.25769980761E+02  0.31958661440E+02  0.13224996120E+03  0.12510039970E+03 0.  0.
          5    1    3    3  502    0 -0.54804435052E+02  0.53747779875E+02  0.13452450094E+02  0.78043518350E+02  0.41800000000E+01 0. -1.
         -5    1    3    3    0  502  0.42374862178E+02 -0.27977799114E+02  0.18506211346E+02  0.54206442848E+02  0.41800000000E+01 0. -1.
        -11    1    1    2    0    0 -0.38393247292E+02 -0.28658659042E+02  0.48405498668E+02  0.68106185307E+02  0.00000000000E+00 0.  1.
         11    1    1    2    0    0  0.50822820166E+02  0.28886782813E+01  0.43271012804E+02  0.66810807965E+02  0.00000000000E+00 0. -1.
</event>
<event>
 7    1  0.6992302E-006  0.1794141E+03  0.7561462E-02  0.1168371E+00
          1   -1    0    0  501    0  0.00000000000E+00  0.00000000000E+00  0.34926520731E+03  0.34926520731E+03  0.00000000000E+00 0. -1.
         -1   -1    0    0    0  501 -0.00000000000E+00 -0.00000000000E+00 -0.13730701903E+03  0.13730701903E+03  0.00000000000E+00 0.  1.
         23    2    1    2    0    0  0.54979805776E+02  0.13566194369E+03 -0.24067781423E+02  0.19404135109E+03  0.12508335549E+03 0.  0.
          5    1    3    3  502    0  0.90806982541E+02  0.64750805836E+02 -0.25449592764E+02  0.11447152094E+03  0.41800000000E+01 0. -1.
         -5    1    3    3    0  502 -0.35827176764E+02  0.70911137854E+02  0.13818113415E+01  0.79569830145E+02  0.41800000000E+01 0. -1.
        -11    1    1    2    0    0 -0.75643085663E+02 -0.90154597536E+02  0.19548976531E+03  0.22817970156E+03  0.00000000000E+00 0.  1.
         11    1    1    2    0    0  0.20663279887E+02 -0.45507346154E+02  0.40536204393E+02  0.64351173697E+02  0.00000000000E+00 0. -1.
</event>
<event>
 7    1  0.6992302E-006  0.1227723E+03  0.7561462E-02  0.1238592E+00
          1   -1    0    0  501    0  0.00000000000E+00  0.00000000000E+00  0.30864317460E+03  0.30864317460E+03  0.00000000000E+00 0. -1.
         -1   -1    0    0    0  501 -0.00000000000E+00 -0.00000000000E+00 -0.78119014027E+02  0.78119014027E+02  0.00000000000E+00 0.  1.
         23    2    1    2    0    0  0.33815713622E+02  0.81980469595E+02  0.41700130131E+02  0.15891216455E+03  0.12509946166E+03 0.  0.
          5    1    3    3  502    0  0.57236966087E+02  0.10520049045E+03  0.36440837323E+02  0.12525422349E+03  0.41800000000E+01 0. -1.
         -5    1    3    3    0  502 -0.23421252465E+02 -0.23220020856E+02  0.52592928081E+01  0.33657941060E+02  0.41800000000E+01 0. -1.
        -11    1    1    2    0    0 -0.85903960759E+01 -0.54453867076E+02  0.18164935818E+03  0.18983020801E+03  0.00000000000E+00 0. -1.
         11    1    1    2    0    0 -0.25225317546E+02 -0.27526602519E+02  0.71746722558E+01  0.38019816064E+02  0.00000000000E+00 0.  1.
</event>
<event>
 7    1  0.6992302E-006  0.1492307E+03  0.7561462E-02  0.1201422E+00
         -1   -1    0    0    0  501 -0.00000000000E+00  0.00000000000E+00  0.17793753864E+02  0.17793753864E+02  0.00000000000E+00 0.  1.
          1   -1    0    0  501    0  0.00000000000E+00 -0.00000000000E+00 -0.17934644499E+04  0.17934644499E+04  0.00000000000E+00 0. -1.
         23    2    1    2    0    0 -0.44608849909E+02 -0.13014995455E+03 -0.11323726200E+04  0.11475378621E+04  0.12508570767E+03 0.  0.
          5    1    3    3  502    0 -0.51810683274E+02 -0.40980271289E+02 -0.19563925304E+03  0.20653309484E+03  0.41800000000E+01 0.  1.
         -5    1    3    3    0  502  0.72018333651E+01 -0.89169683258E+02 -0.93673336692E+03  0.94100476721E+03  0.41800000000E+01 0.  1.
        -11    1    1    2    0    0  0.48690005932E+02  0.89742834032E+02 -0.57706156412E+03  0.58602435250E+03  0.00000000000E+00 0. -1.
         11    1    1    2    0    0 -0.40811560231E+01  0.40407120516E+02 -0.66236511965E+02  0.77695989216E+02  0.00000000000E+00 0.  1.
</event>
<event>
 7    1  0.6992302E-006  0.1181731E+03  0.7561462E-02  0.1246142E+00
         -1   -1    0    0    0  501 -0.00000000000E+00  0.00000000000E+00  0.39695033628E+02  0.39695033628E+02  0.00000000000E+00 0. -1.
          1   -1    0    0  501    0  0.00000000000E+00 -0.00000000000E+00 -0.42875504300E+03  0.42875504300E+03  0.00000000000E+00 0.  1.
         23    2    1    2    0    0 -0.54808860343E+02  0.28888653423E+02 -0.14607054318E+03  0.20204612438E+03  0.12508983701E+03 0.  0.
          5    1    3    3  502    0  0.32988994520E+02 -0.11913340118E+02 -0.71571954836E+02  0.79813648904E+02  0.41800000000E+01 0. -1.
         -5    1    3    3    0  502 -0.87797854864E+02  0.40801993542E+02 -0.74498588347E+02  0.12223247548E+03  0.41800000000E+01 0. -1.
        -11    1    1    2    0    0  0.44219860389E+02  0.23908467931E+02 -0.15788271877E+03  0.16569237695E+03  0.00000000000E+00 0.  1.
         11    1    1    2    0    0  0.10588999954E+02 -0.52797121355E+02 -0.85106747417E+02  0.10071157530E+03  0.00000000000E+00 0. -1.
</event>
<event>
 7    1  0.6992302E-006  0.9965631E+02  0.7561462E-02  0.1281020E+00
          1   -1    0    0  501    0  0.00000000000E+00  0.00000000000E+00  0.46156542633E+02  0.46156542633E+02  0.00000000000E+00 0. -1.
         -1   -1    0    0    0  501 -0.00000000000E+00 -0.00000000000E+00 -0.26756863833E+03  0.26756863833E+03  0.00000000000E+00 0.  1.
         23    2    1    2    0    0  0.31497252989E+02  0.23311703848E+02 -0.14426063714E+03  0.18749273980E+03  0.11316750226E+03 0.  0.
          5    1    3    3  502    0 -0.33384831303E+02  0.10957661142E+02 -0.10440484028E+03  0.11023819834E+03  0.41800000000E+01 0. -1.
         -5    1    3    3    0  502  0.64882084292E+02  0.12354042706E+02 -0.39855796861E+02  0.77254541463E+02  0.41800000000E+01 0.  1.
        -11    1    1    2    0    0 -0.58717803790E+02 -0.34740654740E+02 -0.65239010221E+02  0.94397150530E+02  0.00000000000E+00 0. -1.
         11    1    1    2    0    0  0.27220550801E+02  0.11428950892E+02 -0.11912448340E+02  0.31835290635E+02  0.00000000000E+00 0.  1.
</event>
<event>
 7    1  0.6992302E-006  0.1347682E+03  0.7561462E-02  0.1220547E+00
         -2   -1    0    0    0  501 -0.00000000000E+00  0.00000000000E+00  0.78831487388E+02  0.78831487388E+02  0.00000000000E+00 0.  1.
          2   -1    0    0  501    0  0.00000000000E+00 -0.00000000000E+00 -0.24159327061E+03  0.24159327061E+03  0.00000000000E+00 0. -1.
         23    2    1    2    0    0 -0.56142761284E+02 -0.59910075718E+02 -0.63273228079E+02  0.16245788830E+03  0.12509131570E+03 0.  0.
          5    1    3    3  502    0  0.30874694998E+02 -0.53258360518E+02 -0.33122450798E+02  0.70030485527E+02  0.41800000000E+01 0.  1.
         -5    1    3    3    0  502 -0.87017456282E+02 -0.66517152000E+01 -0.30150777282E+02  0.92427402774E+02  0.41800000000E+01 0.  1.
        -11    1    1    2    0    0 -0.24141847678E+02  0.11862647657E+02 -0.35818762024E+02  0.44794362722E+02  0.00000000000E+00 0. -1.
         11    1    1    2    0    0  0.80284608962E+02  0.48047428061E+02 -0.63669793123E+02  0.11317250698E+03  0.00000000000E+00 0.  1.
</event>
<event>
 7    1  0.6992302E-006  0.1847103E+03  0.7561462E-02  0.1163321E+00
          3   -1    0    0  501    0  0.00000000000E+00  0.00000000000E+00  0.23236809862E+03  0.23236809862E+03  0.00000000000E+00 0.  1.
         -3   -1    0    0    0  501 -0.00000000000E+00 -0.00000000000E+00 -0.16301229691E+03  0.16301229691E+03  0.00000000000E+00 0. -1.
         23    2    1    2    0    0  0.95794038028E+02  0.12405069018E+03  0.10924124185E+02  0.20080294565E+03  0.12504965028E+03 0.  0.
          5    1    3    3  502    0  0.11617098920E+03  0.12955084628E+03  0.23876318111E+02  0.17568913305E+03  0.41800000000E+01 0. -1.
         -5    1    3    3    0  502 -0.20376951169E+02 -0.55001561012E+01 -0.12952193926E+02  0.25113812605E+02  0.41800000000E+01 0. -1.
        -11    1    1    2    0    0 -0.78113805251E-01 -0.56954704575E+02  0.52621299591E+02  0.77542540877E+02  0.00000000000E+00 0.  1.
         11    1    1    2    0    0 -0.95715924222E+02 -0.67095985608E+02  0.58103779365E+01  0.11703490901E+03  0.00000000000E+00 0. -1.
</event>
<event>
 7    1  0.6992302E-006  0.1078559E+03  0.7561462E-02  0.1264593E+00
          1   -1    0    0  501    0  0.00000000000E+00  0.00000000000E+00  0.42385197235E+02  0.42385197235E+02  0.00000000000E+00 0. -1.
         -1   -1    0    0    0  501 -0.00000000000E+00 -0.00000000000E+00 -0.47391486894E+03  0.47391486894E+03  0.00000000000E+00 0.  1.
         23    2    1    2    0    0 -0.21129271988E+02 -0.60076664936E+02 -0.35356725245E+03  0.38041201490E+03  0.12509135569E+03 0.  0.
          5    1    3    3  502    0 -0.37811828923E+02  0.27702634114E+02 -0.82631799310E+02  0.95092886172E+02  0.41800000000E+01 0. -1.
         -5    1    3    3    0  502  0.16682556935E+02 -0.87779299050E+02 -0.27093545314E+03  0.28531912873E+03  0.41800000000E+01 0. -1.
        -11    1    1    2    0    0 -0.13999179809E+02  0.29412814261E+02 -0.82830435679E+02  0.89005459118E+02  0.00000000000E+00 0.  1.
         11    1    1    2    0    0  0.35128451798E+02  0.30663850675E+02  0.48680164231E+01  0.46882592162E+02  0.00000000000E+00 0. -1.
</event>
<event>
 7    1  0.6992302E-006  0.1037747E+03  0.7561462E-02  0.1272553E+00
         -3   -1    0    0    0  501 -0.00000000000E+00  0.00000000000E+00  0.46966163729E+03  0.46966163729E+03  0.00000000000E+00 0.  1.
          3   -1    0    0  501    0  0.00000000000E+00 -0.00000000000E+00 -0.28135837563E+02  0.28135837563E+02  0.00000000000E+00 0. -1.
         23    2    1    2    0    0  0.26186835072E+02  0.22431397270E+02  0.29633716201E+03  0.32349914491E+03  0.12508822986E+03 0.  0.
          5    1    3    3  502    0  0.65926222470E+02 -0.22125734707E+02  0.16911987166E+03  0.18290658363E+03  0.41800000000E+01 0. -1.
         -5    1    3    3    0  502 -0.39739387398E+02  0.44557131976E+02  0.12721729035E+03  0.14059256127E+03  0.41800000000E+01 0. -1.
        -11    1    1    2    0    0 -0.38628741886E+02 -0.40582460903E+02  0.45402539243E+02  0.72114536693E+02  0.00000000000E+00 0. -1.
         11    1    1    2    0    0  0.12441906814E+02  0.18151063633E+02  0.99786098468E+02  0.10218379325E+03  0.00000000000E+00 0.  1.
</event>
<event>
 7    1  0.6992302E-006  0.1290559E+03  0.7561462E-02  0.1228863E+00
          2   -1    0    0  501    0  0.00000000000E+00  0.00000000000E+00  0.23048930704E+03  0.23048930704E+03  0.00000000000E+00 0.  1.
         -2   -1    0    0    0  501 -0.00000000000E+00 -0.00000000000E+00 -0.86200336821E+02  0.86200336821E+02  0.00000000000E+00 0. -1.
         23    2    1    2    0    0 -0.85138354866E+02 -0.18400184559E+02  0.58247816504E+02  0.16317899753E+03  0.12508985109E+03 0.  0.
          5    1    3    3  502    0 -0.85232224918E+02  0.34270423449E+02  0.11582593684E+02  0.92685613578E+02  0.41800000000E+01 0. -1.
         -5    1    3    3    0  502  0.93870052027E-01 -0.52670608008E+02  0.46665222820E+02  0.70493383947E+02  0.41800000000E+01 0. -1.
        -11    1    1    2    0    0 -0.12444013973E+02  0.88454388349E+01  0.44461103983E+02  0.47009414369E+02  0.00000000000E+00 0. -1.
         11    1    1    2    0    0  0.97582368839E+02  0.95547457237E+01  0.41580049729E+02  0.10650123196E+03  0.00000000000E+00 0.  1.
</event>
<event>
 6    1  0.6992302E-006  0.1055173E+03  0.7561462E-02  0.1269104E+00
          1   -1    0    0  501    0  0.00000000000E+00  0.00000000000E+00  0.36267531112E+03  0.36267531112E+03  0.00000000000E+00 0. -1.
         -1   -1    0    0    0  501 -0.00000000000E+00 -0.00000000000E+00 -0.73303070323E+02  0.73303070323E+02  0.00000000000E+00 0.  1.
          5    1    1    2  502    0 -0.28507783991E+02  0.33895795981E+02 -0.30539827294E+02  0.53960839359E+02  0.41800000000E+01 0. -1.
         -5    1    1    2    0  502 -0.17995317824E+02 -0.83718122324E+02  0.69087257336E+02  0.11010484547E+03  0.41800000000E+01 0.  1.
        -11    1    1    2    0    0  0.52972143506E+02  0.32076002794E+02  0.24414714076E+03  0.25187843156E+03  0.00000000000E+00 0. -1.
         11    1    1    2    0    0 -0.64690416906E+01  0.17746323549E+02  0.66776699953E+01  0.20034265059E+02  0.00000000000E+00 0.  1.
</event>
<event>
 7    1  0.6992302E-006  0.1827257E+03  0.7561462E-02  0.1165191E+00
         -2   -1    0    0    0  501 -0.00000000000E+00  0.00000000000E+00  0.20003416336E+03  0.20003416336E+03  0.00000000000E+00 0.  1.
          2   -1    0    0  501    0  0.00000000000E+00 -0.00000000000E+00 -0.22228223887E+03  0.22228223887E+03  0.00000000000E+00 0. -1.
         23    2    1    2    0    0  0.59835247230E+02 -0.15198504173E+03  0.63079841796E+02  0.21518393170E+03  0.12508136672E+03 0.  0.
          5    1    3    3  502    0  0.68498677347E+02 -0.78212399059E+02 -0.17498459131E+02  0.10551263733E+03  0.41800000000E+01 0.  1.
         -5    1    3    3    0  502 -0.86634301175E+01 -0.73772642673E+02  0.80578300927E+02  0.10967129437E+03  0.41800000000E+01 0.  1.
        -11    1    1    2    0    0 -0.81884258270E+02  0.92361737916E+02 -0.69369212964E+02  0.14159028953E+03  0.00000000000E+00 0. -1.
         11    1    1    2    0    0  0.22049011040E+02  0.59623303816E+02 -0.15958704343E+02  0.65542180999E+02  0.00000000000E+00 0.  1.
</event>
<event>
 7    1  0.6992302E-006  0.7758196E+02  0.7561462E-02  0.1336057E+00
          1   -1    0    0  501    0  0.00000000000E+00  0.00000000000E+00  0.76231682387E+03  0.76231682387E+03  0.00000000000E+00 0. -1.
         -1   -1    0    0    0  501 -0.00000000000E+00 -0.00000000000E+00 -0.17403199242E+02  0.17403199242E+02  0.00000000000E+00 0.  1.
         23    2    1    2    0    0 -0.28417714769E+02 -0.30506197302E+02  0.42807530349E+03  0.44792399066E+03  0.12509692787E+03 0.  0.
          5    1    3    3  502    0 -0.29864685733E+02 -0.46939602541E+02  0.42725886588E+03  0.43088610631E+03  0.41800000000E+01 0. -1.
         -5    1    3    3    0  502  0.14469709633E+01  0.16433405239E+02  0.81643761256E+00  0.17037884349E+02  0.41800000000E+01 0. -1.
        -11    1    1    2    0    0 -0.18640286330E+02  0.29968887678E+02  0.52235738783E+02  0.63040993880E+02  0.00000000000E+00 0. -1.
         11    1    1    2    0    0  0.47058001100E+02  0.53730962390E+00  0.26460258236E+03  0.26875503857E+03  0.00000000000E+00 0.  1.
</event>
<event>
 7    1  0.6992302E-006  0.1177987E+03  0.7561462E-02  0.1246773E+00
         -1   -1    0    0    0  501 -0.00000000000E+00  0.00000000000E+00  0.17247851166E+04  0.17247851166E+04  0.00000000000E+00 0.  1.
          1   -1    0    0  501    0  0.00000000000E+00 -0.00000000000E+00 -0.93071337995E+01  0.93071337995E+01  0.00000000000E+00 0. -1.
         23    2    1    2    0    0 -0.52284279202E+01  0.48204573577E+02  0.12651375485E+04  0.12722309827E+04  0.12509052434E+03 0.  0.
          5    1    3    3  502    0  0.59686781749E+02  0.23836009317E+02  0.65045382836E+03  0.65363470110E+03  0.41800000000E+01 0.  1.
         -5    1    3    3    0  502 -0.64915209670E+02  0.24368564260E+02  0.61468372012E+03  0.61859628155E+03  0.41800000000E+01 0.  1.
        -11    1    1    2    0    0 -0.84514139235E+01  0.25448080983E+02  0.95101493421E+02  0.98809540399E+02  0.00000000000E+00 0. -1.
         11    1    1    2    0    0  0.13679841844E+02 -0.73652654561E+02  0.35523894086E+03  0.36305172731E+03  0.00000000000E+00 0.  1.
</event>
<event>
 7    1  0.6992302E-006  0.8997931E+02  0.7561462E-02  0.1302902E+00
         -1   -1    0    0    0  501 -0.00000000000E+00  0.00000000000E+00  0.65372894197E+03  0.65372894197E+03  0.00000000000E+00 0.  1.
          1   -1    0    0  501    0  0.00000000000E+00 -0.00000000000E+00 -0.19132530406E+02  0.19132530406E+02  0.00000000000E+00 0. -1.
         23    2    1    2    0    0 -0.21698033455E+02 -0.99296283935E+01  0.38139682906E+03  0.40209455699E+03  0.12508832625E+03 0.  0.
          5    1    3    3  502    0 -0.58690543621E+02 -0.40320599809E+01  0.85864165280E+02  0.10416796387E+03  0.41800000000E+01 0. -1.
         -5    1    3    3    0  502  0.36992510166E+02 -0.58975684126E+01  0.29553266378E+03  0.29792659311E+03  0.41800000000E+01 0. -1.
        -11    1    1    2    0    0  0.48664340643E+02 -0.10095854616E+02  0.78814941274E+02  0.93176924712E+02  0.00000000000E+00 0. -1.
         11    1    1    2    0    0 -0.26966307188E+02  0.20025483010E+02  0.17438464122E+03  0.17758999068E+03  0.00000000000E+00 0.  1.
</event>
<event>
 7    1  0.6992302E-006  0.9066963E+02  0.7561462E-02  0.1301238E+00
         -2   -1    0    0    0  501 -0.00000000000E+00  0.00000000000E+00  0.84473886000E+02  0.84473886000E+02  0.00000000000E+00 0.  1.
          2   -1    0    0  501    0  0.00000000000E+00 -0.00000000000E+00 -0.19023432966E+03  0.19023432966E+03  0.00000000000E+00 0. -1.
         23    2    1    2    0    0  0.66590391534E+02 -0.33597367438E+02 -0.47951516841E+02  0.14358788826E+03  0.11293834753E+03 0.  0.
          5    1    3    3  502    0  0.81905157122E+02 -0.35923604403E+02 -0.71852690727E+02  0.11480087840E+03  0.41800000000E+01 0. -1.
         -5    1    3    3    0  502 -0.15314765588E+02  0.23262369652E+01  0.23901173886E+02  0.28787009858E+02  0.41800000000E+01 0.  1.
        -11    1    1    2    0    0 -0.54767107065E+02  0.32958991152E+02  0.78521441733E+01  0.64400211817E+02  0.00000000000E+00 0.  1.
         11    1    1    2    0    0 -0.11823284470E+02  0.63837628561E+00 -0.65661070995E+02  0.66720115588E+02  0.00000000000E+00 0. -1.
</event>
<event>
 7    1  0.6992302E-006  0.8286751E+02  0.7561462E-02  0.1321105E+00
         -2   -1    0    0    0  501 -0.00000000000E+00  0.00000000000E+00  0.69052477133E+02  0.69052477133E+02  0.00000000000E+00 0.  1.
          2   -1    0    0  501    0  0.00000000000E+00 -0.00000000000E+00 -0.20450999752E+03  0.20450999752E+03  0.00000000000E+00 0. -1.
         23    2    1    2    0    0 -0.43162278659E+02  0.13889731227E+02 -0.70406784453E+02  0.15053703312E+03  0.12509346950E+03 0.  0.
          5    1    3    3  502    0 -0.17867652924E+02 -0.14895990512E+02 -0.99483685714E+02  0.10225272455E+03  0.41800000000E+01 0. -1.
         -5    1    3    3    0  502 -0.25294625735E+02  0.28785721739E+02  0.29076901262E+02  0.48284308570E+02  0.41800000000E+01 0. -1.
        -11    1    1    2    0    0 -0.29700255827E+02 -0.25025589717E+01 -0.11771668691E+02  0.32045907404E+02  0.00000000000E+00 0.  1.
         11    1    1    2    0    0  0.72862534486E+02 -0.11387172255E+02 -0.53279067241E+02  0.90979534126E+02  0.00000000000E+00 0. -1.
</event>
<event>
 7    1  0.6992302E-006  0.1983312E+03  0.7561462E-02  0.1151155E+00
          2   -1    0    0  501    0  0.00000000000E+00  0.00000000000E+00  0.41203460408E+02  0.41203460408E+02  0.00000000000E+00 0. -1.
         -2   -1    0    0    0  501 -0.00000000000E+00 -0.00000000000E+00 -0.16145648316E+04  0.16145648316E+04  0.00000000000E+00 0.  1.
         23    2    1    2    0    0  0.18119099756E+03  0.49551204216E+02 -0.12547766457E+04  0.12749109190E+04  0.12509165152E+03 0.  0.
          5    1    3    3  502    0  0.67370243635E+02  0.13854221342E+02 -0.85301386754E+03  0.85579250978E+03  0.41800000000E+01 0. -1.
         -5    1    3    3    0  502  0.11382075392E+03  0.35696982874E+02 -0.40176277820E+03  0.41911840923E+03  0.41800000000E+01 0. -1.
        -11    1    1    2    0    0 -0.15038402013E+03 -0.75356657413E+02 -0.26500200040E+03  0.31387902055E+03  0.00000000000E+00 0. -1.
         11    1    1    2    0    0 -0.30806977427E+02  0.25805453197E+02 -0.53582725063E+02  0.66978352459E+02  0.00000000000E+00 0.  1.
</event>
<event>
 7    1  0.6992302E-006  0.8303438E+02  0.7561462E-02  0.1320654E+00
         -2   -1    0    0    0  501 -0.00000000000E+00  0.00000000000E+00  0.10934870604E+03  0.10934870604E+03  0.00000000000E+00 0.  1.
          2   -1    0    0  501    0  0.00000000000E+00 -0.00000000000E+00 -0.11167729130E+03  0.11167729130E+03  0.00000000000E+00 0. -1.
         23    2    1    2    0    0 -0.14312885239E+02 -0.15296045387E+02  0.12663327377E+02  0.12746026089E+03  0.12508769147E+03 0.  0.
          5    1    3    3  502    0 -0.15636964051E+02 -0.54728517378E+02 -0.33825449334E+02  0.66342736466E+02  0.41800000000E+01 0. -1.
         -5    1    3    3    0  502  0.13240788122E+01  0.39432471991E+02  0.46488776711E+02  0.61117524427E+02  0.41800000000E+01 0. -1.
        -11    1    1    2    0    0 -0.18608946734E+02 -0.15516871385E+02  0.23889023326E+02  0.34025749538E+02  0.00000000000E+00 0.  1.
         11    1    1    2    0    0  0.32921831973E+02  0.30812916772E+02 -0.38880935960E+02  0.59539986913E+02  0.00000000000E+00 0. -1.
</event>
<event>
 6    1  0.6992302E-006  0.1155579E+03  0.7561462E-02  0.1250610E+00
          1   -1    0    0  501    0  0.00000000000E+00  0.00000000000E+00  0.28125612583E+03  0.28125612583E+03  0.00000000000E+00 0. -1.
         -1   -1    0    0    0  501 -0.00000000000E+00 -0.00000000000E+00 -0.10199292021E+03  0.10199292021E+03  0.00000000000E+00 0.  1.
          5    1    1    2  502    0 -0.29434060983E+02  0.38840318544E+02 -0.75942904550E+01  0.49498282172E+02  0.41800000000E+01 0. -1.
         -5    1    1    2    0  502  0.16418314499E+02 -0.10854372401E+03 -0.49962614636E+01  0.10997152405E+03  0.41800000000E+01 0.  1.
        -11    1    1    2    0    0 -0.19631553625E-01  0.38869036764E+02  0.11772381210E+02  0.40612699537E+02  0.00000000000E+00 0.  1.
         11    1    1    2    0    0  0.13035378037E+02  0.30834368707E+02  0.18008137633E+03  0.18316654027E+03  0.00000000000E+00 0. -1.
</event>
<event>
 7    1  0.6992302E-006  0.1054897E+03  0.7561462E-02  0.1269158E+00
         -2   -1    0    0    0  501 -0.00000000000E+00  0.00000000000E+00  0.20695316215E+03  0.20695316215E+03  0.00000000000E+00 0.  1.
          2   -1    0    0  501    0  0.00000000000E+00 -0.00000000000E+00 -0.10152579717E+03  0.10152579717E+03  0.00000000000E+00 0. -1.
         23    2    1    2    0    0  0.54442431856E+02 -0.68398234210E+02  0.10202195979E+03  0.18357077618E+03  0.12508977879E+03 0.  0.
          5    1    3    3  502    0  0.53459993667E+02 -0.74170812223E+02  0.10906983242E+02  0.92172202925E+02  0.41800000000E+01 0.  1.
         -5    1    3    3    0  502  0.98243818924E+00  0.57725780132E+01  0.91114976545E+02  0.91398573252E+02  0.41800000000E+01 0.  1.
        -11    1    1    2    0    0  0.52393969232E+00 -0.13563620210E+02  0.20664402414E+02  0.24723750386E+02  0.00000000000E+00 0.  1.
         11    1    1    2    0    0 -0.54966371548E+02  0.81961854420E+02 -0.17258997228E+02  0.10018443276E+03  0.00000000000E+00 0. -1.
</event>
<event>
 7    1  0.6992302E-006  0.1665119E+03  0.7561462E-02  0.1181535E+00
          3   -1    0    0  501    0  0.00000000000E+00  0.00000000000E+00  0.18808775640E+03  0.18808775640E+03  0.00000000000E+00 0. -1.
         -3   -1    0    0    0  501 -0.00000000000E+00 -0.00000000000E+00 -0.17568221005E+03  0.17568221005E+03  0.00000000000E+00 0.  1.
         23    2    1    2    0    0 -0.86173705831E+02 -0.97758563673E+02 -0.52064410498E+02  0.18797187838E+03  0.12506030495E+03 0.  0.
          5    1    3    3  502    0 -0.58926426420E+01  0.24623925495E+02  0.11777229174E+02  0.28235376235E+02  0.41800000000E+01 0.  1.
         -5    1    3    3    0  502 -0.80281063189E+02 -0.12238248917E+03 -0.63841639672E+02  0.15973650215E+03  0.41800000000E+01 0.  1.
        -11    1    1    2    0    0 -0.19189748864E+02  0.33791337973E+01 -0.18446054173E+01  0.19572112196E+02  0.00000000000E+00 0. -1.
         11    1    1    2    0    0  0.10536345469E+03  0.94379429876E+02  0.66314562270E+02  0.15622597587E+03  0.00000000000E+00 0.  1.
</event>
<event>
 7    1  0.6992302E-006  0.1169252E+03  0.7561462E-02  0.1248257E+00
          1   -1    0    0  501    0  0.00000000000E+00  0.00000000000E+00  0.17160726133E+02  0.17160726133E+02  0.00000000000E+00 0. -1.
         -1   -1    0    0    0  501 -0.00000000000E+00 -0.00000000000E+00 -0.99359320228E+03  0.99359320228E+03  0.00000000000E+00 0.  1.
         23    2    1    2    0    0 -0.93281830987E+01  0.63439052829E+02 -0.68745688093E+03  0.70168115850E+03  0.12509179283E+03 0.  0.
          5    1    3    3  502    0  0.53014607487E+02  0.31975370818E+02 -0.44593604407E+03  0.45023260738E+03  0.41800000000E+01 0.  1.
         -5    1    3    3    0  502 -0.62342790586E+02  0.31463682012E+02 -0.24152083686E+03  0.25144855112E+03  0.41800000000E+01 0.  1.
        -11    1    1    2    0    0 -0.34675617554E+02 -0.35995599638E+02 -0.84980678520E+02  0.98589032695E+02  0.00000000000E+00 0. -1.
         11    1    1    2    0    0  0.44003800653E+02 -0.27443453191E+02 -0.20399491669E+03  0.21048373721E+03  0.00000000000E+00 0.  1.
</event>
<event>
 7    1  0.6992302E-006  0.7609283E+02  0.7561462E-02  0.1340520E+00
         -1   -1    0    0    0  501 -0.00000000000E+00  0.00000000000E+00  0.41096649306E+02  0.41096649306E+02  0.00000000000E+00 0.  1.
          1   -1    0    0  501    0  0.00000000000E+00 -0.00000000000E+00 -0.31967806365E+03  0.31967806365E+03  0.00000000000E+00 0. -1.
         23    2    1    2    0    0  0.23967474825E+02 -0.14018136760E+01 -0.11609150878E+03  0.17233724258E+03  0.12508589784E+03 0.  0.
          5    1    3    3  502    0  0.12117984664E+02  0.28911275198E+02  0.16551940463E+02  0.35695189018E+02  0.41800000000E+01 0.  1.
         -5    1    3    3    0  502  0.11849490161E+02 -0.30313088874E+02 -0.13264344924E+03  0.13664205356E+03  0.41800000000E+01 0.  1.
        -11    1    1    2    0    0  0.31391257200E+02  0.68171379502E+01 -0.26959170992E+02  0.41936634331E+02  0.00000000000E+00 0.  1.
         11    1    1    2    0    0 -0.55358732026E+02 -0.54153242742E+01 -0.13553073457E+03  0.14650083605E+03  0.00000000000E+00 0. -1.
</event>
<event>
 7    1  0.6992302E-006  0.1408153E+03  0.7561462E-02  0.1212236E+00
         -1   -1    0    0    0  501 -0.00000000000E+00  0.00000000000E+00  0.78840413674E+02  0.78840413674E+02  0.00000000000E+00 0.  1.
          1   -1    0    0  501    0  0.00000000000E+00 -0.00000000000E+00 -0.33959092620E+03  0.33959092620E+03  0.00000000000E+00 0. -1.
         23    2    1    2    0    0  0.55507210753E+01 -0.11463410608E+03 -0.88174775517E+02  0.19129819549E+03  0.12509364404E+03 0.  0.
          5    1    3    3  502    0  0.39556532637E+02 -0.12490394808E+03 -0.53817374261E+02  0.14170214428E+03  0.41800000000E+01 0.  1.
         -5    1    3    3    0  502 -0.34005811562E+02  0.10269842006E+02 -0.34357401256E+02  0.49596051212E+02  0.41800000000E+01 0.  1.
        -11    1    1    2    0    0 -0.47620083023E+01  0.84809580042E+02 -0.45022675589E+02  0.96137312773E+02  0.00000000000E+00 0.  1.
         11    1    1    2    0    0 -0.78871277304E+00  0.29824526035E+02 -0.12755306143E+03  0.13099583161E+03  0.00000000000E+00 0. -1.
</event>
<event>
 7    1  0.6992302E-006  0.2023522E+03  0.7561462E-02  0.1147769E+00
          1   -1    0    0  501    0  0.00000000000E+00  0.00000000000E+00  0.57376509727E+03  0.57376509727E+03  0.00000000000E+00 0. -1.
         -1   -1    0    0    0  501 -0.00000000000E+00 -0.00000000000E+00 -0.98785014318E+02  0.98785014318E+02  0.00000000000E+00 0.  1.
         23    2    1    2    0    0  0.15108460924E+03  0.10660653086E+03  0.10045583796E+03  0.24481402394E+03  0.12510403417E+03 0.  0.
          5    1    3    3  502    0  0.14644414246E+03  0.68136093463E+02  0.30054562105E+02  0.16434464760E+03  0.41800000000E+01 0. -1.
         -5    1    3    3    0  502  0.46404667781E+01  0.38470437398E+02  0.70401275856E+02  0.80469376335E+02  0.41800000000E+01 0. -1.
        -11    1    1    2    0    0 -0.37626309179E+02 -0.78828396876E+02  0.12832448347E+03  0.15523153144E+03  0.00000000000E+00 0.  1.
         11    1    1    2    0    0 -0.11345830006E+03 -0.27778133985E+02  0.24619976152E+03  0.27250455620E+03  0.00000000000E+00 0. -1.
</event>
<event>
 7    1  0.6992302E-006  0.2631356E+03  0.7561462E-02  0.1105274E+00
          1   -1    0    0  501    0  0.00000000000E+00  0.00000000000E+00  0.54134305095E+02  0.54134305095E+02  0.00000000000E+00 0. -1.
         -1   -1    0    0    0  501 -0.00000000000E+00 -0.00000000000E+00 -0.14836686017E+04  0.14836686017E+04  0.00000000000E+00 0.  1.
         23    2    1    2    0    0 -0.15650279775E+03 -0.20339375980E+03 -0.59451574382E+03  0.65951264897E+03  0.12508324134E+03 0.  0.
          5    1    3    3  502    0 -0.50550004301E+02 -0.72730612524E+02 -0.84623889871E+02  0.12257128567E+03  0.41800000000E+01 0. -1.
         -5    1    3    3    0  502 -0.10595279345E+03 -0.13066314728E+03 -0.50989185395E+03  0.53694136330E+03  0.41800000000E+01 0. -1.
        -11    1    1    2    0    0  0.86402799621E+02  0.17207183934E+03 -0.53467889393E+03  0.56829189797E+03  0.00000000000E+00 0.  1.
         11    1    1    2    0    0  0.70099998132E+02  0.31321920458E+02 -0.30033965882E+03  0.30999835983E+03  0.00000000000E+00 0. -1.
</event>
<event>
 7    1  0.6992302E-006  0.1100459E+03  0.7561462E-02  0.1260485E+00
         -3   -1    0    0    0  501 -0.00000000000E+00  0.00000000000E+00  0.19482892334E+02  0.19482892334E+02  0.00000000000E+00 0. -1.
          3   -1    0    0  501    0  0.00000000000E+00 -0.00000000000E+00 -0.70938925360E+03  0.70938925360E+03  0.00000000000E+00 0.  1.
         23    2    1    2    0    0  0.16245109312E+02  0.14490427993E+02 -0.26723174460E+03  0.29586428265E+03  0.12509593258E+03 0.  0.
          5    1    3    3  502    0 -0.46322038309E+02  0.37718036046E+02 -0.13503545566E+03  0.14771739289E+03  0.41800000000E+01 0.  1.
         -5    1    3    3    0  502  0.62567147621E+02 -0.23227608052E+02 -0.13219628894E+03  0.14814688976E+03  0.41800000000E+01 0.  1.
        -11    1    1    2    0    0 -0.34707877184E+02 -0.45514009162E+02 -0.23293897875E+03  0.23986815043E+03  0.00000000000E+00 0. -1.
         11    1    1    2    0    0  0.18462767872E+02  0.31023581169E+02 -0.18973563791E+03  0.19313971284E+03  0.00000000000E+00 0.  1.
</event>
<event>
 7    1  0.6992302E-006  0.1147817E+03  0.7561462E-02  0.1251963E+00
         -3   -1    0    0    0  501 -0.00000000000E+00  0.00000000000E+00  0.27692497898E+02  0.27692497898E+02  0.00000000000E+00 0.  1.
          3   -1    0    0  501    0  0.00000000000E+00 -0.00000000000E+00 -0.64302649823E+03  0.64302649823E+03  0.00000000000E+00 0. -1.
         23    2    1    2    0    0 -0.73567093180E+02  0.17018872608E+02 -0.29180907701E+03  0.32634645510E+03  0.12509081543E+03 0.  0.
          5    1    3    3  502    0 -0.10888646781E+02 -0.47984587485E+02 -0.15234522861E+03  0.16014875693E+03  0.41800000000E+01 0.  1.
         -5    1    3    3    0  502 -0.62678446399E+02  0.65003460093E+02 -0.13946384840E+03  0.16619769817E+03  0.41800000000E+01 0.  1.
        -11    1    1    2    0    0  0.22194036857E+02 -0.29501266469E+02 -0.34422106295E+02  0.50475552469E+02  0.00000000000E+00 0.  1.
         11    1    1    2    0    0  0.51373056323E+02  0.12482393862E+02 -0.28910281703E+03  0.29389698856E+03  0.00000000000E+00 0. -1.
</event>
<event>
 7    1  0.6992302E-006  0.1151995E+03  0.7561462E-02  0.1251233E+00
         -1   -1    0    0    0  501 -0.00000000000E+00  0.00000000000E+00  0.34448856427E+03  0.34448856427E+03  0.00000000000E+00 0.  1.
          1   -1    0    0  501    0  0.00000000000E+00 -0.00000000000E+00 -0.42423341634E+02  0.42423341634E+02  0.00000000000E+00 0. -1.
         23    2    1    2    0    0 -0.34525979934E+02 -0.22540086406E+02  0.22203265373E+03  0.25815989584E+03  0.12509170120E+03 0.  0.
          5    1    3    3  502    0 -0.74890946970E+02  0.14600145482E+02  0.12063290156E+03  0.14279911598E+03  0.41800000000E+01 0. -1.
         -5    1    3    3    0  502  0.40364967036E+02 -0.37140231889E+02  0.10139975217E+03  0.11536077985E+03  0.41800000000E+01 0. -1.
        -11    1    1    2    0    0 -0.24128401899E+02  0.31456640180E+02  0.44495008616E+02  0.59594511335E+02  0.00000000000E+00 0. -1.
         11    1    1    2    0    0  0.58654381832E+02 -0.89165537738E+01  0.35537560288E+02  0.69157498730E+02  0.00000000000E+00 0.  1.
</event>
<event>
 7    1  0.6992302E-006  0.1822436E+03  0.7561462E-02  0.1165649E+00
          2   -1    0    0  501    0  0.00000000000E+00  0.00000000000E+00  0.41823937643E+03  0.41823937643E+03  0.00000000000E+00 0. -1.
         -2   -1    0    0    0  501 -0.00000000000E+00 -0.00000000000E+00 -0.94466426127E+02  0.94466426127E+02  0.00000000000E+00 0.  1.
         23    2    1    2    0    0 -0.27576972619E+02  0.16172045303E+03  0.20126480608E+03  0.28822119853E+03  0.12509973129E+03 0.  0.
          5    1    3    3  502    0 -0.62977853419E+02  0.90816964697E+02  0.17024506923E+03  0.20301425343E+03  0.41800000000E+01 0. -1.
         -5    1    3    3    0  502  0.35400880800E+02  0.70903488330E+02  0.31019736848E+02  0.85206945098E+02  0.41800000000E+01 0. -1.
        -11    1    1    2    0    0  0.46249724137E+02 -0.10283975052E+03  0.36357846229E+02  0.11847761076E+03  0.00000000000E+00 0.  1.
         11    1    1    2    0    0 -0.18672751517E+02 -0.58880702511E+02  0.86150297995E+02  0.10600699327E+03  0.00000000000E+00 0. -1.
</event>
<event>
 7    1  0.6992302E-006  0.1312422E+03  0.7561462E-02  0.1225624E+00
         -4   -1    0    0    0  501 -0.00000000000E+00  0.00000000000E+00  0.35571774694E+03  0.35571774694E+03  0.00000000000E+00 0.  1.
          4   -1    0    0  501    0  0.00000000000E+00 -0.00000000000E+00 -0.75635086153E+02  0.75635086153E+02  0.00000000000E+00 0. -1.
         23    2    1    2    0    0 -0.75694391123E+02 -0.30717475406E+02  0.26928246209E+03  0.30795062582E+03  0.12508932573E+03 0.  0.
          5    1    3    3  502    0 -0.12281389553E+02 -0.69724125758E+02  0.96442403914E+02  0.11971172004E+03  0.41800000000E+01 0.  1.
         -5    1    3    3    0  502 -0.63413001570E+02  0.39006650351E+02  0.17284005818E+03  0.18823890578E+03  0.41800000000E+01 0.  1.
        -11    1    1    2    0    0  0.35373932509E+01  0.43562199785E+02  0.22541765010E+02  0.49176311075E+02  0.00000000000E+00 0.  1.
         11    1    1    2    0    0  0.72156997872E+02 -0.12844724379E+02 -0.11741566316E+02  0.74225896194E+02  0.00000000000E+00 0. -1.
</event>
<event>
 7    1  0.6992302E-006  0.7914317E+02  0.7561462E-02  0.1331501E+00
          1   -1    0    0  501    0  0.00000000000E+00  0.00000000000E+00  0.13250958947E+03  0.13250958947E+03  0.00000000000E+00 0. -1.
         -1   -1    0    0    0  501 -0.00000000000E+00 -0.00000000000E+00 -0.12821240429E+03  0.12821240429E+03  0.00000000000E+00 0.  1.
         23    2    1    2    0    0  0.42672274679E+02 -0.23808325821E+01 -0.56161658436E+02  0.14362697339E+03  0.12509190308E+03 0.  0.
          5    1    3    3  502    0 -0.19438993154E+02  0.12799223554E+02  0.28766731300E+02  0.37238311027E+02  0.41800000000E+01 0. -1.
         -5    1    3    3    0  502  0.62111267833E+02 -0.15180056136E+02 -0.84928389736E+02  0.10638866236E+03  0.41800000000E+01 0. -1.
        -11    1    1    2    0    0 -0.50690050400E+02 -0.13774492793E+02  0.76607327845E+02  0.92886492779E+02  0.00000000000E+00 0. -1.
         11    1    1    2    0    0  0.80177757216E+01  0.16155325375E+02 -0.16148484228E+02  0.24208527596E+02  0.00000000000E+00 0.  1.
</event>
<event>
 7    1  0.6992302E-006  0.1401151E+03  0.7561462E-02  0.1213174E+00
          2   -1    0    0  501    0  0.00000000000E+00  0.00000000000E+00  0.42502765326E+03  0.42502765326E+03  0.00000000000E+00 0. -1.
         -2   -1    0    0    0  501 -0.00000000000E+00 -0.00000000000E+00 -0.51602139421E+02  0.51602139421E+02  0.00000000000E+00 0.  1.
         23    2    1    2    0    0  0.81852982173E+02 -0.43915687582E+02  0.14068503043E+03  0.20992487400E+03  0.12509067363E+03 0.  0.
          5    1    3    3  502    0 -0.15158489098E+02  0.29645459886E+02  0.24173561604E+02  0.41357787226E+02  0.41800000000E+01 0.  1.
         -5    1    3    3    0  502  0.97011471271E+02 -0.73561147468E+02  0.11651146883E+03  0.16856708677E+03  0.41800000000E+01 0.  1.
        -11    1    1    2    0    0  0.97461836112E+01  0.30818186612E+02  0.98467700946E+02  0.10363704381E+03  0.00000000000E+00 0. -1.
         11    1    1    2    0    0 -0.91599165784E+02  0.13097500970E+02  0.13427278246E+03  0.16306787487E+03  0.00000000000E+00 0.  1.
</event>
<event>
 7    1  0.6992302E-006  0.1285795E+03  0.7561462E-02  0.1229579E+00
         -1   -1    0    0    0  501 -0.00000000000E+00  0.00000000000E+00  0.59903560046E+02  0.59903560046E+02  0.00000000000E+00 0.  1.
          1   -1    0    0  501    0  0.00000000000E+00 -0.00000000000E+00 -0.43210409956E+03  0.43210409956E+03  0.00000000000E+00 0. -1.
         23    2    1    2    0    0  0.64106505841E+02 -0.56856124603E+02 -0.74602249509E+02  0.16898233238E+03  0.12508904839E+03 0.  0.
          5    1    3    3  502    0  0.85307012666E+02  0.39315434271E+01 -0.54567391817E+02  0.10142887209E+03  0.41800000000E+01 0. -1.
         -5    1    3    3    0  502 -0.21200506824E+02 -0.60787668031E+02 -0.20034857692E+02  0.67553460288E+02  0.41800000000E+01 0. -1.
        -11    1    1    2    0    0 -0.62430331543E+02  0.13648382366E+02 -0.86509673282E+02  0.10755346675E+03  0.00000000000E+00 0.  1.
         11    1    1    2    0    0 -0.16761742989E+01  0.43207742237E+02 -0.21108861673E+03  0.21547186048E+03  0.00000000000E+00 0. -1.
</event>
<event>
 7    1  0.6992302E-006  0.8373092E+02  0.7561462E-02  0.1318785E+00
         -1   -1    0    0    0  501 -0.00000000000E+00  0.00000000000E+00  0.93960214734E+02  0.93960214734E+02  0.00000000000E+00 0.  1.
          1   -1    0    0  501    0  0.00000000000E+00 -0.00000000000E+00 -0.21689443498E+03  0.21689443498E+03  0.00000000000E+00 0. -1.
         23    2    1    2    0    0 -0.17389223029E+02  0.20152134939E+02  0.27747181742E+02  0.13264099696E+03  0.12694579300E+03 0.  0.
          5    1    3    3  502    0  0.12121385542E+02 -0.27735363213E+02  0.60239833942E+02  0.67546194219E+02  0.41800000000E+01 0. -1.
         -5    1    3    3    0  502 -0.29510608570E+02  0.47887498152E+02 -0.32492652200E+02  0.65094802746E+02  0.41800000000E+01 0.  1.
        -11    1    1    2    0    0  0.46727200550E+02 -0.20818981600E+02 -0.13619918190E+03  0.14548910068E+03  0.00000000000E+00 0. -1.
         11    1    1    2    0    0 -0.29337977522E+02  0.66684666094E+00 -0.14482220087E+02  0.32724552070E+02  0.00000000000E+00 0.  1.
</event>
<event>
 7    1  0.6992302E-006  0.1150929E+03  0.7561462E-02  0.1251419E+00
         -2   -1    0    0    0  501 -0.00000000000E+00  0.00000000000E+00  0.70801350615E+02  0.70801350615E+02  0.00000000000E+00 0.  1.
          2   -1    0    0  501    0  0.00000000000E+00 -0.00000000000E+00 -0.22961277765E+03  0.22961277765E+03  0.00000000000E+00 0. -1.
         23    2    1    2    0    0  0.61701782052E+02 -0.16337214777E+02 -0.62466012688E+02  0.15369752813E+03  0.12508762096E+03 0.  0.
          5    1    3    3  502    0  0.86850678215E+02  0.43496293063E+01 -0.78441606031E+02  0.11718582482E+03  0.41800000000E+01 0.  1.
         -5    1    3    3    0  502 -0.25148896163E+02 -0.20686844083E+02  0.15975593343E+02  0.36511703315E+02  0.41800000000E+01 0.  1.
        -11    1    1    2    0    0 -0.87438820384E+01 -0.35277263656E+02 -0.26332338476E+02  0.44881319652E+02  0.00000000000E+00 0. -1.
         11    1    1    2    0    0 -0.52957900013E+02  0.51614478433E+02 -0.70013075872E+02  0.10183528048E+03  0.00000000000E+00 0.  1.
</event>
<event>
 7    1  0.6992302E-006  0.9934266E+02  0.7561462E-02  0.1281684E+00
         -1   -1    0    0    0  501 -0.00000000000E+00  0.00000000000E+00  0.28559655741E+03  0.28559655741E+03  0.00000000000E+00 0.  1.
          1   -1    0    0  501    0  0.00000000000E+00 -0.00000000000E+00 -0.51306550586E+02  0.51306550586E+02  0.00000000000E+00 0. -1.
         23    2    1    2    0    0 -0.45615853381E+02  0.24246614570E+02  0.16122746180E+03  0.21050233718E+03  0.12509290597E+03 0.  0.
          5    1    3    3  502    0  0.18522485011E+02  0.56056415993E+02  0.46772524678E+02  0.75435705669E+02  0.41800000000E+01 0. -1.
         -5    1    3    3    0  502 -0.64138338392E+02 -0.31809801423E+02  0.11445493712E+03  0.13506663152E+03  0.41800000000E+01 0. -1.
        -11    1    1    2    0    0  0.22337337862E+02 -0.35489280075E+02 -0.67791758091E+01  0.42478263708E+02  0.00000000000E+00 0. -1.
         11    1    1    2    0    0  0.23278515519E+02  0.11242665504E+02  0.79841720836E+02  0.83922507103E+02  0.00000000000E+00 0.  1.
</event>
<event>
 6    1  0.6992302E-006  0.7519274E+02  0.7561462E-02  0.1343275E+00
          2   -1    0    0  501    0  0.00000000000E+00  0.00000000000E+00  0.13029178952E+04  0.13029178952E+04  0.00000000000E+00 0. -1.
         -2   -1    0    0    0  501 -0.00000000000E+00 -0.00000000000E+00 -0.24932384322E+02  0.24932384322E+02  0.00000000000E+00 0.  1.
          5    1    1    2  502    0  0.66543855839E+01  0.36019802207E+01  0.83101697846E+03  0.83106193873E+03  0.41800000000E+01 0. -1.
         -5    1    1    2    0  502  0.31560204008E+02  0.24917617832E+02  0.20583184813E+01  0.40480158478E+02  0.41800000000E+01 0.  1.
        -11    1    1    2    0    0 -0.67486443978E+02 -0.15323166676E+02  0.30965735433E+03  0.31729622854E+03  0.00000000000E+00 0.  1.
         11    1    1    2    0    0  0.29271854386E+02 -0.13196431377E+02  0.13525285956E+03  0.13901195373E+03  0.00000000000E+00 0. -1.
</event>
<event>
 7    1  0.6992302E-006  0.8205181E+02  0.7561462E-02  0.1323328E+00
         -2   -1    0    0    0  501 -0.00000000000E+00  0.00000000000E+00  0.30860337338E+02  0.30860337338E+02  0.00000000000E+00 0.  1.
          2   -1    0    0  501    0  0.00000000000E+00 -0.00000000000E+00 -0.52586304463E+03  0.52586304463E+03  0.00000000000E+00 0. -1.
         23    2    1    2    0    0 -0.45056893629E+02 -0.25260006500E+02 -0.18259321363E+03  0.22727965629E+03  0.12509024305E+03 0.  0.
          5    1    3    3  502    0 -0.25060811312E+02  0.15128944805E+02 -0.17949287016E+03  0.18191231974E+03  0.41800000000E+01 0. -1.
         -5    1    3    3    0  502 -0.19996082317E+02 -0.40388951305E+02 -0.31003434638E+01  0.45367336545E+02  0.41800000000E+01 0. -1.
        -11    1    1    2    0    0 -0.49181648064E+01  0.37498998009E+02 -0.53785654241E+02  0.65751500354E+02  0.00000000000E+00 0.  1.
         11    1    1    2    0    0  0.49975058436E+02 -0.12238991509E+02 -0.25862383943E+03  0.26369222533E+03  0.00000000000E+00 0. -1.
</event>
<event>
 7    1  0.6992302E-006  0.1203685E+03  0.7561462E-02  0.1242490E+00
          1   -1    0    0  501    0  0.00000000000E+00  0.00000000000E+00  0.51379061649E+02  0.51379061649E+02  0.00000000000E+00 0. -1.
         -1   -1    0    0    0  501 -0.00000000000E+00 -0.00000000000E+00 -0.39257401657E+03  0.39257401657E+03  0.00000000000E+00 0.  1.
         23    2    1    2    0    0 -0.80958413445E+02  0.32940254343E+02 -0.22194190251E+03  0.26934291496E+03  0.12509225670E+03 0.  0.
          5    1    3    3  502    0  0.27498352839E+02 -0.31823052327E+01 -0.92285408774E+02  0.96438351023E+02  0.41800000000E+01 0. -1.
         -5    1    3    3    0  502 -0.10845676628E+03  0.36122559575E+02 -0.12965649373E+03  0.17290456394E+03  0.41800000000E+01 0. -1.
        -11    1    1    2    0    0  0.46213748002E+02  0.54946897368E+01 -0.21865125161E+01  0.46590588714E+02  0.00000000000E+00 0. -1.
         11    1    1    2    0    0  0.34744665443E+02 -0.38434944080E+02 -0.11706653989E+03  0.12801957454E+03  0.00000000000E+00 0.  1.
</event>
<event>
 6    1  0.6992302E-006  0.1654361E+03  0.7561462E-02  0.1182693E+00
          1   -1    0    0  501    0  0.00000000000E+00  0.00000000000E+00  0.38819261838E+03  0.38819261838E+03  0.00000000000E+00 0. -1.
         -1   -1    0    0    0  501 -0.00000000000E+00 -0.00000000000E+00 -0.14735028612E+03  0.14735028612E+03  0.00000000000E+00 0.  1.
          5    1    1    2  502    0 -0.33309393731E+02  0.14117552596E+03  0.18271270136E+03  0.23332691332E+03  0.41800000000E+01 0. -1.
         -5    1    1    2    0  502 -0.80380004044E+01 -0.14267360126E+03 -0.47099269078E+02  0.15051969803E+03  0.41800000000E+01 0.  1.
        -11    1    1    2    0    0  0.10144224294E+02 -0.43761658725E+01 -0.19813592975E+02  0.22685558861E+02  0.00000000000E+00 0.  1.
         11    1    1    2    0    0  0.31203169841E+02  0.58742411743E+01  0.12504249296E+03  0.12901073429E+03  0.00000000000E+00 0. -1.
</event>
<event>
 7    1  0.6992302E-006  0.1066460E+03  0.7561462E-02  0.1266910E+00
          2   -1    0    0  501    0  0.00000000000E+00  0.00000000000E+00  0.56137385164E+03  0.56137385164E+03  0.00000000000E+00 0.  1.
         -2   -1    0    0    0  501 -0.00000000000E+00 -0.00000000000E+00 -0.28560155210E+02  0.28560155210E+02  0.00000000000E+00 0. -1.
         23    2    1    2    0    0 -0.32287763273E+02  0.48635456988E+02  0.22320969440E+03  0.26244627654E+03  0.12509025966E+03 0.  0.
          5    1    3    3  502    0 -0.31844396359E+02 -0.34769866862E+02  0.12423593365E+03  0.13294754165E+03  0.41800000000E+01 0.  1.
         -5    1    3    3    0  502 -0.44336691347E+00  0.83405323849E+02  0.98973760751E+02  0.12949873489E+03  0.41800000000E+01 0.  1.
        -11    1    1    2    0    0  0.48646480200E+02 -0.28052872403E+02  0.28810047091E+03  0.29352227347E+03  0.00000000000E+00 0.  1.
         11    1    1    2    0    0 -0.16358716927E+02 -0.20582584585E+02  0.21503531122E+02  0.33965456841E+02  0.00000000000E+00 0. -1.
</event>
<event>
 7    1  0.6992302E-006  0.1855150E+03  0.7561462E-02  0.1162570E+00
          2   -1    0    0  501    0  0.00000000000E+00  0.00000000000E+00  0.57200346047E+03  0.57200346047E+03  0.00000000000E+00 0. -1.
         -2   -1    0    0    0  501 -0.00000000000E+00 -0.00000000000E+00 -0.81138008112E+02  0.81138008112E+02  0.00000000000E+00 0.  1.
         23    2    1    2    0    0 -0.16927789557E+03  0.61242148559E+02  0.18633720185E+03  0.28770568954E+03  0.12508958514E+03 0.  0.
          5    1    3    3  502    0 -0.89427194663E+01  0.17239888954E+02 -0.16198979656E+02  0.25633285870E+02  0.41800000000E+01 0. -1.
         -5    1    3    3    0  502 -0.16033517611E+03  0.44002259605E+02  0.20253618150E+03  0.26207240367E+03  0.41800000000E+01 0. -1.
        -11    1    1    2    0    0  0.10444582064E+03 -0.15701529078E+02  0.97408678927E+02  0.14367991577E+03  0.00000000000E+00 0.  1.
         11    1    1    2    0    0  0.64832074932E+02 -0.45540619481E+02  0.20711957159E+03  0.22175586328E+03  0.00000000000E+00 0. -1.
</event>
<event>
 7    1  0.6992302E-006  0.1613465E+03  0.7561462E-02  0.1187185E+00
         -2   -1    0    0    0  501 -0.00000000000E+00  0.00000000000E+00  0.31276076410E+03  0.31276076410E+03  0.00000000000E+00 0. -1.
          2   -1    0    0  501    0  0.00000000000E+00 -0.00000000000E+00 -0.85135049422E+02  0.85135049422E+02  0.00000000000E+00 0.  1.
         23    2    1    2    0    0  0.11389026959E+03 -0.37944168215E+02  0.14505764983E+03  0.22605294051E+03  0.12508979468E+03 0.  0.
          5    1    3    3  502    0  0.13928920756E+03 -0.42896287708E+02  0.11195472230E+03  0.18382847191E+03  0.41800000000E+01 0.  1.
         -5    1    3    3    0  502 -0.25398937968E+02  0.49521194927E+01  0.33102927531E+02  0.42224468599E+02  0.41800000000E+01 0.  1.
        -11    1    1    2    0    0 -0.10963564747E+03 -0.28375936838E+01  0.58535705562E+02  0.12431595215E+03  0.00000000000E+00 0. -1.
         11    1    1    2    0    0 -0.42546221234E+01  0.40781761899E+02  0.24032359285E+02  0.47526920853E+02  0.00000000000E+00 0.  1.
</event>
<event>
 7    1  0.6992302E-006  0.1077376E+03  0.7561462E-02  0.1264818E+00
          1   -1    0    0  501    0  0.00000000000E+00  0.00000000000E+00  0.22983677167E+03  0.22983677167E+03  0.00000000000E+00 0. -1.
         -1   -1    0    0    0  501 -0.00000000000E+00 -0.00000000000E+00 -0.10555671920E+03  0.10555671920E+03  0.00000000000E+00 0.  1.
         23    2    1    2    0    0 -0.70496368095E+02  0.27968533827E+02 -0.20790049476E+02  0.14777188817E+03  0.12510926416E+03 0.  0.
          5    1    3    3  502    0 -0.70171037286E+02 -0.18676741081E+02 -0.53804184388E+02  0.90471861862E+02  0.41800000000E+01 0.  1.
         -5    1    3    3    0  502 -0.32533080906E+00  0.46645274908E+02  0.33014134912E+02  0.57300026312E+02  0.41800000000E+01 0.  1.
        -11    1    1    2    0    0  0.73081093076E+02 -0.54964439411E+01  0.47200460655E+02  0.87171902281E+02  0.00000000000E+00 0.  1.
         11    1    1    2    0    0 -0.25847249807E+01 -0.22472089886E+02  0.97869641293E+02  0.10044970042E+03  0.00000000000E+00 0. -1.
</event>
<event>
 7    1  0.6992302E-006  0.8805768E+02  0.7561462E-02  0.1307625E+00
          1   -1    0    0  501    0  0.00000000000E+00  0.00000000000E+00  0.12427636948E+03  0.12427636948E+03  0.00000000000E+00 0. -1.
         -1   -1    0    0    0  501 -0.00000000000E+00 -0.00000000000E+00 -0.96844737307E+02  0.96844737307E+02  0.00000000000E+00 0.  1.
         23    2    1    2    0    0  0.10217893289E+02 -0.18473008332E+02  0.17345552410E+02  0.12804003848E+03  0.12509087052E+03 0.  0.
          5    1    3    3  502    0 -0.37058612778E+02 -0.60747545841E-01 -0.37723277651E+02  0.53045853259E+02  0.41800000000E+01 0.  1.
         -5    1    3    3    0  502  0.47276506067E+02 -0.18412260786E+02  0.55068830060E+02  0.74994185224E+02  0.41800000000E+01 0.  1.
        -11    1    1    2    0    0  0.14648383333E+02  0.47491439730E+02  0.20045362098E+02  0.53589444143E+02  0.00000000000E+00 0. -1.
         11    1    1    2    0    0 -0.24866276621E+02 -0.29018431399E+02 -0.99592823385E+01  0.39491624157E+02  0.00000000000E+00 0.  1.
</event>
<event>
 7    1  0.6992302E-006  0.8711778E+02  0.7561462E-02  0.1309985E+00
         -2   -1    0    0    0  501 -0.00000000000E+00  0.00000000000E+00  0.41847470904E+02  0.41847470904E+02  0.00000000000E+00 0.  1.
          2   -1    0    0  501    0  0.00000000000E+00 -0.00000000000E+00 -0.44380435797E+03  0.44380435797E+03  0.00000000000E+00 0. -1.
         23    2    1    2    0    0 -0.64101183951E+02  0.26740533946E+02 -0.14358206240E+03  0.20270199594E+03  0.12509305566E+03 0.  0.
          5    1    3    3  502    0 -0.26853046864E+02  0.28734075705E+02 -0.15771208968E+03  0.16259553765E+03  0.41800000000E+01 0. -1.
         -5    1    3    3    0  502 -0.37248137087E+02 -0.19935417592E+01  0.14130027285E+02  0.40106458286E+02  0.41800000000E+01 0. -1.
        -11    1    1    2    0    0  0.29980676539E+02  0.22330415647E+02 -0.18287396837E+03  0.18665577070E+03  0.00000000000E+00 0. -1.
         11    1    1    2    0    0  0.34120507412E+02 -0.49070949593E+02 -0.75500856300E+02  0.96294062237E+02  0.00000000000E+00 0.  1.
</event>
<event>
 7    1  0.6992302E-006  0.8811378E+02  0.7561462E-02  0.1307485E+00
          2   -1    0    0  501    0  0.00000000000E+00  0.00000000000E+00  0.46241627306E+03  0.46241627306E+03  0.00000000000E+00 0. -1.
         -2   -1    0    0    0  501 -0.00000000000E+00 -0.00000000000E+00 -0.29342002056E+02  0.29342002056E+02  0.00000000000E+00 0.  1.
         23    2    1    2    0    0 -0.14464678015E+02 -0.38827727423E+02  0.27328923586E+03  0.30340149620E+03  0.12509453278E+03 0.  0.
          5    1    3    3  502    0  0.19618269512E+02  0.30825454162E+02  0.28318941762E+02  0.46416807145E+02  0.41800000000E+01 0. -1.
         -5    1    3    3    0  502 -0.34082947526E+02 -0.69653181585E+02  0.24497029410E+03  0.25698468906E+03  0.41800000000E+01 0. -1.
        -11    1    1    2    0    0 -0.15145998819E+02  0.24725228376E+02  0.41349940069E+01  0.29288843847E+02  0.00000000000E+00 0.  1.
         11    1    1    2    0    0  0.29610676833E+02  0.14102499047E+02  0.15565004113E+03  0.15906793507E+03  0.00000000000E+00 0. -1.
</event>
<event>
 7    1  0.6992302E-006  0.1015100E+03  0.7561462E-02  0.1277152E+00
          2   -1    0    0  501    0  0.00000000000E+00  0.00000000000E+00  0.13826624061E+03  0.13826624061E+03  0.00000000000E+00 0. -1.
         -2   -1    0    0    0  501 -0.00000000000E+00 -0.00000000000E+00 -0.12379573550E+03  0.12379573550E+03  0.00000000000E+00 0.  1.
         23    2    1    2    0    0 -0.49316992332E+02  0.21383340562E+01 -0.43567231686E+02  0.14135830411E+03  0.12508928115E+03 0.  0.
          5    1    3    3  502    0 -0.71668509247E+02  0.14942642922E+02 -0.71998428431E+02  0.10276625853E+03  0.41800000000E+01 0. -1.
         -5    1    3    3    0  502  0.22351516915E+02 -0.12804308866E+02  0.28431196745E+02  0.38592045583E+02  0.41800000000E+01 0. -1.
        -11    1    1    2    0    0  0.22881870131E+02 -0.46573427060E+02  0.16718042778E+02  0.54517493001E+02  0.00000000000E+00 0. -1.
         11    1    1    2    0    0  0.26435122201E+02  0.44435093003E+02  0.41319694021E+02  0.66186178995E+02  0.00000000000E+00 0.  1.
</event>
<event>
 7    1  0.6992302E-006  0.8415355E+02  0.7561462E-02  0.1317661E+00
         -1   -1    0    0    0  501 -0.00000000000E+00  0.00000000000E+00  0.63496255229E+02  0.63496255229E+02  0.00000000000E+00 0.  1.
          1   -1    0    0  501    0  0.00000000000E+00 -0.00000000000E+00 -0.20133083354E+03  0.20133083354E+03  0.00000000000E+00 0. -1.
         23    2    1    2    0    0  0.37068502803E+01 -0.29540877324E+02 -0.64646708603E+02  0.14391841984E+03  0.12508761115E+03 0.  0.
          5    1    3    3  502    0  0.37399012345E+02 -0.21647681463E+02 -0.90597868664E+02  0.10046270175E+03  0.41800000000E+01 0.  1.
         -5    1    3    3    0  502 -0.33692162065E+02 -0.78931958605E+01  0.25951160061E+02  0.43455718082E+02  0.41800000000E+01 0.  1.
        -11    1    1    2    0    0 -0.44162864670E+02  0.10872399004E+02 -0.58277272412E+02  0.73924340753E+02  0.00000000000E+00 0.  1.
         11    1    1    2    0    0  0.40456014389E+02  0.18668478320E+02 -0.14910597298E+02  0.46984328183E+02  0.00000000000E+00 0. -1.
</event>
<event>
 7    1  0.6992302E-006  0.8222195E+02  0.7561462E-02  0.1322862E+00
          2   -1    0    0  501    0  0.00000000000E+00  0.00000000000E+00  0.63130458040E+03  0.63130458040E+03  0.00000000000E+00 0. -1.
         -2   -1    0    0    0  501 -0.00000000000E+00 -0.00000000000E+00 -0.19503867790E+02  0.19503867790E+02  0.00000000000E+00 0.  1.
         23    2    1    2    0    0  0.13744090495E+01 -0.23208139097E+02  0.34170412237E+03  0.36462257019E+03  0.12508958680E+03 0.  0.
          5    1    3    3  502    0 -0.19696393307E+02  0.18197982444E+02  0.30242645946E+03  0.30364181243E+03  0.41800000000E+01 0.  1.
         -5    1    3    3    0  502  0.21070802357E+02 -0.41406121540E+02  0.39277662907E+02  0.60980757756E+02  0.41800000000E+01 0.  1.
        -11    1    1    2    0    0  0.19575366597E+02  0.51705866139E+02  0.20228494942E+03  0.20970429736E+03  0.00000000000E+00 0.  1.
         11    1    1    2    0    0 -0.20949775647E+02 -0.28497727043E+02  0.67811640820E+02  0.76481580638E+02  0.00000000000E+00 0. -1.
</event>
<event>
 7    1  0.6992302E-006  0.8827242E+02  0.7561462E-02  0.1307090E+00
         -1   -1    0    0    0  501 -0.00000000000E+00  0.00000000000E+00  0.12053189511E+03  0.12053189511E+03  0.00000000000E+00 0.  1.
          1   -1    0    0  501    0  0.00000000000E+00 -0.00000000000E+00 -0.11230099216E+03  0.11230099216E+03  0.00000000000E+00 0. -1.
         23    2    1    2    0    0  0.94887652255E+01 -0.39713762489E+02  0.50611624307E+01  0.13167950937E+03  0.12508660290E+03 0.  0.
          5    1    3    3  502    0  0.35903786198E+02 -0.72363683811E+02 -0.19009865303E+02  0.83092911713E+02  0.41800000000E+01 0.  1.
         -5    1    3    3    0  502 -0.26415020973E+02  0.32649921322E+02  0.24071027734E+02  0.48586597653E+02  0.41800000000E+01 0.  1.
        -11    1    1    2    0    0 -0.20406258212E+02  0.12020890533E+02 -0.41318513773E+02  0.47624959463E+02  0.00000000000E+00 0. -1.
         11    1    1    2    0    0  0.10917492986E+02  0.27692871956E+02  0.44488254292E+02  0.53528418436E+02  0.00000000000E+00 0.  1.
</event>
<event>
 7    1  0.6992302E-006  0.1870514E+03  0.7561462E-02  0.1161148E+00
         -1   -1    0    0    0  501 -0.00000000000E+00  0.00000000000E+00  0.12961075135E+03  0.12961075135E+03  0.00000000000E+00 0.  1.
          1   -1    0    0  501    0  0.00000000000E+00 -0.00000000000E+00 -0.52184916059E+03  0.52184916059E+03  0.00000000000E+00 0. -1.
         23    2    1    2    0    0  0.23626547796E+02 -0.17817983167E+03 -0.97450526963E+01  0.21920102949E+03  0.12509140299E+03 0.  0.
          5    1    3    3  502    0  0.18334122857E+02 -0.48546391621E+02  0.53634085641E+02  0.74746101857E+02  0.41800000000E+01 0.  1.
         -5    1    3    3    0  502  0.52924249384E+01 -0.12963344005E+03 -0.63379138337E+02  0.14445492763E+03  0.41800000000E+01 0.  1.
        -11    1    1    2    0    0 -0.47874433835E+02  0.12071349521E+03 -0.19182121489E+03  0.23164431317E+03  0.00000000000E+00 0.  1.
         11    1    1    2    0    0  0.24247886040E+02  0.57466336461E+02 -0.19067214166E+03  0.20061456929E+03  0.00000000000E+00 0. -1.
</event>
<event>
 7    1  0.6992302E-006  0.9590097E+02  0.7561462E-02  0.1289160E+00
          2   -1    0    0  501    0  0.00000000000E+00  0.00000000000E+00  0.89728150730E+02  0.89728150730E+02  0.00000000000E+00 0. -1.
         -2   -1    0    0    0  501 -0.00000000000E+00 -0.00000000000E+00 -0.19951127441E+03  0.19951127441E+03  0.00000000000E+00 0.  1.
         23    2    1    2    0    0 -0.33748774340E+02  0.63534091838E+02 -0.88082032689E+02  0.16906080169E+03  0.12509016584E+03 0.  0.
          5    1    3    3  502    0  0.10103619828E+01 -0.12158190285E+02  0.25249204152E+02  0.28352021668E+02  0.41800000000E+01 0.  1.
         -5    1    3    3    0  502 -0.34759136323E+02  0.75692282124E+02 -0.11333123684E+03  0.14070878002E+03  0.41800000000E+01 0.  1.
        -11    1    1    2    0    0  0.50363247887E+02 -0.31444722621E+02 -0.47286160687E+02  0.75902623874E+02  0.00000000000E+00 0.  1.
         11    1    1    2    0    0 -0.16614473547E+02 -0.32089369217E+02  0.25585069691E+02  0.44275999583E+02  0.00000000000E+00 0. -1.
</event>
<event>
 7    1  0.6992302E-006  0.8193414E+02  0.7561462E-02  0.1323651E+00
          1   -1    0    0  501    0  0.00000000000E+00  0.00000000000E+00  0.31927337050E+03  0.31927337050E+03  0.00000000000E+00 0. -1.
         -1   -1    0    0    0  501 -0.00000000000E+00 -0.00000000000E+00 -0.51189833689E+02  0.51189833689E+02  0.00000000000E+00 0.  1.
         23    2    1    2    0    0 -0.44663746418E+02  0.42934370285E+02  0.98959475715E+02  0.17111054758E+03  0.12509049230E+03 0.  0.
          5    1    3    3  502    0 -0.57056949835E+02  0.31775092530E+02  0.12430786925E+03  0.14048156742E+03  0.41800000000E+01 0.  1.
         -5    1    3    3    0  502  0.12393203417E+02  0.11159277755E+02 -0.25348393530E+02  0.30628980158E+02  0.41800000000E+01 0.  1.
        -11    1    1    2    0    0  0.44348461042E+02 -0.65284574996E+01  0.15318522911E+03  0.15960927659E+03  0.00000000000E+00 0. -1.
         11    1    1    2    0    0  0.31528537575E+00 -0.36405912785E+02  0.15938831985E+02  0.39743380023E+02  0.00000000000E+00 0.  1.
</event>
<event>
 7    1  0.6992302E-006  0.4106755E+03  0.7561462E-02  0.1040145E+00
          2   -1    0    0  501    0  0.00000000000E+00  0.00000000000E+00  0.31223927080E+03  0.31223927080E+03  0.00000000000E+00 0. -1.
         -2   -1    0    0    0  501 -0.00000000000E+00 -0.00000000000E+00 -0.58735905926E+03  0.58735905926E+03  0.00000000000E+00 0.  1.
         23    2    1    2    0    0  0.24639982198E+03  0.31023656958E+03 -0.26650970284E+03  0.49359491271E+03  0.12509562248E+03 0.  0.
          5    1    3    3  502    0  0.49176990202E+02  0.16016227822E+03 -0.10650855920E+03  0.19857461397E+03  0.41800000000E+01 0. -1.
         -5    1    3    3    0  502  0.19722283178E+03  0.15007429137E+03 -0.16000114364E+03  0.29502029874E+03  0.41800000000E+01 0. -1.
        -11    1    1    2    0    0 -0.17838590168E+03 -0.15464856570E+03 -0.30498543917E+01  0.23610804816E+03  0.00000000000E+00 0. -1.
         11    1    1    2    0    0 -0.68013920297E+02 -0.15558800388E+03 -0.55602312242E+01  0.16989536920E+03  0.00000000000E+00 0.  1.
</event>
<event>
 7    1  0.6992302E-006  0.1242448E+03  0.7561462E-02  0.1236254E+00
          2   -1    0    0  501    0  0.00000000000E+00  0.00000000000E+00  0.23398611759E+02  0.23398611759E+02  0.00000000000E+00 0. -1.
         -2   -1    0    0    0  501 -0.00000000000E+00 -0.00000000000E+00 -0.10567402762E+04  0.10567402762E+04  0.00000000000E+00 0.  1.
         23    2    1    2    0    0 -0.26771304287E+01  0.85833056362E+02 -0.81003757194E+03  0.82412596984E+03  0.12509302791E+03 0.  0.
          5    1    3    3  502    0  0.57475652057E+02  0.25248560594E+02 -0.43114375940E+03  0.43571017209E+03  0.41800000000E+01 0.  1.
         -5    1    3    3    0  502 -0.60152782486E+02  0.60584495768E+02 -0.37889381254E+03  0.38841579776E+03  0.41800000000E+01 0.  1.
        -11    1    1    2    0    0  0.14700533804E+02 -0.86798533531E+02 -0.22693811364E+03  0.24341528000E+03  0.00000000000E+00 0. -1.
         11    1    1    2    0    0 -0.12023403375E+02  0.96547716875E+00  0.36340211805E+01  0.12597638065E+02  0.00000000000E+00 0.  1.
</event>
<event>
 7    1  0.1483285E-005  0.2891815E+03  0.7561462E-02  0.1090777E+00
          1   -1    0    0  501    0  0.00000000000E+00  0.00000000000E+00  0.27432574191E+03  0.27432574191E+03  0.00000000000E+00 0. -1.
         -1   -1    0    0    0  501 -0.00000000000E+00 -0.00000000000E+00 -0.35654140163E+03  0.35654140163E+03  0.00000000000E+00 0.  1.
         23    2    1    2    0    0  0.25425997906E+03  0.10731941986E+03 -0.14786600457E+03  0.33716145181E+03  0.12509154428E+03 0.  0.
          5    1    3    3  502    0  0.23385875984E+03  0.12472333844E+03 -0.15753400968E+03  0.30835088343E+03  0.41800000000E+01 0. -1.
         -5    1    3    3    0  502  0.20401219221E+02 -0.17403918586E+02  0.96680051085E+01  0.28810568384E+02  0.41800000000E+01 0. -1.
        -11    1    1    2    0    0 -0.10108842222E+03 -0.83548266532E+02  0.25789527527E+02  0.13365732931E+03  0.00000000000E+00 0. -1.
         11    1    1    2    0    0 -0.15317155684E+03 -0.23771153325E+02  0.39860817325E+02  0.16004836242E+03  0.00000000000E+00 0.  1.
</event>
<event>
 7    1  0.6992302E-006  0.9742097E+02  0.7561462E-02  0.1285815E+00
          3   -1    0    0  501    0  0.00000000000E+00  0.00000000000E+00  0.27296656758E+02  0.27296656758E+02  0.00000000000E+00 0. -1.
         -3   -1    0    0    0  501 -0.00000000000E+00 -0.00000000000E+00 -0.67350562661E+03  0.67350562661E+03  0.00000000000E+00 0.  1.
         23    2    1    2    0    0  0.44675394715E+01  0.35516190948E+02 -0.54579991678E+03  0.56108987255E+03  0.12507172820E+03 0.  0.
          5    1    3    3  502    0 -0.34707628266E+02  0.65554892685E+02 -0.40671133680E+03  0.41344122593E+03  0.41800000000E+01 0. -1.
         -5    1    3    3    0  502  0.39175167738E+02 -0.30038701737E+02 -0.13908857998E+03  0.14764864662E+03  0.41800000000E+01 0. -1.
        -11    1    1    2    0    0  0.26416174266E+02 -0.37154185692E+01  0.33450413755E+01  0.26885086940E+02  0.00000000000E+00 0. -1.
         11    1    1    2    0    0 -0.30883713737E+02 -0.31800772379E+02 -0.10375409445E+03  0.11282732388E+03  0.00000000000E+00 0.  1.
</event>
<event>
 7    1  0.6992302E-006  0.8929307E+02  0.7561462E-02  0.1304573E+00
         -2   -1    0    0    0  501 -0.00000000000E+00  0.00000000000E+00  0.17279212663E+02  0.17279212663E+02  0.00000000000E+00 0.  1.
          2   -1    0    0  501    0  0.00000000000E+00 -0.00000000000E+00 -0.70926582583E+03  0.70926582583E+03  0.00000000000E+00 0. -1.
         23    2    1    2    0    0  0.82525104401E+01 -0.35211669719E+02 -0.38279188527E+03  0.40433265136E+03  0.12508916788E+03 0.  0.
          5    1    3    3  502    0 -0.39719234659E+02 -0.18629311425E+02 -0.32211237764E+03  0.32511309582E+03  0.41800000000E+01 0. -1.
         -5    1    3    3    0  502  0.47971745099E+02 -0.16582358293E+02 -0.60679507628E+02  0.79219555543E+02  0.41800000000E+01 0. -1.
        -11    1    1    2    0    0 -0.36902204360E+02  0.40131212642E+02 -0.13473059371E+03  0.14534311059E+03  0.00000000000E+00 0.  1.
         11    1    1    2    0    0  0.28649693920E+02 -0.49195429235E+01 -0.17446413418E+03  0.17686927653E+03  0.00000000000E+00 0. -1.
</event>
<event>
 7    1  0.6992302E-006  0.7945744E+02  0.7561462E-02  0.1330598E+00
          4   -1    0    0  501    0  0.00000000000E+00  0.00000000000E+00  0.18498210762E+03  0.18498210762E+03  0.00000000000E+00 0. -1.
         -4   -1    0    0    0  501 -0.00000000000E+00 -0.00000000000E+00 -0.87332415392E+02  0.87332415392E+02  0.00000000000E+00 0.  1.
         23    2    1    2    0    0  0.18080009562E+01  0.53659852690E+02  0.12208313090E+02  0.13667024971E+03  0.12508823122E+03 0.  0.
          5    1    3    3  502    0 -0.16925805915E+02  0.21068919627E+02  0.65695980995E+02  0.71160498867E+02  0.41800000000E+01 0. -1.
         -5    1    3    3    0  502  0.18733806871E+02  0.32590933063E+02 -0.53487667906E+02  0.65509750845E+02  0.41800000000E+01 0. -1.
        -11    1    1    2    0    0  0.91388435298E+01 -0.71896398550E+02  0.34150025190E+02  0.80117631056E+02  0.00000000000E+00 0.  1.
         11    1    1    2    0    0 -0.10946844486E+02  0.18236545860E+02  0.51291353952E+02  0.55526642248E+02  0.00000000000E+00 0. -1.
</event>
<event>
 7    1  0.6992302E-006  0.2615366E+03  0.7561462E-02  0.1106224E+00
          1   -1    0    0  501    0  0.00000000000E+00  0.00000000000E+00  0.24258400872E+03  0.24258400872E+03  0.00000000000E+00 0. -1.
         -1   -1    0    0    0  501 -0.00000000000E+00 -0.00000000000E+00 -0.53482365518E+03  0.53482365518E+03  0.00000000000E+00 0.  1.
         23    2    1    2    0    0 -0.45622636834E+02  0.25573829786E+03 -0.38979477684E+03  0.48484099125E+03  0.12508923519E+03 0.  0.
          5    1    3    3  502    0 -0.17776832992E+02  0.12623421333E+03 -0.87231020121E+02  0.15452448246E+03  0.41800000000E+01 0.  1.
         -5    1    3    3    0  502 -0.27845803842E+02  0.12950408453E+03 -0.30256375672E+03  0.33031650880E+03  0.41800000000E+01 0.  1.
        -11    1    1    2    0    0  0.15642913904E+02 -0.20162197314E+02 -0.15177396585E+02  0.29691216260E+02  0.00000000000E+00 0.  1.
         11    1    1    2    0    0  0.29979722930E+02 -0.23557610054E+03  0.11273252697E+03  0.26287545639E+03  0.00000000000E+00 0. -1.
</event>
<event>
 7    1  0.6992302E-006  0.1815229E+03  0.7561462E-02  0.1166337E+00
         -4   -1    0    0    0  501 -0.00000000000E+00  0.00000000000E+00  0.15898344242E+03  0.15898344242E+03  0.00000000000E+00 0.  1.
          4   -1    0    0  501    0  0.00000000000E+00 -0.00000000000E+00 -0.23936174902E+03  0.23936174902E+03  0.00000000000E+00 0. -1.
         23    2    1    2    0    0  0.15009773696E+03 -0.23414801588E+02  0.30517002819E+02  0.19185183677E+03  0.11312937831E+03 0.  0.
          5    1    3    3  502    0  0.19189039216E+02 -0.51428788476E+02  0.14724597680E+02  0.56986188563E+02  0.41800000000E+01 0. -1.
         -5    1    3    3    0  502  0.13090869775E+03  0.28013986888E+02  0.15792405139E+02  0.13486564821E+03  0.41800000000E+01 0.  1.
        -11    1    1    2    0    0  0.10432009976E+02  0.72745748791E+01 -0.60805617896E+01  0.14096790539E+02  0.00000000000E+00 0. -1.
         11    1    1    2    0    0 -0.16052974694E+03  0.16140226709E+02 -0.10481474762E+03  0.19239656413E+03  0.00000000000E+00 0.  1.
</event>
<event>
 7    1  0.1173027E-005  0.1932503E+03  0.7561462E-02  0.1155562E+00
          1   -1    0    0  501    0  0.00000000000E+00  0.00000000000E+00  0.99910683464E+03  0.99910683464E+03  0.00000000000E+00 0. -1.
         -1   -1    0    0    0  501 -0.00000000000E+00 -0.00000000000E+00 -0.41971297367E+02  0.41971297367E+02  0.00000000000E+00 0.  1.
         23    2    1    2    0    0  0.15991303362E+03  0.66020621290E+02  0.48152774478E+03  0.52673318914E+03  0.12509189739E+03 0.  0.
          5    1    3    3  502    0  0.76884441115E+02  0.94116408458E+02  0.22723942984E+03  0.25772921158E+03  0.41800000000E+01 0. -1.
         -5    1    3    3    0  502  0.83028592508E+02 -0.28095787168E+02  0.25428831494E+03  0.26900397757E+03  0.41800000000E+01 0. -1.
        -11    1    1    2    0    0 -0.69637224342E+02 -0.49335913029E+02  0.34026015654E+03  0.35079958589E+03  0.00000000000E+00 0. -1.
         11    1    1    2    0    0 -0.90275809281E+02 -0.16684708262E+02  0.13534763595E+03  0.16354535697E+03  0.00000000000E+00 0.  1.
</event>
<event>
 7    1  0.6992302E-006  0.1309120E+03  0.7561462E-02  0.1226109E+00
         -2   -1    0    0    0  501 -0.00000000000E+00  0.00000000000E+00  0.30656303935E+02  0.30656303935E+02  0.00000000000E+00 0.  1.
          2   -1    0    0  501    0  0.00000000000E+00 -0.00000000000E+00 -0.65282433007E+03  0.65282433007E+03  0.00000000000E+00 0. -1.
         23    2    1    2    0    0  0.40575865611E+02 -0.76873264112E+02 -0.30291946921E+03  0.33906255488E+03  0.12508921493E+03 0.  0.
          5    1    3    3  502    0  0.37831711064E+01  0.32092400645E+02 -0.36966935069E+02  0.49277390872E+02  0.41800000000E+01 0. -1.
         -5    1    3    3    0  502  0.36792694505E+02 -0.10896566476E+03 -0.26595253414E+03  0.28978516401E+03  0.41800000000E+01 0. -1.
        -11    1    1    2    0    0  0.10615921610E+02  0.58976780332E+02 -0.85163566752E+02  0.10413352732E+03  0.00000000000E+00 0.  1.
         11    1    1    2    0    0 -0.51191787221E+02  0.17896483780E+02 -0.23408499018E+03  0.24028455181E+03  0.00000000000E+00 0. -1.
</event>
<event>
 7    1  0.6992302E-006  0.8796927E+02  0.7561462E-02  0.1307845E+00
         -1   -1    0    0    0  501 -0.00000000000E+00  0.00000000000E+00  0.88740520323E+02  0.88740520323E+02  0.00000000000E+00 0.  1.
          1   -1    0    0  501    0  0.00000000000E+00 -0.00000000000E+00 -0.18319720162E+03  0.18319720162E+03  0.00000000000E+00 0. -1.
         23    2    1    2    0    0 -0.65068723645E+02  0.62155102727E+00 -0.78182188961E+02  0.16123818411E+03  0.12510384575E+03 0.  0.
          5    1    3    3  502    0 -0.43595595313E+02 -0.24438279935E+02  0.22672432516E+02  0.55039231945E+02  0.41800000000E+01 0.  1.
         -5    1    3    3    0  502 -0.21473128333E+02  0.25059830963E+02 -0.10085462148E+03  0.10619895217E+03  0.41800000000E+01 0.  1.
        -11    1    1    2    0    0  0.64421592935E+02  0.23363383122E+02  0.16109605212E+02  0.70395374047E+02  0.00000000000E+00 0.  1.
         11    1    1    2    0    0  0.64713071032E+00 -0.23984934149E+02 -0.32384097548E+02  0.40304163784E+02  0.00000000000E+00 0. -1.
</event>
<event>
 7    1  0.6992302E-006  0.1001649E+03  0.7561462E-02  0.1279950E+00
          3   -1    0    0  501    0  0.00000000000E+00  0.00000000000E+00  0.49256960636E+02  0.49256960636E+02  0.00000000000E+00 0. -1.
         -3   -1    0    0    0  501 -0.00000000000E+00 -0.00000000000E+00 -0.29223615457E+03  0.29223615457E+03  0.00000000000E+00 0.  1.
         23    2    1    2    0    0 -0.21769029168E+02  0.24013111278E+02 -0.20286891265E+03  0.24050400515E+03  0.12504343498E+03 0.  0.
          5    1    3    3  502    0 -0.51857678044E+02  0.61728466461E+02 -0.12477173808E+03  0.14861050221E+03  0.41800000000E+01 0. -1.
         -5    1    3    3    0  502  0.30088648876E+02 -0.37715355183E+02 -0.78097174568E+02  0.91893502943E+02  0.41800000000E+01 0. -1.
        -11    1    1    2    0    0 -0.11895560524E+02  0.15323209198E+02 -0.44980844147E+02  0.48985522764E+02  0.00000000000E+00 0.  1.
         11    1    1    2    0    0  0.33664589692E+02 -0.39336320476E+02  0.48705628654E+01  0.52003587283E+02  0.00000000000E+00 0. -1.
</event>
<event>
 7    1  0.6992302E-006  0.1254536E+03  0.7561462E-02  0.1234362E+00
         -3   -1    0    0    0  501 -0.00000000000E+00  0.00000000000E+00  0.11635105419E+03  0.11635105419E+03  0.00000000000E+00 0.  1.
          3   -1    0    0  501    0  0.00000000000E+00 -0.00000000000E+00 -0.24254860865E+03  0.24254860865E+03  0.00000000000E+00 0. -1.
         23    2    1    2    0    0 -0.75406648920E+02 -0.60417503922E+02  0.22516939693E+02  0.15949740448E+03  0.12488383395E+03 0.  0.
          5    1    3    3  502    0  0.30559998777E+02 -0.97491518208E+01 -0.15634579149E+02  0.35928706512E+02  0.41800000000E+01 0. -1.
         -5    1    3    3    0  502 -0.10596664770E+03 -0.50668352101E+02  0.38151518841E+02  0.12356869797E+03  0.41800000000E+01 0. -1.
        -11    1    1    2    0    0  0.24682658307E+02  0.38584243822E+02 -0.57752318190E+01  0.46166338332E+02  0.00000000000E+00 0.  1.
         11    1    1    2    0    0  0.50723990612E+02  0.21833260101E+02 -0.14293926233E+03  0.15323592003E+03  0.00000000000E+00 0. -1.
</event>
<event>
 7    1  0.6992302E-006  0.8276024E+02  0.7561462E-02  0.1321396E+00
         -3   -1    0    0    0  501 -0.00000000000E+00  0.00000000000E+00  0.25943742180E+03  0.25943742180E+03  0.00000000000E+00 0.  1.
          3   -1    0    0  501    0  0.00000000000E+00 -0.00000000000E+00 -0.60063340268E+02  0.60063340268E+02  0.00000000000E+00 0. -1.
         23    2    1    2    0    0  0.27243126374E+02 -0.51272848034E+02  0.13227700314E+03  0.19109010066E+03  0.12508848121E+03 0.  0.
          5    1    3    3  502    0  0.43301977915E+02 -0.41539603877E+02  0.15204228688E+03  0.16350819362E+03  0.41800000000E+01 0. -1.
         -5    1    3    3    0  502 -0.16058851541E+02 -0.97332441572E+01 -0.19765283743E+02  0.27581907042E+02  0.41800000000E+01 0. -1.
        -11    1    1    2    0    0  0.20891957102E+02  0.12704432136E+02  0.61849166119E+02  0.66507111026E+02  0.00000000000E+00 0.  1.
         11    1    1    2    0    0 -0.48135083476E+02  0.38568415899E+02  0.52479122762E+01  0.61903550378E+02  0.00000000000E+00 0. -1.
</event>
<event>
 7    1  0.8926420E-006  0.2045674E+03  0.7561462E-02  0.1145942E+00
          2   -1    0    0  501    0  0.00000000000E+00  0.00000000000E+00  0.16714848194E+04  0.16714848194E+04  0.00000000000E+00 0. -1.
         -2   -1    0    0    0  501 -0.00000000000E+00 -0.00000000000E+00 -0.25318724842E+02  0.25318724842E+02  0.00000000000E+00 0.  1.
         23    2    1    2    0    0 -0.17312444804E+03 -0.17372421593E+02  0.89229841923E+03  0.91766995929E+03  0.12509120548E+03 0.  0.
          5    1    3    3  502    0 -0.18741109365E+03 -0.34257633760E+02  0.76367914178E+03  0.78709580578E+03  0.41800000000E+01 0.  1.
         -5    1    3    3    0  502  0.14286645611E+02  0.16885212167E+02  0.12861927745E+03  0.13057415351E+03  0.41800000000E+01 0.  1.
        -11    1    1    2    0    0  0.12973876314E+03  0.52778738680E+02  0.56791846457E+03  0.58493514540E+03  0.00000000000E+00 0.  1.
         11    1    1    2    0    0  0.43385684895E+02 -0.35406317087E+02  0.18594921074E+03  0.19419843954E+03  0.00000000000E+00 0. -1.
</event>
<event>
 7    1  0.6992302E-006  0.1035400E+03  0.7561462E-02  0.1273023E+00
          2   -1    0    0  501    0  0.00000000000E+00  0.00000000000E+00  0.17950913083E+03  0.17950913083E+03  0.00000000000E+00 0. -1.
         -2   -1    0    0    0  501 -0.00000000000E+00 -0.00000000000E+00 -0.87734349697E+02  0.87734349697E+02  0.00000000000E+00 0.  1.
         23    2    1    2    0    0  0.53634627790E+02 -0.26745571989E+02  0.37565164512E+02  0.14371730118E+03  0.12510604363E+03 0.  0.
          5    1    3    3  502    0  0.29652842482E+01 -0.42678110364E+02 -0.33782549327E+02  0.54671263511E+02  0.41800000000E+01 0. -1.
         -5    1    3    3    0  502  0.50669343542E+02  0.15932538375E+02  0.71347713839E+02  0.89046037666E+02  0.41800000000E+01 0. -1.
        -11    1    1    2    0    0 -0.34120539822E+02 -0.33301088151E+02  0.19854955837E+02  0.51646809979E+02  0.00000000000E+00 0.  1.
         11    1    1    2    0    0 -0.19514087969E+02  0.60046660139E+02  0.34354660779E+02  0.71879369365E+02  0.00000000000E+00 0. -1.
</event>
<event>
 7    1  0.6992302E-006  0.1719877E+03  0.7561462E-02  0.1175791E+00
          2   -1    0    0  501    0  0.00000000000E+00  0.00000000000E+00  0.34053139966E+03  0.34053139966E+03  0.00000000000E+00 0. -1.
         -2   -1    0    0    0  501 -0.00000000000E+00 -0.00000000000E+00 -0.11567116558E+03  0.11567116558E+03  0.00000000000E+00 0.  1.
         23    2    1    2    0    0  0.16125036388E+03  0.34936408285E+02  0.13220233244E+03  0.24565622276E+03  0.12508913064E+03 0.  0.
          5    1    3    3  502    0  0.12153215459E+03  0.35795105959E+02  0.15454759723E+03  0.19988443266E+03  0.41800000000E+01 0.  1.
         -5    1    3    3    0  502  0.39718209293E+02 -0.85869767353E+00 -0.22345264787E+02  0.45771790106E+02  0.41800000000E+01 0.  1.
        -11    1    1    2    0    0 -0.86905996143E+02 -0.51608727432E+02  0.88330609788E+02  0.13423266941E+03  0.00000000000E+00 0. -1.
         11    1    1    2    0    0 -0.74344367740E+02  0.16672319147E+02  0.43272918469E+01  0.76313673055E+02  0.00000000000E+00 0.  1.
</event>
<event>
 7    1  0.6992302E-006  0.1015675E+03  0.7561462E-02  0.1277034E+00
          1   -1    0    0  501    0  0.00000000000E+00  0.00000000000E+00  0.28477418359E+02  0.28477418359E+02  0.00000000000E+00 0. -1.
         -1   -1    0    0    0  501 -0.00000000000E+00 -0.00000000000E+00 -0.39666582681E+03  0.39666582681E+03  0.00000000000E+00 0.  1.
         23    2    1    2    0    0 -0.35775960774E+02 -0.64709380609E+01 -0.21146077486E+03  0.24836383123E+03  0.12508853245E+03 0.  0.
          5    1    3    3  502    0 -0.20167525892E+02  0.55734724185E+02 -0.63060287854E+02  0.86643873902E+02  0.41800000000E+01 0.  1.
         -5    1    3    3    0  502 -0.15608434882E+02 -0.62205662246E+02 -0.14840048701E+03  0.16171995733E+03  0.41800000000E+01 0.  1.
        -11    1    1    2    0    0  0.41198556259E+02 -0.24547698533E+02 -0.11421573703E+03  0.12387552271E+03  0.00000000000E+00 0. -1.
         11    1    1    2    0    0 -0.54225954847E+01  0.31018636594E+02 -0.42511896555E+02  0.52903891224E+02  0.00000000000E+00 0.  1.
</event>
<event>
 7    1  0.6992302E-006  0.1181766E+03  0.7561462E-02  0.1246136E+00
         -1   -1    0    0    0  501 -0.00000000000E+00  0.00000000000E+00  0.55491267866E+02  0.55491267866E+02  0.00000000000E+00 0.  1.
          1   -1    0    0  501    0  0.00000000000E+00 -0.00000000000E+00 -0.36172021877E+03  0.36172021877E+03  0.00000000000E+00 0. -1.
         23    2    1    2    0    0 -0.32691735839E+02  0.56081858951E+02 -0.85836410539E+02  0.16501263535E+03  0.12508939186E+03 0.  0.
          5    1    3    3  502    0 -0.74334992838E+02  0.36760738748E+02 -0.85117960202E+02  0.11890997697E+03  0.41800000000E+01 0. -1.
         -5    1    3    3    0  502  0.41643256999E+02  0.19321120203E+02 -0.71845033711E+00  0.46102658386E+02  0.41800000000E+01 0. -1.
        -11    1    1    2    0    0  0.60461574103E+02 -0.24683465560E+02 -0.18860708198E+03  0.19959335357E+03  0.00000000000E+00 0. -1.
         11    1    1    2    0    0 -0.27769838265E+02 -0.31398393391E+02 -0.31785458378E+02  0.52605497708E+02  0.00000000000E+00 0.  1.
</event>
<event>
 7    1  0.6992302E-006  0.1252251E+03  0.7561462E-02  0.1234718E+00
          2   -1    0    0  501    0  0.00000000000E+00  0.00000000000E+00  0.14999856523E+03  0.14999856523E+03  0.00000000000E+00 0. -1.
         -2   -1    0    0    0  501 -0.00000000000E+00 -0.00000000000E+00 -0.14988383655E+03  0.14988383655E+03  0.00000000000E+00 0.  1.
         23    2    1    2    0    0  0.59289209312E+02  0.22241889633E+02 -0.80875979832E+02  0.16185919087E+03  0.12509021369E+03 0.  0.
          5    1    3    3  502    0 -0.39255206648E+02  0.80679111414E+01 -0.27863952882E+02  0.48989128481E+02  0.41800000000E+01 0.  1.
         -5    1    3    3    0  502  0.98544415960E+02  0.14173978492E+02 -0.53012026950E+02  0.11287006239E+03  0.41800000000E+01 0.  1.
        -11    1    1    2    0    0 -0.83191390511E+02 -0.23884645135E+02  0.54387381597E+02  0.10222167581E+03  0.00000000000E+00 0.  1.
         11    1    1    2    0    0  0.23902181199E+02  0.16427555017E+01  0.26603326915E+02  0.35801535088E+02  0.00000000000E+00 0. -1.
</event>
<event>
 7    1  0.6992302E-006  0.1287799E+03  0.7561462E-02  0.1229278E+00
         -1   -1    0    0    0  501 -0.00000000000E+00  0.00000000000E+00  0.87539043253E+02  0.87539043253E+02  0.00000000000E+00 0.  1.
          1   -1    0    0  501    0  0.00000000000E+00 -0.00000000000E+00 -0.23183391332E+03  0.23183391332E+03  0.00000000000E+00 0. -1.
         23    2    1    2    0    0 -0.24039191590E+02 -0.83851140386E+02 -0.45828679229E+02  0.15922668760E+03  0.12507587188E+03 0.  0.
          5    1    3    3  502    0  0.42896986843E+02  0.22133512139E+01 -0.16888496664E+02  0.46343760349E+02  0.41800000000E+01 0.  1.
         -5    1    3    3    0  502 -0.66936178432E+02 -0.86064491600E+02 -0.28940182566E+02  0.11288292725E+03  0.41800000000E+01 0.  1.
        -11    1    1    2    0    0  0.40023215918E+02  0.32640677466E+02 -0.92797016004E+02  0.10620055469E+03  0.00000000000E+00 0. -1.
         11    1    1    2    0    0 -0.15984024328E+02  0.51210462920E+02 -0.56691748360E+01  0.53945714283E+02  0.00000000000E+00 0.  1.
</event>
<event>
 7    1  0.6992302E-006  0.1090342E+03  0.7561462E-02  0.1262369E+00
         -1   -1    0    0    0  501 -0.00000000000E+00  0.00000000000E+00  0.44940167697E+02  0.44940167697E+02  0.00000000000E+00 0.  1.
          1   -1    0    0  501    0  0.00000000000E+00 -0.00000000000E+00 -0.33753922842E+03  0.33753922842E+03  0.00000000000E+00 0. -1.
         23    2    1    2    0    0 -0.57368613819E+02 -0.19037787224E+02 -0.16449904179E+03  0.21209138353E+03  0.11945386149E+03 0.  0.
          5    1    3    3  502    0 -0.94098743043E+02 -0.17575538568E+02 -0.10612116408E+03  0.14297778451E+03  0.41800000000E+01 0. -1.
         -5    1    3    3    0  502  0.36730129224E+02 -0.14622486559E+01 -0.58377877706E+02  0.69113599019E+02  0.41800000000E+01 0.  1.
        -11    1    1    2    0    0  0.37627599779E+02 -0.19184370568E+02 -0.82272932901E+01  0.43029811691E+02  0.00000000000E+00 0.  1.
         11    1    1    2    0    0  0.19741014040E+02  0.38222157792E+02 -0.11987272565E+03  0.12735820090E+03  0.00000000000E+00 0. -1.
</event>
<event>
 7    1  0.6992302E-006  0.1616599E+03  0.7561462E-02  0.1186835E+00
         -1   -1    0    0    0  501 -0.00000000000E+00  0.00000000000E+00  0.35098333434E+02  0.35098333434E+02  0.00000000000E+00 0.  1.
          1   -1    0    0  501    0  0.00000000000E+00 -0.00000000000E+00 -0.76343376636E+03  0.76343376636E+03  0.00000000000E+00 0. -1.
         23    2    1    2    0    0  0.29096417675E+02  0.11555201956E+03 -0.44189314441E+03  0.47446417009E+03  0.12509127419E+03 0.  0.
          5    1    3    3  502    0 -0.46609696948E+01  0.13365377353E+03 -0.32853300747E+03  0.35473435866E+03  0.41800000000E+01 0.  1.
         -5    1    3    3    0  502  0.33757387370E+02 -0.18101753966E+02 -0.11336013693E+03  0.11972981143E+03  0.41800000000E+01 0.  1.
        -11    1    1    2    0    0 -0.58016207731E+02 -0.10544641001E+03 -0.21632805063E+03  0.24755333008E+03  0.00000000000E+00 0.  1.
         11    1    1    2    0    0  0.28919790056E+02 -0.10105609557E+02 -0.70114237883E+02  0.76514599622E+02  0.00000000000E+00 0. -1.
</event>
<event>
 7    1  0.6992302E-006  0.1080741E+03  0.7561462E-02  0.1264178E+00
          1   -1    0    0  501    0  0.00000000000E+00  0.00000000000E+00  0.77929799999E+03  0.77929799999E+03  0.00000000000E+00 0. -1.
         -1   -1    0    0    0  501 -0.00000000000E+00 -0.00000000000E+00 -0.19886621709E+02  0.19886621709E+02  0.00000000000E+00 0.  1.
         23    2    1    2    0    0 -0.29741818476E+02  0.50943167279E+02  0.44085692943E+03  0.46204063099E+03  0.12508769083E+03 0.  0.
          5    1    3    3  502    0  0.38705469771E+02  0.44664383102E+02  0.11941961379E+03  0.13330992861E+03  0.41800000000E+01 0. -1.
         -5    1    3    3    0  502 -0.68447288247E+02  0.62787841775E+01  0.32143731564E+03  0.32873070238E+03  0.41800000000E+01 0. -1.
        -11    1    1    2    0    0  0.37606271601E+02 -0.63159986974E+02  0.31311838128E+03  0.32163105620E+03  0.00000000000E+00 0. -1.
         11    1    1    2    0    0 -0.78644531251E+01  0.12216819695E+02  0.54360675651E+01  0.15512934506E+02  0.00000000000E+00 0.  1.
</event>
<event>
 7    1  0.6992302E-006  0.9203321E+02  0.7561462E-02  0.1298001E+00
         -2   -1    0    0    0  501 -0.00000000000E+00  0.00000000000E+00  0.71869439237E+02  0.71869439237E+02  0.00000000000E+00 0.  1.
          2   -1    0    0  501    0  0.00000000000E+00 -0.00000000000E+00 -0.16784435286E+03  0.16784435286E+03  0.00000000000E+00 0. -1.
         23    2    1    2    0    0  0.14118051161E+02  0.10131060173E+02 -0.55155084632E+02  0.13757939325E+03  0.12483608588E+03 0.  0.
          5    1    3    3  502    0 -0.10769274333E+02  0.48925975608E+02  0.15948650661E+02  0.52740498829E+02  0.41800000000E+01 0. -1.
         -5    1    3    3    0  502  0.24887325494E+02 -0.38794915435E+02 -0.71103735293E+02  0.84838894421E+02  0.41800000000E+01 0. -1.
        -11    1    1    2    0    0  0.27564376191E+02 -0.30509548614E+02 -0.12195794756E+01  0.41135322601E+02  0.00000000000E+00 0.  1.
         11    1    1    2    0    0 -0.41682427352E+02  0.20378488442E+02 -0.39600249515E+02  0.60999076245E+02  0.00000000000E+00 0. -1.
</event>
<event>
 7    1  0.6992302E-006  0.1078565E+03  0.7561462E-02  0.1264592E+00
          2   -1    0    0  501    0  0.00000000000E+00  0.00000000000E+00  0.30618814943E+02  0.30618814943E+02  0.00000000000E+00 0. -1.
         -2   -1    0    0    0  501 -0.00000000000E+00 -0.00000000000E+00 -0.43148266083E+03  0.43148266083E+03  0.00000000000E+00 0.  1.
         23    2    1    2    0    0  0.15894853763E+02 -0.33172509892E+02 -0.26134867735E+03  0.29207576932E+03  0.12510820150E+03 0.  0.
          5    1    3    3  502    0  0.66008396253E+02 -0.17412050225E+02 -0.91482662528E+02  0.11422275523E+03  0.41800000000E+01 0. -1.
         -5    1    3    3    0  502 -0.50113542490E+02 -0.15760459667E+02 -0.16986601482E+03  0.17785301409E+03  0.41800000000E+01 0. -1.
        -11    1    1    2    0    0  0.24553273373E+02 -0.17228719801E+02 -0.27436263535E+02  0.40650222338E+02  0.00000000000E+00 0.  1.
         11    1    1    2    0    0 -0.40448127137E+02  0.50401229693E+02 -0.11207890500E+03  0.12937548411E+03  0.00000000000E+00 0. -1.
</event>
<event>
 7    1  0.6992302E-006  0.1410684E+03  0.7561462E-02  0.1211898E+00
          1   -1    0    0  501    0  0.00000000000E+00  0.00000000000E+00  0.53980923774E+03  0.53980923774E+03  0.00000000000E+00 0. -1.
         -1   -1    0    0    0  501 -0.00000000000E+00 -0.00000000000E+00 -0.62123596630E+02  0.62123596630E+02  0.00000000000E+00 0.  1.
         23    2    1    2    0    0 -0.10027978775E+03  0.35815850610E+02  0.85805402796E+02  0.18533489781E+03  0.12509055204E+03 0.  0.
          5    1    3    3  502    0 -0.45541735845E+02 -0.38807482331E+02  0.68575629066E+02  0.91105212203E+02  0.41800000000E+01 0.  1.
         -5    1    3    3    0  502 -0.54738051908E+02  0.74623332941E+02  0.17229773729E+02  0.94229685602E+02  0.41800000000E+01 0.  1.
        -11    1    1    2    0    0  0.63645414889E+02 -0.58484201109E+02  0.17154596753E+03  0.19209153962E+03  0.00000000000E+00 0.  1.
         11    1    1    2    0    0  0.36634372864E+02  0.22668350499E+02  0.22033427078E+03  0.22450639695E+03  0.00000000000E+00 0. -1.
</event>
<event>
 7    1  0.6992302E-006  0.1555740E+03  0.7561462E-02  0.1193786E+00
         -2   -1    0    0    0  501 -0.00000000000E+00  0.00000000000E+00  0.25642394699E+02  0.25642394699E+02  0.00000000000E+00 0.  1.
          2   -1    0    0  501    0  0.00000000000E+00 -0.00000000000E+00 -0.98524487742E+03  0.98524487742E+03  0.00000000000E+00 0. -1.
         23    2    1    2    0    0 -0.76828552911E+02 -0.83527082040E+02 -0.44572079462E+03  0.47664870290E+03  0.12509020443E+03 0.  0.
          5    1    3    3  502    0 -0.10875970767E+03 -0.73972890880E+02 -0.38979722069E+03  0.41141221208E+03  0.41800000000E+01 0.  1.
         -5    1    3    3    0  502  0.31931154755E+02 -0.95541911595E+01 -0.55923573937E+02  0.65236490821E+02  0.41800000000E+01 0.  1.
        -11    1    1    2    0    0 -0.11744837063E+02  0.49824138254E+02 -0.17038275103E+03  0.17790634559E+03  0.00000000000E+00 0. -1.
         11    1    1    2    0    0  0.88573389974E+02  0.33702943786E+02 -0.34349893706E+03  0.35633222362E+03  0.00000000000E+00 0.  1.
</event>
<event>
 7    1  0.6992302E-006  0.1297816E+03  0.7561462E-02  0.1227780E+00
          1   -1    0    0  501    0  0.00000000000E+00  0.00000000000E+00  0.10252678608E+04  0.10252678608E+04  0.00000000000E+00 0. -1.
         -1   -1    0    0    0  501 -0.00000000000E+00 -0.00000000000E+00 -0.23126257515E+02  0.23126257515E+02  0.00000000000E+00 0.  1.
         23    2    1    2    0    0 -0.92180015069E+02  0.43064435627E+02  0.40028673308E+03  0.43152785493E+03  0.12504047389E+03 0.  0.
          5    1    3    3  502    0  0.16845312477E+02  0.86872902036E+01  0.19949354779E+03  0.20043547982E+03  0.41800000000E+01 0. -1.
         -5    1    3    3    0  502 -0.10902532755E+03  0.34377145423E+02  0.20079318529E+03  0.23109237511E+03  0.41800000000E+01 0. -1.
        -11    1    1    2    0    0  0.64908731255E+02 -0.64172150495E+02  0.52144603477E+03  0.52937432453E+03  0.00000000000E+00 0. -1.
         11    1    1    2    0    0  0.27271283814E+02  0.21107714868E+02  0.80408835412E+02  0.87491938830E+02  0.00000000000E+00 0.  1.
</event>
<event>
 7    1  0.7304895E-006  0.1630068E+03  0.7561462E-02  0.1185343E+00
         -1   -1    0    0    0  501 -0.00000000000E+00  0.00000000000E+00  0.34183266732E+03  0.34183266732E+03  0.00000000000E+00 0.  1.
          1   -1    0    0  501    0  0.00000000000E+00 -0.00000000000E+00 -0.10257071042E+03  0.10257071042E+03  0.00000000000E+00 0. -1.
         23    2    1    2    0    0 -0.71918744871E+02 -0.11570841326E+03  0.20576267243E+03  0.27666997508E+03  0.12508898825E+03 0.  0.
          5    1    3    3  502    0  0.33951021485E+02 -0.48951984487E+02  0.65457512522E+02  0.88606585481E+02  0.41800000000E+01 0.  1.
         -5    1    3    3    0  502 -0.10586976636E+03 -0.66756428776E+02  0.14030515990E+03  0.18806338960E+03  0.41800000000E+01 0.  1.
        -11    1    1    2    0    0  0.55655064462E+02  0.55116805299E+02 -0.24728758766E+02  0.82139271586E+02  0.00000000000E+00 0. -1.
         11    1    1    2    0    0  0.16263680409E+02  0.60591607963E+02  0.58228043232E+02  0.85594131076E+02  0.00000000000E+00 0.  1.
</event>
<event>
 7    1  0.6992302E-006  0.1530352E+03  0.7561462E-02  0.1196792E+00
         -2   -1    0    0    0  501 -0.00000000000E+00  0.00000000000E+00  0.28966340422E+03  0.28966340422E+03  0.00000000000E+00 0.  1.
          2   -1    0    0  501    0  0.00000000000E+00 -0.00000000000E+00 -0.10132208703E+03  0.10132208703E+03  0.00000000000E+00 0. -1.
         23    2    1    2    0    0 -0.89939270206E+02  0.90740463859E+02  0.13379619412E+03  0.22332196989E+03  0.12509347133E+03 0.  0.
          5    1    3    3  502    0  0.24786994467E+02 -0.74616137378E+01  0.30948162563E+02  0.40562691483E+02  0.41800000000E+01 0.  1.
         -5    1    3    3    0  502 -0.11472626467E+03  0.98202077596E+02  0.10284803155E+03  0.18275927841E+03  0.41800000000E+01 0.  1.
        -11    1    1    2    0    0  0.78270009533E+02 -0.85703356210E+02  0.46326305173E+01  0.11615817200E+03  0.00000000000E+00 0. -1.
         11    1    1    2    0    0  0.11669260674E+02 -0.50371076482E+01  0.49912492559E+02  0.51505349349E+02  0.00000000000E+00 0.  1.
</event>
<event>
 7    1  0.6992302E-006  0.1423252E+03  0.7561462E-02  0.1210234E+00
         -1   -1    0    0    0  501 -0.00000000000E+00  0.00000000000E+00  0.10824313861E+03  0.10824313861E+03  0.00000000000E+00 0.  1.
          1   -1    0    0  501    0  0.00000000000E+00 -0.00000000000E+00 -0.40110633872E+03  0.40110633872E+03  0.00000000000E+00 0. -1.
         23    2    1    2    0    0  0.90830894506E+01  0.10014958272E+03 -0.65359130751E+01  0.16063229952E+03  0.12509027163E+03 0.  0.
          5    1    3    3  502    0  0.11940179172E+02  0.15927033814E+02 -0.58230592184E+02  0.61680730790E+02  0.41800000000E+01 0.  1.
         -5    1    3    3    0  502 -0.28570897217E+01  0.84222548901E+02  0.51694679109E+02  0.98951568725E+02  0.41800000000E+01 0.  1.
        -11    1    1    2    0    0 -0.76195454752E+02 -0.78547790954E+02 -0.24158646103E+03  0.26521598923E+03  0.00000000000E+00 0. -1.
         11    1    1    2    0    0  0.67112365301E+02 -0.21601791761E+02 -0.44740825997E+02  0.83501188582E+02  0.00000000000E+00 0.  1.
</event>
<event>
 7    1  0.6992302E-006  0.1945670E+03  0.7561462E-02  0.1154405E+00
         -2   -1    0    0    0  501 -0.00000000000E+00  0.00000000000E+00  0.97619566804E+03  0.97619566804E+03  0.00000000000E+00 0.  1.
          2   -1    0    0  501    0  0.00000000000E+00 -0.00000000000E+00 -0.47873940154E+02  0.47873940154E+02  0.00000000000E+00 0. -1.
         23    2    1    2    0    0  0.10209282626E+02 -0.17241876498E+03  0.65246299921E+03  0.68643101574E+03  0.12508842497E+03 0.  0.
          5    1    3    3  502    0  0.19072705759E+02  0.29622585177E+01  0.13902288604E+02  0.24151379027E+02  0.41800000000E+01 0.  1.
         -5    1    3    3    0  502 -0.88634231328E+01 -0.17538102350E+03  0.63856071060E+03  0.66227963671E+03  0.41800000000E+01 0.  1.
        -11    1    1    2    0    0 -0.38179838458E+02  0.29903742427E+02  0.84208031288E+02  0.97174721040E+02  0.00000000000E+00 0.  1.
         11    1    1    2    0    0  0.27970555832E+02  0.14251502255E+03  0.19165069739E+03  0.24046387142E+03  0.00000000000E+00 0. -1.
</event>
<event>
 7    1  0.6992302E-006  0.7685878E+02  0.7561462E-02  0.1338210E+00
         -2   -1    0    0    0  501 -0.00000000000E+00  0.00000000000E+00  0.30379247678E+03  0.30379247678E+03  0.00000000000E+00 0.  1.
          2   -1    0    0  501    0  0.00000000000E+00 -0.00000000000E+00 -0.54808406303E+02  0.54808406303E+02  0.00000000000E+00 0. -1.
         23    2    1    2    0    0 -0.23906679128E+02  0.52796502586E+02  0.20064037543E+03  0.24343831562E+03  0.12508658309E+03 0.  0.
          5    1    3    3  502    0 -0.19872475513E+02  0.41202217309E+02  0.21742681195E+03  0.22222607621E+03  0.41800000000E+01 0. -1.
         -5    1    3    3    0  502 -0.40342036143E+01  0.11594285277E+02 -0.16786436520E+02  0.21212239413E+02  0.41800000000E+01 0. -1.
        -11    1    1    2    0    0  0.20541446811E+02 -0.72228805736E+02  0.56343304542E+02  0.93880346090E+02  0.00000000000E+00 0.  1.
         11    1    1    2    0    0  0.33652323164E+01  0.19432303150E+02 -0.79996094957E+01  0.21282221367E+02  0.00000000000E+00 0. -1.
</event>
<event>
 7    1  0.6992302E-006  0.1001429E+03  0.7561462E-02  0.1279996E+00
         -3   -1    0    0    0  501 -0.00000000000E+00  0.00000000000E+00  0.24609984561E+02  0.24609984561E+02  0.00000000000E+00 0.  1.
          3   -1    0    0  501    0  0.00000000000E+00 -0.00000000000E+00 -0.49622361480E+03  0.49622361480E+03  0.00000000000E+00 0. -1.
         23    2    1    2    0    0  0.14051845504E+02 -0.38064573429E+02 -0.22524551349E+03  0.26082407891E+03  0.12508913893E+03 0.  0.
          5    1    3    3  502    0  0.21450060009E+02 -0.81539945393E+02 -0.17169823030E+03  0.19132857199E+03  0.41800000000E+01 0.  1.
         -5    1    3    3    0  502 -0.73982145052E+01  0.43475371965E+02 -0.53547283186E+02  0.69495506919E+02  0.41800000000E+01 0.  1.
        -11    1    1    2    0    0 -0.33037097697E+02  0.40680441628E+02 -0.22618696496E+03  0.23217857626E+03  0.00000000000E+00 0. -1.
         11    1    1    2    0    0  0.18985252193E+02 -0.26158681990E+01 -0.20181151781E+02  0.27830944190E+02  0.00000000000E+00 0.  1.
</event>
<event>
 7    1  0.6992302E-006  0.9959102E+02  0.7561462E-02  0.1281158E+00
         -1   -1    0    0    0  501 -0.00000000000E+00  0.00000000000E+00  0.31150993689E+03  0.31150993689E+03  0.00000000000E+00 0.  1.
          1   -1    0    0  501    0  0.00000000000E+00 -0.00000000000E+00 -0.11121869764E+03  0.11121869764E+03  0.00000000000E+00 0. -1.
         23    2    1    2    0    0  0.23328822889E+02 -0.16372789822E+02  0.27394993168E+03  0.30019937159E+03  0.11941019810E+03 0.  0.
          5    1    3    3  502    0  0.62029376176E+02 -0.47668188866E+01  0.76879202572E+02  0.98986111446E+02  0.41800000000E+01 0. -1.
         -5    1    3    3    0  502 -0.38700553287E+02 -0.11605970935E+02  0.19707072911E+03  0.20121326014E+03  0.41800000000E+01 0.  1.
        -11    1    1    2    0    0  0.35374846477E+02  0.41796177750E+00 -0.38419304236E+02  0.52226405135E+02  0.00000000000E+00 0. -1.
         11    1    1    2    0    0 -0.58703669366E+02  0.15954828045E+02 -0.35239388191E+02  0.70302857802E+02  0.00000000000E+00 0.  1.
</event>
<event>
 7    1  0.6992302E-006  0.7390204E+02  0.7561462E-02  0.1347305E+00
          2   -1    0    0  501    0  0.00000000000E+00  0.00000000000E+00  0.43386217684E+02  0.43386217684E+02  0.00000000000E+00 0.  1.
         -2   -1    0    0    0  501 -0.00000000000E+00 -0.00000000000E+00 -0.27844808754E+03  0.27844808754E+03  0.00000000000E+00 0. -1.
         23    2    1    2    0    0  0.13443358359E+01 -0.14223823554E+02 -0.15250673475E+03  0.19786027405E+03  0.12524479832E+03 0.  0.
          5    1    3    3  502    0 -0.38673076575E+02  0.78030211949E+01 -0.14628619820E+03  0.15157050562E+03  0.41800000000E+01 0. -1.
         -5    1    3    3    0  502  0.40017412411E+02 -0.22026844749E+02 -0.62205365548E+01  0.46289768423E+02  0.41800000000E+01 0. -1.
        -11    1    1    2    0    0 -0.13939625260E+02 -0.20801215978E+02 -0.83057304981E+02  0.86749753021E+02  0.00000000000E+00 0. -1.
         11    1    1    2    0    0  0.12595289424E+02  0.35025039532E+02  0.50216987425E+00  0.37224278159E+02  0.00000000000E+00 0.  1.
</event>
<event>
 7    1  0.6992302E-006  0.1751747E+03  0.7561462E-02  0.1172556E+00
         -1   -1    0    0    0  501 -0.00000000000E+00  0.00000000000E+00  0.21840608237E+04  0.21840608237E+04  0.00000000000E+00 0.  1.
          1   -1    0    0  501    0  0.00000000000E+00 -0.00000000000E+00 -0.21401957645E+02  0.21401957645E+02  0.00000000000E+00 0. -1.
         23    2    1    2    0    0  0.11236683776E+03 -0.11569093200E+03  0.15994150325E+04  0.16123852606E+04  0.12508830640E+03 0.  0.
          5    1    3    3  502    0  0.98655141379E+02 -0.70706952263E+02  0.14629784862E+04  0.14680108425E+04  0.41800000000E+01 0.  1.
         -5    1    3    3    0  502  0.13711696383E+02 -0.44983979733E+02  0.13643654625E+03  0.14437441811E+03  0.41800000000E+01 0.  1.
        -11    1    1    2    0    0 -0.10195357960E+03  0.47093458972E+02  0.40518008137E+03  0.42045597226E+03  0.00000000000E+00 0.  1.
         11    1    1    2    0    0 -0.10413258160E+02  0.68597473023E+02  0.15806375219E+03  0.17262154850E+03  0.00000000000E+00 0. -1.
</event>
<event>
 7    1  0.6992302E-006  0.1041576E+03  0.7561462E-02  0.1271788E+00
          2   -1    0    0  501    0  0.00000000000E+00  0.00000000000E+00  0.19937017355E+03  0.19937017355E+03  0.00000000000E+00 0. -1.
         -2   -1    0    0    0  501 -0.00000000000E+00 -0.00000000000E+00 -0.73937449204E+02  0.73937449204E+02  0.00000000000E+00 0.  1.
         23    2    1    2    0    0 -0.42368438573E+02 -0.34552429255E+02  0.69128668130E+02  0.15301978846E+03  0.12508927991E+03 0.  0.
          5    1    3    3  502    0 -0.17474116321E+02  0.46742271360E+02  0.36013704048E+02  0.61681795956E+02  0.41800000000E+01 0. -1.
         -5    1    3    3    0  502 -0.24894322251E+02 -0.81294700616E+02  0.33114964082E+02  0.91337992504E+02  0.41800000000E+01 0. -1.
        -11    1    1    2    0    0  0.46518627559E+02  0.91928983702E+01  0.74844038699E+02  0.88600915453E+02  0.00000000000E+00 0. -1.
         11    1    1    2    0    0 -0.41501889857E+01  0.25359530885E+02 -0.18539982481E+02  0.31686918842E+02  0.00000000000E+00 0.  1.
</event>
<event>
 7    1  0.6992302E-006  0.2049642E+03  0.7561462E-02  0.1145617E+00
          2   -1    0    0  501    0  0.00000000000E+00  0.00000000000E+00  0.34708533403E+03  0.34708533403E+03  0.00000000000E+00 0. -1.
         -2   -1    0    0    0  501 -0.00000000000E+00 -0.00000000000E+00 -0.38041054763E+03  0.38041054763E+03  0.00000000000E+00 0.  1.
         23    2    1    2    0    0 -0.13882072566E+03 -0.13983733241E+03 -0.30247991254E+03  0.38205614328E+03  0.12508847157E+03 0.  0.
          5    1    3    3  502    0 -0.81431644145E+02 -0.11662433670E+03 -0.11011116973E+03  0.17992857105E+03  0.41800000000E+01 0.  1.
         -5    1    3    3    0  502 -0.57389081519E+02 -0.23212995705E+02 -0.19236874280E+03  0.20212757223E+03  0.41800000000E+01 0.  1.
        -11    1    1    2    0    0  0.25148097062E+01  0.31135183354E+02  0.90825977571E+02  0.96047291019E+02  0.00000000000E+00 0. -1.
         11    1    1    2    0    0  0.13630591596E+03  0.10870214906E+03  0.17832872137E+03  0.24939244736E+03  0.00000000000E+00 0.  1.
</event>
<event>
 7    1  0.6992302E-006  0.9223532E+02  0.7561462E-02  0.1297527E+00
          1   -1    0    0  501    0  0.00000000000E+00  0.00000000000E+00  0.10448817542E+03  0.10448817542E+03  0.00000000000E+00 0. -1.
         -1   -1    0    0    0  501 -0.00000000000E+00 -0.00000000000E+00 -0.18759411214E+03  0.18759411214E+03  0.00000000000E+00 0.  1.
         23    2    1    2    0    0 -0.62644877371E+02  0.25964252257E+02 -0.11080170726E+03  0.17348242011E+03  0.11498090581E+03 0.  0.
          5    1    3    3  502    0 -0.20962638661E+02  0.18206102813E+01  0.22856804154E+02  0.31347292348E+02  0.41800000000E+01 0. -1.
         -5    1    3    3    0  502 -0.41682238710E+02  0.24143641976E+02 -0.13365851141E+03  0.14213512776E+03  0.41800000000E+01 0.  1.
        -11    1    1    2    0    0  0.55615186899E+02  0.26590047602E+02  0.21164282362E+02  0.65176732759E+02  0.00000000000E+00 0.  1.
         11    1    1    2    0    0  0.70296904723E+01 -0.52554299859E+02  0.65314881778E+01  0.53423134686E+02  0.00000000000E+00 0. -1.
</event>
<event>
 7    1  0.6992302E-006  0.1375077E+03  0.7561462E-02  0.1216722E+00
         -1   -1    0    0    0  501 -0.00000000000E+00  0.00000000000E+00  0.33051074297E+02  0.33051074297E+02  0.00000000000E+00 0.  1.
          1   -1    0    0  501    0  0.00000000000E+00 -0.00000000000E+00 -0.70843195103E+03  0.70843195103E+03  0.00000000000E+00 0. -1.
         23    2    1    2    0    0  0.97350483260E+02  0.34718527219E+02 -0.29316589527E+03  0.33512825506E+03  0.12522864076E+03 0.  0.
          5    1    3    3  502    0 -0.10147854893E+02 -0.29611070833E+02 -0.99907677985E+02  0.10477982151E+03  0.41800000000E+01 0.  1.
         -5    1    3    3    0  502  0.10749833815E+03  0.64329598053E+02 -0.19325821729E+03  0.23034843356E+03  0.41800000000E+01 0.  1.
        -11    1    1    2    0    0 -0.14571844043E+02 -0.32119321206E+02 -0.36102830613E+02  0.50471812053E+02  0.00000000000E+00 0.  1.
         11    1    1    2    0    0 -0.82778639217E+02 -0.25992060130E+01 -0.34611215085E+03  0.35588295822E+03  0.00000000000E+00 0. -1.
</event>
<event>
 7    1  0.6992302E-006  0.9491960E+02  0.7561462E-02  0.1291357E+00
          1   -1    0    0  501    0  0.00000000000E+00  0.00000000000E+00  0.15795035942E+03  0.15795035942E+03  0.00000000000E+00 0. -1.
         -1   -1    0    0    0  501 -0.00000000000E+00 -0.00000000000E+00 -0.10838928364E+03  0.10838928364E+03  0.00000000000E+00 0.  1.
         23    2    1    2    0    0  0.16595066844E+01  0.76472424235E+01 -0.20111919153E+02  0.12694498694E+03  0.12509718677E+03 0.  0.
          5    1    3    3  502    0 -0.58903354775E+02  0.12166000760E+02  0.62348378265E+01  0.60613219523E+02  0.41800000000E+01 0.  1.
         -5    1    3    3    0  502  0.60562861459E+02 -0.45187583365E+01 -0.26346756980E+02  0.66331767415E+02  0.41800000000E+01 0.  1.
        -11    1    1    2    0    0  0.24350302872E+02 -0.26921104294E+02  0.92775278668E+02  0.99623970200E+02  0.00000000000E+00 0. -1.
         11    1    1    2    0    0 -0.26009809557E+02  0.19273861870E+02 -0.23102283738E+02  0.39770685919E+02  0.00000000000E+00 0.  1.
</event>
<event>
 7    1  0.6992302E-006  0.1096900E+03  0.7561462E-02  0.1261145E+00
          1   -1    0    0  501    0  0.00000000000E+00  0.00000000000E+00  0.57623058262E+02  0.57623058262E+02  0.00000000000E+00 0. -1.
         -1   -1    0    0    0  501 -0.00000000000E+00 -0.00000000000E+00 -0.21729492153E+03  0.21729492153E+03  0.00000000000E+00 0.  1.
         23    2    1    2    0    0 -0.74639970513E+01  0.14015305602E+02 -0.11065718384E+03  0.16776482464E+03  0.12509150255E+03 0.  0.
          5    1    3    3  502    0 -0.44700347509E+02  0.53467842613E+02 -0.76264590691E+02  0.10339579998E+03  0.41800000000E+01 0. -1.
         -5    1    3    3    0  502  0.37236350457E+02 -0.39452537011E+02 -0.34392593147E+02  0.64369024657E+02  0.41800000000E+01 0. -1.
        -11    1    1    2    0    0  0.17491150443E+02  0.38183637232E+02 -0.24454956860E+02  0.48600158550E+02  0.00000000000E+00 0.  1.
         11    1    1    2    0    0 -0.10027153391E+02 -0.52198942834E+02 -0.24559722568E+02  0.58552996599E+02  0.00000000000E+00 0. -1.
</event>
<event>
 7    1  0.6992302E-006  0.1132120E+03  0.7561462E-02  0.1254735E+00
          1   -1    0    0  501    0  0.00000000000E+00  0.00000000000E+00  0.65090185566E+02  0.65090185566E+02  0.00000000000E+00 0. -1.
         -1   -1    0    0    0  501 -0.00000000000E+00 -0.00000000000E+00 -0.36896741299E+03  0.36896741299E+03  0.00000000000E+00 0.  1.
         23    2    1    2    0    0  0.10918855463E+03 -0.12731828891E+02 -0.15159339817E+03  0.22519325580E+03  0.12508878510E+03 0.  0.
          5    1    3    3  502    0  0.46754579561E+02  0.44169992006E+01  0.12467494192E+02  0.48768959424E+02  0.41800000000E+01 0.  1.
         -5    1    3    3    0  502  0.62433975067E+02 -0.17148828091E+02 -0.16406089237E+03  0.17642429638E+03  0.41800000000E+01 0.  1.
        -11    1    1    2    0    0 -0.93538198716E+02  0.22155122462E+02 -0.16184944706E+03  0.18824316079E+03  0.00000000000E+00 0.  1.
         11    1    1    2    0    0 -0.15650355912E+02 -0.94232935711E+01  0.95656178059E+01  0.20621181972E+02  0.00000000000E+00 0. -1.
</event>
<event>
 7    1  0.6992302E-006  0.1372086E+03  0.7561462E-02  0.1217135E+00
          1   -1    0    0  501    0  0.00000000000E+00  0.00000000000E+00  0.12041394312E+03  0.12041394312E+03  0.00000000000E+00 0. -1.
         -1   -1    0    0    0  501 -0.00000000000E+00 -0.00000000000E+00 -0.22899276611E+03  0.22899276611E+03  0.00000000000E+00 0.  1.
         23    2    1    2    0    0 -0.60307912040E+02  0.10433007326E+03 -0.90457350072E+02  0.19583615787E+03  0.12508980816E+03 0.  0.
          5    1    3    3  502    0 -0.90473509478E+01  0.76445832138E+01  0.30309520400E+02  0.32809048121E+02  0.41800000000E+01 0. -1.
         -5    1    3    3    0  502 -0.51260561093E+02  0.96685490046E+02 -0.12076687047E+03  0.16302710975E+03  0.41800000000E+01 0. -1.
        -11    1    1    2    0    0  0.11166423787E+02  0.17622184671E+02 -0.11626069075E+00  0.20862500553E+02  0.00000000000E+00 0. -1.
         11    1    1    2    0    0  0.49141488253E+02 -0.12195225793E+03 -0.18005212229E+02  0.13270805081E+03  0.00000000000E+00 0.  1.
</event>
<event>
 7    1  0.6992302E-006  0.1037774E+03  0.7561462E-02  0.1272547E+00
         -2   -1    0    0    0  501 -0.00000000000E+00  0.00000000000E+00  0.32357609408E+02  0.32357609408E+02  0.00000000000E+00 0.  1.
          2   -1    0    0  501    0  0.00000000000E+00 -0.00000000000E+00 -0.46169635421E+03  0.46169635421E+03  0.00000000000E+00 0. -1.
         23    2    1    2    0    0 -0.25273169440E+02  0.50656432609E+02 -0.24670058024E+03  0.28233393719E+03  0.12508584467E+03 0.  0.
          5    1    3    3  502    0 -0.50776446056E+02 -0.21258142534E+02 -0.14477361172E+03  0.15494201221E+03  0.41800000000E+01 0. -1.
         -5    1    3    3    0  502  0.25503276617E+02  0.71914575143E+02 -0.10192696853E+03  0.12739192498E+03  0.41800000000E+01 0. -1.
        -11    1    1    2    0    0  0.30424047195E+02 -0.60378408598E+01 -0.88985035910E+01  0.32268584353E+02  0.00000000000E+00 0.  1.
         11    1    1    2    0    0 -0.51508777552E+01 -0.44618591750E+02 -0.17373966097E+03  0.17945144208E+03  0.00000000000E+00 0. -1.
</event>
<event>
 7    1  0.6992302E-006  0.1083582E+03  0.7561462E-02  0.1263641E+00
         -1   -1    0    0    0  501 -0.00000000000E+00  0.00000000000E+00  0.12729014969E+03  0.12729014969E+03  0.00000000000E+00 0.  1.
          1   -1    0    0  501    0  0.00000000000E+00 -0.00000000000E+00 -0.94598462182E+02  0.94598462182E+02  0.00000000000E+00 0. -1.
         23    2    1    2    0    0 -0.12177113485E+02  0.10243735729E+02  0.29842071212E+02  0.12958348232E+03  0.12509241968E+03 0.  0.
          5    1    3    3  502    0  0.34411424322E+02 -0.42026680747E+02  0.32729869552E+01  0.54576303119E+02  0.41800000000E+01 0.  1.
         -5    1    3    3    0  502 -0.46588537807E+02  0.52270416476E+02  0.26569084257E+02  0.75007179202E+02  0.41800000000E+01 0.  1.
        -11    1    1    2    0    0  0.43268278363E+02 -0.32282618122E+02  0.44018032223E+01  0.54163522936E+02  0.00000000000E+00 0. -1.
         11    1    1    2    0    0 -0.31091164878E+02  0.22038882393E+02 -0.15521869296E+01  0.38141606611E+02  0.00000000000E+00 0.  1.
</event>
<event>
 7    1  0.6992302E-006  0.1352635E+03  0.7561462E-02  0.1219848E+00
          3   -1    0    0  501    0  0.00000000000E+00  0.00000000000E+00  0.87393240250E+02  0.87393240250E+02  0.00000000000E+00 0. -1.
         -3   -1    0    0    0  501 -0.00000000000E+00 -0.00000000000E+00 -0.27830015703E+03  0.27830015703E+03  0.00000000000E+00 0.  1.
         23    2    1    2    0    0 -0.85872694876E+02  0.78595406519E-01 -0.18737041230E+03  0.24109838586E+03  0.12508650749E+03 0.  0.
          5    1    3    3  502    0 -0.29727486378E+02  0.58004197625E+02 -0.11687002842E+03  0.13388161312E+03  0.41800000000E+01 0.  1.
         -5    1    3    3    0  502 -0.56145208498E+02 -0.57925602218E+02 -0.70500383881E+02  0.10721677274E+03  0.41800000000E+01 0.  1.
        -11    1    1    2    0    0  0.48047581351E+02  0.44835004273E+02 -0.44597439291E+01  0.65868330765E+02  0.00000000000E+00 0.  1.
         11    1    1    2    0    0  0.37825113525E+02 -0.44913599679E+02  0.92323945378E+00  0.58726680652E+02  0.00000000000E+00 0. -1.
</event>
<event>
 7    1  0.6992302E-006  0.8334570E+02  0.7561462E-02  0.1319816E+00
         -4   -1    0    0    0  501 -0.00000000000E+00  0.00000000000E+00  0.51768545004E+02  0.51768545004E+02  0.00000000000E+00 0.  1.
          4   -1    0    0  501    0  0.00000000000E+00 -0.00000000000E+00 -0.27379955650E+03  0.27379955650E+03  0.00000000000E+00 0. -1.
         23    2    1    2    0    0  0.41660390443E+02 -0.20441702417E+02 -0.96159596972E+02  0.16446447018E+03  0.12509373498E+03 0.  0.
          5    1    3    3  502    0 -0.27222987892E+02 -0.23323849199E+01 -0.88490435004E+02  0.92706852910E+02  0.41800000000E+01 0.  1.
         -5    1    3    3    0  502  0.68883378336E+02 -0.18109317497E+02 -0.76691619681E+01  0.71757617271E+02  0.41800000000E+01 0.  1.
        -11    1    1    2    0    0 -0.38770599973E+02 -0.76046211620E+01 -0.85264016624E+01  0.40418921443E+02  0.00000000000E+00 0.  1.
         11    1    1    2    0    0 -0.28897904701E+01  0.28046323579E+02 -0.11734501286E+03  0.12068470988E+03  0.00000000000E+00 0. -1.
</event>
<event>
 7    1  0.6992302E-006  0.7233723E+02  0.7561462E-02  0.1352321E+00
          2   -1    0    0  501    0  0.00000000000E+00  0.00000000000E+00  0.32429069865E+03  0.32429069865E+03  0.00000000000E+00 0. -1.
         -2   -1    0    0    0  501 -0.00000000000E+00 -0.00000000000E+00 -0.39990064996E+02  0.39990064996E+02  0.00000000000E+00 0.  1.
         23    2    1    2    0    0  0.31575255281E+02  0.17551399902E+02  0.15918158253E+03  0.20565667571E+03  0.12510333194E+03 0.  0.
          5    1    3    3  502    0 -0.90911041067E+01 -0.27312302022E+01 -0.19041766961E+02  0.21683382608E+02  0.41800000000E+01 0. -1.
         -5    1    3    3    0  502  0.40666359388E+02  0.20282630104E+02  0.17822334950E+03  0.18397329310E+03  0.41800000000E+01 0. -1.
        -11    1    1    2    0    0 -0.59224586097E+02 -0.10735740260E+02  0.49864829431E+02  0.78162068367E+02  0.00000000000E+00 0.  1.
         11    1    1    2    0    0  0.27649330816E+02 -0.68156596423E+01  0.75254221693E+02  0.80462019571E+02  0.00000000000E+00 0. -1.
</event>
<event>
 7    1  0.6992302E-006  0.1090701E+03  0.7561462E-02  0.1262302E+00
          1   -1    0    0  501    0  0.00000000000E+00  0.00000000000E+00  0.40935719379E+03  0.40935719379E+03  0.00000000000E+00 0. -1.
         -1   -1    0    0    0  501 -0.00000000000E+00 -0.00000000000E+00 -0.42007857040E+02  0.42007857040E+02  0.00000000000E+00 0.  1.
         23    2    1    2    0    0  0.64520235127E+02 -0.15940174700E+02  0.16272082921E+03  0.21573728624E+03  0.12509020148E+03 0.  0.
          5    1    3    3  502    0  0.72791891474E+02 -0.34452596304E+02  0.17427518348E+03  0.19202852088E+03  0.41800000000E+01 0.  1.
         -5    1    3    3    0  502 -0.82716563475E+01  0.18512421604E+02 -0.11554354265E+02  0.23708765359E+02  0.41800000000E+01 0.  1.
        -11    1    1    2    0    0 -0.27631288142E+02 -0.40705217718E+02  0.83683689338E+02  0.97074006279E+02  0.00000000000E+00 0. -1.
         11    1    1    2    0    0 -0.36888946985E+02  0.56645392418E+02  0.12094481820E+03  0.13855375830E+03  0.00000000000E+00 0.  1.
</event>
<event>
 7    1  0.6992302E-006  0.1132765E+03  0.7561462E-02  0.1254620E+00
         -1   -1    0    0    0  501 -0.00000000000E+00  0.00000000000E+00  0.31902897722E+03  0.31902897722E+03  0.00000000000E+00 0. -1.
          1   -1    0    0  501    0  0.00000000000E+00 -0.00000000000E+00 -0.58098966464E+02  0.58098966464E+02  0.00000000000E+00 0.  1.
         23    2    1    2    0    0 -0.28673752094E+02  0.77752179747E+02  0.14592598951E+03  0.20924276113E+03  0.12498221137E+03 0.  0.
          5    1    3    3  502    0 -0.30687597818E+02  0.10809099216E+03  0.84761107828E+02  0.14080947783E+03  0.41800000000E+01 0. -1.
         -5    1    3    3    0  502  0.20138457239E+01 -0.30338812413E+02  0.61164881679E+02  0.68433283306E+02  0.41800000000E+01 0. -1.
        -11    1    1    2    0    0  0.71491568431E+01 -0.32947603069E+02 -0.84866478289E+01  0.34766049286E+02  0.00000000000E+00 0.  1.
         11    1    1    2    0    0  0.21524595251E+02 -0.44804576678E+02  0.12349066908E+03  0.13311913327E+03  0.00000000000E+00 0. -1.
</event>
<event>
 7    1  0.6992302E-006  0.6422695E+02  0.7561462E-02  0.1380903E+00
          2   -1    0    0  501    0  0.00000000000E+00  0.00000000000E+00  0.10103039071E+03  0.10103039071E+03  0.00000000000E+00 0. -1.
         -2   -1    0    0    0  501 -0.00000000000E+00 -0.00000000000E+00 -0.12602501982E+03  0.12602501982E+03  0.00000000000E+00 0.  1.
         23    2    1    2    0    0  0.12792835679E+02  0.25921242990E+02 -0.17224149243E+02  0.12953927418E+03  0.12509270465E+03 0.  0.
          5    1    3    3  502    0 -0.12930759142E+01  0.10651411936E+02  0.54007986603E+02  0.55221912666E+02  0.41800000000E+01 0.  1.
         -5    1    3    3    0  502  0.14085911593E+02  0.15269831054E+02 -0.71232135846E+02  0.74317361518E+02  0.41800000000E+01 0.  1.
        -11    1    1    2    0    0 -0.51979864160E+02 -0.21723826319E+02 -0.12836523661E+02  0.57780682306E+02  0.00000000000E+00 0. -1.
         11    1    1    2    0    0  0.39187028481E+02 -0.41974166715E+01  0.50660437939E+01  0.39735454038E+02  0.00000000000E+00 0.  1.
</event>
<event>
 7    1  0.6992302E-006  0.1110655E+03  0.7561462E-02  0.1258609E+00
         -2   -1    0    0    0  501 -0.00000000000E+00  0.00000000000E+00  0.54901811514E+02  0.54901811514E+02  0.00000000000E+00 0.  1.
          2   -1    0    0  501    0  0.00000000000E+00 -0.00000000000E+00 -0.33285778876E+03  0.33285778876E+03  0.00000000000E+00 0. -1.
         23    2    1    2    0    0  0.60711410897E+02 -0.10948363679E+02 -0.81758658338E+02  0.16165829221E+03  0.12507271144E+03 0.  0.
          5    1    3    3  502    0  0.26954958744E+02  0.55928166248E+02 -0.22931221302E+02  0.66316233994E+02  0.41800000000E+01 0. -1.
         -5    1    3    3    0  502  0.33756452153E+02 -0.66876529927E+02 -0.58827437036E+02  0.95342058218E+02  0.41800000000E+01 0. -1.
        -11    1    1    2    0    0 -0.16686867139E+02 -0.23607244116E+02 -0.83457862784E+01  0.30089959426E+02  0.00000000000E+00 0.  1.
         11    1    1    2    0    0 -0.44024543758E+02  0.34555607795E+02 -0.18785153263E+03  0.19601134864E+03  0.00000000000E+00 0. -1.
</event>
<event>
 7    1  0.6992302E-006  0.1541520E+03  0.7561462E-02  0.1195462E+00
         -1   -1    0    0    0  501 -0.00000000000E+00  0.00000000000E+00  0.36255653188E+03  0.36255653188E+03  0.00000000000E+00 0.  1.
          1   -1    0    0  501    0  0.00000000000E+00 -0.00000000000E+00 -0.88327310342E+02  0.88327310342E+02  0.00000000000E+00 0. -1.
         23    2    1    2    0    0 -0.14824676355E+03 -0.65384168401E+01  0.17037596834E+03  0.25825564711E+03  0.12509258524E+03 0.  0.
          5    1    3    3  502    0 -0.83976807429E+02 -0.27835873521E+02  0.16502673819E+02  0.90093011292E+02  0.41800000000E+01 0.  1.
         -5    1    3    3    0  502 -0.64269956118E+02  0.21297456681E+02  0.15387329452E+03  0.16816263582E+03  0.41800000000E+01 0.  1.
        -11    1    1    2    0    0  0.10777311021E+03 -0.98747715090E+01  0.10230501152E+03  0.14892571900E+03  0.00000000000E+00 0.  1.
         11    1    1    2    0    0  0.40473653335E+02  0.16413188349E+02  0.15482416843E+01  0.43702476113E+02  0.00000000000E+00 0. -1.
</event>
<event>
 7    1  0.6992302E-006  0.1141509E+03  0.7561462E-02  0.1253071E+00
         -2   -1    0    0    0  501 -0.00000000000E+00  0.00000000000E+00  0.41760543646E+02  0.41760543646E+02  0.00000000000E+00 0.  1.
          2   -1    0    0  501    0  0.00000000000E+00 -0.00000000000E+00 -0.36816244905E+03  0.36816244905E+03  0.00000000000E+00 0. -1.
         23    2    1    2    0    0  0.22886015464E+02  0.48327895023E+02 -0.11845019976E+03  0.17664182138E+03  0.11963497856E+03 0.  0.
          5    1    3    3  502    0 -0.38705991613E+02 -0.76551913029E+01 -0.69399186784E+02  0.79940448253E+02  0.41800000000E+01 0. -1.
         -5    1    3    3    0  502  0.61592007077E+02  0.55983086326E+02 -0.49051012979E+02  0.96701373127E+02  0.41800000000E+01 0.  1.
        -11    1    1    2    0    0  0.26855138347E+02  0.99764308631E+01 -0.66330753815E+02  0.72253003606E+02  0.00000000000E+00 0.  1.
         11    1    1    2    0    0 -0.49741153811E+02 -0.58304325887E+02 -0.14162095183E+03  0.16102816771E+03  0.00000000000E+00 0. -1.
</event>
<event>
 7    1  0.6992302E-006  0.1514005E+03  0.7561462E-02  0.1198763E+00
         -1   -1    0    0    0  501 -0.00000000000E+00  0.00000000000E+00  0.58859804296E+03  0.58859804296E+03  0.00000000000E+00 0.  1.
          1   -1    0    0  501    0  0.00000000000E+00 -0.00000000000E+00 -0.49657270430E+02  0.49657270430E+02  0.00000000000E+00 0. -1.
         23    2    1    2    0    0 -0.72525599451E+02 -0.11443771401E+03  0.28927671055E+03  0.34305325833E+03  0.12509424377E+03 0.  0.
          5    1    3    3  502    0 -0.59018697025E+02 -0.15304644491E+02  0.19920144361E+03  0.20836536727E+03  0.41800000000E+01 0.  1.
         -5    1    3    3    0  502 -0.13506902426E+02 -0.99133069519E+02  0.90075266944E+02  0.13468789107E+03  0.41800000000E+01 0.  1.
        -11    1    1    2    0    0  0.52288402308E+02  0.44235489728E+02  0.18630349270E+03  0.19849394690E+03  0.00000000000E+00 0.  1.
         11    1    1    2    0    0  0.20237197142E+02  0.70202224282E+02  0.63360569289E+02  0.96708108155E+02  0.00000000000E+00 0. -1.
</event>
<event>
 7    1  0.6992302E-006  0.1182203E+03  0.7561462E-02  0.1246062E+00
         -3   -1    0    0    0  501 -0.00000000000E+00  0.00000000000E+00  0.24643830608E+03  0.24643830608E+03  0.00000000000E+00 0.  1.
          3   -1    0    0  501    0  0.00000000000E+00 -0.00000000000E+00 -0.85669544728E+02  0.85669544728E+02  0.00000000000E+00 0. -1.
         23    2    1    2    0    0 -0.83842466931E+02  0.54464731971E+02  0.92984593181E+02  0.18517305802E+03  0.12508781139E+03 0.  0.
          5    1    3    3  502    0 -0.29643003960E+02  0.43959475823E+02 -0.21998211314E+02  0.57554642727E+02  0.41800000000E+01 0. -1.
         -5    1    3    3    0  502 -0.54199462971E+02  0.10505256147E+02  0.11498280449E+03  0.12761841530E+03  0.41800000000E+01 0. -1.
        -11    1    1    2    0    0  0.47489404813E+01 -0.48325476573E+02  0.12196616146E+02  0.50066571353E+02  0.00000000000E+00 0.  1.
         11    1    1    2    0    0  0.79093526449E+02 -0.61392553980E+01  0.55587552024E+02  0.96868221430E+02  0.00000000000E+00 0. -1.
</event>
<event>
 6    1  0.6992302E-006  0.1346752E+03  0.7561462E-02  0.1220679E+00
          2   -1    0    0  501    0  0.00000000000E+00  0.00000000000E+00  0.57819297369E+02  0.57819297369E+02  0.00000000000E+00 0. -1.
         -2   -1    0    0    0  501 -0.00000000000E+00 -0.00000000000E+00 -0.38437199669E+03  0.38437199669E+03  0.00000000000E+00 0.  1.
          5    1    1    2  502    0  0.96079341804E+02  0.14270006685E+02 -0.62396566186E+02  0.11552349062E+03  0.41800000000E+01 0. -1.
         -5    1    1    2    0  502 -0.77649573270E+02 -0.17867401034E+02 -0.19664776678E+03  0.21221808790E+03  0.41800000000E+01 0.  1.
        -11    1    1    2    0    0  0.30224490829E+02 -0.21979735944E+02 -0.24989447658E+02  0.44956658375E+02  0.00000000000E+00 0. -1.
         11    1    1    2    0    0 -0.48654259363E+02  0.25577130292E+02 -0.42518918692E+02  0.69493057171E+02  0.00000000000E+00 0.  1.
</event>
<event>
 7    1  0.6992302E-006  0.9751888E+02  0.7561462E-02  0.1285602E+00
         -2   -1    0    0    0  501 -0.00000000000E+00  0.00000000000E+00  0.71856772760E+02  0.71856772760E+02  0.00000000000E+00 0.  1.
          2   -1    0    0  501    0  0.00000000000E+00 -0.00000000000E+00 -0.26667632972E+03  0.26667632972E+03  0.00000000000E+00 0. -1.
         23    2    1    2    0    0 -0.53287570241E+02  0.41934243342E+02 -0.41364803426E+02  0.14817822355E+03  0.12509073932E+03 0.  0.
          5    1    3    3  502    0 -0.46554946094E+02 -0.12456367202E+02 -0.70861872311E+02  0.85798609762E+02  0.41800000000E+01 0. -1.
         -5    1    3    3    0  502 -0.67326241472E+01  0.54390610544E+02  0.29497068886E+02  0.62379613786E+02  0.41800000000E+01 0. -1.
        -11    1    1    2    0    0  0.15975696064E+01 -0.39938924827E+02 -0.15240687581E+02  0.42777897364E+02  0.00000000000E+00 0.  1.
         11    1    1    2    0    0  0.51690000635E+02 -0.19953185152E+01 -0.13821406595E+03  0.14757698157E+03  0.00000000000E+00 0. -1.
</event>
<event>
 7    1  0.6992302E-006  0.1002883E+03  0.7561462E-02  0.1279691E+00
          1   -1    0    0  501    0  0.00000000000E+00  0.00000000000E+00  0.53793848922E+02  0.53793848922E+02  0.00000000000E+00 0. -1.
         -1   -1    0    0    0  501 -0.00000000000E+00 -0.00000000000E+00 -0.27122933841E+03  0.27122933841E+03  0.00000000000E+00 0.  1.
         23    2    1    2    0    0 -0.15729701132E+02 -0.48157083639E+02 -0.14318625098E+03  0.19630007839E+03  0.12435791130E+03 0.  0.
          5    1    3    3  502    0 -0.51678308954E+02  0.15419515700E+02 -0.92993557336E+02  0.10758105403E+03  0.41800000000E+01 0. -1.
         -5    1    3    3    0  502  0.35948607822E+02 -0.63576599339E+02 -0.50192693648E+02  0.88719024360E+02  0.41800000000E+01 0. -1.
        -11    1    1    2    0    0 -0.17193099724E+02  0.30124765220E+01 -0.70604324505E+02  0.72729968594E+02  0.00000000000E+00 0.  1.
         11    1    1    2    0    0  0.32922800856E+02  0.45144607117E+02 -0.36449140018E+01  0.55993140348E+02  0.00000000000E+00 0. -1.
</event>
<event>
 7    1  0.6992302E-006  0.4191971E+03  0.7561462E-02  0.1037328E+00
          1   -1    0    0  501    0  0.00000000000E+00  0.00000000000E+00  0.87827787130E+03  0.87827787130E+03  0.00000000000E+00 0. -1.
         -1   -1    0    0    0  501 -0.00000000000E+00 -0.00000000000E+00 -0.22464485664E+03  0.22464485664E+03  0.00000000000E+00 0.  1.
         23    2    1    2    0    0  0.30680953425E+01  0.41409194811E+03  0.18395756689E+03  0.47007284480E+03  0.12508612353E+03 0.  0.
          5    1    3    3  502    0  0.10414301504E+02  0.33936007191E+03  0.19873064362E+03  0.39342732137E+03  0.41800000000E+01 0. -1.
         -5    1    3    3    0  502 -0.73462061614E+01  0.74731876201E+02 -0.14773076736E+02  0.76645523429E+02  0.41800000000E+01 0. -1.
        -11    1    1    2    0    0 -0.30734544334E+02 -0.51352344868E+02  0.55929693300E+02  0.81913406299E+02  0.00000000000E+00 0.  1.
         11    1    1    2    0    0  0.27666448992E+02 -0.36273960325E+03  0.41374575447E+03  0.55093647684E+03  0.00000000000E+00 0. -1.
</event>
<event>
 7    1  0.6992302E-006  0.9992078E+02  0.7561462E-02  0.1280463E+00
         -3   -1    0    0    0  501 -0.00000000000E+00  0.00000000000E+00  0.13682091767E+03  0.13682091767E+03  0.00000000000E+00 0.  1.
          3   -1    0    0  501    0  0.00000000000E+00 -0.00000000000E+00 -0.11215435616E+03  0.11215435616E+03  0.00000000000E+00 0. -1.
         23    2    1    2    0    0  0.55735644039E+02  0.37035185679E+00  0.26454904866E+02  0.13947692860E+03  0.12508937782E+03 0.  0.
          5    1    3    3  502    0  0.78848610625E+02 -0.38147106363E+01  0.59342755692E+02  0.98846803023E+02  0.41800000000E+01 0. -1.
         -5    1    3    3    0  502 -0.23112966586E+02  0.41850624931E+01 -0.32887850826E+02  0.40630125578E+02  0.41800000000E+01 0. -1.
        -11    1    1    2    0    0  0.20509460152E+02 -0.24743119968E+01  0.21432721115E+02  0.29767796525E+02  0.00000000000E+00 0.  1.
         11    1    1    2    0    0 -0.76245104190E+02  0.21039601400E+01 -0.23221064472E+02  0.79730548703E+02  0.00000000000E+00 0. -1.
</event>
<event>
 7    1  0.6992302E-006  0.7234974E+02  0.7561462E-02  0.1352280E+00
          2   -1    0    0  501    0  0.00000000000E+00  0.00000000000E+00  0.75814436814E+02  0.75814436814E+02  0.00000000000E+00 0. -1.
         -2   -1    0    0    0  501 -0.00000000000E+00 -0.00000000000E+00 -0.21773320496E+03  0.21773320496E+03  0.00000000000E+00 0.  1.
         23    2    1    2    0    0  0.79430126949E+01  0.39741592686E+02 -0.14234165294E+03  0.19378645653E+03  0.12509819716E+03 0.  0.
          5    1    3    3  502    0  0.11359512391E+02  0.13277029464E+02  0.21337327319E+02  0.27893941462E+02  0.41800000000E+01 0. -1.
         -5    1    3    3    0  502 -0.34164996957E+01  0.26464563222E+02 -0.16367898026E+03  0.16589251506E+03  0.41800000000E+01 0. -1.
        -11    1    1    2    0    0 -0.41620791739E+02 -0.49488394295E+02  0.15671860467E+01  0.64682668057E+02  0.00000000000E+00 0. -1.
         11    1    1    2    0    0  0.33677779044E+02  0.97468016098E+01 -0.11443012563E+01  0.35078517191E+02  0.00000000000E+00 0.  1.
</event>
<event>
 7    1  0.6992302E-006  0.1222612E+03  0.7561462E-02  0.1239413E+00
         -2   -1    0    0    0  501 -0.00000000000E+00  0.00000000000E+00  0.24499260894E+02  0.24499260894E+02  0.00000000000E+00 0.  1.
          2   -1    0    0  501    0  0.00000000000E+00 -0.00000000000E+00 -0.71336867093E+03  0.71336867093E+03  0.00000000000E+00 0. -1.
         23    2    1    2    0    0 -0.20730132892E+02  0.69767750734E+02 -0.31197215314E+03  0.34390696233E+03  0.12509235368E+03 0.  0.
          5    1    3    3  502    0 -0.19158292255E+02 -0.34833446917E+02 -0.90500116632E+02  0.98935093353E+02  0.41800000000E+01 0.  1.
         -5    1    3    3    0  502 -0.15718406367E+01  0.10460119765E+03 -0.22147203651E+03  0.24497186897E+03  0.41800000000E+01 0.  1.
        -11    1    1    2    0    0  0.41241498087E-01  0.13780518692E+02 -0.98041178129E+01  0.16912277267E+02  0.00000000000E+00 0.  1.
         11    1    1    2    0    0  0.20688891394E+02 -0.83548269426E+02 -0.36709313908E+03  0.37704869223E+03  0.00000000000E+00 0. -1.
</event>
<event>
 7    1  0.6992302E-006  0.9210346E+02  0.7561462E-02  0.1297836E+00
          1   -1    0    0  501    0  0.00000000000E+00  0.00000000000E+00  0.67284539920E+02  0.67284539920E+02  0.00000000000E+00 0. -1.
         -1   -1    0    0    0  501 -0.00000000000E+00 -0.00000000000E+00 -0.19074785957E+03  0.19074785957E+03  0.00000000000E+00 0.  1.
         23    2    1    2    0    0 -0.14323058808E+02 -0.29765647627E+02 -0.62578380522E+02  0.14371889399E+03  0.12509165834E+03 0.  0.
          5    1    3    3  502    0  0.76992116555E+01  0.26367649405E+02 -0.76760157560E+02  0.81634092045E+02  0.41800000000E+01 0. -1.
         -5    1    3    3    0  502 -0.22022270463E+02 -0.56133297032E+02  0.14181777038E+02  0.62084801941E+02  0.41800000000E+01 0. -1.
        -11    1    1    2    0    0 -0.34134087037E+02  0.32915701823E+02 -0.22882913892E+02  0.52651752796E+02  0.00000000000E+00 0. -1.
         11    1    1    2    0    0  0.48457145844E+02 -0.31500541960E+01 -0.38002025232E+02  0.61661752704E+02  0.00000000000E+00 0.  1.
</event>
<event>
 7    1  0.6992302E-006  0.1120593E+03  0.7561462E-02  0.1256803E+00
         -2   -1    0    0    0  501 -0.00000000000E+00  0.00000000000E+00  0.64882449667E+02  0.64882449667E+02  0.00000000000E+00 0.  1.
          2   -1    0    0  501    0  0.00000000000E+00 -0.00000000000E+00 -0.25946314829E+03  0.25946314829E+03  0.00000000000E+00 0. -1.
         23    2    1    2    0    0 -0.27381359293E+01  0.38333970009E+02 -0.31688774642E+02  0.13464113118E+03  0.12508822935E+03 0.  0.
          5    1    3    3  502    0 -0.58123867817E+02 -0.26357292970E+01 -0.30014107332E+02  0.65602211227E+02  0.41800000000E+01 0. -1.
         -5    1    3    3    0  502  0.55385731888E+02  0.40969699306E+02 -0.16746673103E+01  0.69038919956E+02  0.41800000000E+01 0. -1.
        -11    1    1    2    0    0 -0.25875612165E+02 -0.57003011938E+02 -0.96288829598E+02  0.11484959460E+03  0.00000000000E+00 0.  1.
         11    1    1    2    0    0  0.28613748094E+02  0.18669041929E+02 -0.66603094381E+02  0.74854872170E+02  0.00000000000E+00 0. -1.
</event>
<event>
 7    1  0.6992302E-006  0.1816417E+03  0.7561462E-02  0.1166224E+00
         -1   -1    0    0    0  501 -0.00000000000E+00  0.00000000000E+00  0.12154523177E+03  0.12154523177E+03  0.00000000000E+00 0.  1.
          1   -1    0    0  501    0  0.00000000000E+00 -0.00000000000E+00 -0.60569120807E+03  0.60569120807E+03  0.00000000000E+00 0. -1.
         23    2    1    2    0    0 -0.16781450286E+03  0.16880149538E+02 -0.38535215759E+01  0.21002424779E+03  0.12509471696E+03 0.  0.
          5    1    3    3  502    0 -0.55220492903E+02  0.23298261990E+02 -0.59185191691E+02  0.84335468006E+02  0.41800000000E+01 0. -1.
         -5    1    3    3    0  502 -0.11259400996E+03 -0.64181124520E+01  0.55331670115E+02  0.12568877979E+03  0.41800000000E+01 0. -1.
        -11    1    1    2    0    0  0.16791162140E+03 -0.35587786088E+02 -0.44982463999E+03  0.48145925047E+03  0.00000000000E+00 0. -1.
         11    1    1    2    0    0 -0.97118537250E-01  0.18707636551E+02 -0.30467814728E+02  0.35752941580E+02  0.00000000000E+00 0.  1.
</event>
<event>
 6    1  0.6992302E-006  0.1390565E+03  0.7561462E-02  0.1214604E+00
         -1   -1    0    0    0  501 -0.00000000000E+00  0.00000000000E+00  0.59985478687E+02  0.59985478687E+02  0.00000000000E+00 0.  1.
          1   -1    0    0  501    0  0.00000000000E+00 -0.00000000000E+00 -0.33036903975E+03  0.33036903975E+03  0.00000000000E+00 0. -1.
          5    1    1    2  502    0 -0.50838851458E+02 -0.79802723212E+02 -0.87498589025E+02  0.12894393716E+03  0.41800000000E+01 0. -1.
         -5    1    1    2    0  502  0.10183714937E+03  0.81636002010E+02 -0.10719855534E+03  0.16895042019E+03  0.41800000000E+01 0.  1.
        -11    1    1    2    0    0 -0.11759671146E+02 -0.62675645962E+01 -0.23529989054E+02  0.27041313140E+02  0.00000000000E+00 0.  1.
         11    1    1    2    0    0 -0.39238626769E+02  0.44342857979E+01 -0.52156427641E+02  0.65418847938E+02  0.00000000000E+00 0. -1.
</event>
<event>
 7    1  0.6992302E-006  0.9086750E+02  0.7561462E-02  0.1300764E+00
          1   -1    0    0  501    0  0.00000000000E+00  0.00000000000E+00  0.11369437314E+03  0.11369437314E+03  0.00000000000E+00 0. -1.
         -1   -1    0    0    0  501 -0.00000000000E+00 -0.00000000000E+00 -0.14825949892E+03  0.14825949892E+03  0.00000000000E+00 0.  1.
         23    2    1    2    0    0  0.37463687829E+02  0.56957984815E+02 -0.38337534616E+02  0.14752480357E+03  0.12508421630E+03 0.  0.
          5    1    3    3  502    0  0.85512831649E+01 -0.13562473413E+01 -0.73022917431E+02  0.73653124311E+02  0.41800000000E+01 0. -1.
         -5    1    3    3    0  502  0.28912404664E+02  0.58314232156E+02  0.34685382815E+02  0.73871679258E+02  0.41800000000E+01 0. -1.
        -11    1    1    2    0    0 -0.20622250815E+02 -0.77579425007E+02 -0.15247105423E+02  0.81708742720E+02  0.00000000000E+00 0.  1.
         11    1    1    2    0    0 -0.16841437013E+02  0.20621440192E+02  0.19019514260E+02  0.32720325777E+02  0.00000000000E+00 0. -1.
</event>
<event>
 6    1  0.6992302E-006  0.6301975E+02  0.7561462E-02  0.1385579E+00
         -2   -1    0    0    0  501 -0.00000000000E+00  0.00000000000E+00  0.11962018791E+03  0.11962018791E+03  0.00000000000E+00 0.  1.
          2   -1    0    0  501    0  0.00000000000E+00 -0.00000000000E+00 -0.23698440220E+03  0.23698440220E+03  0.00000000000E+00 0. -1.
          5    1    1    2  502    0  0.47634199227E+01 -0.47850161289E+01 -0.67596186034E+02  0.68061026403E+02  0.41800000000E+01 0. -1.
         -5    1    1    2    0  502  0.18738206970E+02 -0.26408540991E+02  0.10232307781E+03  0.10740584756E+03  0.41800000000E+01 0.  1.
        -11    1    1    2    0    0 -0.35945177548E+01 -0.25298128381E+02 -0.10924266538E+02  0.27789484645E+02  0.00000000000E+00 0.  1.
         11    1    1    2    0    0 -0.19907109138E+02  0.56491685501E+02 -0.14116683952E+03  0.15334823150E+03  0.00000000000E+00 0. -1.
</event>
<event>
 7    1  0.6992302E-006  0.1158830E+03  0.7561462E-02  0.1250048E+00
          2   -1    0    0  501    0  0.00000000000E+00  0.00000000000E+00  0.43786556046E+03  0.43786556046E+03  0.00000000000E+00 0.  1.
         -2   -1    0    0    0  501 -0.00000000000E+00 -0.00000000000E+00 -0.38632785347E+02  0.38632785347E+02  0.00000000000E+00 0. -1.
         23    2    1    2    0    0 -0.71894127895E+02 -0.95604104539E+01  0.18255291196E+03  0.23288867790E+03  0.12510556963E+03 0.  0.
          5    1    3    3  502    0  0.21076953163E+01 -0.42447238131E+02  0.12856556868E+03  0.13547246309E+03  0.41800000000E+01 0.  1.
         -5    1    3    3    0  502 -0.74001823211E+02  0.32886827677E+02  0.53987343278E+02  0.97416214808E+02  0.41800000000E+01 0.  1.
        -11    1    1    2    0    0  0.29690024169E+02  0.44287247390E+02  0.13678339816E+03  0.14680788749E+03  0.00000000000E+00 0.  1.
         11    1    1    2    0    0  0.42204103726E+02 -0.34726836936E+02  0.79896464987E+02  0.96801780419E+02  0.00000000000E+00 0. -1.
</event>
<event>
 7    1  0.6992302E-006  0.1453948E+03  0.7561462E-02  0.1206249E+00
         -2   -1    0    0    0  501 -0.00000000000E+00  0.00000000000E+00  0.80066046512E+02  0.80066046512E+02  0.00000000000E+00 0.  1.
          2   -1    0    0  501    0  0.00000000000E+00 -0.00000000000E+00 -0.35790234134E+03  0.35790234134E+03  0.00000000000E+00 0. -1.
         23    2    1    2    0    0  0.46349547396E+02 -0.11180821045E+03 -0.86064648571E+02  0.19417146206E+03  0.12508427751E+03 0.  0.
          5    1    3    3  502    0 -0.12359579112E+02 -0.10935085179E+03 -0.33205330093E+02  0.11502362510E+03  0.41800000000E+01 0.  1.
         -5    1    3    3    0  502  0.58709126508E+02 -0.24573586544E+01 -0.52859318478E+02  0.79147836969E+02  0.41800000000E+01 0.  1.
        -11    1    1    2    0    0 -0.21704835607E+02  0.35960279957E+02 -0.70443874730E+01  0.42589494223E+02  0.00000000000E+00 0.  1.
         11    1    1    2    0    0 -0.24644711789E+02  0.75847930490E+02 -0.18472725879E+03  0.20120743157E+03  0.00000000000E+00 0. -1.
</event>
<event>
 7    1  0.6992302E-006  0.1259718E+03  0.7561462E-02  0.1233558E+00
          1   -1    0    0  501    0  0.00000000000E+00  0.00000000000E+00  0.48660334074E+03  0.48660334074E+03  0.00000000000E+00 0. -1.
         -1   -1    0    0    0  501 -0.00000000000E+00 -0.00000000000E+00 -0.50349530800E+02  0.50349530800E+02  0.00000000000E+00 0.  1.
         23    2    1    2    0    0  0.99721600244E+02  0.48240516670E+02  0.25098319175E+03  0.30152445158E+03  0.12511149968E+03 0.  0.
          5    1    3    3  502    0  0.11446203244E+02 -0.94625972073E+01  0.16408730215E+03  0.16481101736E+03  0.41800000000E+01 0. -1.
         -5    1    3    3    0  502  0.88275396999E+02  0.57703113877E+02  0.86895889601E+02  0.13671343422E+03  0.41800000000E+01 0. -1.
        -11    1    1    2    0    0 -0.26352981419E+02 -0.51155405406E+02  0.32892127969E+02  0.66281575225E+02  0.00000000000E+00 0.  1.
         11    1    1    2    0    0 -0.73368618825E+02  0.29148887366E+01  0.15237849022E+03  0.16914684474E+03  0.00000000000E+00 0. -1.
</event>
<event>
 7    1  0.6992302E-006  0.1509828E+03  0.7561462E-02  0.1199271E+00
         -1   -1    0    0    0  501 -0.00000000000E+00  0.00000000000E+00  0.29120981328E+03  0.29120981328E+03  0.00000000000E+00 0.  1.
          1   -1    0    0  501    0  0.00000000000E+00 -0.00000000000E+00 -0.82503095087E+02  0.82503095087E+02  0.00000000000E+00 0. -1.
         23    2    1    2    0    0 -0.12000542393E+03  0.32737546963E+02  0.13392196967E+03  0.22148486744E+03  0.12508958305E+03 0.  0.
          5    1    3    3  502    0  0.18710462066E+02  0.24397477404E+02  0.41575099715E+01  0.31306158876E+02  0.41800000000E+01 0. -1.
         -5    1    3    3    0  502 -0.13871588599E+03  0.83400695592E+01  0.12976445970E+03  0.19017870856E+03  0.41800000000E+01 0. -1.
        -11    1    1    2    0    0  0.84329564632E+02 -0.43170532571E+02  0.46585206097E+02  0.10557154816E+03  0.00000000000E+00 0. -1.
         11    1    1    2    0    0  0.35675859296E+02  0.10432985608E+02  0.28199542421E+02  0.46656492773E+02  0.00000000000E+00 0.  1.
</event>
<event>
 7    1  0.6992302E-006  0.8701336E+02  0.7561462E-02  0.1310250E+00
         -2   -1    0    0    0  501 -0.00000000000E+00  0.00000000000E+00  0.37633819333E+03  0.37633819333E+03  0.00000000000E+00 0.  1.
          2   -1    0    0  501    0  0.00000000000E+00 -0.00000000000E+00 -0.49072884621E+02  0.49072884621E+02  0.00000000000E+00 0. -1.
         23    2    1    2    0    0  0.10761602154E+02 -0.40020669274E+02  0.29401162812E+03  0.31792351155E+03  0.11364442650E+03 0.  0.
          5    1    3    3  502    0  0.33644532821E+02 -0.10898942265E+01  0.18369019342E+02  0.38575066166E+02  0.41800000000E+01 0. -1.
         -5    1    3    3    0  502 -0.22882930666E+02 -0.38930775047E+02  0.27564260878E+03  0.27934844538E+03  0.41800000000E+01 0.  1.
        -11    1    1    2    0    0  0.23495198559E+01 -0.26677356512E+02 -0.80299094154E+01  0.27958559320E+02  0.00000000000E+00 0.  1.
         11    1    1    2    0    0 -0.13111122010E+02  0.66698025786E+02  0.41283589998E+02  0.79529007081E+02  0.00000000000E+00 0. -1.
</event>
<event>
 7    1  0.6992302E-006  0.2809966E+03  0.7561462E-02  0.1095146E+00
         -1   -1    0    0    0  501 -0.00000000000E+00  0.00000000000E+00  0.10916770038E+04  0.10916770038E+04  0.00000000000E+00 0.  1.
          1   -1    0    0  501    0  0.00000000000E+00 -0.00000000000E+00 -0.80018188411E+02  0.80018188411E+02  0.00000000000E+00 0. -1.
         23    2    1    2    0    0 -0.24800549899E+03  0.10317692910E+03  0.63053288726E+03  0.69668563358E+03  0.12508774477E+03 0.  0.
          5    1    3    3  502    0 -0.30505660843E+02  0.63790905620E+02  0.10623902909E+03  0.12768742571E+03  0.41800000000E+01 0. -1.
         -5    1    3    3    0  502 -0.21749983815E+03  0.39386023475E+02  0.52429385817E+03  0.56899820787E+03  0.41800000000E+01 0. -1.
        -11    1    1    2    0    0  0.27521423115E+02 -0.22979567534E+01  0.10011021182E+03  0.10384971761E+03  0.00000000000E+00 0.  1.
         11    1    1    2    0    0  0.22048407588E+03 -0.10087897234E+03  0.28101571629E+03  0.37115984101E+03  0.00000000000E+00 0. -1.
</event>
<event>
 7    1  0.6992302E-006  0.1095158E+03  0.7561462E-02  0.1261469E+00
          2   -1    0    0  501    0  0.00000000000E+00  0.00000000000E+00  0.71719072370E+03  0.71719072370E+03  0.00000000000E+00 0.  1.
         -2   -1    0    0    0  501 -0.00000000000E+00 -0.00000000000E+00 -0.18586576634E+02  0.18586576634E+02  0.00000000000E+00 0. -1.
         23    2    1    2    0    0  0.16660340406E+02  0.17187267807E+02  0.29202708567E+03  0.31859090012E+03  0.12508946303E+03 0.  0.
          5    1    3    3  502    0 -0.43275462681E+02  0.42519790929E+02  0.11797440145E+03  0.13272577025E+03  0.41800000000E+01 0.  1.
         -5    1    3    3    0  502  0.59935803087E+02 -0.25332523121E+02  0.17405268422E+03  0.18586512987E+03  0.41800000000E+01 0.  1.
        -11    1    1    2    0    0 -0.47959319976E+02 -0.32736309854E+02  0.27355652044E+03  0.27965144775E+03  0.00000000000E+00 0. -1.
         11    1    1    2    0    0  0.31298979570E+02  0.15549042046E+02  0.13302054096E+03  0.13753495246E+03  0.00000000000E+00 0.  1.
</event>
<event>
 7    1  0.6992302E-006  0.1443737E+03  0.7561462E-02  0.1207562E+00
         -3   -1    0    0    0  501 -0.00000000000E+00  0.00000000000E+00  0.60323033668E+03  0.60323033668E+03  0.00000000000E+00 0. -1.
          3   -1    0    0  501    0  0.00000000000E+00 -0.00000000000E+00 -0.63535493052E+02  0.63535493052E+02  0.00000000000E+00 0.  1.
         23    2    1    2    0    0 -0.11097483322E+03  0.47782197578E+02  0.46801845604E+03  0.49928954009E+03  0.12510082988E+03 0.  0.
          5    1    3    3  502    0 -0.75689992979E+02 -0.68022977765E+01  0.10062122905E+03  0.12616398230E+03  0.41800000000E+01 0. -1.
         -5    1    3    3    0  502 -0.35284840239E+02  0.54584495355E+02  0.36739722698E+03  0.37312555780E+03  0.41800000000E+01 0. -1.
        -11    1    1    2    0    0 -0.87745389307E+01  0.11030497086E+02  0.19863099869E+02  0.24355843977E+02  0.00000000000E+00 0. -1.
         11    1    1    2    0    0  0.11974937215E+03 -0.58812694664E+02  0.51813287723E+02  0.14312044567E+03  0.00000000000E+00 0.  1.
</event>
<event>
 7    1  0.6992302E-006  0.6796834E+02  0.7561462E-02  0.1367141E+00
          1   -1    0    0  501    0  0.00000000000E+00  0.00000000000E+00  0.23331938157E+03  0.23331938157E+03  0.00000000000E+00 0. -1.
         -1   -1    0    0    0  501 -0.00000000000E+00 -0.00000000000E+00 -0.69625642954E+02  0.69625642954E+02  0.00000000000E+00 0.  1.
         23    2    1    2    0    0 -0.39825645730E+02 -0.34030486460E+01  0.30482612763E+02  0.13480908729E+03  0.12508652021E+03 0.  0.
          5    1    3    3  502    0 -0.19598606483E+02  0.45019588356E+01  0.78926900186E+02  0.81555508597E+02  0.41800000000E+01 0. -1.
         -5    1    3    3    0  502 -0.20227039247E+02 -0.79050074817E+01 -0.48444287423E+02  0.53253578696E+02  0.41800000000E+01 0. -1.
        -11    1    1    2    0    0  0.60023186641E+02  0.23807229634E+02  0.54996659656E+02  0.84818628205E+02  0.00000000000E+00 0.  1.
         11    1    1    2    0    0 -0.20197540910E+02 -0.20404180988E+02  0.78214466195E+02  0.83317309023E+02  0.00000000000E+00 0. -1.
</event>
<event>
 7    1  0.6992302E-006  0.7009373E+02  0.7561462E-02  0.1359775E+00
         -2   -1    0    0    0  501 -0.00000000000E+00  0.00000000000E+00  0.16053415877E+03  0.16053415877E+03  0.00000000000E+00 0. -1.
          2   -1    0    0  501    0  0.00000000000E+00 -0.00000000000E+00 -0.97487064583E+02  0.97487064583E+02  0.00000000000E+00 0.  1.
         23    2    1    2    0    0  0.22780241561E+02  0.46992164126E+02  0.71102138956E+02  0.15306937596E+03  0.12509003477E+03 0.  0.
          5    1    3    3  502    0 -0.15277591163E+02  0.34507392756E+02 -0.27287487914E+02  0.46757291872E+02  0.41800000000E+01 0. -1.
         -5    1    3    3    0  502  0.38057832725E+02  0.12484771370E+02  0.98389626870E+02  0.10631208409E+03  0.41800000000E+01 0. -1.
        -11    1    1    2    0    0  0.86620060779E+01 -0.13217354611E+02  0.37139406600E+02  0.40361669128E+02  0.00000000000E+00 0. -1.
         11    1    1    2    0    0 -0.31442247639E+02 -0.33774809514E+02 -0.45194451364E+02  0.64590178266E+02  0.00000000000E+00 0.  1.
</event>
<event>
 7    1  0.6992302E-006  0.1434096E+03  0.7561462E-02  0.1208813E+00
         -2   -1    0    0    0  501 -0.00000000000E+00  0.00000000000E+00  0.16696961918E+03  0.16696961918E+03  0.00000000000E+00 0.  1.
          2   -1    0    0  501    0  0.00000000000E+00 -0.00000000000E+00 -0.22381100808E+03  0.22381100808E+03  0.00000000000E+00 0. -1.
         23    2    1    2    0    0  0.79666208730E+02 -0.11748409680E+03  0.44228110869E+02  0.19430135901E+03  0.12509066515E+03 0.  0.
          5    1    3    3  502    0  0.57624956578E+02 -0.63486472626E+02 -0.37611668509E+02  0.93719143376E+02  0.41800000000E+01 0.  1.
         -5    1    3    3    0  502  0.22041252151E+02 -0.53997624176E+02  0.81839779377E+02  0.10058221563E+03  0.41800000000E+01 0.  1.
        -11    1    1    2    0    0 -0.35477249693E+02  0.63539283254E+02  0.10996531132E+01  0.72781075831E+02  0.00000000000E+00 0.  1.
         11    1    1    2    0    0 -0.44188959037E+02  0.53944813548E+02 -0.10216915288E+03  0.12369819242E+03  0.00000000000E+00 0. -1.
</event>
<event>
 7    1  0.6992302E-006  0.1190970E+03  0.7561462E-02  0.1244594E+00
         -1   -1    0    0    0  501 -0.00000000000E+00  0.00000000000E+00  0.37676068358E+02  0.37676068358E+02  0.00000000000E+00 0.  1.
          1   -1    0    0  501    0  0.00000000000E+00 -0.00000000000E+00 -0.42884739171E+03  0.42884739171E+03  0.00000000000E+00 0. -1.
         23    2    1    2    0    0 -0.49138834878E+02  0.79887864103E+01 -0.13747802660E+03  0.19242105794E+03  0.12508880821E+03 0.  0.
          5    1    3    3  502    0  0.26817712213E+02 -0.37106694470E+02 -0.41825336349E+02  0.62152454686E+02  0.41800000000E+01 0.  1.
         -5    1    3    3    0  502 -0.75956547090E+02  0.45095480880E+02 -0.95652690254E+02  0.13026860326E+03  0.41800000000E+01 0.  1.
        -11    1    1    2    0    0  0.71230759489E+02 -0.25436368786E+02 -0.18453053370E+03  0.19943005747E+03  0.00000000000E+00 0. -1.
         11    1    1    2    0    0 -0.22091924611E+02  0.17447582376E+02 -0.69162763042E+02  0.74672344649E+02  0.00000000000E+00 0.  1.
</event>
<event>
 7    1  0.6992302E-006  0.1185790E+03  0.7561462E-02  0.1245460E+00
          2   -1    0    0  501    0  0.00000000000E+00  0.00000000000E+00  0.78749601799E+02  0.78749601799E+02  0.00000000000E+00 0. -1.
         -2   -1    0    0    0  501 -0.00000000000E+00 -0.00000000000E+00 -0.29152902084E+03  0.29152902084E+03  0.00000000000E+00 0.  1.
         23    2    1    2    0    0 -0.55886817801E+02  0.25831148660E+01 -0.22332526266E+03  0.26201316168E+03  0.12508683011E+03 0.  0.
          5    1    3    3  502    0 -0.88975013352E+02  0.28981854937E+02 -0.16639091836E+03  0.19094478529E+03  0.41800000000E+01 0.  1.
         -5    1    3    3    0  502  0.33088195551E+02 -0.26398740071E+02 -0.56934344300E+02  0.71068376392E+02  0.41800000000E+01 0.  1.
        -11    1    1    2    0    0  0.16201829978E+02 -0.42002140276E+02 -0.14051674033E+02  0.47160668205E+02  0.00000000000E+00 0.  1.
         11    1    1    2    0    0  0.39684987823E+02  0.39419025410E+02  0.24597517651E+02  0.61104792753E+02  0.00000000000E+00 0. -1.
</event>
<event>
 7    1  0.6992302E-006  0.1205623E+03  0.7561462E-02  0.1242172E+00
          4   -1    0    0  501    0  0.00000000000E+00  0.00000000000E+00  0.26231090469E+03  0.26231090469E+03  0.00000000000E+00 0. -1.
         -4   -1    0    0    0  501 -0.00000000000E+00 -0.00000000000E+00 -0.72213278900E+02  0.72213278900E+02  0.00000000000E+00 0.  1.
         23    2    1    2    0    0  0.21167632631E+02 -0.79396602217E+02  0.83818460580E+02  0.17153674221E+03  0.12508968974E+03 0.  0.
          5    1    3    3  502    0  0.28635133375E+02  0.28968946733E+02  0.23993277349E+02  0.47458618777E+02  0.41800000000E+01 0. -1.
         -5    1    3    3    0  502 -0.74675007445E+01 -0.10836554895E+03  0.59825183231E+02  0.12407812344E+03  0.41800000000E+01 0. -1.
        -11    1    1    2    0    0 -0.15925600665E+02  0.47142493928E+01 -0.13724489837E+02  0.21545545367E+02  0.00000000000E+00 0.  1.
         11    1    1    2    0    0 -0.52420319660E+01  0.74682352824E+02  0.12000365504E+03  0.14144189601E+03  0.00000000000E+00 0. -1.
</event>
<event>
 7    1  0.6992302E-006  0.1077556E+03  0.7561462E-02  0.1264784E+00
         -1   -1    0    0    0  501 -0.00000000000E+00  0.00000000000E+00  0.71171349092E+03  0.71171349092E+03  0.00000000000E+00 0.  1.
          1   -1    0    0  501    0  0.00000000000E+00 -0.00000000000E+00 -0.94420014896E+02  0.94420014896E+02  0.00000000000E+00 0. -1.
         23    2    1    2    0    0  0.46376847751E+02 -0.31828662448E+02  0.67208699853E+03  0.68655807522E+03  0.12844135355E+03 0.  0.
          5    1    3    3  502    0 -0.43314812371E+02 -0.19042542742E+02  0.17874266298E+03  0.18494648787E+03  0.41800000000E+01 0. -1.
         -5    1    3    3    0  502  0.89691660122E+02 -0.12786119706E+02  0.49334433555E+03  0.50161158735E+03  0.41800000000E+01 0.  1.
        -11    1    1    2    0    0 -0.53627904260E+02  0.10311712738E+02 -0.72510876665E+02  0.90775055878E+02  0.00000000000E+00 0. -1.
         11    1    1    2    0    0  0.72510565087E+01  0.21516949711E+02  0.17717354161E+02  0.28800374717E+02  0.00000000000E+00 0.  1.
</event>
<event>
 7    1  0.6992302E-006  0.1052305E+03  0.7561462E-02  0.1269666E+00
          2   -1    0    0  501    0  0.00000000000E+00  0.00000000000E+00  0.23854595266E+03  0.23854595266E+03  0.00000000000E+00 0. -1.
         -2   -1    0    0    0  501 -0.00000000000E+00 -0.00000000000E+00 -0.76205701186E+02  0.76205701186E+02  0.00000000000E+00 0.  1.
         23    2    1    2    0    0 -0.35305238074E+02 -0.67711020110E+02  0.68126340671E+02  0.16161615131E+03  0.12508932805E+03 0.  0.
          5    1    3    3  502    0  0.25861100825E+01 -0.49659963668E+02 -0.27587617318E+02  0.57020601419E+02  0.41800000000E+01 0. -1.
         -5    1    3    3    0  502 -0.37891348157E+02 -0.18051056442E+02  0.95713957989E+02  0.10459554989E+03  0.41800000000E+01 0. -1.
        -11    1    1    2    0    0  0.45699646427E+02  0.85974232049E+02  0.64689690635E+02  0.11689645989E+03  0.00000000000E+00 0.  1.
         11    1    1    2    0    0 -0.10394408353E+02 -0.18263211938E+02  0.29524220172E+02  0.36239042648E+02  0.00000000000E+00 0. -1.
</event>
<event>
 7    1  0.6992302E-006  0.1343074E+03  0.7561462E-02  0.1221201E+00
         -2   -1    0    0    0  501 -0.00000000000E+00  0.00000000000E+00  0.50612780332E+02  0.50612780332E+02  0.00000000000E+00 0.  1.
          2   -1    0    0  501    0  0.00000000000E+00 -0.00000000000E+00 -0.40699588778E+03  0.40699588778E+03  0.00000000000E+00 0. -1.
         23    2    1    2    0    0  0.84255156305E+02 -0.18217872217E+02 -0.13578049130E+03  0.20375253738E+03  0.12509169612E+03 0.  0.
          5    1    3    3  502    0  0.29860928324E+02 -0.66044061839E+02 -0.37848841802E+02  0.81874906842E+02  0.41800000000E+01 0. -1.
         -5    1    3    3    0  502  0.54394227981E+02  0.47826189623E+02 -0.97931649496E+02  0.12187763053E+03  0.41800000000E+01 0. -1.
        -11    1    1    2    0    0  0.18920910939E+02  0.21352746095E+01 -0.53737532284E+02  0.57011250156E+02  0.00000000000E+00 0.  1.
         11    1    1    2    0    0 -0.10317606724E+03  0.16082597607E+02 -0.16686508387E+03  0.19684488058E+03  0.00000000000E+00 0. -1.
</event>
<event>
 7    1  0.6992302E-006  0.1201447E+03  0.7561462E-02  0.1242858E+00
         -3   -1    0    0    0  501 -0.00000000000E+00  0.00000000000E+00  0.36247144070E+02  0.36247144070E+02  0.00000000000E+00 0.  1.
          3   -1    0    0  501    0  0.00000000000E+00 -0.00000000000E+00 -0.41591482985E+03  0.41591482985E+03  0.00000000000E+00 0. -1.
         23    2    1    2    0    0 -0.50537116086E+02  0.84091187392E+01 -0.18926467339E+03  0.23258026348E+03  0.12509096285E+03 0.  0.
          5    1    3    3  502    0  0.34545824892E+02  0.26670598857E+02 -0.92565136928E+02  0.10242319969E+03  0.41800000000E+01 0. -1.
         -5    1    3    3    0  502 -0.85082940978E+02 -0.18261480118E+02 -0.96699536458E+02  0.13015706378E+03  0.41800000000E+01 0. -1.
        -11    1    1    2    0    0  0.79114401918E+02  0.13556425773E+01 -0.13482596591E+03  0.15632967550E+03  0.00000000000E+00 0.  1.
         11    1    1    2    0    0 -0.28577285831E+02 -0.97647613165E+01 -0.55577046482E+02  0.63252034945E+02  0.00000000000E+00 0. -1.
</event>
<event>
 7    1  0.6992302E-006  0.1472571E+03  0.7561462E-02  0.1203885E+00
          2   -1    0    0  501    0  0.00000000000E+00  0.00000000000E+00  0.52052186190E+02  0.52052186190E+02  0.00000000000E+00 0. -1.
         -2   -1    0    0    0  501 -0.00000000000E+00 -0.00000000000E+00 -0.46434476525E+03  0.46434476525E+03  0.00000000000E+00 0.  1.
         23    2    1    2    0    0 -0.59012833619E+02  0.93144500467E+02 -0.20088804839E+03  0.26104081178E+03  0.12501153918E+03 0.  0.
          5    1    3    3  502    0 -0.76524138553E+02  0.10880827063E+03 -0.19562334989E+03  0.23660336211E+03  0.41800000000E+01 0. -1.
         -5    1    3    3    0  502  0.17511304934E+02 -0.15663770162E+02 -0.52646985050E+01  0.24437449673E+02  0.41800000000E+01 0. -1.
        -11    1    1    2    0    0 -0.82103601333E+01 -0.63608177733E+02 -0.13460653691E+03  0.14910509739E+03  0.00000000000E+00 0.  1.
         11    1    1    2    0    0  0.67223193753E+02 -0.29536322734E+02 -0.76797993758E+02  0.10625104227E+03  0.00000000000E+00 0. -1.
</event>
<event>
 7    1  0.6992302E-006  0.2887636E+03  0.7561462E-02  0.1090996E+00
         -1   -1    0    0    0  501 -0.00000000000E+00  0.00000000000E+00  0.61862530039E+02  0.61862530039E+02  0.00000000000E+00 0.  1.
          1   -1    0    0  501    0  0.00000000000E+00 -0.00000000000E+00 -0.14251287215E+04  0.14251287215E+04  0.00000000000E+00 0. -1.
         23    2    1    2    0    0 -0.80371023613E+02  0.26403186902E+03 -0.68854560191E+03  0.75227097128E+03  0.12507693246E+03 0.  0.
          5    1    3    3  502    0  0.23863586667E+02  0.12702765108E+03 -0.25883569207E+03  0.28934215523E+03  0.41800000000E+01 0.  1.
         -5    1    3    3    0  502 -0.10423461028E+03  0.13700421794E+03 -0.42970990984E+03  0.46292881605E+03  0.41800000000E+01 0.  1.
        -11    1    1    2    0    0  0.32201394499E+02 -0.11105760650E+03 -0.17379721825E+03  0.20874911938E+03  0.00000000000E+00 0.  1.
         11    1    1    2    0    0  0.48169629114E+02 -0.15297426252E+03 -0.50092337131E+03  0.52597116088E+03  0.00000000000E+00 0. -1.
</event>
<event>
 7    1  0.6992302E-006  0.7063242E+02  0.7561462E-02  0.1357956E+00
         -2   -1    0    0    0  501 -0.00000000000E+00  0.00000000000E+00  0.18704082597E+03  0.18704082597E+03  0.00000000000E+00 0. -1.
          2   -1    0    0  501    0  0.00000000000E+00 -0.00000000000E+00 -0.34221495422E+02  0.34221495422E+02  0.00000000000E+00 0.  1.
         23    2    1    2    0    0 -0.20574489883E+02 -0.18451196401E+02  0.10401639986E+03  0.15750248465E+03  0.11499506489E+03 0.  0.
          5    1    3    3  502    0 -0.17023219492E+02  0.38989251373E+02  0.87658999087E+02  0.97527043662E+02  0.41800000000E+01 0. -1.
         -5    1    3    3    0  502 -0.35512703908E+01 -0.57440447774E+02  0.16357400774E+02  0.59975440990E+02  0.41800000000E+01 0.  1.
        -11    1    1    2    0    0  0.12764205622E+02 -0.67443117361E+01  0.20468776028E+02  0.25047584276E+02  0.00000000000E+00 0.  1.
         11    1    1    2    0    0  0.78102842603E+01  0.25195508137E+02  0.28334154655E+02  0.38712252461E+02  0.00000000000E+00 0. -1.
</event>
<event>
 7    1  0.6992302E-006  0.1166889E+03  0.7561462E-02  0.1248661E+00
         -2   -1    0    0    0  501 -0.00000000000E+00  0.00000000000E+00  0.31680794424E+03  0.31680794424E+03  0.00000000000E+00 0.  1.
          2   -1    0    0  501    0  0.00000000000E+00 -0.00000000000E+00 -0.46254385813E+02  0.46254385813E+02  0.00000000000E+00 0. -1.
         23    2    1    2    0    0 -0.15014677661E+02 -0.50865331694E+02  0.17289744782E+03  0.21989175787E+03  0.12508451224E+03 0.  0.
          5    1    3    3  502    0 -0.68525129211E+02 -0.40324900665E+02  0.11837971792E+03  0.14266401425E+03  0.41800000000E+01 0. -1.
         -5    1    3    3    0  502  0.53510451550E+02 -0.10540431030E+02  0.54517729900E+02  0.77227743621E+02  0.41800000000E+01 0. -1.
        -11    1    1    2    0    0 -0.32407434186E+02  0.44654944913E+01  0.12045240373E+02  0.34860726430E+02  0.00000000000E+00 0.  1.
         11    1    1    2    0    0  0.47422111847E+02  0.46399837203E+02  0.85610870229E+02  0.10830984575E+03  0.00000000000E+00 0. -1.
</event>
<event>
 7    1  0.6992302E-006  0.9753338E+02  0.7561462E-02  0.1285570E+00
          2   -1    0    0  501    0  0.00000000000E+00  0.00000000000E+00  0.14577784723E+03  0.14577784723E+03  0.00000000000E+00 0. -1.
         -2   -1    0    0    0  501 -0.00000000000E+00 -0.00000000000E+00 -0.27787288567E+03  0.27787288567E+03  0.00000000000E+00 0.  1.
         23    2    1    2    0    0  0.95623614465E+02  0.12747669867E+02 -0.21719200757E+03  0.26856329677E+03  0.12508995757E+03 0.  0.
          5    1    3    3  502    0  0.87817387827E+02  0.14928527807E+02 -0.52221170844E+02  0.10334059044E+03  0.41800000000E+01 0. -1.
         -5    1    3    3    0  502  0.78062266380E+01 -0.21808579393E+01 -0.16497083673E+03  0.16522270633E+03  0.41800000000E+01 0. -1.
        -11    1    1    2    0    0 -0.35021117540E+02 -0.83957295900E+01 -0.14171071573E+02  0.38701243115E+02  0.00000000000E+00 0.  1.
         11    1    1    2    0    0 -0.60602496925E+02 -0.43519402772E+01  0.99268040716E+02  0.11638619302E+03  0.00000000000E+00 0. -1.
</event>
<event>
 7    1  0.6992302E-006  0.7381603E+02  0.7561462E-02  0.1347577E+00
          1   -1    0    0  501    0  0.00000000000E+00  0.00000000000E+00  0.11737685474E+03  0.11737685474E+03  0.00000000000E+00 0. -1.
         -1   -1    0    0    0  501 -0.00000000000E+00 -0.00000000000E+00 -0.11391578302E+03  0.11391578302E+03  0.00000000000E+00 0.  1.
         23    2    1    2    0    0  0.15763007785E+02  0.32636107828E+02 -0.16260164061E+02  0.13124897428E+03  0.12509321470E+03 0.  0.
          5    1    3    3  502    0  0.65510891816E+01  0.43282064477E+02  0.48136773983E+02  0.65198736831E+02  0.41800000000E+01 0. -1.
         -5    1    3    3    0  502  0.92119186031E+01 -0.10645956649E+02 -0.64396938044E+02  0.66050237447E+02  0.41800000000E+01 0. -1.
        -11    1    1    2    0    0  0.28299575180E+02  0.76004105855E+01  0.27107985554E+02  0.39918355142E+02  0.00000000000E+00 0. -1.
         11    1    1    2    0    0 -0.44062582964E+02 -0.40236518413E+02 -0.73867497761E+01  0.60125308347E+02  0.00000000000E+00 0.  1.
</event>
<event>
 7    1  0.6992302E-006  0.1134907E+03  0.7561462E-02  0.1254239E+00
          2   -1    0    0  501    0  0.00000000000E+00  0.00000000000E+00  0.20123008372E+03  0.20123008372E+03  0.00000000000E+00 0. -1.
         -2   -1    0    0    0  501 -0.00000000000E+00 -0.00000000000E+00 -0.71390018441E+02  0.71390018441E+02  0.00000000000E+00 0.  1.
         23    2    1    2    0    0 -0.27214021056E+02  0.33437759580E+02  0.41885623795E+02  0.13877319955E+03  0.12507960955E+03 0.  0.
          5    1    3    3  502    0 -0.77097259926E+01 -0.45005651190E+02 -0.34850666796E+01  0.45984416966E+02  0.41800000000E+01 0. -1.
         -5    1    3    3    0  502 -0.19504295063E+02  0.78443410771E+02  0.45370690475E+02  0.92788782584E+02  0.41800000000E+01 0. -1.
        -11    1    1    2    0    0  0.12013151709E+02 -0.64498903630E+02  0.64905058533E+02  0.92288087025E+02  0.00000000000E+00 0.  1.
         11    1    1    2    0    0  0.15200869347E+02  0.31061144050E+02  0.23049382950E+02  0.41558815587E+02  0.00000000000E+00 0. -1.
</event>
<event>
 6    1  0.6992302E-006  0.2369069E+03  0.7561462E-02  0.1121871E+00
          1   -1    0    0  501    0  0.00000000000E+00  0.00000000000E+00  0.30099134278E+03  0.30099134278E+03  0.00000000000E+00 0. -1.
         -1   -1    0    0    0  501 -0.00000000000E+00 -0.00000000000E+00 -0.24629057484E+03  0.24629057484E+03  0.00000000000E+00 0.  1.
          5    1    1    2  502    0 -0.10166751864E+02  0.26609195946E+02 -0.25003536548E+01  0.28898725245E+02  0.41800000000E+01 0. -1.
         -5    1    1    2    0  502 -0.17865351517E+03 -0.13009718591E+03 -0.94472547180E+02  0.24038488063E+03  0.41800000000E+01 0.  1.
        -11    1    1    2    0    0  0.34264094568E+02  0.49631305901E+02  0.77772515534E+02  0.98416761146E+02  0.00000000000E+00 0.  1.
         11    1    1    2    0    0  0.15455617247E+03  0.53856684060E+02  0.73901153248E+02  0.17958155060E+03  0.00000000000E+00 0. -1.
</event>
<event>
 7    1  0.6992302E-006  0.1947013E+03  0.7561462E-02  0.1154288E+00
         -4   -1    0    0    0  501 -0.00000000000E+00  0.00000000000E+00  0.88288989487E+03  0.88288989487E+03  0.00000000000E+00 0.  1.
          4   -1    0    0  501    0  0.00000000000E+00 -0.00000000000E+00 -0.55962735085E+02  0.55962735085E+02  0.00000000000E+00 0. -1.
         23    2    1    2    0    0  0.71924184548E+02 -0.17815907789E+03  0.48265134374E+03  0.53433878210E+03  0.12510743014E+03 0.  0.
          5    1    3    3  502    0  0.65031415332E+02 -0.10785454052E+03  0.42430555168E+03  0.44262214187E+03  0.41800000000E+01 0. -1.
         -5    1    3    3    0  502  0.68927692162E+01 -0.70304537370E+02  0.58345792069E+02  0.91716640227E+02  0.41800000000E+01 0. -1.
        -11    1    1    2    0    0 -0.41152485247E+02  0.11945103557E+03  0.13457824848E+03  0.18458976652E+03  0.00000000000E+00 0. -1.
         11    1    1    2    0    0 -0.30771699301E+02  0.58708042316E+02  0.20969756756E+03  0.21992408134E+03  0.00000000000E+00 0.  1.
</event>
<event>
 7    1  0.6992302E-006  0.1136634E+03  0.7561462E-02  0.1253932E+00
         -2   -1    0    0    0  501 -0.00000000000E+00  0.00000000000E+00  0.12417397908E+03  0.12417397908E+03  0.00000000000E+00 0.  1.
          2   -1    0    0  501    0  0.00000000000E+00 -0.00000000000E+00 -0.15442847852E+03  0.15442847852E+03  0.00000000000E+00 0. -1.
         23    2    1    2    0    0  0.80259184383E+02 -0.24414732316E+02  0.18346878857E+01  0.15063116778E+03  0.12509503106E+03 0.  0.
          5    1    3    3  502    0 -0.32571430300E+00  0.36717546956E+02  0.27651675528E+02  0.46155951986E+02  0.41800000000E+01 0. -1.
         -5    1    3    3    0  502  0.80584898686E+02 -0.61132279271E+02 -0.25816987642E+02  0.10447521580E+03  0.41800000000E+01 0. -1.
        -11    1    1    2    0    0 -0.30179503998E+02  0.24788137669E+02 -0.59277190273E+02  0.70986192441E+02  0.00000000000E+00 0. -1.
         11    1    1    2    0    0 -0.50079680384E+02 -0.37340535279E+00  0.27188002939E+02  0.56985097374E+02  0.00000000000E+00 0.  1.
</event>
<event>
 7    1  0.6992302E-006  0.1008085E+03  0.7561462E-02  0.1278605E+00
          1   -1    0    0  501    0  0.00000000000E+00  0.00000000000E+00  0.35849806865E+02  0.35849806865E+02  0.00000000000E+00 0. -1.
         -1   -1    0    0    0  501 -0.00000000000E+00 -0.00000000000E+00 -0.32714529731E+03  0.32714529731E+03  0.00000000000E+00 0.  1.
         23    2    1    2    0    0  0.51807601158E+01 -0.37370263867E+01 -0.15548976567E+03  0.19966345216E+03  0.12509045231E+03 0.  0.
          5    1    3    3  502    0  0.58103728636E+02  0.19202965424E+02 -0.49091202814E+02  0.78563450511E+02  0.41800000000E+01 0. -1.
         -5    1    3    3    0  502 -0.52922968520E+02 -0.22939991811E+02 -0.10639856286E+03  0.12110000165E+03  0.41800000000E+01 0. -1.
        -11    1    1    2    0    0 -0.42349231825E+02  0.12702181849E+02 -0.10600340405E+03  0.11485436225E+03  0.00000000000E+00 0.  1.
         11    1    1    2    0    0  0.37168471709E+02 -0.89651554624E+01 -0.29802320728E+02  0.48477289759E+02  0.00000000000E+00 0. -1.
</event>
<event>
 7    1  0.6992302E-006  0.2194997E+03  0.7561462E-02  0.1134257E+00
         -2   -1    0    0    0  501 -0.00000000000E+00  0.00000000000E+00  0.40337278235E+02  0.40337278235E+02  0.00000000000E+00 0.  1.
          2   -1    0    0  501    0  0.00000000000E+00 -0.00000000000E+00 -0.13314188637E+04  0.13314188637E+04  0.00000000000E+00 0. -1.
         23    2    1    2    0    0  0.19426574080E+03 -0.18962935940E+02 -0.48561671774E+03  0.53811714257E+03  0.12509073343E+03 0.  0.
          5    1    3    3  502    0  0.38778554002E+02 -0.56031586946E+02 -0.10459377265E+03  0.12490254066E+03  0.41800000000E+01 0.  1.
         -5    1    3    3    0  502  0.15548718680E+03  0.37068651006E+02 -0.38102294508E+03  0.41321460190E+03  0.41800000000E+01 0.  1.
        -11    1    1    2    0    0 -0.65133130142E+02  0.44911441647E+02 -0.38426991951E+03  0.39232987813E+03  0.00000000000E+00 0. -1.
         11    1    1    2    0    0 -0.12913261066E+03 -0.25948505707E+02 -0.42119494818E+03  0.44130912120E+03  0.00000000000E+00 0.  1.
</event>
<event>
 7    1  0.6992302E-006  0.1871704E+03  0.7561462E-02  0.1161038E+00
          1   -1    0    0  501    0  0.00000000000E+00  0.00000000000E+00  0.46847312267E+03  0.46847312267E+03  0.00000000000E+00 0. -1.
         -1   -1    0    0    0  501 -0.00000000000E+00 -0.00000000000E+00 -0.12621190173E+03  0.12621190173E+03  0.00000000000E+00 0.  1.
         23    2    1    2    0    0 -0.15357899528E+03  0.96198971360E+02  0.29719178986E+02  0.22219297767E+03  0.12508293187E+03 0.  0.
          5    1    3    3  502    0 -0.10574178386E+03  0.87299220273E+02  0.74346633428E+02  0.15603644772E+03  0.41800000000E+01 0.  1.
         -5    1    3    3    0  502 -0.47837211414E+02  0.88997510869E+01 -0.44627454442E+02  0.66156529952E+02  0.41800000000E+01 0.  1.
        -11    1    1    2    0    0  0.67846482377E+02 -0.72662527525E+02  0.23250950394E+03  0.25287083165E+03  0.00000000000E+00 0.  1.
         11    1    1    2    0    0  0.85732512899E+02 -0.23536443835E+02  0.80032538013E+02  0.11962121508E+03  0.00000000000E+00 0. -1.
</event>
<event>
 7    1  0.6992302E-006  0.1562900E+03  0.7561462E-02  0.1192950E+00
         -2   -1    0    0    0  501 -0.00000000000E+00  0.00000000000E+00  0.91465159173E+02  0.91465159173E+02  0.00000000000E+00 0.  1.
          2   -1    0    0  501    0  0.00000000000E+00 -0.00000000000E+00 -0.28818695600E+03  0.28818695600E+03  0.00000000000E+00 0. -1.
         23    2    1    2    0    0 -0.11372109861E+03 -0.32099243421E+02 -0.73186390267E+02  0.18699201387E+03  0.12508763262E+03 0.  0.
          5    1    3    3  502    0 -0.74573516125E+02  0.43790151174E+02 -0.36896142372E+02  0.94114740445E+02  0.41800000000E+01 0.  1.
         -5    1    3    3    0  502 -0.39147582485E+02 -0.75889394595E+02 -0.36290247895E+02  0.92877273424E+02  0.41800000000E+01 0.  1.
        -11    1    1    2    0    0  0.77818051784E+02 -0.17025558587E+02 -0.39513865697E+02  0.88920551118E+02  0.00000000000E+00 0.  1.
         11    1    1    2    0    0  0.35903046826E+02  0.49124802008E+02 -0.84021540865E+02  0.10373955019E+03  0.00000000000E+00 0. -1.
</event>
<event>
 7    1  0.6992302E-006  0.8167291E+02  0.7561462E-02  0.1324370E+00
          2   -1    0    0  501    0  0.00000000000E+00  0.00000000000E+00  0.84896758547E+02  0.84896758547E+02  0.00000000000E+00 0. -1.
         -2   -1    0    0    0  501 -0.00000000000E+00 -0.00000000000E+00 -0.23080982466E+03  0.23080982466E+03  0.00000000000E+00 0.  1.
         23    2    1    2    0    0 -0.48219009268E+02  0.28791253663E+02 -0.14757913228E+03  0.20144569520E+03  0.12508700448E+03 0.  0.
          5    1    3    3  502    0 -0.26084702473E+02  0.10399340855E+02 -0.16508124584E+03  0.16750477045E+03  0.41800000000E+01 0. -1.
         -5    1    3    3    0  502 -0.22134306795E+02  0.18391912808E+02  0.17502113564E+02  0.33940924755E+02  0.41800000000E+01 0. -1.
        -11    1    1    2    0    0  0.48568617109E+02  0.23239999720E+02  0.22311613176E+02  0.58282212015E+02  0.00000000000E+00 0. -1.
         11    1    1    2    0    0 -0.34960784102E+00 -0.52031253383E+02 -0.20645547011E+02  0.55978675990E+02  0.00000000000E+00 0.  1.
</event>
<event>
 7    1  0.6992302E-006  0.1257532E+03  0.7561462E-02  0.1233897E+00
          2   -1    0    0  501    0  0.00000000000E+00  0.00000000000E+00  0.12366317153E+03  0.12366317153E+03  0.00000000000E+00 0. -1.
         -2   -1    0    0    0  501 -0.00000000000E+00 -0.00000000000E+00 -0.13648186984E+03  0.13648186984E+03  0.00000000000E+00 0.  1.
         23    2    1    2    0    0  0.70794715059E+02  0.95307207916E+01 -0.20749256729E+02  0.14553933715E+03  0.12509372760E+03 0.  0.
          5    1    3    3  502    0  0.10202732637E+03 -0.10228957776E+02 -0.30552018530E+02  0.10707523122E+03  0.41800000000E+01 0.  1.
         -5    1    3    3    0  502 -0.31232611313E+02  0.19759678568E+02  0.98027618012E+01  0.38464105936E+02  0.41800000000E+01 0.  1.
        -11    1    1    2    0    0  0.33190342123E+01 -0.33600592445E+02  0.13767294123E+02  0.36463052371E+02  0.00000000000E+00 0. -1.
         11    1    1    2    0    0 -0.74113749272E+02  0.24069871653E+02 -0.58367357057E+01  0.78142651838E+02  0.00000000000E+00 0.  1.
</event>
<event>
 7    1  0.6992302E-006  0.9397011E+02  0.7561462E-02  0.1293513E+00
          2   -1    0    0  501    0  0.00000000000E+00  0.00000000000E+00  0.11453608013E+03  0.11453608013E+03  0.00000000000E+00 0. -1.
         -2   -1    0    0    0  501 -0.00000000000E+00 -0.00000000000E+00 -0.14912274299E+03  0.14912274299E+03  0.00000000000E+00 0.  1.
         23    2    1    2    0    0  0.61712685628E+02  0.32687655625E+02 -0.43321020428E+02  0.14966770160E+03  0.12508705645E+03 0.  0.
          5    1    3    3  502    0  0.12987420770E+02  0.22033733359E+02 -0.82264843693E+02  0.86250422676E+02  0.41800000000E+01 0. -1.
         -5    1    3    3    0  502  0.48725264858E+02  0.10653922266E+02  0.38943823265E+02  0.63417278920E+02  0.41800000000E+01 0. -1.
        -11    1    1    2    0    0 -0.52211840575E+02  0.21860662035E+02 -0.53573312335E+01  0.56856537345E+02  0.00000000000E+00 0.  1.
         11    1    1    2    0    0 -0.95008450524E+01 -0.54548317660E+02  0.14091688794E+02  0.57134584179E+02  0.00000000000E+00 0. -1.
</event>
<event>
 7    1  0.6992302E-006  0.1123468E+03  0.7561462E-02  0.1256285E+00
          2   -1    0    0  501    0  0.00000000000E+00  0.00000000000E+00  0.17068152105E+03  0.17068152105E+03  0.00000000000E+00 0. -1.
         -2   -1    0    0    0  501 -0.00000000000E+00 -0.00000000000E+00 -0.12423185040E+03  0.12423185040E+03  0.00000000000E+00 0.  1.
         23    2    1    2    0    0 -0.94911248179E+02  0.30316532723E+01  0.67014871533E+01  0.15719469085E+03  0.12509166619E+03 0.  0.
          5    1    3    3  502    0 -0.56615395035E+02  0.40499245153E+02 -0.44699502450E+02  0.82831212306E+02  0.41800000000E+01 0.  1.
         -5    1    3    3    0  502 -0.38295853144E+02 -0.37467591881E+02  0.51400989603E+02  0.74363478546E+02  0.41800000000E+01 0.  1.
        -11    1    1    2    0    0  0.41132858043E+02 -0.18730587792E+02  0.62602967991E+02  0.77213201793E+02  0.00000000000E+00 0. -1.
         11    1    1    2    0    0  0.53778390135E+02  0.15698934519E+02 -0.22854784490E+02  0.60505478799E+02  0.00000000000E+00 0.  1.
</event>
<event>
 7    1  0.6992302E-006  0.1438190E+03  0.7561462E-02  0.1208281E+00
          2   -1    0    0  501    0  0.00000000000E+00  0.00000000000E+00  0.83142037737E+03  0.83142037737E+03  0.00000000000E+00 0. -1.
         -2   -1    0    0    0  501 -0.00000000000E+00 -0.00000000000E+00 -0.41458760054E+02  0.41458760054E+02  0.00000000000E+00 0.  1.
         23    2    1    2    0    0  0.97283391773E+02 -0.68299481133E+02  0.19899999432E+03  0.26339591953E+03  0.12509010852E+03 0.  0.
          5    1    3    3  502    0  0.89020663281E+01 -0.54052958290E+02  0.15319565918E+03  0.16274935169E+03  0.41800000000E+01 0. -1.
         -5    1    3    3    0  502  0.88381325445E+02 -0.14246522843E+02  0.45804335140E+02  0.10064656784E+03  0.41800000000E+01 0. -1.
        -11    1    1    2    0    0 -0.10720970907E+02 -0.17932909732E+02  0.39910320435E+02  0.45048442214E+02  0.00000000000E+00 0.  1.
         11    1    1    2    0    0 -0.86562420866E+02  0.86232390866E+02  0.55105130256E+03  0.56443477568E+03  0.00000000000E+00 0. -1.
</event>
<event>
 7    1  0.6992302E-006  0.1485490E+03  0.7561462E-02  0.1202267E+00
          1   -1    0    0  501    0  0.00000000000E+00  0.00000000000E+00  0.93007476231E+02  0.93007476231E+02  0.00000000000E+00 0. -1.
         -1   -1    0    0    0  501 -0.00000000000E+00 -0.00000000000E+00 -0.24709731202E+03  0.24709731202E+03  0.00000000000E+00 0.  1.
         23    2    1    2    0    0 -0.83933279983E+02  0.58632843716E+02 -0.11561610376E+03  0.19874288773E+03  0.12509614752E+03 0.  0.
          5    1    3    3  502    0  0.21996170269E+02 -0.19713782663E+02 -0.21189330074E+02  0.36591321955E+02  0.41800000000E+01 0. -1.
         -5    1    3    3    0  502 -0.10592945025E+03  0.78346626379E+02 -0.94426773688E+02  0.16215156578E+03  0.41800000000E+01 0. -1.
        -11    1    1    2    0    0  0.40270927748E+02 -0.77921217543E+02 -0.31099687277E+02  0.93062636508E+02  0.00000000000E+00 0.  1.
         11    1    1    2    0    0  0.43662352236E+02  0.19288373827E+02 -0.73740447476E+01  0.48299264007E+02  0.00000000000E+00 0. -1.
</event>
<event>
 7    1  0.6992302E-006  0.1121109E+03  0.7561462E-02  0.1256710E+00
          3   -1    0    0  501    0  0.00000000000E+00  0.00000000000E+00  0.17874315259E+03  0.17874315259E+03  0.00000000000E+00 0. -1.
         -3   -1    0    0    0  501 -0.00000000000E+00 -0.00000000000E+00 -0.75581920235E+02  0.75581920235E+02  0.00000000000E+00 0.  1.
         23    2    1    2    0    0  0.22940497497E+02 -0.31278123604E+02  0.43088550125E+02  0.13787056472E+03  0.12508829691E+03 0.  0.
          5    1    3    3  502    0  0.69389588249E+02 -0.44252443802E+02  0.23934714766E+02  0.85811052381E+02  0.41800000000E+01 0.  1.
         -5    1    3    3    0  502 -0.46449090752E+02  0.12974320198E+02  0.19153835359E+02  0.52059512342E+02  0.41800000000E+01 0.  1.
        -11    1    1    2    0    0 -0.49627508233E+02 -0.32912661038E+01  0.11332858133E+02  0.51011328932E+02  0.00000000000E+00 0.  1.
         11    1    1    2    0    0  0.26687010736E+02  0.34569389708E+02  0.48739824099E+02  0.65443179171E+02  0.00000000000E+00 0. -1.
</event>
<event>
 7    1  0.6992302E-006  0.1035723E+03  0.7561462E-02  0.1272958E+00
         -2   -1    0    0    0  501 -0.00000000000E+00  0.00000000000E+00  0.40813074741E+02  0.40813074741E+02  0.00000000000E+00 0.  1.
          2   -1    0    0  501    0  0.00000000000E+00 -0.00000000000E+00 -0.32062677046E+03  0.32062677046E+03  0.00000000000E+00 0. -1.
         23    2    1    2    0    0 -0.25232624766E+02 -0.32135787355E+02 -0.14676161486E+03  0.19711909371E+03  0.12509025273E+03 0.  0.
          5    1    3    3  502    0 -0.46000565559E+02 -0.70754793460E+02 -0.11548615399E+03  0.14309722916E+03  0.41800000000E+01 0.  1.
         -5    1    3    3    0  502  0.20767940793E+02  0.38619006105E+02 -0.31275460865E+02  0.54021864552E+02  0.41800000000E+01 0.  1.
        -11    1    1    2    0    0  0.16894548212E+01  0.49384897812E+02 -0.31363826416E+02  0.58527019376E+02  0.00000000000E+00 0.  1.
         11    1    1    2    0    0  0.23543169945E+02 -0.17249110457E+02 -0.10168825444E+03  0.10579373211E+03  0.00000000000E+00 0. -1.
</event>
<event>
 7    1  0.6992302E-006  0.1046683E+03  0.7561462E-02  0.1270775E+00
          2   -1    0    0  501    0  0.00000000000E+00  0.00000000000E+00  0.20483790063E+03  0.20483790063E+03  0.00000000000E+00 0. -1.
         -2   -1    0    0    0  501 -0.00000000000E+00 -0.00000000000E+00 -0.62177448606E+02  0.62177448606E+02  0.00000000000E+00 0.  1.
         23    2    1    2    0    0 -0.19768050887E+02 -0.31671268034E+01  0.51792827427E+02  0.13686083682E+03  0.12509030799E+03 0.  0.
          5    1    3    3  502    0  0.48800347924E+02 -0.22316240033E+01 -0.27992064076E+01  0.49109694152E+02  0.41800000000E+01 0. -1.
         -5    1    3    3    0  502 -0.68568398811E+02 -0.93550280013E+00  0.54592033835E+02  0.87751142666E+02  0.41800000000E+01 0. -1.
        -11    1    1    2    0    0  0.19913035025E+00  0.45220634693E+02  0.56806451455E+02  0.72607977398E+02  0.00000000000E+00 0. -1.
         11    1    1    2    0    0  0.19568920537E+02 -0.42053507890E+02  0.34061173139E+02  0.57546535017E+02  0.00000000000E+00 0.  1.
</event>
<event>
 7    1  0.6992302E-006  0.8768501E+02  0.7561462E-02  0.1308557E+00
         -2   -1    0    0    0  501 -0.00000000000E+00  0.00000000000E+00  0.24591219404E+03  0.24591219404E+03  0.00000000000E+00 0. -1.
          2   -1    0    0  501    0  0.00000000000E+00 -0.00000000000E+00 -0.59158242569E+02  0.59158242569E+02  0.00000000000E+00 0.  1.
         23    2    1    2    0    0  0.91054314041E+01  0.48500201685E+02  0.12556283458E+03  0.18397985689E+03  0.12508950343E+03 0.  0.
          5    1    3    3  502    0  0.10576073508E+02  0.63639617346E+02  0.14511140833E+03  0.15886046536E+03  0.41800000000E+01 0. -1.
         -5    1    3    3    0  502 -0.14706421036E+01 -0.15139415660E+02 -0.19548573753E+02  0.25119391524E+02  0.41800000000E+01 0. -1.
        -11    1    1    2    0    0  0.33480254885E+02 -0.38843255541E+02  0.74086979127E+01  0.51813268310E+02  0.00000000000E+00 0.  1.
         11    1    1    2    0    0 -0.42585686289E+02 -0.96569461446E+01  0.53782418979E+02  0.69277311415E+02  0.00000000000E+00 0. -1.
</event>
<event>
 6    1  0.6992302E-006  0.4331241E+03  0.7561462E-02  0.1032878E+00
         -4   -1    0    0    0  501 -0.00000000000E+00  0.00000000000E+00  0.25758808462E+03  0.25758808462E+03  0.00000000000E+00 0.  1.
          4   -1    0    0  501    0  0.00000000000E+00 -0.00000000000E+00 -0.93857285035E+03  0.93857285035E+03  0.00000000000E+00 0. -1.
          5    1    1    2  502    0  0.14353637296E+03  0.38603765204E+03 -0.12491587894E+03  0.43040586470E+03  0.41800000000E+01 0. -1.
         -5    1    1    2    0  502  0.35842705072E+02 -0.10717988196E+03 -0.16863973691E+01  0.11310412433E+03  0.41800000000E+01 0.  1.
        -11    1    1    2    0    0 -0.15035305604E+03 -0.16264480076E+03 -0.31639661937E+03  0.38622039489E+03  0.00000000000E+00 0. -1.
         11    1    1    2    0    0 -0.29026021993E+02 -0.11621296931E+03 -0.23798587005E+03  0.26643055105E+03  0.00000000000E+00 0.  1.
</event>
<event>
 7    1  0.6992302E-006  0.1309553E+03  0.7561462E-02  0.1226045E+00
         -1   -1    0    0    0  501 -0.00000000000E+00  0.00000000000E+00  0.14563407418E+04  0.14563407418E+04  0.00000000000E+00 0.  1.
          1   -1    0    0  501    0  0.00000000000E+00 -0.00000000000E+00 -0.15121317607E+02  0.15121317607E+02  0.00000000000E+00 0. -1.
         23    2    1    2    0    0 -0.23384826916E+02 -0.86753607134E+02  0.92123287281E+03  0.93401899325E+03  0.12509370621E+03 0.  0.
          5    1    3    3  502    0 -0.17890736917E+02  0.17759500358E+02  0.46679831779E+02  0.53216138673E+02  0.41800000000E+01 0. -1.
         -5    1    3    3    0  502 -0.54940899997E+01 -0.10451310749E+03  0.87455304103E+03  0.88080285458E+03  0.41800000000E+01 0. -1.
        -11    1    1    2    0    0 -0.22776016397E+02  0.82124797254E+02  0.26809776738E+03  0.28131768896E+03  0.00000000000E+00 0.  1.
         11    1    1    2    0    0  0.46160843313E+02  0.46288098793E+01  0.25188878401E+03  0.25612537720E+03  0.00000000000E+00 0. -1.
</event>
<event>
 7    1  0.6992302E-006  0.2426595E+03  0.7561462E-02  0.1118034E+00
          1   -1    0    0  501    0  0.00000000000E+00  0.00000000000E+00  0.92950030773E+03  0.92950030773E+03  0.00000000000E+00 0. -1.
         -1   -1    0    0    0  501 -0.00000000000E+00 -0.00000000000E+00 -0.11166379078E+03  0.11166379078E+03  0.00000000000E+00 0.  1.
         23    2    1    2    0    0 -0.11218934254E+03  0.20548568694E+03  0.10530904937E+03  0.28556560532E+03  0.12508758110E+03 0.  0.
          5    1    3    3  502    0  0.20272101858E+01  0.28089723597E+02 -0.24711341189E+02  0.37699667588E+02  0.41800000000E+01 0. -1.
         -5    1    3    3    0  502 -0.11421655273E+03  0.17739596334E+03  0.13002039056E+03  0.24786593774E+03  0.41800000000E+01 0. -1.
        -11    1    1    2    0    0  0.88366637918E+02 -0.83655314029E+02  0.43244081423E+03  0.44923482954E+03  0.00000000000E+00 0.  1.
         11    1    1    2    0    0  0.23822704622E+02 -0.12183037291E+03  0.28008665335E+03  0.30636366365E+03  0.00000000000E+00 0. -1.
</event>
<event>
 7    1  0.6992302E-006  0.2226738E+03  0.7561462E-02  0.1131905E+00
         -2   -1    0    0    0  501 -0.00000000000E+00  0.00000000000E+00  0.11191717185E+04  0.11191717185E+04  0.00000000000E+00 0.  1.
          2   -1    0    0  501    0  0.00000000000E+00 -0.00000000000E+00 -0.81441065903E+02  0.81441065903E+02  0.00000000000E+00 0. -1.
         23    2    1    2    0    0  0.15244207686E+03  0.13854411989E+03  0.91096861800E+03  0.94231355689E+03  0.12513175683E+03 0.  0.
          5    1    3    3  502    0  0.93900757788E+02  0.14549628173E+03  0.55283834537E+03  0.57933947632E+03  0.41800000000E+01 0. -1.
         -5    1    3    3    0  502  0.58541319075E+02 -0.69521618398E+01  0.35813027263E+03  0.36297408057E+03  0.41800000000E+01 0. -1.
        -11    1    1    2    0    0 -0.79567649973E+02 -0.36258612664E+02  0.12162690978E+02  0.88281532419E+02  0.00000000000E+00 0.  1.
         11    1    1    2    0    0 -0.72874426891E+02 -0.10228550723E+03  0.11459934360E+03  0.17001769507E+03  0.00000000000E+00 0. -1.
</event>
<event>
 7    1  0.6992302E-006  0.6815708E+02  0.7561462E-02  0.1366475E+00
          1   -1    0    0  501    0  0.00000000000E+00  0.00000000000E+00  0.88641809868E+02  0.88641809868E+02  0.00000000000E+00 0. -1.
         -1   -1    0    0    0  501 -0.00000000000E+00 -0.00000000000E+00 -0.17432865772E+03  0.17432865772E+03  0.00000000000E+00 0.  1.
         23    2    1    2    0    0  0.24535766757E+02  0.51065382013E+02 -0.73132324223E+02  0.15557846357E+03  0.12508654759E+03 0.  0.
          5    1    3    3  502    0  0.37784212674E+01  0.24542154315E+02  0.34505776212E+02  0.42716680555E+02  0.41800000000E+01 0.  1.
         -5    1    3    3    0  502  0.20757345490E+02  0.26523227699E+02 -0.10763810044E+03  0.11286178301E+03  0.41800000000E+01 0.  1.
        -11    1    1    2    0    0 -0.51071588290E+01  0.11017180221E+02  0.28148230993E+02  0.30655900563E+02  0.00000000000E+00 0. -1.
         11    1    1    2    0    0 -0.19428607928E+02 -0.62082562234E+02 -0.40702754618E+02  0.76736103452E+02  0.00000000000E+00 0.  1.
</event>
<event>
 7    1  0.6992302E-006  0.1058959E+03  0.7561462E-02  0.1268364E+00
         -1   -1    0    0    0  501 -0.00000000000E+00  0.00000000000E+00  0.33164235264E+02  0.33164235264E+02  0.00000000000E+00 0.  1.
          1   -1    0    0  501    0  0.00000000000E+00 -0.00000000000E+00 -0.36037190016E+03  0.36037190016E+03  0.00000000000E+00 0. -1.
         23    2    1    2    0    0  0.57373697519E+00  0.21884928091E+02 -0.16792185905E+03  0.21053787564E+03  0.12509663097E+03 0.  0.
          5    1    3    3  502    0 -0.79604984402E+01  0.72956248952E+02 -0.11415740844E+03  0.13577691298E+03  0.41800000000E+01 0. -1.
         -5    1    3    3    0  502  0.85342354154E+01 -0.51071320861E+02 -0.53764450607E+02  0.74760962659E+02  0.41800000000E+01 0. -1.
        -11    1    1    2    0    0 -0.26812820021E+02  0.22348496518E+02 -0.39944694133E+02  0.53046783159E+02  0.00000000000E+00 0.  1.
         11    1    1    2    0    0  0.26239083046E+02 -0.44233424609E+02 -0.11934111172E+03  0.12995147663E+03  0.00000000000E+00 0. -1.
</event>
<event>
 7    1  0.6992302E-006  0.1950148E+03  0.7561462E-02  0.1154015E+00
         -2   -1    0    0    0  501 -0.00000000000E+00  0.00000000000E+00  0.20495514241E+03  0.20495514241E+03  0.00000000000E+00 0.  1.
          2   -1    0    0  501    0  0.00000000000E+00 -0.00000000000E+00 -0.19783682594E+03  0.19783682594E+03  0.00000000000E+00 0. -1.
         23    2    1    2    0    0  0.62877275225E+02  0.15819131099E+03  0.17989120096E+02  0.21201239032E+03  0.12509037771E+03 0.  0.
          5    1    3    3  502    0 -0.35418623103E+02  0.36527535208E+02 -0.12602945261E+02  0.52583707745E+02  0.41800000000E+01 0.  1.
         -5    1    3    3    0  502  0.98295898328E+02  0.12166377578E+03  0.30592065358E+02  0.15942868257E+03  0.41800000000E+01 0.  1.
        -11    1    1    2    0    0 -0.71241019481E+02 -0.94867261107E+02  0.19198466583E+02  0.12018178400E+03  0.00000000000E+00 0.  1.
         11    1    1    2    0    0  0.83637442566E+01 -0.63324049879E+02 -0.30069270211E+02  0.70597794031E+02  0.00000000000E+00 0. -1.
</event>
<event>
 7    1  0.6992302E-006  0.1289882E+03  0.7561462E-02  0.1228965E+00
         -2   -1    0    0    0  501 -0.00000000000E+00  0.00000000000E+00  0.84822867784E+02  0.84822867784E+02  0.00000000000E+00 0.  1.
          2   -1    0    0  501    0  0.00000000000E+00 -0.00000000000E+00 -0.29874986100E+03  0.29874986100E+03  0.00000000000E+00 0. -1.
         23    2    1    2    0    0 -0.10854175412E+03  0.36025460252E+02 -0.91603281008E+02  0.19266030951E+03  0.12509071746E+03 0.  0.
          5    1    3    3  502    0  0.22535663403E+01 -0.12292395817E+02 -0.68213085121E+02  0.69474304156E+02  0.41800000000E+01 0.  1.
         -5    1    3    3    0  502 -0.11079532046E+03  0.48317856069E+02 -0.23390195886E+02  0.12318600535E+03  0.41800000000E+01 0.  1.
        -11    1    1    2    0    0  0.68151387161E+02  0.22776001230E+01 -0.11644106893E+03  0.13493821389E+03  0.00000000000E+00 0. -1.
         11    1    1    2    0    0  0.40390366957E+02 -0.38303060375E+02 -0.58826432802E+01  0.55974205390E+02  0.00000000000E+00 0.  1.
</event>
<event>
 7    1  0.6992302E-006  0.1045687E+03  0.7561462E-02  0.1270972E+00
          2   -1    0    0  501    0  0.00000000000E+00  0.00000000000E+00  0.36695269699E+03  0.36695269699E+03  0.00000000000E+00 0. -1.
         -2   -1    0    0    0  501 -0.00000000000E+00 -0.00000000000E+00 -0.35826358430E+02  0.35826358430E+02  0.00000000000E+00 0.  1.
         23    2    1    2    0    0 -0.19544942335E+02  0.22228328562E+02  0.16262597445E+03  0.20729261434E+03  0.12508763741E+03 0.  0.
          5    1    3    3  502    0 -0.85533914434E-01 -0.47210512695E+02  0.10389416884E+03  0.11419417912E+03  0.41800000000E+01 0.  1.
         -5    1    3    3    0  502 -0.19459408421E+02  0.69438841257E+02  0.58731805609E+02  0.93098435224E+02  0.41800000000E+01 0.  1.
        -11    1    1    2    0    0 -0.19275442342E+02 -0.41801359409E+02  0.44256166292E+02  0.63855341052E+02  0.00000000000E+00 0.  1.
         11    1    1    2    0    0  0.38820384677E+02  0.19573030847E+02  0.12424419782E+03  0.13163110003E+03  0.00000000000E+00 0. -1.
</event>
<event>
 7    1  0.6992302E-006  0.1021895E+03  0.7561462E-02  0.1275758E+00
          1   -1    0    0  501    0  0.00000000000E+00  0.00000000000E+00  0.15591251973E+03  0.15591251973E+03  0.00000000000E+00 0. -1.
         -1   -1    0    0    0  501 -0.00000000000E+00 -0.00000000000E+00 -0.95536181511E+02  0.95536181511E+02  0.00000000000E+00 0.  1.
         23    2    1    2    0    0 -0.13536111738E+01 -0.49851586632E+02  0.12837656245E+02  0.13527672270E+03  0.12509185958E+03 0.  0.
          5    1    3    3  502    0 -0.20056751368E+01  0.41550124938E+02 -0.48332084661E+01  0.42086433909E+02  0.41800000000E+01 0. -1.
         -5    1    3    3    0  502  0.65206396305E+00 -0.91401711570E+02  0.17670864711E+02  0.93190288791E+02  0.41800000000E+01 0. -1.
        -11    1    1    2    0    0 -0.14726306524E+02  0.52719663010E+02  0.69710783812E+02  0.88633065791E+02  0.00000000000E+00 0. -1.
         11    1    1    2    0    0  0.16079917697E+02 -0.28680763775E+01 -0.22172101840E+02  0.27538912747E+02  0.00000000000E+00 0.  1.
</event>
<event>
 7    1  0.6992302E-006  0.8675735E+02  0.7561462E-02  0.1310900E+00
          1   -1    0    0  501    0  0.00000000000E+00  0.00000000000E+00  0.23536188863E+03  0.23536188863E+03  0.00000000000E+00 0. -1.
         -1   -1    0    0    0  501 -0.00000000000E+00 -0.00000000000E+00 -0.56022668089E+02  0.56022668089E+02  0.00000000000E+00 0.  1.
         23    2    1    2    0    0  0.48328636607E+01 -0.60371571622E+01  0.53773237285E+02  0.13637588802E+03  0.12508804078E+03 0.  0.
          5    1    3    3  502    0  0.25460881756E+02 -0.43567547007E+02  0.73328153564E+02  0.89111605065E+02  0.41800000000E+01 0.  1.
         -5    1    3    3    0  502 -0.20628018096E+02  0.37530389845E+02 -0.19554916279E+02  0.47264282954E+02  0.41800000000E+01 0.  1.
        -11    1    1    2    0    0 -0.73770628539E+01  0.42582639396E+02  0.29855310131E+02  0.52526581626E+02  0.00000000000E+00 0.  1.
         11    1    1    2    0    0  0.25441991933E+01 -0.36545482234E+02  0.95710673126E+02  0.10248208708E+03  0.00000000000E+00 0. -1.
</event>
<event>
 6    1  0.6992302E-006  0.8261130E+02  0.7561462E-02  0.1321800E+00
         -1   -1    0    0    0  501 -0.00000000000E+00  0.00000000000E+00  0.27213167321E+02  0.27213167321E+02  0.00000000000E+00 0.  1.
          1   -1    0    0  501    0  0.00000000000E+00 -0.00000000000E+00 -0.62604913638E+03  0.62604913638E+03  0.00000000000E+00 0. -1.
          5    1    1    2  502    0 -0.44070344188E+02  0.12005598045E+01 -0.34886806297E+03  0.35166750538E+03  0.41800000000E+01 0. -1.
         -5    1    1    2    0  502 -0.12568115226E+02 -0.46377531396E+01  0.12059792554E+02  0.18503439436E+02  0.41800000000E+01 0.  1.
        -11    1    1    2    0    0  0.24999944826E+02 -0.43575319861E+02 -0.11351847481E+03  0.12413802748E+03  0.00000000000E+00 0.  1.
         11    1    1    2    0    0  0.31638514588E+02  0.47012513196E+02 -0.14850922384E+03  0.15895333141E+03  0.00000000000E+00 0. -1.
</event>
<event>
 7    1  0.6992302E-006  0.1098634E+03  0.7561462E-02  0.1260823E+00
         -1   -1    0    0    0  501 -0.00000000000E+00  0.00000000000E+00  0.75149306977E+02  0.75149306977E+02  0.00000000000E+00 0.  1.
          1   -1    0    0  501    0  0.00000000000E+00 -0.00000000000E+00 -0.20641346744E+03  0.20641346744E+03  0.00000000000E+00 0. -1.
         23    2    1    2    0    0 -0.67990302734E+02 -0.39411595196E+02 -0.74194637162E+02  0.16531676820E+03  0.12509530192E+03 0.  0.
          5    1    3    3  502    0  0.26601372294E+02 -0.36159620228E+02 -0.16720559624E+00  0.45084936517E+02  0.41800000000E+01 0. -1.
         -5    1    3    3    0  502 -0.94591675028E+02 -0.32519749675E+01 -0.74027431566E+02  0.12023183168E+03  0.41800000000E+01 0. -1.
        -11    1    1    2    0    0  0.15361244980E+02  0.16374778305E+02 -0.54266248816E+02  0.58727565695E+02  0.00000000000E+00 0. -1.
         11    1    1    2    0    0  0.52629057754E+02  0.23036816891E+02 -0.28032744871E+01  0.57518440525E+02  0.00000000000E+00 0.  1.
</event>
<event>
 7    1  0.6992302E-006  0.9322648E+02  0.7561462E-02  0.1295221E+00
         -1   -1    0    0    0  501 -0.00000000000E+00  0.00000000000E+00  0.19176244058E+02  0.19176244058E+02  0.00000000000E+00 0. -1.
          1   -1    0    0  501    0  0.00000000000E+00 -0.00000000000E+00 -0.72041529338E+03  0.72041529338E+03  0.00000000000E+00 0.  1.
         23    2    1    2    0    0  0.21285818071E+01  0.48014292917E+02 -0.39097925126E+03  0.41330443682E+03  0.12508348972E+03 0.  0.
          5    1    3    3  502    0  0.28447397822E+02 -0.14154912954E+02 -0.23727827214E+02  0.39876035257E+02  0.41800000000E+01 0. -1.
         -5    1    3    3    0  502 -0.26318816015E+02  0.62169205871E+02 -0.36725142404E+03  0.37342840157E+03  0.41800000000E+01 0. -1.
        -11    1    1    2    0    0 -0.21679633532E+02 -0.60024369962E+02 -0.28543427469E+03  0.29248189118E+03  0.00000000000E+00 0.  1.
         11    1    1    2    0    0  0.19551051725E+02  0.12010077046E+02 -0.24825523374E+02  0.33805209435E+02  0.00000000000E+00 0. -1.
</event>
<event>
 7    1  0.6992302E-006  0.9430674E+02  0.7561462E-02  0.1292745E+00
          1   -1    0    0  501    0  0.00000000000E+00  0.00000000000E+00  0.95701934213E+02  0.95701934213E+02  0.00000000000E+00 0. -1.
         -1   -1    0    0    0  501 -0.00000000000E+00 -0.00000000000E+00 -0.15651866145E+03  0.15651866145E+03  0.00000000000E+00 0.  1.
         23    2    1    2    0    0 -0.36893618705E+02 -0.39393749373E+02 -0.62719027419E+02  0.14998023096E+03  0.12508951470E+03 0.  0.
          5    1    3    3  502    0  0.40211965661E+02  0.72023161279E+01 -0.39209928262E+02  0.56778221302E+02  0.41800000000E+01 0.  1.
         -5    1    3    3    0  502 -0.77105584366E+02 -0.46596065501E+02 -0.23509099157E+02  0.93202009655E+02  0.41800000000E+01 0.  1.
        -11    1    1    2    0    0  0.10573609666E+02  0.74440692759E+00 -0.38815454305E+02  0.40236735156E+02  0.00000000000E+00 0.  1.
         11    1    1    2    0    0  0.26320009039E+02  0.38649342446E+02  0.40717754485E+02  0.62003629552E+02  0.00000000000E+00 0. -1.
</event>
<event>
 7    1  0.6992302E-006  0.1524847E+03  0.7561462E-02  0.1197453E+00
         -1   -1    0    0    0  501 -0.00000000000E+00  0.00000000000E+00  0.49587225549E+02  0.49587225549E+02  0.00000000000E+00 0.  1.
          1   -1    0    0  501    0  0.00000000000E+00 -0.00000000000E+00 -0.52453394507E+03  0.52453394507E+03  0.00000000000E+00 0. -1.
         23    2    1    2    0    0  0.58663700652E+01 -0.12229964453E+02 -0.12301770903E+03  0.17596577562E+03  0.12508641464E+03 0.  0.
          5    1    3    3  502    0  0.58411469441E+02  0.13953312263E+02 -0.33674019678E+02  0.68978305913E+02  0.41800000000E+01 0.  1.
         -5    1    3    3    0  502 -0.52545099375E+02 -0.26183276716E+02 -0.89343689347E+02  0.10698746971E+03  0.41800000000E+01 0.  1.
        -11    1    1    2    0    0  0.53291269929E+02 -0.67897626642E+02 -0.17461359694E+03  0.19478181484E+03  0.00000000000E+00 0.  1.
         11    1    1    2    0    0 -0.59157639994E+02  0.80127591095E+02 -0.17731541355E+03  0.20337358016E+03  0.00000000000E+00 0. -1.
</event>
<event>
 7    1  0.6992302E-006  0.9991138E+02  0.7561462E-02  0.1280482E+00
         -1   -1    0    0    0  501 -0.00000000000E+00  0.00000000000E+00  0.19570400503E+02  0.19570400503E+02  0.00000000000E+00 0.  1.
          1   -1    0    0  501    0  0.00000000000E+00 -0.00000000000E+00 -0.76143871498E+03  0.76143871498E+03  0.00000000000E+00 0. -1.
         23    2    1    2    0    0 -0.45437379405E+02  0.28734536235E+02 -0.39639069789E+03  0.41912241783E+03  0.12509111374E+03 0.  0.
          5    1    3    3  502    0  0.21543561589E+02  0.16309392203E+02 -0.29871370468E+03  0.29996244946E+03  0.41800000000E+01 0.  1.
         -5    1    3    3    0  502 -0.66980940994E+02  0.12425144032E+02 -0.97676993207E+02  0.11915996837E+03  0.41800000000E+01 0.  1.
        -11    1    1    2    0    0  0.38011861813E+02  0.27873198055E+02 -0.11169418646E+03  0.12123286723E+03  0.00000000000E+00 0.  1.
         11    1    1    2    0    0  0.74255175916E+01 -0.56607734290E+02 -0.23378343013E+03  0.24065383042E+03  0.00000000000E+00 0. -1.
</event>
<event>
 7    1  0.6992302E-006  0.1036383E+03  0.7561462E-02  0.1272826E+00
         -1   -1    0    0    0  501 -0.00000000000E+00  0.00000000000E+00  0.62859331970E+03  0.62859331970E+03  0.00000000000E+00 0.  1.
          1   -1    0    0  501    0  0.00000000000E+00 -0.00000000000E+00 -0.18687990723E+02  0.18687990723E+02  0.00000000000E+00 0. -1.
         23    2    1    2    0    0  0.83676960916E+01 -0.83412789730E+01  0.32574446153E+03  0.34913651584E+03  0.12508899712E+03 0.  0.
          5    1    3    3  502    0 -0.30110144055E+01 -0.64781933521E+02  0.13463542193E+03  0.14949894434E+03  0.41800000000E+01 0.  1.
         -5    1    3    3    0  502  0.11378710497E+02  0.56440654548E+02  0.19110903960E+03  0.19963757150E+03  0.41800000000E+01 0.  1.
        -11    1    1    2    0    0  0.29341371758E+02 -0.21581423050E+02  0.73200657277E+02  0.81761911323E+02  0.00000000000E+00 0.  1.
         11    1    1    2    0    0 -0.37709067849E+02  0.29922702023E+02  0.21096021017E+03  0.21638288326E+03  0.00000000000E+00 0. -1.
</event>
<event>
 7    1  0.6992302E-006  0.1526420E+03  0.7561462E-02  0.1197264E+00
          1   -1    0    0  501    0  0.00000000000E+00  0.00000000000E+00  0.18985043024E+03  0.18985043024E+03  0.00000000000E+00 0. -1.
         -1   -1    0    0    0  501 -0.00000000000E+00 -0.00000000000E+00 -0.14057395382E+03  0.14057395382E+03  0.00000000000E+00 0.  1.
         23    2    1    2    0    0 -0.95268095154E+02  0.78449612802E+02  0.28844350913E+02  0.17807043753E+03  0.12508689955E+03 0.  0.
          5    1    3    3  502    0  0.58953612306E+01  0.70758553263E+02  0.28238376383E+02  0.76527161483E+02  0.41800000000E+01 0. -1.
         -5    1    3    3    0  502 -0.10116345638E+03  0.76910595389E+01  0.60597453084E+00  0.10154327604E+03  0.41800000000E+01 0. -1.
        -11    1    1    2    0    0  0.94456890461E+02 -0.55304088138E+02 -0.14530489188E+02  0.11041640021E+03  0.00000000000E+00 0.  1.
         11    1    1    2    0    0  0.81120469351E+00 -0.23145524664E+02  0.34962614694E+02  0.41937546319E+02  0.00000000000E+00 0. -1.
</event>
<event>
 7    1  0.6992302E-006  0.3598438E+03  0.7561462E-02  0.1058646E+00
          2   -1    0    0  501    0  0.00000000000E+00  0.00000000000E+00  0.23409639414E+03  0.23409639414E+03  0.00000000000E+00 0. -1.
         -2   -1    0    0    0  501 -0.00000000000E+00 -0.00000000000E+00 -0.62576550709E+03  0.62576550709E+03  0.00000000000E+00 0.  1.
         23    2    1    2    0    0  0.26379245275E+03  0.23853562901E+03 -0.29911913802E+03  0.48125431954E+03  0.12509099451E+03 0.  0.
          5    1    3    3  502    0  0.76313006677E+02  0.67867979933E+02 -0.16581632313E+03  0.19478773859E+03  0.41800000000E+01 0.  1.
         -5    1    3    3    0  502  0.18747944608E+03  0.17066764907E+03 -0.13330281489E+03  0.28646658095E+03  0.41800000000E+01 0.  1.
        -11    1    1    2    0    0 -0.16613938560E+03 -0.98344528860E+02 -0.73972290206E+02  0.20675067478E+03  0.00000000000E+00 0.  1.
         11    1    1    2    0    0 -0.97653067155E+02 -0.14019110015E+03 -0.18577684724E+02  0.17185690692E+03  0.00000000000E+00 0. -1.
</event>
<event>
 7    1  0.6992302E-006  0.9672689E+02  0.7561462E-02  0.1287333E+00
          1   -1    0    0  501    0  0.00000000000E+00  0.00000000000E+00  0.11945915104E+03  0.11945915104E+03  0.00000000000E+00 0. -1.
         -1   -1    0    0    0  501 -0.00000000000E+00 -0.00000000000E+00 -0.15173565307E+03  0.15173565307E+03  0.00000000000E+00 0.  1.
         23    2    1    2    0    0  0.75915096832E+02  0.58584300176E+01 -0.39228832673E+02  0.15160500876E+03  0.12509098385E+03 0.  0.
          5    1    3    3  502    0  0.12468142744E+02 -0.26437600379E+02  0.36920025292E+02  0.47275384344E+02  0.41800000000E+01 0. -1.
         -5    1    3    3    0  502  0.63446954088E+02  0.32296030397E+02 -0.76148857965E+02  0.10432962442E+03  0.41800000000E+01 0. -1.
        -11    1    1    2    0    0 -0.75205910789E+02 -0.20501059770E+02 -0.27091485134E+02  0.82523760433E+02  0.00000000000E+00 0.  1.
         11    1    1    2    0    0 -0.70918604299E+00  0.14642629752E+02  0.34043815783E+02  0.37066034911E+02  0.00000000000E+00 0. -1.
</event>
<event>
 7    1  0.6992302E-006  0.7977602E+02  0.7561462E-02  0.1329688E+00
         -2   -1    0    0    0  501 -0.00000000000E+00  0.00000000000E+00  0.48652314278E+02  0.48652314278E+02  0.00000000000E+00 0.  1.
          2   -1    0    0  501    0  0.00000000000E+00 -0.00000000000E+00 -0.21964611031E+03  0.21964611031E+03  0.00000000000E+00 0. -1.
         23    2    1    2    0    0 -0.61572031819E+00  0.51194062697E+01 -0.94362591147E+02  0.15677532472E+03  0.12509043289E+03 0.  0.
          5    1    3    3  502    0 -0.26262288955E+02 -0.46488863098E+02 -0.81592898649E+02  0.97600183008E+02  0.41800000000E+01 0. -1.
         -5    1    3    3    0  502  0.25646568637E+02  0.51608269368E+02 -0.12769692498E+02  0.59175141711E+02  0.41800000000E+01 0. -1.
        -11    1    1    2    0    0  0.10033528703E+02  0.19458617852E+02  0.76783209634E+01  0.23200562919E+02  0.00000000000E+00 0.  1.
         11    1    1    2    0    0 -0.94178083850E+01 -0.24578024122E+02 -0.84309525849E+02  0.88322536950E+02  0.00000000000E+00 0. -1.
</event>
<event>
 7    1  0.6992302E-006  0.1201326E+03  0.7561462E-02  0.1242878E+00
         -1   -1    0    0    0  501 -0.00000000000E+00  0.00000000000E+00  0.12991102946E+03  0.12991102946E+03  0.00000000000E+00 0.  1.
          1   -1    0    0  501    0  0.00000000000E+00 -0.00000000000E+00 -0.15661260630E+03  0.15661260630E+03  0.00000000000E+00 0. -1.
         23    2    1    2    0    0  0.20781588582E+02  0.49008753002E+02  0.62044589141E+02  0.14943711591E+03  0.12509271872E+03 0.  0.
          5    1    3    3  502    0 -0.35920245584E+02 -0.23902820107E+02  0.22997974416E+02  0.49071255120E+02  0.41800000000E+01 0.  1.
         -5    1    3    3    0  502  0.56701834166E+02  0.72911573109E+02  0.39046614725E+02  0.10036586079E+03  0.41800000000E+01 0.  1.
        -11    1    1    2    0    0 -0.47321333115E+02  0.15607943786E+01 -0.38710114167E+02  0.61157318333E+02  0.00000000000E+00 0.  1.
         11    1    1    2    0    0  0.26539744533E+02 -0.50569547381E+02 -0.50036051814E+02  0.75929201519E+02  0.00000000000E+00 0. -1.
</event>
<event>
 7    1  0.6992302E-006  0.1199902E+03  0.7561462E-02  0.1243113E+00
         -2   -1    0    0    0  501 -0.00000000000E+00  0.00000000000E+00  0.56040891862E+02  0.56040891862E+02  0.00000000000E+00 0.  1.
          2   -1    0    0  501    0  0.00000000000E+00 -0.00000000000E+00 -0.51721158084E+03  0.51721158084E+03  0.00000000000E+00 0. -1.
         23    2    1    2    0    0  0.10596912671E+03 -0.20848679233E+02 -0.11870677281E+03  0.20347640440E+03  0.12508887237E+03 0.  0.
          5    1    3    3  502    0 -0.83447577693E+01 -0.14586573919E+02 -0.81057966017E+02  0.82887088113E+02  0.41800000000E+01 0.  1.
         -5    1    3    3    0  502  0.11431388448E+03 -0.62621053139E+01 -0.37648806798E+02  0.12058931628E+03  0.41800000000E+01 0.  1.
        -11    1    1    2    0    0 -0.72760923112E+02  0.16520182339E+02 -0.32199561268E+03  0.33052721967E+03  0.00000000000E+00 0.  1.
         11    1    1    2    0    0 -0.33208203601E+02  0.43284968945E+01 -0.20468303482E+02  0.39248848636E+02  0.00000000000E+00 0. -1.
</event>
<event>
 7    1  0.6992302E-006  0.1583308E+03  0.7561462E-02  0.1190594E+00
          2   -1    0    0  501    0  0.00000000000E+00  0.00000000000E+00  0.47061591430E+03  0.47061591430E+03  0.00000000000E+00 0. -1.
         -2   -1    0    0    0  501 -0.00000000000E+00 -0.00000000000E+00 -0.10738650593E+03  0.10738650593E+03  0.00000000000E+00 0.  1.
         23    2    1    2    0    0 -0.21764833435E+02  0.13735902481E+03  0.10042514507E+02  0.18732182649E+03  0.12508958753E+03 0.  0.
          5    1    3    3  502    0 -0.60663957924E+02  0.49640956673E+02 -0.28944287799E+02  0.83663519927E+02  0.41800000000E+01 0. -1.
         -5    1    3    3    0  502  0.38899124489E+02  0.87718068142E+02  0.38986802306E+02  0.10365830656E+03  0.41800000000E+01 0. -1.
        -11    1    1    2    0    0 -0.67222125213E+01 -0.43941220745E+02  0.22595575704E+03  0.23028682802E+03  0.00000000000E+00 0.  1.
         11    1    1    2    0    0  0.28487045957E+02 -0.93417804070E+02  0.12723113683E+03  0.16039376573E+03  0.00000000000E+00 0. -1.
</event>
<event>
 7    1  0.6992302E-006  0.2436064E+03  0.7561462E-02  0.1117413E+00
         -2   -1    0    0    0  501 -0.00000000000E+00  0.00000000000E+00  0.89032982591E+02  0.89032982591E+02  0.00000000000E+00 0.  1.
          2   -1    0    0  501    0  0.00000000000E+00 -0.00000000000E+00 -0.16381262068E+04  0.16381262068E+04  0.00000000000E+00 0. -1.
         23    2    1    2    0    0  0.21827959299E+03  0.97230026268E+02 -0.15506987838E+03  0.30989599511E+03  0.12202131732E+03 0.  0.
          5    1    3    3  502    0  0.48758324143E+02  0.19019211569E+02  0.17785865823E+02  0.55433870558E+02  0.41800000000E+01 0. -1.
         -5    1    3    3    0  502  0.16952126884E+03  0.78210814699E+02 -0.17285574420E+03  0.25446212455E+03  0.41800000000E+01 0.  1.
        -11    1    1    2    0    0 -0.92857525427E+01  0.95135668014E+01 -0.25428056086E+02  0.28693539166E+02  0.00000000000E+00 0.  1.
         11    1    1    2    0    0 -0.20899384044E+03 -0.10674359307E+03 -0.13685952897E+04  0.13885696551E+04  0.00000000000E+00 0. -1.
</event>
<event>
 7    1  0.6992302E-006  0.1113891E+03  0.7561462E-02  0.1258019E+00
         -1   -1    0    0    0  501 -0.00000000000E+00  0.00000000000E+00  0.12169531332E+03  0.12169531332E+03  0.00000000000E+00 0.  1.
          1   -1    0    0  501    0  0.00000000000E+00 -0.00000000000E+00 -0.12356023365E+03  0.12356023365E+03  0.00000000000E+00 0. -1.
         23    2    1    2    0    0  0.15204601732E+02 -0.55632989009E+02  0.44244978402E+01  0.13781668751E+03  0.12509058236E+03 0.  0.
          5    1    3    3  502    0  0.11206402984E+02 -0.86586605380E+02 -0.28809063271E+02  0.92034005811E+02  0.41800000000E+01 0. -1.
         -5    1    3    3    0  502  0.39981987481E+01  0.30953616371E+02  0.33233561111E+02  0.45782681702E+02  0.41800000000E+01 0. -1.
        -11    1    1    2    0    0  0.18010565826E+02 -0.16525890302E+02  0.98951387626E+01  0.26370424774E+02  0.00000000000E+00 0.  1.
         11    1    1    2    0    0 -0.33215167559E+02  0.72158879310E+02 -0.16184556939E+02  0.81068434687E+02  0.00000000000E+00 0. -1.
</event>
<event>
 6    1  0.6992302E-006  0.1312611E+03  0.7561462E-02  0.1225596E+00
          2   -1    0    0  501    0  0.00000000000E+00  0.00000000000E+00  0.50335761853E+03  0.50335761853E+03  0.00000000000E+00 0. -1.
         -2   -1    0    0    0  501 -0.00000000000E+00 -0.00000000000E+00 -0.37239107761E+02  0.37239107761E+02  0.00000000000E+00 0.  1.
          5    1    1    2  502    0  0.23765951445E+02  0.57210083059E+02  0.18006069307E+03  0.19046558650E+03  0.41800000000E+01 0. -1.
         -5    1    1    2    0  502 -0.66421333200E+02 -0.74992542170E+02  0.12203973153E+03  0.15794569750E+03  0.41800000000E+01 0.  1.
        -11    1    1    2    0    0  0.89774195571E+01  0.51637886163E+02  0.85525300867E+02  0.10030773867E+03  0.00000000000E+00 0. -1.
         11    1    1    2    0    0  0.33677962198E+02 -0.33855427052E+02  0.78492785295E+02  0.91877703617E+02  0.00000000000E+00 0.  1.
</event>
<event>
 7    1  0.6992302E-006  0.8504853E+02  0.7561462E-02  0.1315306E+00
         -1   -1    0    0    0  501 -0.00000000000E+00  0.00000000000E+00  0.19981397500E+02  0.19981397500E+02  0.00000000000E+00 0. -1.
          1   -1    0    0  501    0  0.00000000000E+00 -0.00000000000E+00 -0.77435653243E+03  0.77435653243E+03  0.00000000000E+00 0.  1.
         23    2    1    2    0    0  0.33330878844E+02  0.47645244235E+02 -0.37608429886E+03  0.40058285989E+03  0.12508481526E+03 0.  0.
          5    1    3    3  502    0  0.34357749568E+02  0.40031782816E+02 -0.38469008351E+03  0.38831292966E+03  0.41800000000E+01 0.  1.
         -5    1    3    3    0  502 -0.10268707246E+01  0.76134614183E+01  0.86057846551E+01  0.12269930227E+02  0.41800000000E+01 0.  1.
        -11    1    1    2    0    0  0.62277631910E+01 -0.64954097459E+02 -0.20327608194E+03  0.21349235419E+03  0.00000000000E+00 0. -1.
         11    1    1    2    0    0 -0.39558642035E+02  0.17308853224E+02 -0.17501475414E+03  0.18026271585E+03  0.00000000000E+00 0.  1.
</event>
<event>
 7    1  0.6992302E-006  0.2959490E+03  0.7561462E-02  0.1087283E+00
         -3   -1    0    0    0  501 -0.00000000000E+00  0.00000000000E+00  0.83450084852E+03  0.83450084852E+03  0.00000000000E+00 0.  1.
          3   -1    0    0  501    0  0.00000000000E+00 -0.00000000000E+00 -0.11941398642E+03  0.11941398642E+03  0.00000000000E+00 0. -1.
         23    2    1    2    0    0  0.39450701593E+02 -0.27599501489E+03  0.51517213555E+03  0.59898416519E+03  0.12510033892E+03 0.  0.
          5    1    3    3  502    0 -0.34108678160E+02 -0.22442948817E+02  0.81600096354E+02  0.91340768567E+02  0.41800000000E+01 0. -1.
         -5    1    3    3    0  502  0.73559379753E+02 -0.25355206607E+03  0.43357203920E+03  0.50764339662E+03  0.41800000000E+01 0. -1.
        -11    1    1    2    0    0 -0.12730351567E+01  0.21402363569E+03  0.11457294139E+03  0.24276469297E+03  0.00000000000E+00 0. -1.
         11    1    1    2    0    0 -0.38177666436E+02  0.61971379201E+02  0.85341785154E+02  0.11216597678E+03  0.00000000000E+00 0.  1.
</event>
<event>
 7    1  0.6992302E-006  0.1012310E+03  0.7561462E-02  0.1277729E+00
          1   -1    0    0  501    0  0.00000000000E+00  0.00000000000E+00  0.21445281681E+02  0.21445281681E+02  0.00000000000E+00 0. -1.
         -1   -1    0    0    0  501 -0.00000000000E+00 -0.00000000000E+00 -0.87125515156E+03  0.87125515156E+03  0.00000000000E+00 0.  1.
         23    2    1    2    0    0 -0.65218979177E+02 -0.49878632722E+02 -0.52037185873E+03  0.54145696541E+03  0.12508949111E+03 0.  0.
          5    1    3    3  502    0 -0.56714438474E+02  0.61915207238E+01 -0.85430066844E+02  0.10281357489E+03  0.41800000000E+01 0.  1.
         -5    1    3    3    0  502 -0.85045407030E+01 -0.56070153446E+02 -0.43494179188E+03  0.43864339052E+03  0.41800000000E+01 0.  1.
        -11    1    1    2    0    0  0.30692637139E+01  0.18532715887E+02 -0.50232212636E+01  0.19445171374E+02  0.00000000000E+00 0. -1.
         11    1    1    2    0    0  0.62149715463E+02  0.31345916835E+02 -0.32441478989E+03  0.33179829646E+03  0.00000000000E+00 0.  1.
</event>
<event>
 7    1  0.6992302E-006  0.8835500E+02  0.7561462E-02  0.1306885E+00
          2   -1    0    0  501    0  0.00000000000E+00  0.00000000000E+00  0.68001782866E+03  0.68001782866E+03  0.00000000000E+00 0. -1.
         -2   -1    0    0    0  501 -0.00000000000E+00 -0.00000000000E+00 -0.20445869115E+02  0.20445869115E+02  0.00000000000E+00 0.  1.
         23    2    1    2    0    0 -0.50688481354E+02  0.10015476762E+02  0.33502445126E+03  0.36133387447E+03  0.12510457219E+03 0.  0.
          5    1    3    3  502    0  0.12153816103E+02 -0.46749860325E+01  0.26744894679E+03  0.26779839858E+03  0.41800000000E+01 0.  1.
         -5    1    3    3    0  502 -0.62842297458E+02  0.14690462794E+02  0.67575504471E+02  0.93535475897E+02  0.41800000000E+01 0.  1.
        -11    1    1    2    0    0  0.30587999109E+02  0.36539761938E+02  0.15430160407E+03  0.16149230604E+03  0.00000000000E+00 0. -1.
         11    1    1    2    0    0  0.20100482245E+02 -0.46555238700E+02  0.17024590421E+03  0.17763751726E+03  0.00000000000E+00 0.  1.
</event>
<event>
 6    1  0.6992302E-006  0.2601977E+03  0.7561462E-02  0.1107024E+00
          1   -1    0    0  501    0  0.00000000000E+00  0.00000000000E+00  0.14652961724E+04  0.14652961724E+04  0.00000000000E+00 0. -1.
         -1   -1    0    0    0  501 -0.00000000000E+00 -0.00000000000E+00 -0.66537452847E+02  0.66537452847E+02  0.00000000000E+00 0.  1.
          5    1    1    2  502    0  0.16033580875E+03  0.59263065947E+02  0.76442641148E+03  0.78331659852E+03  0.41800000000E+01 0. -1.
         -5    1    1    2    0  502  0.48524202051E+02 -0.11660237101E+03  0.89146686768E+02  0.15464577353E+03  0.41800000000E+01 0.  1.
        -11    1    1    2    0    0 -0.56553466663E+01  0.14232424179E+02  0.67150986015E+01  0.16722362068E+02  0.00000000000E+00 0. -1.
         11    1    1    2    0    0 -0.20320466414E+03  0.43106880884E+02  0.53847052274E+03  0.57714889116E+03  0.00000000000E+00 0.  1.
</event>
<event>
 7    1  0.6992302E-006  0.7189055E+02  0.7561462E-02  0.1353780E+00
          2   -1    0    0  501    0  0.00000000000E+00  0.00000000000E+00  0.23132087896E+02  0.23132087896E+02  0.00000000000E+00 0.  1.
         -2   -1    0    0    0  501 -0.00000000000E+00 -0.00000000000E+00 -0.65514942725E+03  0.65514942725E+03  0.00000000000E+00 0. -1.
         23    2    1    2    0    0 -0.59578709794E+02 -0.74141034283E+01 -0.35680806688E+03  0.38283642585E+03  0.12508853176E+03 0.  0.
          5    1    3    3  502    0 -0.49195911130E+02  0.15889442313E+02 -0.41381402999E+02  0.66352128550E+02  0.41800000000E+01 0.  1.
         -5    1    3    3    0  502 -0.10382798664E+02 -0.23303545742E+02 -0.31542666388E+03  0.31648429730E+03  0.41800000000E+01 0.  1.
        -11    1    1    2    0    0  0.14791531215E+02 -0.10165903579E+02 -0.20316375783E+01  0.18062739064E+02  0.00000000000E+00 0.  1.
         11    1    1    2    0    0  0.44787178579E+02  0.17580007007E+02 -0.27317763489E+03  0.27738235022E+03  0.00000000000E+00 0. -1.
</event>
<event>
 7    1  0.6992302E-006  0.1109334E+03  0.7561462E-02  0.1258851E+00
          2   -1    0    0  501    0  0.00000000000E+00  0.00000000000E+00  0.12877649731E+03  0.12877649731E+03  0.00000000000E+00 0. -1.
         -2   -1    0    0    0  501 -0.00000000000E+00 -0.00000000000E+00 -0.13894403279E+03  0.13894403279E+03  0.00000000000E+00 0.  1.
         23    2    1    2    0    0 -0.37598629121E+02  0.42507917214E+02 -0.57228670831E+02  0.14880694257E+03  0.12509118856E+03 0.  0.
          5    1    3    3  502    0  0.44322755061E+02  0.29393736985E+02 -0.13959596011E+02  0.55143822056E+02  0.41800000000E+01 0.  1.
         -5    1    3    3    0  502 -0.81921384182E+02  0.13114180229E+02 -0.43269074820E+02  0.93663120518E+02  0.41800000000E+01 0.  1.
        -11    1    1    2    0    0 -0.17988935767E+02 -0.60773500495E+01 -0.17815148028E+02  0.26036810344E+02  0.00000000000E+00 0.  1.
         11    1    1    2    0    0  0.55587564888E+02 -0.36430567165E+02  0.64876283375E+02  0.92876777177E+02  0.00000000000E+00 0. -1.
</event>
<event>
 7    1  0.6992302E-006  0.1473517E+03  0.7561462E-02  0.1203765E+00
          2   -1    0    0  501    0  0.00000000000E+00  0.00000000000E+00  0.53437118368E+03  0.53437118368E+03  0.00000000000E+00 0.  1.
         -2   -1    0    0    0  501 -0.00000000000E+00 -0.00000000000E+00 -0.44828955520E+02  0.44828955520E+02  0.00000000000E+00 0. -1.
         23    2    1    2    0    0 -0.58312391811E+02  0.49532793380E+02  0.22826471031E+03  0.26500666213E+03  0.11076967247E+03 0.  0.
          5    1    3    3  502    0  0.27061969634E+02 -0.10771682734E+02  0.40386372525E+02  0.49969098802E+02  0.41800000000E+01 0. -1.
         -5    1    3    3    0  502 -0.85374361444E+02  0.60304476114E+02  0.18787833779E+03  0.21503756333E+03  0.41800000000E+01 0.  1.
        -11    1    1    2    0    0  0.52344519498E+02  0.43124267120E+02  0.52719339197E+02  0.85900988711E+02  0.00000000000E+00 0. -1.
         11    1    1    2    0    0  0.59678723127E+01 -0.92657060500E+02  0.20855817865E+03  0.22829248837E+03  0.00000000000E+00 0.  1.
</event>
<event>
 7    1  0.6992302E-006  0.1884944E+03  0.7561462E-02  0.1159826E+00
         -1   -1    0    0    0  501 -0.00000000000E+00  0.00000000000E+00  0.91680495086E+02  0.91680495086E+02  0.00000000000E+00 0.  1.
          1   -1    0    0  501    0  0.00000000000E+00 -0.00000000000E+00 -0.49729017179E+03  0.49729017179E+03  0.00000000000E+00 0. -1.
         23    2    1    2    0    0 -0.67282717646E+02 -0.16855922771E+03 -0.17110334808E+03  0.27903965169E+03  0.12509034395E+03 0.  0.
          5    1    3    3  502    0  0.12263789235E+02 -0.58755857113E+01 -0.70333863721E+02  0.71758259593E+02  0.41800000000E+01 0. -1.
         -5    1    3    3    0  502 -0.79546506880E+02 -0.16268364200E+03 -0.10076948436E+03  0.20728139209E+03  0.41800000000E+01 0. -1.
        -11    1    1    2    0    0  0.36793576688E+02  0.10136119783E+03 -0.67157376304E+02  0.12703532148E+03  0.00000000000E+00 0.  1.
         11    1    1    2    0    0  0.30489140957E+02  0.67198029881E+02 -0.16734895232E+03  0.18289569371E+03  0.00000000000E+00 0. -1.
</event>
<event>
 6    1  0.6992302E-006  0.1461567E+03  0.7561462E-02  0.1205277E+00
          2   -1    0    0  501    0  0.00000000000E+00  0.00000000000E+00  0.43805749568E+03  0.43805749568E+03  0.00000000000E+00 0. -1.
         -2   -1    0    0    0  501 -0.00000000000E+00 -0.00000000000E+00 -0.10637754564E+03  0.10637754564E+03  0.00000000000E+00 0.  1.
          5    1    1    2  502    0 -0.12178326305E+03  0.24213621688E+02  0.20327341224E+02  0.12588937936E+03  0.41800000000E+01 0. -1.
         -5    1    1    2    0  502  0.43481970283E+02 -0.23735144055E+02 -0.29144110248E+02  0.57627166902E+02  0.41800000000E+01 0.  1.
        -11    1    1    2    0    0  0.43898249134E+02  0.43984940341E+02  0.20529499947E+03  0.21449421452E+03  0.00000000000E+00 0. -1.
         11    1    1    2    0    0  0.34403043630E+02 -0.44463417975E+02  0.13520171960E+03  0.14642428054E+03  0.00000000000E+00 0.  1.
</event>
<event>
 7    1  0.6992302E-006  0.7188929E+02  0.7561462E-02  0.1353784E+00
         -3   -1    0    0    0  501 -0.00000000000E+00  0.00000000000E+00  0.27607380142E+03  0.27607380142E+03  0.00000000000E+00 0.  1.
          3   -1    0    0  501    0  0.00000000000E+00 -0.00000000000E+00 -0.87526481038E+02  0.87526481038E+02  0.00000000000E+00 0. -1.
         23    2    1    2    0    0 -0.91493546052E+00  0.30268718957E+02  0.22577939063E+03  0.25988244553E+03  0.12508205231E+03 0.  0.
          5    1    3    3  502    0 -0.20070355333E+02  0.13025920015E+02 -0.72865036107E+01  0.25358613730E+02  0.41800000000E+01 0.  1.
         -5    1    3    3    0  502  0.19155419872E+02  0.17242798942E+02  0.23306589424E+03  0.23452383180E+03  0.41800000000E+01 0.  1.
        -11    1    1    2    0    0  0.37093212433E+02 -0.41343252420E+02 -0.84591802374E+01  0.56184772488E+02  0.00000000000E+00 0. -1.
         11    1    1    2    0    0 -0.36178276972E+02  0.11074533464E+02 -0.28772890004E+02  0.47533064442E+02  0.00000000000E+00 0.  1.
</event>
<event>
 7    1  0.6992302E-006  0.1090741E+03  0.7561462E-02  0.1262294E+00
          2   -1    0    0  501    0  0.00000000000E+00  0.00000000000E+00  0.93748097911E+02  0.93748097911E+02  0.00000000000E+00 0. -1.
         -2   -1    0    0    0  501 -0.00000000000E+00 -0.00000000000E+00 -0.13219638458E+03  0.13219638458E+03  0.00000000000E+00 0.  1.
         23    2    1    2    0    0 -0.11572327149E+02 -0.22296787922E+02 -0.34725896161E+02  0.13222952698E+03  0.12509074480E+03 0.  0.
          5    1    3    3  502    0 -0.48409254528E+02 -0.56500135892E+02 -0.33680682849E+02  0.81777638001E+02  0.41800000000E+01 0. -1.
         -5    1    3    3    0  502  0.36836927378E+02  0.34203347970E+02 -0.10452133117E+01  0.50451888983E+02  0.41800000000E+01 0. -1.
        -11    1    1    2    0    0  0.11139018651E+02  0.57203502063E+02  0.21376050995E+01  0.58317130762E+02  0.00000000000E+00 0. -1.
         11    1    1    2    0    0  0.43330849829E+00 -0.34906714140E+02 -0.58599956102E+01  0.35397824748E+02  0.00000000000E+00 0.  1.
</event>
<event>
 7    1  0.6992302E-006  0.1694866E+03  0.7561462E-02  0.1178384E+00
         -2   -1    0    0    0  501 -0.00000000000E+00  0.00000000000E+00  0.92490076887E+02  0.92490076887E+02  0.00000000000E+00 0.  1.
          2   -1    0    0  501    0  0.00000000000E+00 -0.00000000000E+00 -0.36833155215E+03  0.36833155215E+03  0.00000000000E+00 0. -1.
         23    2    1    2    0    0 -0.13043815799E+03 -0.29911276390E+02 -0.62781306151E+02  0.19364399453E+03  0.12509079382E+03 0.  0.
          5    1    3    3  502    0 -0.13701322139E+03 -0.57852230355E+02 -0.68955438150E+02  0.16398728074E+03  0.41800000000E+01 0.  1.
         -5    1    3    3    0  502  0.65750633960E+01  0.27940953965E+02  0.61741319991E+01  0.29656713794E+02  0.41800000000E+01 0.  1.
        -11    1    1    2    0    0  0.92147080899E+02  0.62132195354E+02 -0.14930302272E+03  0.18612599714E+03  0.00000000000E+00 0.  1.
         11    1    1    2    0    0  0.38291077095E+02 -0.32220918965E+02 -0.63757146394E+02  0.81051637369E+02  0.00000000000E+00 0. -1.
</event>
<event>
 7    1  0.6992302E-006  0.1333047E+03  0.7561462E-02  0.1222633E+00
         -2   -1    0    0    0  501 -0.00000000000E+00  0.00000000000E+00  0.21824618483E+02  0.21824618483E+02  0.00000000000E+00 0.  1.
          2   -1    0    0  501    0  0.00000000000E+00 -0.00000000000E+00 -0.84344011856E+03  0.84344011856E+03  0.00000000000E+00 0. -1.
         23    2    1    2    0    0 -0.65984534846E+02  0.47141363995E+02 -0.48886799179E+03  0.51125403424E+03  0.12574779159E+03 0.  0.
          5    1    3    3  502    0 -0.88475706790E+02  0.70568154531E+02 -0.32553563611E+03  0.34467192793E+03  0.41800000000E+01 0. -1.
         -5    1    3    3    0  502  0.22491171944E+02 -0.23426790536E+02 -0.16333235568E+03  0.16658210630E+03  0.41800000000E+01 0.  1.
        -11    1    1    2    0    0 -0.14087312236E+02  0.14007834846E+02 -0.63229348836E+02  0.66276861403E+02  0.00000000000E+00 0. -1.
         11    1    1    2    0    0  0.80071847082E+02 -0.61149198841E+02 -0.26951815945E+03  0.28773384140E+03  0.00000000000E+00 0.  1.
</event>
<event>
 7    1  0.6992302E-006  0.8778968E+02  0.7561462E-02  0.1308294E+00
          2   -1    0    0  501    0  0.00000000000E+00  0.00000000000E+00  0.28131292020E+03  0.28131292020E+03  0.00000000000E+00 0. -1.
         -2   -1    0    0    0  501 -0.00000000000E+00 -0.00000000000E+00 -0.41077845243E+02  0.41077845243E+02  0.00000000000E+00 0.  1.
         23    2    1    2    0    0  0.90703703153E+01 -0.47619312810E+00  0.11155484116E+03  0.16553477581E+03  0.12196221151E+03 0.  0.
          5    1    3    3  502    0  0.44881512401E+02 -0.16666958821E+02  0.11619420503E+03  0.12574061935E+03  0.41800000000E+01 0. -1.
         -5    1    3    3    0  502 -0.35811142085E+02  0.16190765693E+02 -0.46393638667E+01  0.39794156459E+02  0.41800000000E+01 0.  1.
        -11    1    1    2    0    0 -0.26536611061E+02  0.38150465321E+02  0.82980816435E+02  0.95107652831E+02  0.00000000000E+00 0.  1.
         11    1    1    2    0    0  0.17466240746E+02 -0.37674272192E+02  0.45699417356E+02  0.61748336801E+02  0.00000000000E+00 0. -1.
</event>
<event>
 7    1  0.6992302E-006  0.1010619E+03  0.7561462E-02  0.1278079E+00
          2   -1    0    0  501    0  0.00000000000E+00  0.00000000000E+00  0.68403092784E+03  0.68403092784E+03  0.00000000000E+00 0. -1.
         -2   -1    0    0    0  501 -0.00000000000E+00 -0.00000000000E+00 -0.34016425524E+02  0.34016425524E+02  0.00000000000E+00 0.  1.
         23    2    1    2    0    0 -0.26387299939E+02 -0.96121312850E+02  0.28105307529E+03  0.32337773365E+03  0.12508689425E+03 0.  0.
          5    1    3    3  502    0 -0.12753308918E+02 -0.70794017104E+02  0.43740970994E+02  0.84292257590E+02  0.41800000000E+01 0.  1.
         -5    1    3    3    0  502 -0.13633991020E+02 -0.25327295745E+02  0.23731210429E+03  0.23908547606E+03  0.41800000000E+01 0.  1.
        -11    1    1    2    0    0  0.23195533209E+02  0.54130399759E+02  0.33618905798E+03  0.34130809490E+03  0.00000000000E+00 0. -1.
         11    1    1    2    0    0  0.31917667299E+01  0.41990913091E+02  0.32772369051E+02  0.53361524812E+02  0.00000000000E+00 0.  1.
</event>
<event>
 7    1  0.6992302E-006  0.1137386E+03  0.7561462E-02  0.1253799E+00
          1   -1    0    0  501    0  0.00000000000E+00  0.00000000000E+00  0.91861077019E+02  0.91861077019E+02  0.00000000000E+00 0. -1.
         -1   -1    0    0    0  501 -0.00000000000E+00 -0.00000000000E+00 -0.36917162025E+03  0.36917162025E+03  0.00000000000E+00 0.  1.
         23    2    1    2    0    0 -0.40550712672E+02  0.70915723839E+02 -0.30166249076E+03  0.33662971849E+03  0.12508360747E+03 0.  0.
          5    1    3    3  502    0 -0.32632442040E+02 -0.17765224659E+01 -0.23592214837E+03  0.23821159669E+03  0.41800000000E+01 0.  1.
         -5    1    3    3    0  502 -0.79182706316E+01  0.72692246304E+02 -0.65740342389E+02  0.98418121807E+02  0.41800000000E+01 0.  1.
        -11    1    1    2    0    0 -0.26419761147E+02 -0.41883320152E+01  0.11011811918E+02  0.28927597651E+02  0.00000000000E+00 0. -1.
         11    1    1    2    0    0  0.66970473819E+02 -0.66727391823E+02  0.13340135606E+02  0.95475381125E+02  0.00000000000E+00 0.  1.
</event>
<event>
 7    1  0.6992302E-006  0.1063859E+03  0.7561462E-02  0.1267413E+00
         -3   -1    0    0    0  501 -0.00000000000E+00  0.00000000000E+00  0.78467002551E+02  0.78467002551E+02  0.00000000000E+00 0.  1.
          3   -1    0    0  501    0  0.00000000000E+00 -0.00000000000E+00 -0.24276361980E+03  0.24276361980E+03  0.00000000000E+00 0. -1.
         23    2    1    2    0    0  0.65623125397E+02 -0.36841888630E+02 -0.43212446055E+02  0.15224537676E+03  0.12509044690E+03 0.  0.
          5    1    3    3  502    0  0.31174675303E+02  0.17521762717E+02  0.35447109459E+02  0.50525661975E+02  0.41800000000E+01 0. -1.
         -5    1    3    3    0  502  0.34448450093E+02 -0.54363651347E+02 -0.78659555514E+02  0.10171971478E+03  0.41800000000E+01 0. -1.
        -11    1    1    2    0    0 -0.37924652867E+02  0.63413847991E+02 -0.53366427495E+02  0.91145877557E+02  0.00000000000E+00 0.  1.
         11    1    1    2    0    0 -0.27698472529E+02 -0.26571959360E+02 -0.67717743695E+02  0.77839368034E+02  0.00000000000E+00 0. -1.
</event>
<event>
 7    1  0.6992302E-006  0.1463010E+03  0.7561462E-02  0.1205093E+00
          1   -1    0    0  501    0  0.00000000000E+00  0.00000000000E+00  0.41180520154E+02  0.41180520154E+02  0.00000000000E+00 0.  1.
         -1   -1    0    0    0  501 -0.00000000000E+00 -0.00000000000E+00 -0.60667132185E+03  0.60667132185E+03  0.00000000000E+00 0. -1.
         23    2    1    2    0    0  0.33021712103E+02  0.95825233648E+02 -0.41631571657E+03  0.44636208230E+03  0.12508966296E+03 0.  0.
          5    1    3    3  502    0  0.61086802436E+02  0.30652775565E+00 -0.15004514615E+03  0.16205773562E+03  0.41800000000E+01 0. -1.
         -5    1    3    3    0  502 -0.28065090333E+02  0.95518705892E+02 -0.26627057042E+03  0.28430434668E+03  0.41800000000E+01 0. -1.
        -11    1    1    2    0    0  0.21483496914E+02 -0.66395320821E+02 -0.55390278792E+02  0.89095242585E+02  0.00000000000E+00 0.  1.
         11    1    1    2    0    0 -0.54505209017E+02 -0.29429912827E+02 -0.93784806335E+02  0.11239451712E+03  0.00000000000E+00 0. -1.
</event>
<event>
 7    1  0.6992302E-006  0.1403877E+03  0.7561462E-02  0.1212808E+00
         -2   -1    0    0    0  501 -0.00000000000E+00  0.00000000000E+00  0.91405755581E+02  0.91405755581E+02  0.00000000000E+00 0.  1.
          2   -1    0    0  501    0  0.00000000000E+00 -0.00000000000E+00 -0.27494123304E+03  0.27494123304E+03  0.00000000000E+00 0. -1.
         23    2    1    2    0    0 -0.85961082540E+02  0.33690355501E+02 -0.19312636756E+02  0.15666923149E+03  0.12509165597E+03 0.  0.
          5    1    3    3  502    0 -0.93842960016E+02  0.70285442965E+02 -0.92660027399E+01  0.11768549547E+03  0.41800000000E+01 0.  1.
         -5    1    3    3    0  502  0.78818774761E+01 -0.36595087464E+02 -0.10046634016E+02  0.38983736020E+02  0.41800000000E+01 0.  1.
        -11    1    1    2    0    0  0.43004334846E+02 -0.61184826368E+02 -0.12364479010E+03  0.14450256023E+03  0.00000000000E+00 0. -1.
         11    1    1    2    0    0  0.42956747693E+02  0.27494470867E+02 -0.40578050605E+02  0.65175196904E+02  0.00000000000E+00 0.  1.
</event>
<event>
 7    1  0.6992302E-006  0.1051240E+03  0.7561462E-02  0.1269875E+00
         -2   -1    0    0    0  501 -0.00000000000E+00  0.00000000000E+00  0.36703170305E+03  0.36703170305E+03  0.00000000000E+00 0.  1.
          2   -1    0    0  501    0  0.00000000000E+00 -0.00000000000E+00 -0.34810011995E+02  0.34810011995E+02  0.00000000000E+00 0. -1.
         23    2    1    2    0    0  0.14133619458E+02  0.28571653768E+02  0.21323596722E+03  0.24926622587E+03  0.12509186642E+03 0.  0.
          5    1    3    3  502    0 -0.34657592827E+02  0.59514053580E+02  0.13826005016E+03  0.15451985369E+03  0.41800000000E+01 0. -1.
         -5    1    3    3    0  502  0.48791212285E+02 -0.30942399812E+02  0.74975917065E+02  0.94746372185E+02  0.41800000000E+01 0. -1.
        -11    1    1    2    0    0  0.15716655563E+02  0.20533905547E+02  0.77497323771E+02  0.81697550335E+02  0.00000000000E+00 0.  1.
         11    1    1    2    0    0 -0.29850275021E+02 -0.49105559315E+02  0.41488400066E+02  0.70877938842E+02  0.00000000000E+00 0. -1.
</event>
<event>
 7    1  0.6992302E-006  0.1107881E+03  0.7561462E-02  0.1259117E+00
          2   -1    0    0  501    0  0.00000000000E+00  0.00000000000E+00  0.15123382335E+03  0.15123382335E+03  0.00000000000E+00 0. -1.
         -2   -1    0    0    0  501 -0.00000000000E+00 -0.00000000000E+00 -0.11875551445E+03  0.11875551445E+03  0.00000000000E+00 0.  1.
         23    2    1    2    0    0  0.70022807358E+02  0.40821717673E+02  0.49623147771E+02  0.14825930799E+03  0.11379261587E+03 0.  0.
          5    1    3    3  502    0 -0.54403666306E+01  0.61073159824E+02  0.21159100093E+02  0.64997756551E+02  0.41800000000E+01 0. -1.
         -5    1    3    3    0  502  0.75463173989E+02 -0.20251442150E+02  0.28464047678E+02  0.83261551438E+02  0.41800000000E+01 0.  1.
        -11    1    1    2    0    0 -0.15978655253E+02 -0.39801917388E+01  0.34607321626E+02  0.38325266601E+02  0.00000000000E+00 0. -1.
         11    1    1    2    0    0 -0.54044152106E+02 -0.36841525934E+02 -0.51752160502E+02  0.83404763213E+02  0.00000000000E+00 0.  1.
</event>
<event>
 7    1  0.6992302E-006  0.2036133E+03  0.7561462E-02  0.1146726E+00
          1   -1    0    0  501    0  0.00000000000E+00  0.00000000000E+00  0.80018038322E+02  0.80018038322E+02  0.00000000000E+00 0. -1.
         -1   -1    0    0    0  501 -0.00000000000E+00 -0.00000000000E+00 -0.11297284443E+04  0.11297284443E+04  0.00000000000E+00 0.  1.
         23    2    1    2    0    0  0.14494583535E+03 -0.91721398671E+02 -0.97905509924E+03  0.10018075370E+04  0.12508934304E+03 0.  0.
          5    1    3    3  502    0  0.62849734001E+02 -0.11078828249E+03 -0.62115755553E+03  0.63409645465E+03  0.41800000000E+01 0. -1.
         -5    1    3    3    0  502  0.82096101354E+02  0.19066883817E+02 -0.35789754370E+03  0.36771108238E+03  0.41800000000E+01 0. -1.
        -11    1    1    2    0    0 -0.14265129518E+03  0.10802313115E+03 -0.67048197637E+02  0.19108597460E+03  0.00000000000E+00 0.  1.
         11    1    1    2    0    0 -0.22945401741E+01 -0.16301732482E+02 -0.36071091463E+01  0.16852971042E+02  0.00000000000E+00 0. -1.
</event>
<event>
 7    1  0.6992302E-006  0.1052775E+03  0.7561462E-02  0.1269574E+00
         -3   -1    0    0    0  501 -0.00000000000E+00  0.00000000000E+00  0.34137093216E+02  0.34137093216E+02  0.00000000000E+00 0.  1.
          3   -1    0    0  501    0  0.00000000000E+00 -0.00000000000E+00 -0.42269636931E+03  0.42269636931E+03  0.00000000000E+00 0. -1.
         23    2    1    2    0    0 -0.40410802308E+02  0.29323474869E+02 -0.20647746111E+03  0.24652113612E+03  0.12508728747E+03 0.  0.
          5    1    3    3  502    0  0.44136418512E+02  0.22470620209E+02 -0.79587217586E+02  0.93832562657E+02  0.41800000000E+01 0.  1.
         -5    1    3    3    0  502 -0.84547220821E+02  0.68528546595E+01 -0.12689024352E+03  0.15268857346E+03  0.41800000000E+01 0.  1.
        -11    1    1    2    0    0  0.84985090676E+01 -0.41053930563E+02 -0.16860440657E+03  0.17373858462E+03  0.00000000000E+00 0. -1.
         11    1    1    2    0    0  0.31912293241E+02  0.11730455695E+02 -0.13477408419E+02  0.36573741788E+02  0.00000000000E+00 0.  1.
</event>
<event>
 6    1  0.6992302E-006  0.2270668E+03  0.7561462E-02  0.1128722E+00
          1   -1    0    0  501    0  0.00000000000E+00  0.00000000000E+00  0.85804951172E+03  0.85804951172E+03  0.00000000000E+00 0. -1.
         -1   -1    0    0    0  501 -0.00000000000E+00 -0.00000000000E+00 -0.10909248072E+03  0.10909248072E+03  0.00000000000E+00 0.  1.
          5    1    1    2  502    0  0.40519032693E+02 -0.11710451987E+02  0.20697724964E+02  0.47167731712E+02  0.41800000000E+01 0. -1.
         -5    1    1    2    0  502 -0.20980365769E+03 -0.36129856855E+02  0.58019691863E+02  0.22069594101E+03  0.41800000000E+01 0.  1.
        -11    1    1    2    0    0  0.94488934818E+01  0.37472068044E+02  0.15309725998E+03  0.15789936189E+03  0.00000000000E+00 0.  1.
         11    1    1    2    0    0  0.15983573151E+03  0.10368240798E+02  0.51714235419E+03  0.54137895783E+03  0.00000000000E+00 0. -1.
</event>
<event>
 7    1  0.6992302E-006  0.9855397E+02  0.7561462E-02  0.1283366E+00
          2   -1    0    0  501    0  0.00000000000E+00  0.00000000000E+00  0.18141982105E+03  0.18141982105E+03  0.00000000000E+00 0. -1.
         -2   -1    0    0    0  501 -0.00000000000E+00 -0.00000000000E+00 -0.91771363180E+02  0.91771363180E+02  0.00000000000E+00 0.  1.
         23    2    1    2    0    0 -0.45556457329E+02 -0.99129149356E+01 -0.59853712011E+01  0.13362912912E+03  0.12508901948E+03 0.  0.
          5    1    3    3  502    0 -0.71148499897E+02  0.27894102167E+02  0.22352490252E+02  0.79732654501E+02  0.41800000000E+01 0. -1.
         -5    1    3    3    0  502  0.25592042568E+02 -0.37807017102E+02 -0.28337861453E+02  0.53896474622E+02  0.41800000000E+01 0. -1.
        -11    1    1    2    0    0  0.57043403094E+02  0.18953063077E+02  0.10585107541E+03  0.12172764107E+03  0.00000000000E+00 0. -1.
         11    1    1    2    0    0 -0.11486945765E+02 -0.90401481413E+01 -0.10217246332E+02  0.17834414037E+02  0.00000000000E+00 0.  1.
</event>
<event>
 6    1  0.6992302E-006  0.1432896E+03  0.7561462E-02  0.1208970E+00
          2   -1    0    0  501    0  0.00000000000E+00  0.00000000000E+00  0.12874359149E+03  0.12874359149E+03  0.00000000000E+00 0. -1.
         -2   -1    0    0    0  501 -0.00000000000E+00 -0.00000000000E+00 -0.18345562975E+03  0.18345562975E+03  0.00000000000E+00 0.  1.
          5    1    1    2  502    0 -0.11254085051E+03  0.70250214241E+01 -0.47096293954E+02  0.12227153088E+03  0.41800000000E+01 0. -1.
         -5    1    1    2    0  502  0.58483960143E+02  0.37001886899E+02 -0.23721692194E+02  0.73278266277E+02  0.41800000000E+01 0.  1.
        -11    1    1    2    0    0  0.74361090043E+02 -0.35122566370E+02  0.33166155089E+02  0.88674462075E+02  0.00000000000E+00 0.  1.
         11    1    1    2    0    0 -0.20304199675E+02 -0.89043419530E+01 -0.17060207200E+02  0.27974962015E+02  0.00000000000E+00 0. -1.
</event>
<event>
 7    1  0.6992302E-006  0.7338420E+02  0.7561462E-02  0.1348949E+00
          4   -1    0    0  501    0  0.00000000000E+00  0.00000000000E+00  0.83369191395E+02  0.83369191395E+02  0.00000000000E+00 0.  1.
         -4   -1    0    0    0  501 -0.00000000000E+00 -0.00000000000E+00 -0.21912780234E+03  0.21912780234E+03  0.00000000000E+00 0. -1.
         23    2    1    2    0    0  0.50531922353E+02 -0.10243804075E+02 -0.15346728205E+03  0.20459134391E+03  0.12508797162E+03 0.  0.
          5    1    3    3  502    0  0.12708333352E+02  0.61059230806E+01  0.20798012643E+02  0.25471822925E+02  0.41800000000E+01 0.  1.
         -5    1    3    3    0  502  0.37823589001E+02 -0.16349727156E+02 -0.17426529469E+03  0.17911952098E+03  0.41800000000E+01 0.  1.
        -11    1    1    2    0    0 -0.25343643680E+02  0.42643635414E+02  0.26046003743E+02  0.56028334147E+02  0.00000000000E+00 0.  1.
         11    1    1    2    0    0 -0.25188278673E+02 -0.32399831339E+02 -0.83373326422E+01  0.41877315684E+02  0.00000000000E+00 0. -1.
</event>
<event>
 7    1  0.6992302E-006  0.9989114E+02  0.7561462E-02  0.1280525E+00
         -2   -1    0    0    0  501 -0.00000000000E+00  0.00000000000E+00  0.15871897516E+03  0.15871897516E+03  0.00000000000E+00 0.  1.
          2   -1    0    0  501    0  0.00000000000E+00 -0.00000000000E+00 -0.10193668101E+03  0.10193668101E+03  0.00000000000E+00 0. -1.
         23    2    1    2    0    0  0.45508608742E+02  0.27091756787E+02  0.72212100478E+02  0.15383987811E+03  0.12508846424E+03 0.  0.
          5    1    3    3  502    0 -0.60715756250E+01  0.49651754643E+02 -0.12789469550E+02  0.51799649623E+02  0.41800000000E+01 0. -1.
         -5    1    3    3    0  502  0.51580184367E+02 -0.22559997856E+02  0.85001570028E+02  0.10204022849E+03  0.41800000000E+01 0. -1.
        -11    1    1    2    0    0 -0.65989052036E+02 -0.29925969143E+02 -0.33060506949E+02  0.79643679834E+02  0.00000000000E+00 0.  1.
         11    1    1    2    0    0  0.20480443295E+02  0.28342123559E+01  0.17630700624E+02  0.27172098221E+02  0.00000000000E+00 0. -1.
</event>
<event>
 7    1  0.6992302E-006  0.1142730E+03  0.7561462E-02  0.1252855E+00
         -2   -1    0    0    0  501 -0.00000000000E+00  0.00000000000E+00  0.78438606335E+02  0.78438606335E+02  0.00000000000E+00 0.  1.
          2   -1    0    0  501    0  0.00000000000E+00 -0.00000000000E+00 -0.28136930506E+03  0.28136930506E+03  0.00000000000E+00 0. -1.
         23    2    1    2    0    0 -0.93317196680E+02 -0.34978061304E+02 -0.93450015827E+02  0.18523513398E+03  0.12509030911E+03 0.  0.
          5    1    3    3  502    0 -0.65837221596E+02 -0.10403353797E+02 -0.12155285862E+03  0.13869152590E+03  0.41800000000E+01 0.  1.
         -5    1    3    3    0  502 -0.27479975084E+02 -0.24574707507E+02  0.28102842797E+02  0.46543608078E+02  0.41800000000E+01 0.  1.
        -11    1    1    2    0    0 -0.12403245207E+02  0.10237437164E+02 -0.46159126811E+02  0.48880574866E+02  0.00000000000E+00 0. -1.
         11    1    1    2    0    0  0.10572044189E+03  0.24740624140E+02 -0.63321556087E+02  0.12569220255E+03  0.00000000000E+00 0.  1.
</event>
<event>
 7    1  0.6992302E-006  0.8723289E+02  0.7561462E-02  0.1309694E+00
          1   -1    0    0  501    0  0.00000000000E+00  0.00000000000E+00  0.28381245116E+02  0.28381245116E+02  0.00000000000E+00 0. -1.
         -1   -1    0    0    0  501 -0.00000000000E+00 -0.00000000000E+00 -0.61932484294E+03  0.61932484294E+03  0.00000000000E+00 0.  1.
         23    2    1    2    0    0  0.31107934573E+02  0.39228857075E+02 -0.44968232263E+03  0.46943500540E+03  0.12509366966E+03 0.  0.
          5    1    3    3  502    0 -0.16684008548E+02  0.69040262711E+01 -0.27051567670E+01  0.18729975791E+02  0.41800000000E+01 0. -1.
         -5    1    3    3    0  502  0.47791943121E+02  0.32324830804E+02 -0.44697716586E+03  0.45070502961E+03  0.41800000000E+01 0. -1.
        -11    1    1    2    0    0  0.28938128663E+02 -0.19437400760E+02 -0.91175322864E+02  0.97612331896E+02  0.00000000000E+00 0.  1.
         11    1    1    2    0    0 -0.60046063236E+02 -0.19791456315E+02 -0.50085952334E+02  0.80658750761E+02  0.00000000000E+00 0. -1.
</event>
<event>
 7    1  0.6992302E-006  0.9083975E+02  0.7561462E-02  0.1300831E+00
          1   -1    0    0  501    0  0.00000000000E+00  0.00000000000E+00  0.11172344754E+03  0.11172344754E+03  0.00000000000E+00 0. -1.
         -1   -1    0    0    0  501 -0.00000000000E+00 -0.00000000000E+00 -0.18675661283E+03  0.18675661283E+03  0.00000000000E+00 0.  1.
         23    2    1    2    0    0  0.36095861979E+02 -0.81914318296E+02 -0.70290453184E+02  0.16912022415E+03  0.12509210852E+03 0.  0.
          5    1    3    3  502    0  0.20269849694E+02 -0.43701708635E+02 -0.10458933342E+03  0.11522633036E+03  0.41800000000E+01 0.  1.
         -5    1    3    3    0  502  0.15826012285E+02 -0.38212609661E+02  0.34298880235E+02  0.53893893785E+02  0.41800000000E+01 0.  1.
        -11    1    1    2    0    0 -0.12528428766E+02  0.98593136679E+01 -0.41973982518E+02  0.44899697123E+02  0.00000000000E+00 0.  1.
         11    1    1    2    0    0 -0.23567433213E+02  0.72055004628E+02  0.37231270416E+02  0.84460139102E+02  0.00000000000E+00 0. -1.
</event>
<event>
 7    1  0.6992302E-006  0.6111566E+02  0.7561462E-02  0.1393209E+00
          3   -1    0    0  501    0  0.00000000000E+00  0.00000000000E+00  0.53773100780E+02  0.53773100780E+02  0.00000000000E+00 0. -1.
         -3   -1    0    0    0  501 -0.00000000000E+00 -0.00000000000E+00 -0.27023513107E+03  0.27023513107E+03  0.00000000000E+00 0.  1.
         23    2    1    2    0    0 -0.18024209892E+02  0.10834402190E+02 -0.18850218538E+03  0.22720572753E+03  0.12508841799E+03 0.  0.
          5    1    3    3  502    0 -0.33121445557E+02  0.37284677871E+02 -0.16826516463E+02  0.52799445225E+02  0.41800000000E+01 0.  1.
         -5    1    3    3    0  502  0.15097235665E+02 -0.26450275681E+02 -0.17167566892E+03  0.17440628231E+03  0.41800000000E+01 0.  1.
        -11    1    1    2    0    0 -0.13664661899E+01 -0.19964437744E+02 -0.57171005999E+02  0.60572022677E+02  0.00000000000E+00 0.  1.
         11    1    1    2    0    0  0.19390676082E+02  0.91300355541E+01  0.29211161089E+02  0.36230481646E+02  0.00000000000E+00 0. -1.
</event>
<event>
 7    1  0.6992302E-006  0.1050910E+03  0.7561462E-02  0.1269940E+00
          1   -1    0    0  501    0  0.00000000000E+00  0.00000000000E+00  0.15505986772E+03  0.15505986772E+03  0.00000000000E+00 0. -1.
         -1   -1    0    0    0  501 -0.00000000000E+00 -0.00000000000E+00 -0.88535386272E+02  0.88535386272E+02  0.00000000000E+00 0.  1.
         23    2    1    2    0    0 -0.91641018547E+01 -0.43727508075E+02  0.27177547386E+02  0.13558139772E+03  0.12509044968E+03 0.  0.
          5    1    3    3  502    0  0.47960934539E+02 -0.52981795656E+02  0.18155017151E+00  0.71587898930E+02  0.41800000000E+01 0.  1.
         -5    1    3    3    0  502 -0.57125036393E+02  0.92542875808E+01  0.26995997214E+02  0.63993498788E+02  0.41800000000E+01 0.  1.
        -11    1    1    2    0    0  0.11934528027E+02  0.61469246796E+02  0.55640913822E+02  0.83766416611E+02  0.00000000000E+00 0. -1.
         11    1    1    2    0    0 -0.27704261725E+01 -0.17741738721E+02 -0.16293979756E+02  0.24247439666E+02  0.00000000000E+00 0.  1.
</event>
<event>
 7    1  0.6992302E-006  0.1170442E+03  0.7561462E-02  0.1248054E+00
         -2   -1    0    0    0  501 -0.00000000000E+00  0.00000000000E+00  0.62395911033E+02  0.62395911033E+02  0.00000000000E+00 0.  1.
          2   -1    0    0  501    0  0.00000000000E+00 -0.00000000000E+00 -0.36230456210E+03  0.36230456210E+03  0.00000000000E+00 0. -1.
         23    2    1    2    0    0  0.63060639623E+02  0.80125458482E+02 -0.13830114110E+03  0.21253684856E+03  0.12509185825E+03 0.  0.
          5    1    3    3  502    0  0.15538902900E+02 -0.16549749088E+02 -0.92619713083E+02  0.95452791210E+02  0.41800000000E+01 0.  1.
         -5    1    3    3    0  502  0.47521736724E+02  0.96675207569E+02 -0.45681428017E+02  0.11708405735E+03  0.41800000000E+01 0.  1.
        -11    1    1    2    0    0 -0.43012505335E+02 -0.65597952779E+02 -0.39982255718E+02  0.88044010565E+02  0.00000000000E+00 0.  1.
         11    1    1    2    0    0 -0.20048134288E+02 -0.14527505703E+02 -0.12162525425E+03  0.12411961401E+03  0.00000000000E+00 0. -1.
</event>
<event>
 7    1  0.6992302E-006  0.1048975E+03  0.7561462E-02  0.1270322E+00
          2   -1    0    0  501    0  0.00000000000E+00  0.00000000000E+00  0.61998757883E+03  0.61998757883E+03  0.00000000000E+00 0. -1.
         -2   -1    0    0    0  501 -0.00000000000E+00 -0.00000000000E+00 -0.29481953909E+02  0.29481953909E+02  0.00000000000E+00 0.  1.
         23    2    1    2    0    0 -0.44080073526E+02  0.64785176356E+02  0.28143604172E+03  0.31779428314E+03  0.12508712507E+03 0.  0.
          5    1    3    3  502    0 -0.36831800271E+02  0.16620925545E+02  0.26209022904E+03  0.26521990354E+03  0.41800000000E+01 0. -1.
         -5    1    3    3    0  502 -0.72482732549E+01  0.48164250812E+02  0.19345812679E+02  0.52574379593E+02  0.41800000000E+01 0. -1.
        -11    1    1    2    0    0  0.41023657652E+02  0.12541806638E+02  0.11553749744E+03  0.12324427255E+03  0.00000000000E+00 0. -1.
         11    1    1    2    0    0  0.30564158735E+01 -0.77326982994E+02  0.19353208577E+03  0.20843097706E+03  0.00000000000E+00 0.  1.
</event>
<event>
 6    1  0.6992302E-006  0.1156846E+03  0.7561462E-02  0.1250391E+00
         -1   -1    0    0    0  501 -0.00000000000E+00  0.00000000000E+00  0.12487995617E+03  0.12487995617E+03  0.00000000000E+00 0.  1.
          1   -1    0    0  501    0  0.00000000000E+00 -0.00000000000E+00 -0.15352313734E+03  0.15352313734E+03  0.00000000000E+00 0. -1.
          5    1    1    2  502    0 -0.40032908975E+02  0.36611781133E+02  0.22257481229E+02  0.58787109041E+02  0.41800000000E+01 0. -1.
         -5    1    1    2    0  502  0.39651051462E+02 -0.85018143539E+02  0.13180804083E+02  0.94823502409E+02  0.41800000000E+01 0.  1.
        -11    1    1    2    0    0  0.25776228823E+02 -0.27702815383E+01  0.12876602253E+02  0.28946421501E+02  0.00000000000E+00 0.  1.
         11    1    1    2    0    0 -0.25394371310E+02  0.51176643945E+02 -0.76958068743E+02  0.95846060557E+02  0.00000000000E+00 0. -1.
</event>
<event>
 7    1  0.6992302E-006  0.8855140E+02  0.7561462E-02  0.1306398E+00
          4   -1    0    0  501    0  0.00000000000E+00  0.00000000000E+00  0.46280632982E+02  0.46280632982E+02  0.00000000000E+00 0.  1.
         -4   -1    0    0    0  501 -0.00000000000E+00 -0.00000000000E+00 -0.29925276451E+03  0.29925276451E+03  0.00000000000E+00 0. -1.
         23    2    1    2    0    0  0.10811328922E+00 -0.40016233839E+02 -0.19665040613E+03  0.23647461164E+03  0.12509016372E+03 0.  0.
          5    1    3    3  502    0 -0.31556879057E+02  0.67712458139E+01 -0.17138209601E+03  0.17444478100E+03  0.41800000000E+01 0.  1.
         -5    1    3    3    0  502  0.31664992346E+02 -0.46787479653E+02 -0.25268310117E+02  0.62029830636E+02  0.41800000000E+01 0.  1.
        -11    1    1    2    0    0  0.33489274515E+02 -0.26589628875E+01 -0.43315127264E+01  0.33872755921E+02  0.00000000000E+00 0.  1.
         11    1    1    2    0    0 -0.33597387805E+02  0.42675196726E+02 -0.51990212668E+02  0.75186029927E+02  0.00000000000E+00 0. -1.
</event>
<event>
 7    1  0.6992302E-006  0.1149462E+03  0.7561462E-02  0.1251675E+00
         -1   -1    0    0    0  501 -0.00000000000E+00  0.00000000000E+00  0.44238882764E+02  0.44238882764E+02  0.00000000000E+00 0.  1.
          1   -1    0    0  501    0  0.00000000000E+00 -0.00000000000E+00 -0.47647482781E+03  0.47647482781E+03  0.00000000000E+00 0. -1.
         23    2    1    2    0    0 -0.33614154455E+02 -0.39547796121E+02 -0.91309350498E+02  0.16333513758E+03  0.12508808945E+03 0.  0.
          5    1    3    3  502    0 -0.61892477902E+02 -0.63108790688E+02 -0.90074346200E+02  0.12627057665E+03  0.41800000000E+01 0. -1.
         -5    1    3    3    0  502  0.28278323447E+02  0.23560994567E+02 -0.12350042988E+01  0.37064560939E+02  0.41800000000E+01 0. -1.
        -11    1    1    2    0    0 -0.28038650099E+02 -0.47516049101E+01 -0.60387127056E+02  0.66748398952E+02  0.00000000000E+00 0.  1.
         11    1    1    2    0    0  0.61652804554E+02  0.44299401031E+02 -0.28053946749E+03  0.29063017404E+03  0.00000000000E+00 0. -1.
</event>
<event>
 7    1  0.6992302E-006  0.3025866E+03  0.7561462E-02  0.1083955E+00
         -1   -1    0    0    0  501 -0.00000000000E+00  0.00000000000E+00  0.14917783133E+03  0.14917783133E+03  0.00000000000E+00 0.  1.
          1   -1    0    0  501    0  0.00000000000E+00 -0.00000000000E+00 -0.62825805157E+03  0.62825805157E+03  0.00000000000E+00 0. -1.
         23    2    1    2    0    0 -0.28099748824E+03  0.48117208667E+02 -0.21675725483E+03  0.37935057371E+03  0.12509314964E+03 0.  0.
          5    1    3    3  502    0 -0.11138134783E+03  0.78181858263E+02 -0.12141879029E+03  0.18242314174E+03  0.41800000000E+01 0.  1.
         -5    1    3    3    0  502 -0.16961614041E+03 -0.30064649597E+02 -0.95338464541E+02  0.19692743197E+03  0.41800000000E+01 0.  1.
        -11    1    1    2    0    0  0.11850756358E+03  0.20616225779E+02 -0.80529343082E+02  0.14475512595E+03  0.00000000000E+00 0.  1.
         11    1    1    2    0    0  0.16248992465E+03 -0.68733434446E+02 -0.18179362232E+03  0.25333018324E+03  0.00000000000E+00 0. -1.
</event>
<event>
 7    1  0.6992302E-006  0.8634493E+02  0.7561462E-02  0.1311952E+00
          1   -1    0    0  501    0  0.00000000000E+00  0.00000000000E+00  0.31355592586E+03  0.31355592586E+03  0.00000000000E+00 0. -1.
         -1   -1    0    0    0  501 -0.00000000000E+00 -0.00000000000E+00 -0.59270175702E+02  0.59270175702E+02  0.00000000000E+00 0.  1.
         23    2    1    2    0    0  0.32644994104E+02 -0.57231648551E+02  0.72207799899E+02  0.15875460079E+03  0.12509156514E+03 0.  0.
          5    1    3    3  502    0  0.93252030122E+00 -0.11414511423E+02 -0.35434415671E+02  0.37473068717E+02  0.41800000000E+01 0. -1.
         -5    1    3    3    0  502  0.31712473803E+02 -0.45817137128E+02  0.10764221557E+03  0.12128153207E+03  0.41800000000E+01 0. -1.
        -11    1    1    2    0    0  0.25086159669E+02  0.34315194905E+02  0.11523271619E+03  0.12282274582E+03  0.00000000000E+00 0. -1.
         11    1    1    2    0    0 -0.57731153773E+02  0.22916453646E+02  0.66845234067E+02  0.91248754957E+02  0.00000000000E+00 0.  1.
</event>
<event>
 7    1  0.6992302E-006  0.1703868E+03  0.7561462E-02  0.1177445E+00
          2   -1    0    0  501    0  0.00000000000E+00  0.00000000000E+00  0.91337118719E+02  0.91337118719E+02  0.00000000000E+00 0. -1.
         -2   -1    0    0    0  501 -0.00000000000E+00 -0.00000000000E+00 -0.39837929870E+03  0.39837929870E+03  0.00000000000E+00 0.  1.
         23    2    1    2    0    0  0.76973615801E+02  0.13405810357E+03 -0.14744657041E+03  0.24755811292E+03  0.12509202807E+03 0.  0.
          5    1    3    3  502    0 -0.20645446530E+02  0.23312242297E+02  0.87304199717E+01  0.32609626434E+02  0.41800000000E+01 0.  1.
         -5    1    3    3    0  502  0.97619062331E+02  0.11074586127E+03 -0.15617699038E+03  0.21494848649E+03  0.41800000000E+01 0.  1.
        -11    1    1    2    0    0 -0.29636466613E+02 -0.97359666392E+02 -0.41821698645E+02  0.11002853844E+03  0.00000000000E+00 0. -1.
         11    1    1    2    0    0 -0.47337149188E+02 -0.36698437174E+02 -0.11777391093E+03  0.13212976606E+03  0.00000000000E+00 0.  1.
</event>
<event>
 7    1  0.6992302E-006  0.1553854E+03  0.7561462E-02  0.1194007E+00
          2   -1    0    0  501    0  0.00000000000E+00  0.00000000000E+00  0.69338592865E+03  0.69338592865E+03  0.00000000000E+00 0. -1.
         -2   -1    0    0    0  501 -0.00000000000E+00 -0.00000000000E+00 -0.56117201395E+02  0.56117201395E+02  0.00000000000E+00 0.  1.
         23    2    1    2    0    0  0.91235581433E+02 -0.68409666501E+02  0.10929052925E+03  0.20148314890E+03  0.12508887127E+03 0.  0.
          5    1    3    3  502    0 -0.22897477049E+02  0.14846868783E+02  0.22612283208E+02  0.35686295966E+02  0.41800000000E+01 0.  1.
         -5    1    3    3    0  502  0.11413305848E+03 -0.83256535284E+02  0.86678246042E+02  0.16579685293E+03  0.41800000000E+01 0.  1.
        -11    1    1    2    0    0 -0.71842153744E+02  0.11741639377E+01  0.33828261178E+03  0.34582914734E+03  0.00000000000E+00 0. -1.
         11    1    1    2    0    0 -0.19393427689E+02  0.67235502563E+02  0.18969558623E+03  0.20219083381E+03  0.00000000000E+00 0.  1.
</event>
<event>
 7    1  0.6992302E-006  0.1148396E+03  0.7561462E-02  0.1251861E+00
         -2   -1    0    0    0  501 -0.00000000000E+00  0.00000000000E+00  0.14097891607E+03  0.14097891607E+03  0.00000000000E+00 0.  1.
          2   -1    0    0  501    0  0.00000000000E+00 -0.00000000000E+00 -0.22097644413E+03  0.22097644413E+03  0.00000000000E+00 0. -1.
         23    2    1    2    0    0  0.79391793328E+02  0.39076680615E+02  0.69399026128E+02  0.16820633170E+03  0.12508837428E+03 0.  0.
          5    1    3    3  502    0  0.92820803367E+01  0.57333494181E+02 -0.11684942540E+02  0.59391050273E+02  0.41800000000E+01 0.  1.
         -5    1    3    3    0  502  0.70109712991E+02 -0.18256813565E+02  0.81083968668E+02  0.10881528143E+03  0.41800000000E+01 0.  1.
        -11    1    1    2    0    0 -0.56170685230E+02 -0.33497040194E+01 -0.23756003306E+02  0.61079571784E+02  0.00000000000E+00 0.  1.
         11    1    1    2    0    0 -0.23221108098E+02 -0.35726976596E+02 -0.12564055089E+03  0.13266945671E+03  0.00000000000E+00 0. -1.
</event>
<event>
 7    1  0.6992302E-006  0.1202119E+03  0.7561462E-02  0.1242748E+00
         -1   -1    0    0    0  501 -0.00000000000E+00  0.00000000000E+00  0.38769333205E+02  0.38769333205E+02  0.00000000000E+00 0.  1.
          1   -1    0    0  501    0  0.00000000000E+00 -0.00000000000E+00 -0.50755825419E+03  0.50755825419E+03  0.00000000000E+00 0. -1.
         23    2    1    2    0    0 -0.85997855691E+02  0.25319374869E+02 -0.25178867265E+03  0.29511943756E+03  0.12514489531E+03 0.  0.
          5    1    3    3  502    0 -0.86614526659E+02 -0.40010300156E+01 -0.25088922465E+03  0.26548250397E+03  0.41800000000E+01 0. -1.
         -5    1    3    3    0  502  0.61667096865E+00  0.29320404885E+02 -0.89944800031E+00  0.29636933586E+02  0.41800000000E+01 0. -1.
        -11    1    1    2    0    0 -0.97887019784E+01 -0.26446228221E+02 -0.72987121695E+02  0.78245393518E+02  0.00000000000E+00 0. -1.
         11    1    1    2    0    0  0.95786557669E+02  0.11268533520E+01 -0.14401312663E+03  0.17296275631E+03  0.00000000000E+00 0.  1.
</event>
<event>
 7    1  0.6992302E-006  0.1581244E+03  0.7561462E-02  0.1190831E+00
          1   -1    0    0  501    0  0.00000000000E+00  0.00000000000E+00  0.75532046334E+03  0.75532046334E+03  0.00000000000E+00 0. -1.
         -1   -1    0    0    0  501 -0.00000000000E+00 -0.00000000000E+00 -0.52969384873E+02  0.52969384873E+02  0.00000000000E+00 0.  1.
         23    2    1    2    0    0 -0.25031074475E+02 -0.12102884557E+03  0.13854094443E+03  0.22386499300E+03  0.12508959052E+03 0.  0.
          5    1    3    3  502    0  0.39870938528E+02 -0.60636997920E+01  0.15678495260E+02  0.43471229657E+02  0.41800000000E+01 0. -1.
         -5    1    3    3    0  502 -0.64902013003E+02 -0.11496514577E+03  0.12286244917E+03  0.18039376334E+03  0.41800000000E+01 0. -1.
        -11    1    1    2    0    0 -0.25214466076E+02  0.56195702423E+02  0.35083145426E+03  0.35619718636E+03  0.00000000000E+00 0. -1.
         11    1    1    2    0    0  0.50245540550E+02  0.64833143143E+02  0.21297867977E+03  0.22822766886E+03  0.00000000000E+00 0.  1.
</event>
<event>
 7    1  0.6992302E-006  0.8701546E+02  0.7561462E-02  0.1310244E+00
          2   -1    0    0  501    0  0.00000000000E+00  0.00000000000E+00  0.40494051851E+02  0.40494051851E+02  0.00000000000E+00 0. -1.
         -2   -1    0    0    0  501 -0.00000000000E+00 -0.00000000000E+00 -0.30806463176E+03  0.30806463176E+03  0.00000000000E+00 0.  1.
         23    2    1    2    0    0 -0.43192724269E+01  0.22188514040E+02 -0.19162186803E+03  0.22995014300E+03  0.12508853540E+03 0.  0.
          5    1    3    3  502    0 -0.43557126194E+02 -0.31464541634E+02 -0.12316391743E+03  0.13443981397E+03  0.41800000000E+01 0. -1.
         -5    1    3    3    0  502  0.39237853767E+02  0.53653055674E+02 -0.68457950597E+02  0.95510329030E+02  0.41800000000E+01 0. -1.
        -11    1    1    2    0    0  0.70901966639E+01  0.14816529333E+02  0.13823885611E+02  0.21468587368E+02  0.00000000000E+00 0. -1.
         11    1    1    2    0    0 -0.27709242370E+01 -0.37005043373E+02 -0.89772597497E+02  0.97139953250E+02  0.00000000000E+00 0.  1.
</event>
<event>
 7    1  0.6992302E-006  0.1433189E+03  0.7561462E-02  0.1208932E+00
         -1   -1    0    0    0  501 -0.00000000000E+00  0.00000000000E+00  0.24615082657E+03  0.24615082657E+03  0.00000000000E+00 0.  1.
          1   -1    0    0  501    0  0.00000000000E+00 -0.00000000000E+00 -0.96642684480E+02  0.96642684480E+02  0.00000000000E+00 0. -1.
         23    2    1    2    0    0  0.61036404256E+02  0.90620764559E+02  0.97852472653E+02  0.19277130577E+03  0.12509238310E+03 0.  0.
          5    1    3    3  502    0 -0.41856357250E+01 -0.21820380042E+02 -0.91162910252E+01  0.24376785958E+02  0.41800000000E+01 0.  1.
         -5    1    3    3    0  502  0.65222039981E+02  0.11244114460E+03  0.10696876368E+03  0.16839451981E+03  0.41800000000E+01 0.  1.
        -11    1    1    2    0    0 -0.63829009372E+02 -0.25405154613E+02  0.32839547006E+01  0.68777530319E+02  0.00000000000E+00 0.  1.
         11    1    1    2    0    0  0.27926051159E+01 -0.65215609946E+02  0.48371714741E+02  0.81244674970E+02  0.00000000000E+00 0. -1.
</event>
<event>
 7    1  0.6992302E-006  0.1079084E+03  0.7561462E-02  0.1264493E+00
          2   -1    0    0  501    0  0.00000000000E+00  0.00000000000E+00  0.47803523821E+03  0.47803523821E+03  0.00000000000E+00 0. -1.
         -2   -1    0    0    0  501 -0.00000000000E+00 -0.00000000000E+00 -0.24989701553E+02  0.24989701553E+02  0.00000000000E+00 0.  1.
         23    2    1    2    0    0 -0.91092271114E+01  0.78021244468E+01  0.23480848459E+03  0.26632005022E+03  0.12508994183E+03 0.  0.
          5    1    3    3  502    0 -0.64765730992E+01 -0.57841383964E+02  0.13085403913E+03  0.14327534211E+03  0.41800000000E+01 0. -1.
         -5    1    3    3    0  502 -0.26326540122E+01  0.65643508411E+02  0.10395444546E+03  0.12304470811E+03  0.41800000000E+01 0. -1.
        -11    1    1    2    0    0 -0.37798223308E+02  0.13473695127E+02  0.92755463221E+02  0.10106345582E+03  0.00000000000E+00 0.  1.
         11    1    1    2    0    0  0.46907450420E+02 -0.21275819574E+02  0.12548158884E+03  0.13564143372E+03  0.00000000000E+00 0. -1.
</event>
<event>
 7    1  0.6992302E-006  0.1184652E+03  0.7561462E-02  0.1245651E+00
          1   -1    0    0  501    0  0.00000000000E+00  0.00000000000E+00  0.21513600651E+03  0.21513600651E+03  0.00000000000E+00 0. -1.
         -1   -1    0    0    0  501 -0.00000000000E+00 -0.00000000000E+00 -0.10364664995E+03  0.10364664995E+03  0.00000000000E+00 0.  1.
         23    2    1    2    0    0  0.82088863189E+02 -0.59661586485E+02  0.41900350303E+02  0.16643393947E+03  0.12508609231E+03 0.  0.
          5    1    3    3  502    0  0.72880127078E+02 -0.80368804483E+02 -0.10609048652E+02  0.10909024691E+03  0.41800000000E+01 0.  1.
         -5    1    3    3    0  502  0.92087361107E+01  0.20707217998E+02  0.52509398955E+02  0.57343692561E+02  0.41800000000E+01 0.  1.
        -11    1    1    2    0    0 -0.57659886954E+02  0.56416282070E+02  0.89629066063E+02  0.12058535952E+03  0.00000000000E+00 0. -1.
         11    1    1    2    0    0 -0.24428976235E+02  0.32453044152E+01 -0.20040059805E+02  0.31763357467E+02  0.00000000000E+00 0.  1.
</event>
<event>
 7    1  0.6992302E-006  0.9493062E+02  0.7561462E-02  0.1291332E+00
         -2   -1    0    0    0  501 -0.00000000000E+00  0.00000000000E+00  0.48017549130E+03  0.48017549130E+03  0.00000000000E+00 0. -1.
          2   -1    0    0  501    0  0.00000000000E+00 -0.00000000000E+00 -0.44306298549E+02  0.44306298549E+02  0.00000000000E+00 0.  1.
         23    2    1    2    0    0  0.50484730613E+02  0.75666603876E+01  0.38434468752E+03  0.40740165742E+03  0.12509719929E+03 0.  0.
          5    1    3    3  502    0 -0.22697275460E+02  0.39752766387E+02  0.21802139330E+03  0.22281438258E+03  0.41800000000E+01 0.  1.
         -5    1    3    3    0  502  0.73182006073E+02 -0.32186105999E+02  0.16632329422E+03  0.18458727484E+03  0.41800000000E+01 0.  1.
        -11    1    1    2    0    0 -0.41081244124E+00 -0.13417468454E+02 -0.23279973526E+02  0.26872930506E+02  0.00000000000E+00 0.  1.
         11    1    1    2    0    0 -0.50073918172E+02  0.58508080669E+01  0.74804478752E+02  0.90207201916E+02  0.00000000000E+00 0. -1.
</event>
<event>
 7    1  0.6992302E-006  0.1087592E+03  0.7561462E-02  0.1262885E+00
         -1   -1    0    0    0  501 -0.00000000000E+00  0.00000000000E+00  0.11619909142E+03  0.11619909142E+03  0.00000000000E+00 0.  1.
          1   -1    0    0  501    0  0.00000000000E+00 -0.00000000000E+00 -0.11471239032E+03  0.11471239032E+03  0.00000000000E+00 0. -1.
         23    2    1    2    0    0  0.33486403322E+02  0.13420567313E+02  0.19406966718E+02  0.13167320630E+03  0.12513893106E+03 0.  0.
          5    1    3    3  502    0 -0.30069752920E+02 -0.34098231135E+02  0.24925174449E+02  0.52015537377E+02  0.41800000000E+01 0. -1.
         -5    1    3    3    0  502  0.63556156242E+02  0.47518798448E+02 -0.55182077315E+01  0.79657668926E+02  0.41800000000E+01 0. -1.
        -11    1    1    2    0    0 -0.52224555310E+02  0.18482286483E+02 -0.26266024231E+02  0.61309894143E+02  0.00000000000E+00 0. -1.
         11    1    1    2    0    0  0.18738151988E+02 -0.31902853795E+02  0.83457586109E+01  0.37928381287E+02  0.00000000000E+00 0.  1.
</event>
<event>
 7    1  0.6992302E-006  0.1201893E+03  0.7561462E-02  0.1242785E+00
         -3   -1    0    0    0  501 -0.00000000000E+00  0.00000000000E+00  0.10013162909E+03  0.10013162909E+03  0.00000000000E+00 0.  1.
          3   -1    0    0  501    0  0.00000000000E+00 -0.00000000000E+00 -0.31978171601E+03  0.31978171601E+03  0.00000000000E+00 0. -1.
         23    2    1    2    0    0  0.62560651536E+02  0.38295624349E+02  0.26512441504E+02  0.14741228121E+03  0.12508829335E+03 0.  0.
          5    1    3    3  502    0 -0.36872124381E+02  0.13348290708E+02  0.20965419716E+02  0.44662642612E+02  0.41800000000E+01 0. -1.
         -5    1    3    3    0  502  0.99432775917E+02  0.24947333641E+02  0.55470217883E+01  0.10274963860E+03  0.41800000000E+01 0. -1.
        -11    1    1    2    0    0 -0.75724955312E+02 -0.38964140919E+02 -0.24487041577E+03  0.25925661738E+03  0.00000000000E+00 0. -1.
         11    1    1    2    0    0  0.13164303776E+02  0.66851657028E+00 -0.12921126491E+01  0.13244446512E+02  0.00000000000E+00 0.  1.
</event>
<event>
 7    1  0.6992302E-006  0.1488690E+03  0.7561462E-02  0.1201870E+00
          2   -1    0    0  501    0  0.00000000000E+00  0.00000000000E+00  0.34607939794E+03  0.34607939794E+03  0.00000000000E+00 0. -1.
         -2   -1    0    0    0  501 -0.00000000000E+00 -0.00000000000E+00 -0.75864139468E+02  0.75864139468E+02  0.00000000000E+00 0.  1.
         23    2    1    2    0    0 -0.78871503607E+02 -0.76095323085E+02  0.80742397271E+02  0.18485643393E+03  0.12506539958E+03 0.  0.
          5    1    3    3  502    0 -0.92512971600E+02 -0.12760882698E+02  0.74684971276E+02  0.11965286196E+03  0.41800000000E+01 0. -1.
         -5    1    3    3    0  502  0.13641467993E+02 -0.63334440386E+02  0.60574259948E+01  0.65203571971E+02  0.41800000000E+01 0. -1.
        -11    1    1    2    0    0  0.11257790121E+02  0.70606003298E+02  0.12201141815E+03  0.14141687205E+03  0.00000000000E+00 0. -1.
         11    1    1    2    0    0  0.67613713486E+02  0.54893197866E+01  0.67461443051E+02  0.95670231428E+02  0.00000000000E+00 0.  1.
</event>
<event>
 7    1  0.6992302E-006  0.1000032E+03  0.7561462E-02  0.1280289E+00
         -3   -1    0    0    0  501 -0.00000000000E+00  0.00000000000E+00  0.97255556723E+02  0.97255556723E+02  0.00000000000E+00 0.  1.
          3   -1    0    0  501    0  0.00000000000E+00 -0.00000000000E+00 -0.63195149714E+03  0.63195149714E+03  0.00000000000E+00 0. -1.
         23    2    1    2    0    0 -0.67164719825E+02 -0.13922413680E+01  0.46157531109E+02  0.13749963001E+03  0.11073659129E+03 0.  0.
          5    1    3    3  502    0 -0.17710115399E+02  0.25140482912E+02 -0.29759589007E+02  0.42997646521E+02  0.41800000000E+01 0. -1.
         -5    1    3    3    0  502 -0.49454604426E+02 -0.26532724280E+02  0.75917120117E+02  0.94501983489E+02  0.41800000000E+01 0.  1.
        -11    1    1    2    0    0  0.38852251144E+02  0.45780489429E+02 -0.29582569397E+03  0.30185790009E+03  0.00000000000E+00 0.  1.
         11    1    1    2    0    0  0.28312468681E+02 -0.44388248061E+02 -0.28502777755E+03  0.28984952376E+03  0.00000000000E+00 0. -1.
</event>
<event>
 7    1  0.6992302E-006  0.2210526E+03  0.7561462E-02  0.1133101E+00
          2   -1    0    0  501    0  0.00000000000E+00  0.00000000000E+00  0.37325844943E+03  0.37325844943E+03  0.00000000000E+00 0.  1.
         -2   -1    0    0    0  501 -0.00000000000E+00 -0.00000000000E+00 -0.15657145168E+03  0.15657145168E+03  0.00000000000E+00 0. -1.
         23    2    1    2    0    0  0.15736636501E+03  0.11295769943E+03  0.67423717012E+01  0.23068473844E+03  0.12508546788E+03 0.  0.
          5    1    3    3  502    0  0.16104356587E+03  0.52022877430E+02  0.80719824887E+01  0.16948167803E+03  0.41800000000E+01 0.  1.
         -5    1    3    3    0  502 -0.36772008665E+01  0.60934822003E+02 -0.13296107874E+01  0.61203060410E+02  0.41800000000E+01 0.  1.
        -11    1    1    2    0    0 -0.56932953117E+02 -0.93283686864E+02  0.90830733692E+02  0.14210358746E+03  0.00000000000E+00 0. -1.
         11    1    1    2    0    0 -0.10043341189E+03 -0.19674012569E+02  0.11911389236E+03  0.15704157522E+03  0.00000000000E+00 0.  1.
</event>
<event>
 7    1  0.9336081E-006  0.1214287E+03  0.7561462E-02  0.1240759E+00
         -1   -1    0    0    0  501 -0.00000000000E+00  0.00000000000E+00  0.46415670072E+02  0.46415670072E+02  0.00000000000E+00 0.  1.
          1   -1    0    0  501    0  0.00000000000E+00 -0.00000000000E+00 -0.50087516863E+03  0.50087516863E+03  0.00000000000E+00 0. -1.
         23    2    1    2    0    0 -0.98881456726E+02  0.31012213280E+02 -0.19763820073E+03  0.25582760570E+03  0.12509038969E+03 0.  0.
          5    1    3    3  502    0 -0.77965055025E+02  0.45912729474E+02 -0.45279556148E+02  0.10126321710E+03  0.41800000000E+01 0. -1.
         -5    1    3    3    0  502 -0.20916401701E+02 -0.14900516193E+02 -0.15235864458E+03  0.15456438860E+03  0.41800000000E+01 0. -1.
        -11    1    1    2    0    0  0.26155456420E+02 -0.45146212217E+02 -0.16737616207E+03  0.17531990192E+03  0.00000000000E+00 0. -1.
         11    1    1    2    0    0  0.72726000305E+02  0.14133998936E+02 -0.89445135759E+02  0.11614333109E+03  0.00000000000E+00 0.  1.
</event>
<event>
 7    1  0.6992302E-006  0.1120108E+03  0.7561462E-02  0.1256891E+00
         -1   -1    0    0    0  501 -0.00000000000E+00  0.00000000000E+00  0.85870039531E+02  0.85870039531E+02  0.00000000000E+00 0.  1.
          1   -1    0    0  501    0  0.00000000000E+00 -0.00000000000E+00 -0.18247898594E+03  0.18247898594E+03  0.00000000000E+00 0. -1.
         23    2    1    2    0    0 -0.29640763153E+02  0.43055955454E+02 -0.18717255414E+02  0.13685721140E+03  0.12508865066E+03 0.  0.
          5    1    3    3  502    0  0.24106383117E+02  0.63737571767E+02 -0.35197383442E+02  0.76810962518E+02  0.41800000000E+01 0. -1.
         -5    1    3    3    0  502 -0.53747146271E+02 -0.20681616313E+02  0.16480128029E+02  0.60046248887E+02  0.41800000000E+01 0. -1.
        -11    1    1    2    0    0  0.55492674564E+02 -0.10566930227E+02 -0.68744116176E+02  0.88976684887E+02  0.00000000000E+00 0.  1.
         11    1    1    2    0    0 -0.25851911410E+02 -0.32489025227E+02 -0.91475748166E+01  0.42515129175E+02  0.00000000000E+00 0. -1.
</event>
<event>
 7    1  0.6992302E-006  0.1453979E+03  0.7561462E-02  0.1206245E+00
          2   -1    0    0  501    0  0.00000000000E+00  0.00000000000E+00  0.15242516889E+03  0.15242516889E+03  0.00000000000E+00 0. -1.
         -2   -1    0    0    0  501 -0.00000000000E+00 -0.00000000000E+00 -0.18943255317E+03  0.18943255317E+03  0.00000000000E+00 0.  1.
         23    2    1    2    0    0  0.12337903080E+03 -0.26982382175E+02 -0.48068219871E+02  0.18414199588E+03  0.12508911501E+03 0.  0.
          5    1    3    3  502    0  0.29487230241E+02 -0.34970857625E+02  0.35555266565E+02  0.58087064058E+02  0.41800000000E+01 0.  1.
         -5    1    3    3    0  502  0.93891800563E+02  0.79884754502E+01 -0.83623486436E+02  0.12605493182E+03  0.41800000000E+01 0.  1.
        -11    1    1    2    0    0  0.10450877623E+02 -0.68527755426E+01  0.15118808621E+02  0.19615293774E+02  0.00000000000E+00 0. -1.
         11    1    1    2    0    0 -0.13382990843E+03  0.33835157718E+02 -0.40579730281E+01  0.13810043241E+03  0.00000000000E+00 0.  1.
</event>
<event>
 7    1  0.6992302E-006  0.1326759E+03  0.7561462E-02  0.1223538E+00
         -1   -1    0    0    0  501 -0.00000000000E+00  0.00000000000E+00  0.73023357731E+03  0.73023357731E+03  0.00000000000E+00 0.  1.
          1   -1    0    0  501    0  0.00000000000E+00 -0.00000000000E+00 -0.27239699925E+02  0.27239699925E+02  0.00000000000E+00 0. -1.
         23    2    1    2    0    0 -0.87876095899E+02 -0.14198397771E+01  0.37701051503E+03  0.40682713815E+03  0.12508863946E+03 0.  0.
          5    1    3    3  502    0 -0.84798000270E+02 -0.53595674446E+02  0.25211482876E+03  0.27137162057E+03  0.41800000000E+01 0. -1.
         -5    1    3    3    0  502 -0.30780956297E+01  0.52175834669E+02  0.12489568627E+03  0.13545551758E+03  0.41800000000E+01 0. -1.
        -11    1    1    2    0    0  0.99422713354E+02  0.70447915374E+01  0.32218832755E+03  0.33725335199E+03  0.00000000000E+00 0.  1.
         11    1    1    2    0    0 -0.11546617454E+02 -0.56249517603E+01  0.37950348087E+01  0.13392787094E+02  0.00000000000E+00 0. -1.
</event>
<event>
 7    1  0.6992302E-006  0.9251190E+02  0.7561462E-02  0.1296880E+00
          1   -1    0    0  501    0  0.00000000000E+00  0.00000000000E+00  0.14039787318E+02  0.14039787318E+02  0.00000000000E+00 0. -1.
         -1   -1    0    0    0  501 -0.00000000000E+00 -0.00000000000E+00 -0.90586443186E+03  0.90586443186E+03  0.00000000000E+00 0.  1.
         23    2    1    2    0    0 -0.45839678689E+01  0.14460015976E+02 -0.62455330072E+03  0.63713697581E+03  0.12508635288E+03 0.  0.
          5    1    3    3  502    0  0.41838377303E+01  0.59639256841E+02 -0.51156677556E+03  0.51506541692E+03  0.41800000000E+01 0. -1.
         -5    1    3    3    0  502 -0.87678055992E+01 -0.45179240865E+02 -0.11298652516E+03  0.12207155888E+03  0.41800000000E+01 0. -1.
        -11    1    1    2    0    0  0.13732502959E+02 -0.44974356504E+02 -0.79929131176E+02  0.92735863565E+02  0.00000000000E+00 0. -1.
         11    1    1    2    0    0 -0.91485350901E+01  0.30514340528E+02 -0.18734221264E+03  0.19003137980E+03  0.00000000000E+00 0.  1.
</event>
<event>
 7    1  0.6992302E-006  0.1729490E+03  0.7561462E-02  0.1174807E+00
         -2   -1    0    0    0  501 -0.00000000000E+00  0.00000000000E+00  0.34317040707E+03  0.34317040707E+03  0.00000000000E+00 0.  1.
          2   -1    0    0  501    0  0.00000000000E+00 -0.00000000000E+00 -0.10793305239E+03  0.10793305239E+03  0.00000000000E+00 0. -1.
         23    2    1    2    0    0 -0.11943983917E+03 -0.75925549718E+02  0.20857005688E+03  0.28138753077E+03  0.12508760757E+03 0.  0.
          5    1    3    3  502    0  0.21955470851E+02  0.73449066566E+01  0.37771798016E+02  0.44499117738E+02  0.41800000000E+01 0.  1.
         -5    1    3    3    0  502 -0.14139531002E+03 -0.83270456375E+02  0.17079825886E+03  0.23688841304E+03  0.41800000000E+01 0.  1.
        -11    1    1    2    0    0  0.11483605677E+03  0.39393991542E+02  0.43852637212E+02  0.12908237794E+03  0.00000000000E+00 0.  1.
         11    1    1    2    0    0  0.46037823969E+01  0.36531558176E+02 -0.17185339415E+02  0.40633550743E+02  0.00000000000E+00 0. -1.
</event>
<event>
 7    1  0.6992302E-006  0.1623704E+03  0.7561462E-02  0.1186046E+00
          2   -1    0    0  501    0  0.00000000000E+00  0.00000000000E+00  0.83607342835E+03  0.83607342835E+03  0.00000000000E+00 0. -1.
         -2   -1    0    0    0  501 -0.00000000000E+00 -0.00000000000E+00 -0.33644814739E+02  0.33644814739E+02  0.00000000000E+00 0.  1.
         23    2    1    2    0    0  0.32175535561E+01 -0.12749036207E+03  0.44079672501E+03  0.47561966249E+03  0.12509262767E+03 0.  0.
          5    1    3    3  502    0  0.55252259957E+01 -0.14752652842E+03  0.42417913711E+03  0.44915478120E+03  0.41800000000E+01 0.  1.
         -5    1    3    3    0  502 -0.23076724396E+01  0.20036166356E+02  0.16617587901E+02  0.26464881296E+02  0.41800000000E+01 0.  1.
        -11    1    1    2    0    0 -0.45492740833E+02  0.46256849005E+02  0.14059112409E+03  0.15483910914E+03  0.00000000000E+00 0.  1.
         11    1    1    2    0    0  0.42275187276E+02  0.81233513063E+02  0.22104076451E+03  0.23925947145E+03  0.00000000000E+00 0. -1.
</event>
<event>
 6    1  0.6992302E-006  0.1133141E+03  0.7561462E-02  0.1254553E+00
         -1   -1    0    0    0  501 -0.00000000000E+00  0.00000000000E+00  0.30094169536E+02  0.30094169536E+02  0.00000000000E+00 0.  1.
          1   -1    0    0  501    0  0.00000000000E+00 -0.00000000000E+00 -0.54119797879E+03  0.54119797879E+03  0.00000000000E+00 0. -1.
          5    1    1    2  502    0  0.30701161127E+02 -0.75219009456E+02 -0.81514950079E+02  0.11516344978E+03  0.41800000000E+01 0. -1.
         -5    1    1    2    0  502 -0.28148778123E+02  0.38723656112E+02 -0.21838522105E+03  0.22361004544E+03  0.41800000000E+01 0.  1.
        -11    1    1    2    0    0  0.89677729179E+01 -0.29188641966E+02 -0.69048209066E+02  0.75498694996E+02  0.00000000000E+00 0.  1.
         11    1    1    2    0    0 -0.11520155922E+02  0.65683995309E+02 -0.14215542906E+03  0.15701995811E+03  0.00000000000E+00 0. -1.
</event>
<event>
 6    1  0.6992302E-006  0.7993957E+02  0.7561462E-02  0.1329223E+00
          4   -1    0    0  501    0  0.00000000000E+00  0.00000000000E+00  0.31792103000E+03  0.31792103000E+03  0.00000000000E+00 0. -1.
         -4   -1    0    0    0  501 -0.00000000000E+00 -0.00000000000E+00 -0.22876322570E+02  0.22876322570E+02  0.00000000000E+00 0.  1.
          5    1    1    2  502    0  0.27936433824E+02  0.54192843290E+02  0.81424078783E+02  0.10180698210E+03  0.41800000000E+01 0. -1.
         -5    1    1    2    0  502 -0.25424668834E+02 -0.63894721062E+02  0.10331142186E+03  0.12417596970E+03  0.41800000000E+01 0.  1.
        -11    1    1    2    0    0 -0.14259638100E+02  0.11059746540E+02  0.45740513141E+02  0.49171636283E+02  0.00000000000E+00 0. -1.
         11    1    1    2    0    0  0.11747873109E+02 -0.13578687684E+01  0.64568693640E+02  0.65642764480E+02  0.00000000000E+00 0.  1.
</event>
<event>
 7    1  0.6992302E-006  0.9023370E+02  0.7561462E-02  0.1302287E+00
          1   -1    0    0  501    0  0.00000000000E+00  0.00000000000E+00  0.10357412724E+03  0.10357412724E+03  0.00000000000E+00 0. -1.
         -1   -1    0    0    0  501 -0.00000000000E+00 -0.00000000000E+00 -0.17703811152E+03  0.17703811152E+03  0.00000000000E+00 0.  1.
         23    2    1    2    0    0  0.16373312291E+02  0.52230471114E+02 -0.10371793541E+03  0.17147231409E+03  0.12509691006E+03 0.  0.
          5    1    3    3  502    0 -0.78591024409E+01  0.51057689523E+02  0.11971537015E+02  0.53192511212E+02  0.41800000000E+01 0.  1.
         -5    1    3    3    0  502  0.24232414732E+02  0.11727815912E+01 -0.11568947242E+03  0.11827980288E+03  0.41800000000E+01 0.  1.
        -11    1    1    2    0    0 -0.30295700742E+02 -0.72988776583E+02  0.28771949468E+02  0.84101225120E+02  0.00000000000E+00 0.  1.
         11    1    1    2    0    0  0.13922388451E+02  0.20758305469E+02  0.14820016511E+01  0.25038699548E+02  0.00000000000E+00 0. -1.
</event>
<event>
 7    1  0.6992302E-006  0.1136714E+03  0.7561462E-02  0.1253918E+00
         -2   -1    0    0    0  501 -0.00000000000E+00  0.00000000000E+00  0.39286413752E+02  0.39286413752E+02  0.00000000000E+00 0.  1.
          2   -1    0    0  501    0  0.00000000000E+00 -0.00000000000E+00 -0.46164570099E+03  0.46164570099E+03  0.00000000000E+00 0. -1.
         23    2    1    2    0    0  0.26150644664E+02 -0.74133991950E+02 -0.20362830876E+03  0.25157752050E+03  0.12508819173E+03 0.  0.
          5    1    3    3  502    0 -0.36790724954E+02 -0.25782247336E+02 -0.14758047678E+03  0.15432352784E+03  0.41800000000E+01 0.  1.
         -5    1    3    3    0  502  0.62941369618E+02 -0.48351744614E+02 -0.56047831988E+02  0.97253992654E+02  0.41800000000E+01 0.  1.
        -11    1    1    2    0    0 -0.39406382195E+02  0.15035875498E+02 -0.15819924922E+03  0.16372520564E+03  0.00000000000E+00 0. -1.
         11    1    1    2    0    0  0.13255737531E+02  0.59098116452E+02 -0.60531729254E+02  0.85629388601E+02  0.00000000000E+00 0.  1.
</event>
<event>
 7    1  0.6992302E-006  0.1009806E+03  0.7561462E-02  0.1278247E+00
          1   -1    0    0  501    0  0.00000000000E+00  0.00000000000E+00  0.62399084183E+03  0.62399084183E+03  0.00000000000E+00 0. -1.
         -1   -1    0    0    0  501 -0.00000000000E+00 -0.00000000000E+00 -0.31890742108E+02  0.31890742108E+02  0.00000000000E+00 0.  1.
         23    2    1    2    0    0 -0.78152928118E+02 -0.31657996644E+02  0.22307661942E+03  0.26929682163E+03  0.12508993199E+03 0.  0.
          5    1    3    3  502    0 -0.47830258961E+02  0.87425939881E+01  0.94106789967E+01  0.49701105633E+02  0.41800000000E+01 0.  1.
         -5    1    3    3    0  502 -0.30322669157E+02 -0.40400590632E+02  0.21366594042E+03  0.21959571600E+03  0.41800000000E+01 0.  1.
        -11    1    1    2    0    0 -0.96280211499E+01  0.41294317714E+01  0.59720922851E+01  0.12058892332E+02  0.00000000000E+00 0.  1.
         11    1    1    2    0    0  0.87780949268E+02  0.27528564872E+02  0.36305138802E+03  0.37452586998E+03  0.00000000000E+00 0. -1.
</event>
<event>
 7    1  0.6992302E-006  0.1924538E+03  0.7561462E-02  0.1156267E+00
          2   -1    0    0  501    0  0.00000000000E+00  0.00000000000E+00  0.39277445662E+03  0.39277445662E+03  0.00000000000E+00 0. -1.
         -2   -1    0    0    0  501 -0.00000000000E+00 -0.00000000000E+00 -0.10136288776E+03  0.10136288776E+03  0.00000000000E+00 0.  1.
         23    2    1    2    0    0  0.37769200615E+02 -0.15988890416E+03  0.11381870960E+03  0.23578264222E+03  0.12509109292E+03 0.  0.
          5    1    3    3  502    0  0.80080344343E+02 -0.80529886533E+02  0.44057252919E+02  0.12188698909E+03  0.41800000000E+01 0. -1.
         -5    1    3    3    0  502 -0.42311143728E+02 -0.79359017632E+02  0.69761456680E+02  0.11389565313E+03  0.41800000000E+01 0. -1.
        -11    1    1    2    0    0 -0.61380966791E+02  0.10804514807E+03  0.15079702905E+03  0.19539990040E+03  0.00000000000E+00 0. -1.
         11    1    1    2    0    0  0.23611766176E+02  0.51843756090E+02  0.26795830208E+02  0.62954801755E+02  0.00000000000E+00 0.  1.
</event>
<event>
 7    1  0.6992302E-006  0.1261626E+03  0.7561462E-02  0.1233263E+00
          2   -1    0    0  501    0  0.00000000000E+00  0.00000000000E+00  0.19895460634E+03  0.19895460634E+03  0.00000000000E+00 0. -1.
         -2   -1    0    0    0  501 -0.00000000000E+00 -0.00000000000E+00 -0.98946254124E+02  0.98946254124E+02  0.00000000000E+00 0.  1.
         23    2    1    2    0    0 -0.79183682767E+02  0.38234541242E+02  0.51401098190E+02  0.16131235855E+03  0.12509064060E+03 0.  0.
          5    1    3    3  502    0  0.31279560808E+02 -0.88035204766E+01  0.10367139301E+02  0.34363685402E+02  0.41800000000E+01 0. -1.
         -5    1    3    3    0  502 -0.11046324357E+03  0.47038061718E+02  0.41033958889E+02  0.12694867315E+03  0.41800000000E+01 0. -1.
        -11    1    1    2    0    0  0.10945956549E+02 -0.28462657748E+02 -0.22236782915E+02  0.37741374714E+02  0.00000000000E+00 0.  1.
         11    1    1    2    0    0  0.68237726218E+02 -0.97718834935E+01  0.70844036945E+02  0.98847127207E+02  0.00000000000E+00 0. -1.
</event>
<event>
 7    1  0.6992302E-006  0.2550437E+03  0.7561462E-02  0.1110158E+00
          2   -1    0    0  501    0  0.00000000000E+00  0.00000000000E+00  0.12837595880E+04  0.12837595880E+04  0.00000000000E+00 0.  1.
         -2   -1    0    0    0  501 -0.00000000000E+00 -0.00000000000E+00 -0.52383924511E+02  0.52383924511E+02  0.00000000000E+00 0. -1.
         23    2    1    2    0    0 -0.10616899570E+03 -0.20903097728E+03  0.68984702560E+03  0.73925826348E+03  0.12509219112E+03 0.  0.
          5    1    3    3  502    0 -0.13016069518E+03 -0.14096259020E+03  0.46394688776E+03  0.50207215165E+03  0.41800000000E+01 0. -1.
         -5    1    3    3    0  502  0.23991699488E+02 -0.68068387080E+02  0.22590013784E+03  0.23718611182E+03  0.41800000000E+01 0. -1.
        -11    1    1    2    0    0 -0.11113921383E+02  0.28604385134E+02  0.35050625413E+02  0.46586225853E+02  0.00000000000E+00 0. -1.
         11    1    1    2    0    0  0.11728291708E+03  0.18042659215E+03  0.50647801245E+03  0.55029902316E+03  0.00000000000E+00 0.  1.
</event>
<event>
 7    1  0.6992302E-006  0.9926216E+02  0.7561462E-02  0.1281855E+00
         -2   -1    0    0    0  501 -0.00000000000E+00  0.00000000000E+00  0.26244644027E+03  0.26244644027E+03  0.00000000000E+00 0.  1.
          2   -1    0    0  501    0  0.00000000000E+00 -0.00000000000E+00 -0.56446400757E+02  0.56446400757E+02  0.00000000000E+00 0. -1.
         23    2    1    2    0    0  0.10423745682E+02  0.42993913494E+02  0.16049037866E+03  0.20823415481E+03  0.12508865063E+03 0.  0.
          5    1    3    3  502    0 -0.28045031435E+02 -0.34934728466E+02  0.64956881508E+02  0.79017896052E+02  0.41800000000E+01 0. -1.
         -5    1    3    3    0  502  0.38468777117E+02  0.77928641960E+02  0.95533497152E+02  0.12921625876E+03  0.41800000000E+01 0. -1.
        -11    1    1    2    0    0 -0.28976328309E+02 -0.14195442006E+02  0.64041044233E+02  0.71710484049E+02  0.00000000000E+00 0.  1.
         11    1    1    2    0    0  0.18552582627E+02 -0.28798471487E+02 -0.18531383376E+02  0.38948202166E+02  0.00000000000E+00 0. -1.
</event>
<event>
 7    1  0.6992302E-006  0.1073853E+03  0.7561462E-02  0.1265490E+00
          1   -1    0    0  501    0  0.00000000000E+00  0.00000000000E+00  0.17483594758E+03  0.17483594758E+03  0.00000000000E+00 0. -1.
         -1   -1    0    0    0  501 -0.00000000000E+00 -0.00000000000E+00 -0.12227068645E+03  0.12227068645E+03  0.00000000000E+00 0.  1.
         23    2    1    2    0    0  0.49122785080E+02 -0.55106864585E+02 -0.36909800931E+02  0.14986569243E+03  0.12509027869E+03 0.  0.
          5    1    3    3  502    0  0.62636311383E+02 -0.65206234436E+02  0.17987109971E+02  0.92283091832E+02  0.41800000000E+01 0. -1.
         -5    1    3    3    0  502 -0.13513526303E+02  0.10099369851E+02 -0.54896910902E+02  0.57582600593E+02  0.41800000000E+01 0. -1.
        -11    1    1    2    0    0 -0.69929371027E+02  0.36108800964E+02  0.35464652523E+02  0.86323253054E+02  0.00000000000E+00 0.  1.
         11    1    1    2    0    0  0.20806585947E+02  0.18998063621E+02  0.54010409536E+02  0.60917688551E+02  0.00000000000E+00 0. -1.
</event>
<event>
 7    1  0.6992302E-006  0.1193994E+03  0.7561462E-02  0.1244091E+00
         -1   -1    0    0    0  501 -0.00000000000E+00  0.00000000000E+00  0.55411914175E+02  0.55411914175E+02  0.00000000000E+00 0.  1.
          1   -1    0    0  501    0  0.00000000000E+00 -0.00000000000E+00 -0.30337384762E+03  0.30337384762E+03  0.00000000000E+00 0. -1.
         23    2    1    2    0    0 -0.61493416328E+02 -0.40233946597E+02 -0.12899802070E+03  0.19413646671E+03  0.12509303599E+03 0.  0.
          5    1    3    3  502    0  0.69763131486E+01  0.39122351841E+02 -0.40529402372E+02  0.56915131691E+02  0.41800000000E+01 0. -1.
         -5    1    3    3    0  502 -0.68469729477E+02 -0.79356298438E+02 -0.88468618328E+02  0.13722133502E+03  0.41800000000E+01 0. -1.
        -11    1    1    2    0    0  0.16842695619E+02  0.45940924057E+02 -0.14712803441E+02  0.51095121920E+02  0.00000000000E+00 0.  1.
         11    1    1    2    0    0  0.44650720709E+02 -0.57069774595E+01 -0.10425110930E+03  0.11355417316E+03  0.00000000000E+00 0. -1.
</event>
<event>
 7    1  0.6992302E-006  0.2023741E+03  0.7561462E-02  0.1147751E+00
         -1   -1    0    0    0  501 -0.00000000000E+00  0.00000000000E+00  0.72482324063E+02  0.72482324063E+02  0.00000000000E+00 0.  1.
          1   -1    0    0  501    0  0.00000000000E+00 -0.00000000000E+00 -0.62379971890E+03  0.62379971890E+03  0.00000000000E+00 0. -1.
         23    2    1    2    0    0 -0.15727117625E+03 -0.92187030366E+02 -0.27083047887E+03  0.34961381620E+03  0.12509196915E+03 0.  0.
          5    1    3    3  502    0 -0.16407924897E+03 -0.41771570685E+02 -0.19608297835E+03  0.25910011744E+03  0.41800000000E+01 0.  1.
         -5    1    3    3    0  502  0.68080727158E+01 -0.50415459681E+02 -0.74747500517E+02  0.90513698756E+02  0.41800000000E+01 0.  1.
        -11    1    1    2    0    0  0.15125864898E+02  0.39300403838E+00  0.40112757796E+01  0.15653644127E+02  0.00000000000E+00 0.  1.
         11    1    1    2    0    0  0.14214531136E+03  0.91794026328E+02 -0.28449819175E+03  0.33101458264E+03  0.00000000000E+00 0. -1.
</event>
<event>
 7    1  0.6992302E-006  0.1444313E+03  0.7561462E-02  0.1207488E+00
         -2   -1    0    0    0  501 -0.00000000000E+00  0.00000000000E+00  0.22759998216E+03  0.22759998216E+03  0.00000000000E+00 0.  1.
          2   -1    0    0  501    0  0.00000000000E+00 -0.00000000000E+00 -0.10193129185E+03  0.10193129185E+03  0.00000000000E+00 0. -1.
         23    2    1    2    0    0 -0.33083364143E+02 -0.99614738254E+02  0.82416659473E+02  0.18300370287E+03  0.12522078280E+03 0.  0.
          5    1    3    3  502    0 -0.70540238707E+02 -0.79976581084E+02  0.21724022060E+02  0.10891090089E+03  0.41800000000E+01 0. -1.
         -5    1    3    3    0  502  0.37456874564E+02 -0.19638157170E+02  0.60692637412E+02  0.74092801980E+02  0.41800000000E+01 0. -1.
        -11    1    1    2    0    0 -0.23251473414E+01  0.10394342744E+03  0.27584934408E+02  0.10756658879E+03  0.00000000000E+00 0.  1.
         11    1    1    2    0    0  0.35408511485E+02 -0.43286891826E+01  0.15667096430E+02  0.38960982356E+02  0.00000000000E+00 0. -1.
</event>
<event>
 7    1  0.6992302E-006  0.1185041E+03  0.7561462E-02  0.1245585E+00
         -2   -1    0    0    0  501 -0.00000000000E+00  0.00000000000E+00  0.19768824988E+02  0.19768824988E+02  0.00000000000E+00 0.  1.
          2   -1    0    0  501    0  0.00000000000E+00 -0.00000000000E+00 -0.76646255678E+03  0.76646255678E+03  0.00000000000E+00 0. -1.
         23    2    1    2    0    0  0.38887042935E+02 -0.42795450863E+02 -0.44129601084E+03  0.46231282298E+03  0.12508926568E+03 0.  0.
          5    1    3    3  502    0  0.71766480342E+02  0.12727325801E+02 -0.24434055256E+03  0.25501409872E+03  0.41800000000E+01 0. -1.
         -5    1    3    3    0  502 -0.32879437407E+02 -0.55522776664E+02 -0.19695545828E+03  0.20729872426E+03  0.41800000000E+01 0. -1.
        -11    1    1    2    0    0 -0.58702838001E+02  0.79302033348E+01 -0.11518296462E+03  0.12952230176E+03  0.00000000000E+00 0.  1.
         11    1    1    2    0    0  0.19815795066E+02  0.34865247528E+02 -0.19021475633E+03  0.19439625703E+03  0.00000000000E+00 0. -1.
</event>
<event>
 7    1  0.6992302E-006  0.1236139E+03  0.7561462E-02  0.1237252E+00
          1   -1    0    0  501    0  0.00000000000E+00  0.00000000000E+00  0.44332205649E+03  0.44332205649E+03  0.00000000000E+00 0. -1.
         -1   -1    0    0    0  501 -0.00000000000E+00 -0.00000000000E+00 -0.72734924801E+02  0.72734924801E+02  0.00000000000E+00 0.  1.
         23    2    1    2    0    0 -0.98518240120E+02 -0.16801015814E+01  0.47697615940E+02  0.16622797864E+03  0.12509201389E+03 0.  0.
          5    1    3    3  502    0 -0.10074015376E+03  0.36564031366E+02  0.63429486285E+02  0.12460449069E+03  0.41800000000E+01 0.  1.
         -5    1    3    3    0  502  0.22219136356E+01 -0.38244132948E+02 -0.15731870345E+02  0.41623487956E+02  0.41800000000E+01 0.  1.
        -11    1    1    2    0    0  0.33488365842E+02 -0.10873250521E+02  0.21514216858E+02  0.41262086117E+02  0.00000000000E+00 0.  1.
         11    1    1    2    0    0  0.65029874278E+02  0.12553352103E+02  0.30137529889E+03  0.30856691654E+03  0.00000000000E+00 0. -1.
</event>
<event>
 7    1  0.6992302E-006  0.1188368E+03  0.7561462E-02  0.1245028E+00
          1   -1    0    0  501    0  0.00000000000E+00  0.00000000000E+00  0.15232010008E+03  0.15232010008E+03  0.00000000000E+00 0. -1.
         -1   -1    0    0    0  501 -0.00000000000E+00 -0.00000000000E+00 -0.13173946808E+03  0.13173946808E+03  0.00000000000E+00 0.  1.
         23    2    1    2    0    0  0.33318201833E+02 -0.70615268136E+02 -0.34830101615E+02  0.15151819765E+03  0.12509200443E+03 0.  0.
          5    1    3    3  502    0 -0.23936139481E+02  0.21367596810E+02 -0.28145724209E+02  0.42885512215E+02  0.41800000000E+01 0. -1.
         -5    1    3    3    0  502  0.57254341315E+02 -0.91982864946E+02 -0.66843774060E+01  0.10863268543E+03  0.41800000000E+01 0. -1.
        -11    1    1    2    0    0 -0.20648647257E+02 -0.41474295779E+01 -0.17472768682E+02  0.27365406101E+02  0.00000000000E+00 0.  1.
         11    1    1    2    0    0 -0.12669554576E+02  0.74762697714E+02  0.72883502297E+02  0.10517596441E+03  0.00000000000E+00 0. -1.
</event>
<event>
 7    1  0.6992302E-006  0.1058092E+03  0.7561462E-02  0.1268533E+00
         -2   -1    0    0    0  501 -0.00000000000E+00  0.00000000000E+00  0.91282554664E+02  0.91282554664E+02  0.00000000000E+00 0.  1.
          2   -1    0    0  501    0  0.00000000000E+00 -0.00000000000E+00 -0.15690807187E+03  0.15690807187E+03  0.00000000000E+00 0. -1.
         23    2    1    2    0    0 -0.31414803856E+02  0.33900722050E+02 -0.13074371295E+02  0.13397645904E+03  0.12507039432E+03 0.  0.
          5    1    3    3  502    0  0.45201140805E+02  0.26958840484E+01 -0.22271441587E+02  0.50634972413E+02  0.41800000000E+01 0. -1.
         -5    1    3    3    0  502 -0.76615944661E+02  0.31204838001E+02  0.91970702923E+01  0.83341486626E+02  0.41800000000E+01 0. -1.
        -11    1    1    2    0    0  0.12442939824E+02  0.21451270988E+02  0.11606987861E+02  0.27380758675E+02  0.00000000000E+00 0.  1.
         11    1    1    2    0    0  0.18971864032E+02 -0.55351993037E+02 -0.64158133771E+02  0.86833408819E+02  0.00000000000E+00 0. -1.
</event>
<event>
 6    1  0.6992302E-006  0.1922064E+03  0.7561462E-02  0.1156486E+00
          1   -1    0    0  501    0  0.00000000000E+00  0.00000000000E+00  0.24071638626E+03  0.24071638626E+03  0.00000000000E+00 0. -1.
         -1   -1    0    0    0  501 -0.00000000000E+00 -0.00000000000E+00 -0.21561463522E+03  0.21561463522E+03  0.00000000000E+00 0.  1.
          5    1    1    2  502    0 -0.97059919954E+02  0.13849108743E+03 -0.29299830710E+02  0.17168681324E+03  0.41800000000E+01 0. -1.
         -5    1    1    2    0  502  0.10369183316E+03 -0.37448084805E+02 -0.50849788272E+02  0.12148056917E+03  0.41800000000E+01 0.  1.
        -11    1    1    2    0    0 -0.15064786806E+02 -0.32071179869E+02 -0.18667883729E+01  0.35482295283E+02  0.00000000000E+00 0.  1.
         11    1    1    2    0    0  0.84328736025E+01 -0.68971822757E+02  0.10711815840E+03  0.12768134378E+03  0.00000000000E+00 0. -1.
</event>
<event>
 7    1  0.6992302E-006  0.7793481E+02  0.7561462E-02  0.1335016E+00
          2   -1    0    0  501    0  0.00000000000E+00  0.00000000000E+00  0.42253323088E+03  0.42253323088E+03  0.00000000000E+00 0. -1.
         -2   -1    0    0    0  501 -0.00000000000E+00 -0.00000000000E+00 -0.32847546523E+02  0.32847546523E+02  0.00000000000E+00 0.  1.
         23    2    1    2    0    0  0.16581382324E+02  0.29993435444E+02  0.15645723348E+03  0.20321889441E+03  0.12507799457E+03 0.  0.
          5    1    3    3  502    0 -0.10925722695E+02 -0.11772708563E+02  0.15192604416E+03  0.15282985107E+03  0.41800000000E+01 0.  1.
         -5    1    3    3    0  502  0.27507105019E+02  0.41766144007E+02  0.45311893163E+01  0.50389043337E+02  0.41800000000E+01 0.  1.
        -11    1    1    2    0    0  0.31327444262E+02  0.21410624782E+01  0.42120664890E+02  0.52537066185E+02  0.00000000000E+00 0.  1.
         11    1    1    2    0    0 -0.47908826586E+02 -0.32134497923E+02  0.19110778599E+03  0.19962481681E+03  0.00000000000E+00 0. -1.
</event>
<event>
 7    1  0.6992302E-006  0.1216831E+03  0.7561462E-02  0.1240346E+00
          1   -1    0    0  501    0  0.00000000000E+00  0.00000000000E+00  0.49068588055E+03  0.49068588055E+03  0.00000000000E+00 0. -1.
         -1   -1    0    0    0  501 -0.00000000000E+00 -0.00000000000E+00 -0.35976890989E+02  0.35976890989E+02  0.00000000000E+00 0.  1.
         23    2    1    2    0    0  0.53580680605E+02 -0.51241188166E+02  0.20546880997E+03  0.25171667445E+03  0.12508918269E+03 0.  0.
          5    1    3    3  502    0  0.20794387112E+01 -0.76234297132E+02  0.16397823938E+03  0.18089313839E+03  0.41800000000E+01 0.  1.
         -5    1    3    3    0  502  0.51501241894E+02  0.24993108966E+02  0.41490570583E+02  0.70823536058E+02  0.41800000000E+01 0.  1.
        -11    1    1    2    0    0 -0.53121238239E+01 -0.21580677682E+02  0.21084146305E+02  0.30634711263E+02  0.00000000000E+00 0.  1.
         11    1    1    2    0    0 -0.48268556781E+02  0.72821865848E+02  0.22815603328E+03  0.24431138582E+03  0.00000000000E+00 0. -1.
</event>
<event>
 7    1  0.6992302E-006  0.1250933E+03  0.7561462E-02  0.1234924E+00
         -1   -1    0    0    0  501 -0.00000000000E+00  0.00000000000E+00  0.44364787811E+02  0.44364787811E+02  0.00000000000E+00 0.  1.
          1   -1    0    0  501    0  0.00000000000E+00 -0.00000000000E+00 -0.59097764746E+03  0.59097764746E+03  0.00000000000E+00 0. -1.
         23    2    1    2    0    0  0.20946393913E+02  0.66763455838E+02 -0.10108364700E+03  0.17539189031E+03  0.12509316945E+03 0.  0.
          5    1    3    3  502    0  0.41546456587E+02  0.96416576743E+02 -0.61911011355E+02  0.12195372095E+03  0.41800000000E+01 0. -1.
         -5    1    3    3    0  502 -0.20600062674E+02 -0.29653120905E+02 -0.39172635644E+02  0.53438169363E+02  0.41800000000E+01 0. -1.
        -11    1    1    2    0    0 -0.49477098281E+02 -0.62823671839E+02 -0.38075255051E+03  0.38905950923E+03  0.00000000000E+00 0.  1.
         11    1    1    2    0    0  0.28530704369E+02 -0.39397839986E+01 -0.64776662138E+02  0.70891035734E+02  0.00000000000E+00 0. -1.
</event>
<event>
 7    1  0.9501767E-006  0.2912243E+03  0.7561462E-02  0.1089712E+00
         -1   -1    0    0    0  501 -0.00000000000E+00  0.00000000000E+00  0.21377355695E+03  0.21377355695E+03  0.00000000000E+00 0.  1.
          1   -1    0    0  501    0  0.00000000000E+00 -0.00000000000E+00 -0.65279322002E+03  0.65279322002E+03  0.00000000000E+00 0. -1.
         23    2    1    2    0    0  0.16117548854E+03  0.24198876316E+03  0.17848048926E+02  0.31702134377E+03  0.12509148635E+03 0.  0.
          5    1    3    3  502    0  0.39674358413E+02  0.71507793552E+02  0.62394295997E+02  0.10294629584E+03  0.41800000000E+01 0. -1.
         -5    1    3    3    0  502  0.12150113013E+03  0.17048096960E+03 -0.44546247070E+02  0.21407504793E+03  0.41800000000E+01 0. -1.
        -11    1    1    2    0    0 -0.82342250236E+02 -0.13774304982E+03 -0.33216855683E+03  0.36890289250E+03  0.00000000000E+00 0. -1.
         11    1    1    2    0    0 -0.78833238308E+02 -0.10424571334E+03 -0.12469915516E+03  0.18064254070E+03  0.00000000000E+00 0.  1.
</event>
<event>
 7    1  0.6992302E-006  0.1035050E+03  0.7561462E-02  0.1273093E+00
         -2   -1    0    0    0  501 -0.00000000000E+00  0.00000000000E+00  0.14344285870E+03  0.14344285870E+03  0.00000000000E+00 0.  1.
          2   -1    0    0  501    0  0.00000000000E+00 -0.00000000000E+00 -0.11360244524E+03  0.11360244524E+03  0.00000000000E+00 0. -1.
         23    2    1    2    0    0  0.54591310504E+02 -0.97275215585E+01  0.57242533224E+02  0.14832081986E+03  0.12509005611E+03 0.  0.
          5    1    3    3  502    0 -0.12132353914E+02  0.45770754403E+02  0.72738423585E+01  0.48088846449E+02  0.41800000000E+01 0.  1.
         -5    1    3    3    0  502  0.66723664418E+02 -0.55498275961E+02  0.49968690865E+02  0.10023197342E+03  0.41800000000E+01 0.  1.
        -11    1    1    2    0    0  0.35401747013E+01 -0.10464860416E+02 -0.43691420974E+02  0.45066466548E+02  0.00000000000E+00 0. -1.
         11    1    1    2    0    0 -0.58131485205E+02  0.20192381975E+02  0.16289301201E+02  0.63658017528E+02  0.00000000000E+00 0.  1.
</event>
<event>
 7    1  0.6992302E-006  0.1331677E+03  0.7561462E-02  0.1222830E+00
          1   -1    0    0  501    0  0.00000000000E+00  0.00000000000E+00  0.26613992413E+02  0.26613992413E+02  0.00000000000E+00 0. -1.
         -1   -1    0    0    0  501 -0.00000000000E+00 -0.00000000000E+00 -0.12103130902E+04  0.12103130902E+04  0.00000000000E+00 0.  1.
         23    2    1    2    0    0 -0.59866207731E+02 -0.11290768883E+03 -0.85407071154E+03  0.87259206786E+03  0.12509207630E+03 0.  0.
          5    1    3    3  502    0 -0.59262188682E+02 -0.10566423748E+03 -0.38909110662E+03  0.40753686918E+03  0.41800000000E+01 0. -1.
         -5    1    3    3    0  502 -0.60401904840E+00 -0.72434513537E+01 -0.46497960492E+03  0.46505519867E+03  0.41800000000E+01 0. -1.
        -11    1    1    2    0    0  0.57166120294E+02  0.56899049277E+02 -0.27290373968E+03  0.28457322124E+03  0.00000000000E+00 0.  1.
         11    1    1    2    0    0  0.27000874365E+01  0.56008639558E+02 -0.56724646601E+02  0.79761793543E+02  0.00000000000E+00 0. -1.
</event>
<event>
 6    1  0.6992302E-006  0.1154593E+03  0.7561462E-02  0.1250782E+00
          1   -1    0    0  501    0  0.00000000000E+00  0.00000000000E+00  0.56646840405E+03  0.56646840405E+03  0.00000000000E+00 0. -1.
         -1   -1    0    0    0  501 -0.00000000000E+00 -0.00000000000E+00 -0.25977434574E+02  0.25977434574E+02  0.00000000000E+00 0.  1.
          5    1    1    2  502    0 -0.13399311877E+02 -0.61999440661E+02  0.10147262532E+03  0.11973987761E+03  0.41800000000E+01 0. -1.
         -5    1    1    2    0  502  0.37836456734E+01  0.85278265697E+02  0.21889428313E+03  0.23498697445E+03  0.41800000000E+01 0.  1.
        -11    1    1    2    0    0  0.40931727617E+02  0.29481985213E+01  0.15893978947E+03  0.16415223080E+03  0.00000000000E+00 0.  1.
         11    1    1    2    0    0 -0.31316061413E+02 -0.26227023558E+02  0.61184271559E+02  0.73566755762E+02  0.00000000000E+00 0. -1.
</event>
<event>
 7    1  0.6992302E-006  0.9974710E+02  0.7561462E-02  0.1280829E+00
          2   -1    0    0  501    0  0.00000000000E+00  0.00000000000E+00  0.31250681937E+02  0.31250681937E+02  0.00000000000E+00 0. -1.
         -2   -1    0    0    0  501 -0.00000000000E+00 -0.00000000000E+00 -0.52494726781E+03  0.52494726781E+03  0.00000000000E+00 0.  1.
         23    2    1    2    0    0  0.59107699133E+01 -0.58548854167E+02 -0.33990313472E+03  0.36693892595E+03  0.12508848412E+03 0.  0.
          5    1    3    3  502    0 -0.30473889615E+02  0.45987968320E+01 -0.24620024229E+03  0.24815688301E+03  0.41800000000E+01 0.  1.
         -5    1    3    3    0  502  0.36384659529E+02 -0.63147650999E+02 -0.93702892436E+02  0.11878204295E+03  0.41800000000E+01 0.  1.
        -11    1    1    2    0    0  0.22349495374E+02  0.62943480553E+02 -0.55354672757E+02  0.86749763594E+02  0.00000000000E+00 0. -1.
         11    1    1    2    0    0 -0.28260265288E+02 -0.43946263858E+01 -0.98438778393E+02  0.10250926020E+03  0.00000000000E+00 0.  1.
</event>
<event>
 7    1  0.6992302E-006  0.1066869E+03  0.7561462E-02  0.1266831E+00
          1   -1    0    0  501    0  0.00000000000E+00  0.00000000000E+00  0.47161780450E+02  0.47161780450E+02  0.00000000000E+00 0. -1.
         -1   -1    0    0    0  501 -0.00000000000E+00 -0.00000000000E+00 -0.31141674514E+03  0.31141674514E+03  0.00000000000E+00 0.  1.
         23    2    1    2    0    0 -0.15662334410E+02 -0.19433804780E+02 -0.22845513786E+03  0.26165322058E+03  0.12509067247E+03 0.  0.
          5    1    3    3  502    0 -0.56655593426E+02  0.25770963878E+02 -0.14781697958E+03  0.16044105054E+03  0.41800000000E+01 0.  1.
         -5    1    3    3    0  502  0.40993259016E+02 -0.45204768658E+02 -0.80638158286E+02  0.10121217005E+03  0.41800000000E+01 0.  1.
        -11    1    1    2    0    0 -0.16457335060E+02 -0.28036235459E+02 -0.16427134330E+02  0.36424238060E+02  0.00000000000E+00 0.  1.
         11    1    1    2    0    0  0.32119669470E+02  0.47470040239E+02 -0.19372692498E+02  0.60501066947E+02  0.00000000000E+00 0. -1.
</event>
<event>
 7    1  0.6992302E-006  0.1629832E+03  0.7561462E-02  0.1185369E+00
          1   -1    0    0  501    0  0.00000000000E+00  0.00000000000E+00  0.12253634059E+03  0.12253634059E+03  0.00000000000E+00 0. -1.
         -1   -1    0    0    0  501 -0.00000000000E+00 -0.00000000000E+00 -0.37167714986E+03  0.37167714986E+03  0.00000000000E+00 0.  1.
         23    2    1    2    0    0  0.51178517280E+02  0.14792383648E+03 -0.24024910449E+03  0.31284166800E+03  0.12509826137E+03 0.  0.
          5    1    3    3  502    0  0.65824322153E+02  0.10611874587E+03 -0.23738133995E+03  0.26825622559E+03  0.41800000000E+01 0.  1.
         -5    1    3    3    0  502 -0.14645804873E+02  0.41805090611E+02 -0.28677645404E+01  0.44585442409E+02  0.41800000000E+01 0.  1.
        -11    1    1    2    0    0 -0.38604918928E+02 -0.11124688346E+03  0.34962528977E+02  0.12283561079E+03  0.00000000000E+00 0. -1.
         11    1    1    2    0    0 -0.12573598352E+02 -0.36676953018E+02 -0.43854233750E+02  0.58536211664E+02  0.00000000000E+00 0.  1.
</event>
<event>
 7    1  0.6992302E-006  0.7939945E+02  0.7561462E-02  0.1330764E+00
         -2   -1    0    0    0  501 -0.00000000000E+00  0.00000000000E+00  0.14194713845E+02  0.14194713845E+02  0.00000000000E+00 0. -1.
          2   -1    0    0  501    0  0.00000000000E+00 -0.00000000000E+00 -0.98552563723E+03  0.98552563723E+03  0.00000000000E+00 0.  1.
         23    2    1    2    0    0  0.30227747441E+02 -0.72054969857E+01 -0.55084224869E+03  0.56572047541E+03  0.12508731932E+03 0.  0.
          5    1    3    3  502    0  0.39291605036E+01  0.17671788992E+02 -0.58036078761E+01  0.19464960643E+02  0.41800000000E+01 0. -1.
         -5    1    3    3    0  502  0.26298586938E+02 -0.24877285978E+02 -0.54503864081E+03  0.54625551476E+03  0.41800000000E+01 0. -1.
        -11    1    1    2    0    0 -0.24160750578E+02  0.52650692232E+02 -0.17719931738E+03  0.18642809697E+03  0.00000000000E+00 0.  1.
         11    1    1    2    0    0 -0.60669968628E+01 -0.45445195246E+02 -0.24328935732E+03  0.24757177869E+03  0.00000000000E+00 0. -1.
</event>
<event>
 7    1  0.6992302E-006  0.1093217E+03  0.7561462E-02  0.1261831E+00
         -1   -1    0    0    0  501 -0.00000000000E+00  0.00000000000E+00  0.14177406189E+02  0.14177406189E+02  0.00000000000E+00 0.  1.
          1   -1    0    0  501    0  0.00000000000E+00 -0.00000000000E+00 -0.86219055417E+03  0.86219055417E+03  0.00000000000E+00 0. -1.
         23    2    1    2    0    0 -0.27940287088E+02 -0.61415200242E+01 -0.48464358138E+03  0.50134158693E+03  0.12508240444E+03 0.  0.
          5    1    3    3  502    0 -0.27247749276E+02  0.56619729269E+02 -0.19385671247E+03  0.20382868040E+03  0.41800000000E+01 0. -1.
         -5    1    3    3    0  502 -0.69253781212E+00 -0.62761249293E+02 -0.29078686892E+03  0.29751290654E+03  0.41800000000E+01 0. -1.
        -11    1    1    2    0    0 -0.28391053673E+02  0.20031986972E+02 -0.13339878036E+03  0.13784979881E+03  0.00000000000E+00 0. -1.
         11    1    1    2    0    0  0.56331340761E+02 -0.13890466948E+02 -0.22997078624E+03  0.23717657462E+03  0.00000000000E+00 0.  1.
</event>
<event>
 7    1  0.6992302E-006  0.1055311E+03  0.7561462E-02  0.1269077E+00
         -1   -1    0    0    0  501 -0.00000000000E+00  0.00000000000E+00  0.17636806506E+03  0.17636806506E+03  0.00000000000E+00 0.  1.
          1   -1    0    0  501    0  0.00000000000E+00 -0.00000000000E+00 -0.10366081594E+03  0.10366081594E+03  0.00000000000E+00 0. -1.
         23    2    1    2    0    0 -0.52938959094E+02 -0.17942495218E+02  0.10060195809E+03  0.16997860225E+03  0.12508998652E+03 0.  0.
          5    1    3    3  502    0  0.18252287808E+02  0.17808691224E+02  0.84806772269E+02  0.88656395799E+02  0.41800000000E+01 0.  1.
         -5    1    3    3    0  502 -0.71191246902E+02 -0.35751186442E+02  0.15795185822E+02  0.81322206454E+02  0.41800000000E+01 0.  1.
        -11    1    1    2    0    0  0.17757058685E+02 -0.36520934356E+02 -0.34440994325E+01  0.40754798494E+02  0.00000000000E+00 0. -1.
         11    1    1    2    0    0  0.35181900408E+02  0.54463429574E+02 -0.24450609532E+02  0.69295480255E+02  0.00000000000E+00 0.  1.
</event>
<event>
 7    1  0.6992302E-006  0.1565861E+03  0.7561462E-02  0.1192606E+00
          2   -1    0    0  501    0  0.00000000000E+00  0.00000000000E+00  0.53220486430E+02  0.53220486430E+02  0.00000000000E+00 0. -1.
         -2   -1    0    0    0  501 -0.00000000000E+00 -0.00000000000E+00 -0.55785728057E+03  0.55785728057E+03  0.00000000000E+00 0.  1.
         23    2    1    2    0    0 -0.67695318564E+02  0.11284835854E+03 -0.23297212600E+03  0.29536818736E+03  0.12509574906E+03 0.  0.
          5    1    3    3  502    0 -0.85747267954E+02  0.11803379828E+03 -0.23434368414E+03  0.27607789878E+03  0.41800000000E+01 0.  1.
         -5    1    3    3    0  502  0.18051949390E+02 -0.51854397394E+01  0.13715581369E+01  0.19290288588E+02  0.41800000000E+01 0.  1.
        -11    1    1    2    0    0  0.50443810147E+02 -0.21194910158E+02 -0.45824174328E+02  0.71369861648E+02  0.00000000000E+00 0.  1.
         11    1    1    2    0    0  0.17251508417E+02 -0.91653448379E+02 -0.22584049381E+03  0.24433971799E+03  0.00000000000E+00 0. -1.
</event>
<event>
 7    1  0.6992302E-006  0.9329443E+02  0.7561462E-02  0.1295064E+00
         -3   -1    0    0    0  501 -0.00000000000E+00  0.00000000000E+00  0.37749859141E+03  0.37749859141E+03  0.00000000000E+00 0.  1.
          3   -1    0    0  501    0  0.00000000000E+00 -0.00000000000E+00 -0.34874675283E+02  0.34874675283E+02  0.00000000000E+00 0. -1.
         23    2    1    2    0    0 -0.25139941067E+02 -0.15911284623E+02  0.24598658046E+03  0.27756336738E+03  0.12508732763E+03 0.  0.
          5    1    3    3  502    0 -0.23068847151E+01 -0.51780922038E+02  0.35931251526E+02  0.63206905006E+02  0.41800000000E+01 0.  1.
         -5    1    3    3    0  502 -0.22833056352E+02  0.35869637415E+02  0.21005532893E+03  0.21435646238E+03  0.41800000000E+01 0.  1.
        -11    1    1    2    0    0 -0.32277418436E+02 -0.16274746947E-01  0.48256030346E+02  0.58055804797E+02  0.00000000000E+00 0.  1.
         11    1    1    2    0    0  0.57417359504E+02  0.15927559370E+02  0.48381305326E+02  0.76754094516E+02  0.00000000000E+00 0. -1.
</event>
<event>
 7    1  0.6992302E-006  0.5887408E+02  0.7561462E-02  0.1402618E+00
         -2   -1    0    0    0  501 -0.00000000000E+00  0.00000000000E+00  0.82818057740E+02  0.82818057740E+02  0.00000000000E+00 0.  1.
          2   -1    0    0  501    0  0.00000000000E+00 -0.00000000000E+00 -0.21163062535E+03  0.21163062535E+03  0.00000000000E+00 0. -1.
         23    2    1    2    0    0  0.37449160865E+02 -0.39495324904E+02  0.16645708330E+02  0.13793941202E+03  0.12564983663E+03 0.  0.
          5    1    3    3  502    0  0.21719765886E+02 -0.37701623992E+02 -0.51675788323E+02  0.67683234117E+02  0.41800000000E+01 0. -1.
         -5    1    3    3    0  502  0.15729394979E+02 -0.17937009114E+01  0.68321496652E+02  0.70256177908E+02  0.41800000000E+01 0.  1.
        -11    1    1    2    0    0 -0.94650602228E+01  0.23721131904E+02 -0.59800094271E+02  0.65025616019E+02  0.00000000000E+00 0.  1.
         11    1    1    2    0    0 -0.27984100642E+02  0.15774193000E+02 -0.85658181666E+02  0.91483655042E+02  0.00000000000E+00 0. -1.
</event>
<event>
 7    1  0.6992302E-006  0.1624061E+03  0.7561462E-02  0.1186007E+00
          2   -1    0    0  501    0  0.00000000000E+00  0.00000000000E+00  0.60162534648E+03  0.60162534648E+03  0.00000000000E+00 0. -1.
         -2   -1    0    0    0  501 -0.00000000000E+00 -0.00000000000E+00 -0.62093875702E+02  0.62093875702E+02  0.00000000000E+00 0.  1.
         23    2    1    2    0    0  0.85984003339E+02  0.85660770068E+02  0.10442382636E+03  0.20318228187E+03  0.12509071826E+03 0.  0.
          5    1    3    3  502    0  0.11809040461E+03  0.74499297774E+02  0.78544825017E+02  0.16025682815E+03  0.41800000000E+01 0.  1.
         -5    1    3    3    0  502 -0.32106401275E+02  0.11161472294E+02  0.25879001339E+02  0.42925453718E+02  0.41800000000E+01 0.  1.
        -11    1    1    2    0    0  0.21014132441E+01  0.16128791843E+02  0.50272140549E+02  0.52837883940E+02  0.00000000000E+00 0. -1.
         11    1    1    2    0    0 -0.88085416583E+02 -0.10178956191E+03  0.38483550387E+03  0.40769905637E+03  0.00000000000E+00 0.  1.
</event>
<event>
 7    1  0.6992302E-006  0.8091553E+02  0.7561462E-02  0.1326473E+00
         -2   -1    0    0    0  501 -0.00000000000E+00  0.00000000000E+00  0.90348224720E+02  0.90348224720E+02  0.00000000000E+00 0.  1.
          2   -1    0    0  501    0  0.00000000000E+00 -0.00000000000E+00 -0.11495121872E+03  0.11495121872E+03  0.00000000000E+00 0. -1.
         23    2    1    2    0    0 -0.56571856618E+01  0.15091905868E+02  0.42252278595E+01  0.11214354740E+03  0.11089884265E+03 0.  0.
          5    1    3    3  502    0  0.44138714966E+02  0.39747833500E+01 -0.27112292599E+02  0.52120762384E+02  0.41800000000E+01 0. -1.
         -5    1    3    3    0  502 -0.49795900628E+02  0.11117122518E+02  0.31337520458E+02  0.60022785014E+02  0.41800000000E+01 0.  1.
        -11    1    1    2    0    0 -0.29329183125E+02 -0.83459061863E+01  0.17151719414E+02  0.34986234603E+02  0.00000000000E+00 0.  1.
         11    1    1    2    0    0  0.34986368786E+02 -0.67459996816E+01 -0.45979941276E+02  0.58169661442E+02  0.00000000000E+00 0. -1.
</event>
<event>
 7    1  0.6992302E-006  0.1086639E+03  0.7561462E-02  0.1263064E+00
          2   -1    0    0  501    0  0.00000000000E+00  0.00000000000E+00  0.25740093766E+03  0.25740093766E+03  0.00000000000E+00 0. -1.
         -2   -1    0    0    0  501 -0.00000000000E+00 -0.00000000000E+00 -0.53377668410E+02  0.53377668410E+02  0.00000000000E+00 0.  1.
         23    2    1    2    0    0 -0.17827393823E+02  0.20782291590E+02  0.63198369424E+02  0.14279834508E+03  0.12509042268E+03 0.  0.
          5    1    3    3  502    0 -0.34907882086E+02 -0.45399687090E+02  0.41905225354E+02  0.71085948905E+02  0.41800000000E+01 0. -1.
         -5    1    3    3    0  502  0.17080488263E+02  0.66181978681E+02  0.21293144069E+02  0.71712396179E+02  0.41800000000E+01 0. -1.
        -11    1    1    2    0    0  0.37671042376E+02  0.22454554370E+02  0.62839552225E+02  0.76629783828E+02  0.00000000000E+00 0.  1.
         11    1    1    2    0    0 -0.19843648553E+02 -0.43236845961E+02  0.77985347603E+02  0.91350477159E+02  0.00000000000E+00 0. -1.
</event>
<event>
 7    1  0.6992302E-006  0.1027597E+03  0.7561462E-02  0.1274597E+00
          2   -1    0    0  501    0  0.00000000000E+00  0.00000000000E+00  0.44143421635E+03  0.44143421635E+03  0.00000000000E+00 0. -1.
         -2   -1    0    0    0  501 -0.00000000000E+00 -0.00000000000E+00 -0.69249538839E+02  0.69249538839E+02  0.00000000000E+00 0.  1.
         23    2    1    2    0    0  0.42168463069E+02  0.82350969764E+02  0.46161336910E+02  0.16229709555E+03  0.12509842805E+03 0.  0.
          5    1    3    3  502    0  0.31524553761E+02  0.44293622645E+02  0.88678064799E+02  0.10410088411E+03  0.41800000000E+01 0. -1.
         -5    1    3    3    0  502  0.10643909308E+02  0.38057347119E+02 -0.42516727889E+02  0.58196211436E+02  0.41800000000E+01 0. -1.
        -11    1    1    2    0    0  0.15579926717E+02 -0.27507417547E+02  0.37369551710E+02  0.48947681576E+02  0.00000000000E+00 0.  1.
         11    1    1    2    0    0 -0.57748389786E+02 -0.54843552217E+02  0.28865378889E+03  0.29943897806E+03  0.00000000000E+00 0. -1.
</event>
<event>
 7    1  0.6992302E-006  0.1193338E+03  0.7561462E-02  0.1244200E+00
         -2   -1    0    0    0  501 -0.00000000000E+00  0.00000000000E+00  0.23795063764E+02  0.23795063764E+02  0.00000000000E+00 0. -1.
          2   -1    0    0  501    0  0.00000000000E+00 -0.00000000000E+00 -0.66967147290E+03  0.66967147290E+03  0.00000000000E+00 0.  1.
         23    2    1    2    0    0  0.47775820157E+02  0.22004668676E+02 -0.26735136084E+03  0.29981784582E+03  0.12508899269E+03 0.  0.
          5    1    3    3  502    0  0.34254714766E+01  0.69912708579E+02 -0.13107085038E+03  0.14864912006E+03  0.41800000000E+01 0. -1.
         -5    1    3    3    0  502  0.44350348680E+02 -0.47908039902E+02 -0.13628051046E+03  0.15116872576E+03  0.41800000000E+01 0. -1.
        -11    1    1    2    0    0  0.21909150799E+02 -0.25171395705E+02 -0.73068029496E+02  0.80327747291E+02  0.00000000000E+00 0. -1.
         11    1    1    2    0    0 -0.69684970956E+02  0.31667270283E+01 -0.30545701879E+03  0.31332094355E+03  0.00000000000E+00 0.  1.
</event>
<event>
 7    1  0.6992302E-006  0.1300476E+03  0.7561462E-02  0.1227385E+00
          3   -1    0    0  501    0  0.00000000000E+00  0.00000000000E+00  0.31496078459E+03  0.31496078459E+03  0.00000000000E+00 0. -1.
         -3   -1    0    0    0  501 -0.00000000000E+00 -0.00000000000E+00 -0.61791696427E+02  0.61791696427E+02  0.00000000000E+00 0.  1.
         23    2    1    2    0    0 -0.82971609526E+02  0.26193809533E+02  0.15083640487E+03  0.21440541499E+03  0.12509059636E+03 0.  0.
          5    1    3    3  502    0 -0.48506139231E+01  0.54057480409E+02  0.17238875974E+02  0.57099832648E+02  0.41800000000E+01 0. -1.
         -5    1    3    3    0  502 -0.78120995603E+02 -0.27863670876E+02  0.13359752890E+03  0.15730558234E+03  0.41800000000E+01 0. -1.
        -11    1    1    2    0    0  0.57400023559E+02 -0.58134649912E+02  0.85046743707E+02  0.11792942313E+03  0.00000000000E+00 0.  1.
         11    1    1    2    0    0  0.25571585967E+02  0.31940840379E+02  0.17285939586E+02  0.44417642895E+02  0.00000000000E+00 0. -1.
</event>
<event>
 7    1  0.7914888E-006  0.2858738E+03  0.7561462E-02  0.1092523E+00
         -2   -1    0    0    0  501 -0.00000000000E+00  0.00000000000E+00  0.67991679601E+02  0.67991679601E+02  0.00000000000E+00 0.  1.
          2   -1    0    0  501    0  0.00000000000E+00 -0.00000000000E+00 -0.13526607062E+04  0.13526607062E+04  0.00000000000E+00 0. -1.
         23    2    1    2    0    0 -0.16520775322E+03 -0.21588398745E+03 -0.46828094273E+03  0.55572814349E+03  0.12508888991E+03 0.  0.
          5    1    3    3  502    0 -0.86836474907E+02 -0.24980304082E+02 -0.11188026611E+03  0.14387235770E+03  0.41800000000E+01 0. -1.
         -5    1    3    3    0  502 -0.78371278311E+02 -0.19090368337E+03 -0.35640067662E+03  0.41185578578E+03  0.41800000000E+01 0. -1.
        -11    1    1    2    0    0  0.12549694420E+03  0.13232836709E+03 -0.42005400104E+03  0.45793628763E+03  0.00000000000E+00 0.  1.
         11    1    1    2    0    0  0.39710809018E+02  0.83555620364E+02 -0.39633408287E+03  0.40698795472E+03  0.00000000000E+00 0. -1.
</event>
<event>
 7    1  0.6992302E-006  0.1388010E+03  0.7561462E-02  0.1214951E+00
          2   -1    0    0  501    0  0.00000000000E+00  0.00000000000E+00  0.70267636777E+02  0.70267636777E+02  0.00000000000E+00 0. -1.
         -2   -1    0    0    0  501 -0.00000000000E+00 -0.00000000000E+00 -0.28462492538E+03  0.28462492538E+03  0.00000000000E+00 0.  1.
         23    2    1    2    0    0  0.44773691246E+02  0.75157258599E+02 -0.13856274529E+03  0.20615805590E+03  0.12509281628E+03 0.  0.
          5    1    3    3  502    0 -0.40933335574E+02  0.39018891983E+02 -0.72268902741E+02  0.91860103397E+02  0.41800000000E+01 0. -1.
         -5    1    3    3    0  502  0.85707026820E+02  0.36138366616E+02 -0.66293842545E+02  0.11429795251E+03  0.41800000000E+01 0. -1.
        -11    1    1    2    0    0 -0.17053721750E+02  0.21381090123E+02 -0.13005584762E+02  0.30284082872E+02  0.00000000000E+00 0.  1.
         11    1    1    2    0    0 -0.27719969497E+02 -0.96538348722E+02 -0.62788958556E+02  0.11845042338E+03  0.00000000000E+00 0. -1.
</event>
<event>
 7    1  0.6992302E-006  0.7958881E+02  0.7561462E-02  0.1330222E+00
          2   -1    0    0  501    0  0.00000000000E+00  0.00000000000E+00  0.84650770918E+03  0.84650770918E+03  0.00000000000E+00 0. -1.
         -2   -1    0    0    0  501 -0.00000000000E+00 -0.00000000000E+00 -0.15376149358E+02  0.15376149358E+02  0.00000000000E+00 0.  1.
         23    2    1    2    0    0  0.37592358577E+01 -0.47030574983E+02  0.47012931597E+03  0.48648803554E+03  0.11585779283E+03 0.  0.
          5    1    3    3  502    0  0.21888415198E+02 -0.30428135098E+02  0.45652989211E+03  0.45808513282E+03  0.41800000000E+01 0. -1.
         -5    1    3    3    0  502 -0.18129179341E+02 -0.16602439885E+02  0.13599423859E+02  0.28402902721E+02  0.41800000000E+01 0.  1.
        -11    1    1    2    0    0 -0.37012980973E+02 -0.22440913134E+01  0.80019728230E+02  0.88193841125E+02  0.00000000000E+00 0.  1.
         11    1    1    2    0    0  0.33253745116E+02  0.49274666296E+02  0.28098251563E+03  0.28720198187E+03  0.00000000000E+00 0. -1.
</event>
<event>
 7    1  0.6992302E-006  0.1435427E+03  0.7561462E-02  0.1208640E+00
         -2   -1    0    0    0  501 -0.00000000000E+00  0.00000000000E+00  0.14403948266E+03  0.14403948266E+03  0.00000000000E+00 0. -1.
          2   -1    0    0  501    0  0.00000000000E+00 -0.00000000000E+00 -0.15411616471E+03  0.15411616471E+03  0.00000000000E+00 0.  1.
         23    2    1    2    0    0 -0.66108010154E+02  0.67898332236E+02  0.28499016709E+02  0.15949692787E+03  0.12508646417E+03 0.  0.
          5    1    3    3  502    0 -0.10278989411E+03  0.44810519595E+02  0.29198636232E+02  0.11594730594E+03  0.41800000000E+01 0. -1.
         -5    1    3    3    0  502  0.36681883952E+02  0.23087812641E+02 -0.69961952288E+00  0.43549621930E+02  0.41800000000E+01 0. -1.
        -11    1    1    2    0    0  0.81172345186E+02 -0.78491178693E+02 -0.24660055639E+02  0.11557652486E+03  0.00000000000E+00 0.  1.
         11    1    1    2    0    0 -0.15064335032E+02  0.10592846457E+02 -0.13915643116E+02  0.23082194639E+02  0.00000000000E+00 0. -1.
</event>
<event>
 7    1  0.6992302E-006  0.1192670E+03  0.7561462E-02  0.1244311E+00
         -2   -1    0    0    0  501 -0.00000000000E+00  0.00000000000E+00  0.46532208705E+02  0.46532208705E+02  0.00000000000E+00 0. -1.
          2   -1    0    0  501    0  0.00000000000E+00 -0.00000000000E+00 -0.51517368294E+03  0.51517368294E+03  0.00000000000E+00 0.  1.
         23    2    1    2    0    0  0.61435369684E+02 -0.14496456086E+02 -0.88463268642E+02  0.16569937402E+03  0.12508429463E+03 0.  0.
          5    1    3    3  502    0 -0.29425165341E+02 -0.33954098055E+02 -0.42336839697E+02  0.61875694143E+02  0.41800000000E+01 0. -1.
         -5    1    3    3    0  502  0.90860535025E+02  0.19457641969E+02 -0.46126428945E+02  0.10382367988E+03  0.41800000000E+01 0. -1.
        -11    1    1    2    0    0 -0.34306125460E+02 -0.31772722591E+02 -0.95656500106E+02  0.10647338709E+03  0.00000000000E+00 0. -1.
         11    1    1    2    0    0 -0.27129244224E+02  0.46269178677E+02 -0.28452170549E+03  0.28953313054E+03  0.00000000000E+00 0.  1.
</event>
<event>
 7    1  0.6992302E-006  0.9442401E+02  0.7561462E-02  0.1292479E+00
          2   -1    0    0  501    0  0.00000000000E+00  0.00000000000E+00  0.18164536711E+03  0.18164536711E+03  0.00000000000E+00 0. -1.
         -2   -1    0    0    0  501 -0.00000000000E+00 -0.00000000000E+00 -0.92551545607E+02  0.92551545607E+02  0.00000000000E+00 0.  1.
         23    2    1    2    0    0  0.60892540722E+02  0.90267897722E+01  0.10970956110E+02  0.13984871268E+03  0.12509163085E+03 0.  0.
          5    1    3    3  502    0  0.45296408945E+02 -0.20073278735E+02 -0.49919928541E+02  0.70456886449E+02  0.41800000000E+01 0. -1.
         -5    1    3    3    0  502  0.15596131776E+02  0.29100068508E+02  0.60890884650E+02  0.69391826227E+02  0.41800000000E+01 0. -1.
        -11    1    1    2    0    0  0.21709768226E+02  0.44276773567E+01  0.31605826405E+02  0.38598531396E+02  0.00000000000E+00 0. -1.
         11    1    1    2    0    0 -0.82602308948E+02 -0.13454467129E+02  0.46517038986E+02  0.95749668643E+02  0.00000000000E+00 0.  1.
</event>
<event>
 7    1  0.6992302E-006  0.1029703E+03  0.7561462E-02  0.1274171E+00
         -2   -1    0    0    0  501 -0.00000000000E+00  0.00000000000E+00  0.25995487801E+03  0.25995487801E+03  0.00000000000E+00 0.  1.
          2   -1    0    0  501    0  0.00000000000E+00 -0.00000000000E+00 -0.71346660215E+02  0.71346660215E+02  0.00000000000E+00 0. -1.
         23    2    1    2    0    0  0.94322555542E+01  0.36176792012E+01  0.20231168768E+03  0.23807383451E+03  0.12508827546E+03 0.  0.
          5    1    3    3  502    0 -0.10449890579E+02  0.60794916881E+02  0.12787952029E+03  0.14204177639E+03  0.41800000000E+01 0.  1.
         -5    1    3    3    0  502  0.19882146134E+02 -0.57177237679E+02  0.74432167393E+02  0.96032058118E+02  0.41800000000E+01 0.  1.
        -11    1    1    2    0    0 -0.31860234597E+02 -0.33394475973E+02  0.12312561378E+02  0.47768867914E+02  0.00000000000E+00 0.  1.
         11    1    1    2    0    0  0.22427979043E+02  0.29776796772E+02 -0.26016031262E+02  0.45458835803E+02  0.00000000000E+00 0. -1.
</event>
<event>
 7    1  0.6992302E-006  0.9625452E+02  0.7561462E-02  0.1288375E+00
          1   -1    0    0  501    0  0.00000000000E+00  0.00000000000E+00  0.12442714002E+03  0.12442714002E+03  0.00000000000E+00 0. -1.
         -1   -1    0    0    0  501 -0.00000000000E+00 -0.00000000000E+00 -0.11182822118E+03  0.11182822118E+03  0.00000000000E+00 0.  1.
         23    2    1    2    0    0 -0.15292402049E+02 -0.72093111990E+01 -0.37596901724E+02  0.13171188397E+03  0.12509461072E+03 0.  0.
          5    1    3    3  502    0 -0.18046142718E+01 -0.57118161802E+02 -0.52532926046E+02  0.77736231960E+02  0.41800000000E+01 0.  1.
         -5    1    3    3    0  502 -0.13487787778E+02  0.49908850603E+02  0.14936024322E+02  0.53975652013E+02  0.41800000000E+01 0.  1.
        -11    1    1    2    0    0  0.48839334454E+02  0.93511926527E+01  0.76357894066E+01  0.50309349765E+02  0.00000000000E+00 0.  1.
         11    1    1    2    0    0 -0.33546932405E+02 -0.21418814538E+01  0.42560031154E+02  0.54234127464E+02  0.00000000000E+00 0. -1.
</event>
<event>
 7    1  0.6992302E-006  0.8477331E+02  0.7561462E-02  0.1316026E+00
          3   -1    0    0  501    0  0.00000000000E+00  0.00000000000E+00  0.73363971338E+02  0.73363971338E+02  0.00000000000E+00 0. -1.
         -3   -1    0    0    0  501 -0.00000000000E+00 -0.00000000000E+00 -0.18656534948E+03  0.18656534948E+03  0.00000000000E+00 0.  1.
         23    2    1    2    0    0 -0.13767851242E+02  0.40892938419E+02 -0.76467139005E+02  0.15282718052E+03  0.12508851912E+03 0.  0.
          5    1    3    3  502    0 -0.16699595486E+02  0.55245282902E+02  0.15260081696E+02  0.59843631789E+02  0.41800000000E+01 0. -1.
         -5    1    3    3    0  502  0.29317442448E+01 -0.14352344483E+02 -0.91727220700E+02  0.92983548727E+02  0.41800000000E+01 0. -1.
        -11    1    1    2    0    0 -0.28967777104E+02 -0.44997661999E+02 -0.35370430744E+02  0.64148180540E+02  0.00000000000E+00 0.  1.
         11    1    1    2    0    0  0.42735628345E+02  0.41047235793E+01 -0.13638083930E+01  0.42953959760E+02  0.00000000000E+00 0. -1.
</event>
<event>
 7    1  0.6992302E-006  0.1713925E+03  0.7561462E-02  0.1176403E+00
         -2   -1    0    0    0  501 -0.00000000000E+00  0.00000000000E+00  0.42275783092E+03  0.42275783092E+03  0.00000000000E+00 0.  1.
          2   -1    0    0  501    0  0.00000000000E+00 -0.00000000000E+00 -0.14783637002E+03  0.14783637002E+03  0.00000000000E+00 0. -1.
         23    2    1    2    0    0 -0.15225851317E+03 -0.12883592866E+01  0.33514750553E+03  0.38878849454E+03  0.12509327847E+03 0.  0.
          5    1    3    3  502    0 -0.15728953147E+03 -0.15367971452E+02  0.33786902224E+03  0.37302696933E+03  0.41800000000E+01 0. -1.
         -5    1    3    3    0  502  0.50310182949E+01  0.14079612166E+02 -0.27215167082E+01  0.15761525212E+02  0.41800000000E+01 0. -1.
        -11    1    1    2    0    0  0.22526083236E+01 -0.17808040292E+02  0.24468553030E+01  0.18115949993E+02  0.00000000000E+00 0.  1.
         11    1    1    2    0    0  0.15000590485E+03  0.19096399578E+02 -0.62672899931E+02  0.16368975641E+03  0.00000000000E+00 0. -1.
</event>
<event>
 7    1  0.6992302E-006  0.1405291E+03  0.7561462E-02  0.1212619E+00
         -2   -1    0    0    0  501 -0.00000000000E+00  0.00000000000E+00  0.51665700778E+03  0.51665700778E+03  0.00000000000E+00 0.  1.
          2   -1    0    0  501    0  0.00000000000E+00 -0.00000000000E+00 -0.50256531277E+02  0.50256531277E+02  0.00000000000E+00 0. -1.
         23    2    1    2    0    0  0.74315956675E+02 -0.88466495110E+02  0.29804350865E+03  0.34325380383E+03  0.12507621125E+03 0.  0.
          5    1    3    3  502    0  0.85221167173E+02 -0.14215924478E+02  0.21220920143E+03  0.22916142217E+03  0.41800000000E+01 0. -1.
         -5    1    3    3    0  502 -0.10905210498E+02 -0.74250570632E+02  0.85834307219E+02  0.11409238165E+03  0.41800000000E+01 0. -1.
        -11    1    1    2    0    0 -0.45715012764E+02  0.74878255455E+02  0.17068308473E+03  0.19190969477E+03  0.00000000000E+00 0.  1.
         11    1    1    2    0    0 -0.28600943910E+02  0.13588239655E+02 -0.23261168788E+01  0.31750040460E+02  0.00000000000E+00 0. -1.
</event>
<event>
 6    1  0.6992302E-006  0.1006777E+03  0.7561462E-02  0.1278877E+00
         -1   -1    0    0    0  501 -0.00000000000E+00  0.00000000000E+00  0.51168926408E+02  0.51168926408E+02  0.00000000000E+00 0.  1.
          1   -1    0    0  501    0  0.00000000000E+00 -0.00000000000E+00 -0.30270963282E+03  0.30270963282E+03  0.00000000000E+00 0. -1.
          5    1    1    2  502    0 -0.64701129027E+02  0.32644369307E+02 -0.98878494514E+02  0.12266344208E+03  0.41800000000E+01 0. -1.
         -5    1    1    2    0  502  0.72542968940E+02 -0.25962386314E+02 -0.42687036881E+02  0.88182670426E+02  0.41800000000E+01 0.  1.
        -11    1    1    2    0    0 -0.98213136621E+01 -0.28268335368E+02  0.10171776731E+01  0.29943140065E+02  0.00000000000E+00 0.  1.
         11    1    1    2    0    0  0.19794737495E+01  0.21586352375E+02 -0.11099235269E+03  0.11308930666E+03  0.00000000000E+00 0. -1.
</event>
<event>
 7    1  0.6992302E-006  0.8460425E+02  0.7561462E-02  0.1316471E+00
          1   -1    0    0  501    0  0.00000000000E+00  0.00000000000E+00  0.31894782501E+03  0.31894782501E+03  0.00000000000E+00 0. -1.
         -1   -1    0    0    0  501 -0.00000000000E+00 -0.00000000000E+00 -0.39768950889E+02  0.39768950889E+02  0.00000000000E+00 0.  1.
         23    2    1    2    0    0  0.11930994631E+02 -0.27072050289E+02  0.13854103311E+03  0.18898737342E+03  0.12508942767E+03 0.  0.
          5    1    3    3  502    0  0.52032786959E+02 -0.35587750211E+02  0.13321408324E+03  0.14743596324E+03  0.41800000000E+01 0.  1.
         -5    1    3    3    0  502 -0.40101792328E+02  0.85156999221E+01  0.53269498792E+01  0.41551410182E+02  0.41800000000E+01 0.  1.
        -11    1    1    2    0    0 -0.35391661308E+02  0.17538037742E+02  0.13883162050E+03  0.14434116290E+03  0.00000000000E+00 0. -1.
         11    1    1    2    0    0  0.23460666677E+02  0.95340125468E+01  0.18062205069E+01  0.25388239574E+02  0.00000000000E+00 0.  1.
</event>
<event>
 7    1  0.6992302E-006  0.7516506E+02  0.7561462E-02  0.1343361E+00
          1   -1    0    0  501    0  0.00000000000E+00  0.00000000000E+00  0.20250822342E+03  0.20250822342E+03  0.00000000000E+00 0. -1.
         -1   -1    0    0    0  501 -0.00000000000E+00 -0.00000000000E+00 -0.66670407704E+02  0.66670407704E+02  0.00000000000E+00 0.  1.
         23    2    1    2    0    0 -0.97014273278E+01  0.10695964437E+02  0.23870008468E+02  0.12816537839E+03  0.12509222824E+03 0.  0.
          5    1    3    3  502    0 -0.61868039240E+02  0.18207549519E+02  0.35921438829E+02  0.73939105394E+02  0.41800000000E+01 0.  1.
         -5    1    3    3    0  502  0.52166611913E+02 -0.75115850812E+01 -0.12051430361E+02  0.54226272992E+02  0.41800000000E+01 0.  1.
        -11    1    1    2    0    0 -0.10469160296E+02 -0.62005415467E+01 -0.10950671896E+02  0.16369705182E+02  0.00000000000E+00 0.  1.
         11    1    1    2    0    0  0.20170587624E+02 -0.44954228907E+01  0.12291847915E+03  0.12464354756E+03  0.00000000000E+00 0. -1.
</event>
<event>
 7    1  0.6992302E-006  0.1203603E+03  0.7561462E-02  0.1242504E+00
         -2   -1    0    0    0  501 -0.00000000000E+00  0.00000000000E+00  0.82240917585E+02  0.82240917585E+02  0.00000000000E+00 0.  1.
          2   -1    0    0  501    0  0.00000000000E+00 -0.00000000000E+00 -0.20714888976E+03  0.20714888976E+03  0.00000000000E+00 0. -1.
         23    2    1    2    0    0  0.56600722330E+02 -0.41593688009E+02 -0.62016593565E+02  0.15629039422E+03  0.12508778037E+03 0.  0.
          5    1    3    3  502    0  0.90973260687E+02 -0.15828516622E+02 -0.65041442292E+02  0.11302450050E+03  0.41800000000E+01 0. -1.
         -5    1    3    3    0  502 -0.34372538357E+02 -0.25765171387E+02  0.30248487264E+01  0.43265893721E+02  0.41800000000E+01 0. -1.
        -11    1    1    2    0    0 -0.17719977863E+01  0.49673487439E+02 -0.58106190803E+00  0.49708479794E+02  0.00000000000E+00 0.  1.
         11    1    1    2    0    0 -0.54828724544E+02 -0.80797994298E+01 -0.62310316704E+02  0.83390933330E+02  0.00000000000E+00 0. -1.
</event>
<event>
 7    1  0.6992302E-006  0.2113660E+03  0.7561462E-02  0.1140489E+00
          1   -1    0    0  501    0  0.00000000000E+00  0.00000000000E+00  0.86509444724E+03  0.86509444724E+03  0.00000000000E+00 0. -1.
         -1   -1    0    0    0  501 -0.00000000000E+00 -0.00000000000E+00 -0.15195930266E+03  0.15195930266E+03  0.00000000000E+00 0.  1.
         23    2    1    2    0    0 -0.70018272549E+02  0.16631004282E+03 -0.51108140601E+02  0.22543683498E+03  0.12509250856E+03 0.  0.
          5    1    3    3  502    0  0.21692214564E+02 -0.44143765928E+01 -0.17891728224E+02  0.28768476363E+02  0.41800000000E+01 0. -1.
         -5    1    3    3    0  502 -0.91710487113E+02  0.17072441942E+03 -0.33216412377E+02  0.19666835862E+03  0.41800000000E+01 0. -1.
        -11    1    1    2    0    0  0.51215386449E+02 -0.14274928956E+02  0.20055437850E+03  0.20748216343E+03  0.00000000000E+00 0. -1.
         11    1    1    2    0    0  0.18802886099E+02 -0.15203511387E+03  0.56368890668E+03  0.58413475148E+03  0.00000000000E+00 0.  1.
</event>
<event>
 7    1  0.6992302E-006  0.1188860E+03  0.7561462E-02  0.1244946E+00
         -2   -1    0    0    0  501 -0.00000000000E+00  0.00000000000E+00  0.10263584080E+04  0.10263584080E+04  0.00000000000E+00 0.  1.
          2   -1    0    0  501    0  0.00000000000E+00 -0.00000000000E+00 -0.21227032863E+02  0.21227032863E+02  0.00000000000E+00 0. -1.
         23    2    1    2    0    0  0.56492648141E+02 -0.73240684535E+02  0.61728676369E+03  0.63658983037E+03  0.12509215143E+03 0.  0.
          5    1    3    3  502    0  0.46525949509E+02 -0.24653019304E+02  0.73395588124E+02  0.90425771186E+02  0.41800000000E+01 0.  1.
         -5    1    3    3    0  502  0.99666986315E+01 -0.48587665231E+02  0.54389117556E+03  0.54616405919E+03  0.41800000000E+01 0.  1.
        -11    1    1    2    0    0  0.27514775398E+02  0.29955028585E+02  0.13825394804E+03  0.14411287504E+03  0.00000000000E+00 0.  1.
         11    1    1    2    0    0 -0.84007423539E+02  0.43285655950E+02  0.24959066342E+03  0.26688273546E+03  0.00000000000E+00 0. -1.
</event>
<event>
 6    1  0.6992302E-006  0.1211476E+03  0.7561462E-02  0.1241216E+00
         -2   -1    0    0    0  501 -0.00000000000E+00  0.00000000000E+00  0.25964563982E+02  0.25964563982E+02  0.00000000000E+00 0.  1.
          2   -1    0    0  501    0  0.00000000000E+00 -0.00000000000E+00 -0.12783561401E+04  0.12783561401E+04  0.00000000000E+00 0. -1.
          5    1    1    2  502    0 -0.63382554856E+02 -0.17072819673E+02 -0.56966006213E+03  0.57344475603E+03  0.41800000000E+01 0. -1.
         -5    1    1    2    0  502 -0.19591931393E+02 -0.38234345320E+02 -0.94912513333E+01  0.44195759860E+02  0.41800000000E+01 0.  1.
        -11    1    1    2    0    0 -0.12732941651E+02 -0.11079163708E+02 -0.53849989384E+02  0.56433119958E+02  0.00000000000E+00 0. -1.
         11    1    1    2    0    0  0.95707427900E+02  0.66386328701E+02 -0.61939027324E+03  0.63024706820E+03  0.00000000000E+00 0.  1.
</event>
<event>
 7    1  0.6992302E-006  0.1011966E+03  0.7561462E-02  0.1277800E+00
         -2   -1    0    0    0  501 -0.00000000000E+00  0.00000000000E+00  0.19573355401E+03  0.19573355401E+03  0.00000000000E+00 0.  1.
          2   -1    0    0  501    0  0.00000000000E+00 -0.00000000000E+00 -0.11829262217E+03  0.11829262217E+03  0.00000000000E+00 0. -1.
         23    2    1    2    0    0 -0.68256058976E+02 -0.37785080994E+02  0.11615589177E+03  0.18768406318E+03  0.12508602818E+03 0.  0.
          5    1    3    3  502    0 -0.52726546029E+01 -0.44115335239E+02 -0.10664279536E+02  0.45882054747E+02  0.41800000000E+01 0. -1.
         -5    1    3    3    0  502 -0.62983404374E+02  0.63302542451E+01  0.12682017130E+03  0.14180200843E+03  0.41800000000E+01 0. -1.
        -11    1    1    2    0    0  0.42425280006E+02 -0.66384645203E+01 -0.57380727109E+02  0.71669529358E+02  0.00000000000E+00 0.  1.
         11    1    1    2    0    0  0.25830778971E+02  0.44423545514E+02  0.18665767177E+02  0.54672583646E+02  0.00000000000E+00 0. -1.
</event>
<event>
 7    1  0.6992302E-006  0.1310755E+03  0.7561462E-02  0.1225869E+00
         -2   -1    0    0    0  501 -0.00000000000E+00  0.00000000000E+00  0.56861832619E+02  0.56861832619E+02  0.00000000000E+00 0. -1.
          2   -1    0    0  501    0  0.00000000000E+00 -0.00000000000E+00 -0.44487961535E+03  0.44487961535E+03  0.00000000000E+00 0.  1.
         23    2    1    2    0    0  0.37832755602E+02  0.98055675576E+02 -0.13772976983E+03  0.21368223072E+03  0.12507746927E+03 0.  0.
          5    1    3    3  502    0  0.43739708450E+02  0.10871153584E+03 -0.15360153647E+03  0.19324146689E+03  0.41800000000E+01 0.  1.
         -5    1    3    3    0  502 -0.59069528479E+01 -0.10655860260E+02  0.15871766638E+02  0.20440763832E+02  0.41800000000E+01 0.  1.
        -11    1    1    2    0    0 -0.62054375497E+02 -0.56537625071E+02 -0.20699404503E+03  0.22336916359E+03  0.00000000000E+00 0. -1.
         11    1    1    2    0    0  0.24221619895E+02 -0.41518050506E+02 -0.43293967877E+02  0.64690053661E+02  0.00000000000E+00 0.  1.
</event>
<event>
 7    1  0.6992302E-006  0.1453712E+03  0.7561462E-02  0.1206279E+00
          2   -1    0    0  501    0  0.00000000000E+00  0.00000000000E+00  0.27155430724E+03  0.27155430724E+03  0.00000000000E+00 0. -1.
         -2   -1    0    0    0  501 -0.00000000000E+00 -0.00000000000E+00 -0.10379009378E+03  0.10379009378E+03  0.00000000000E+00 0.  1.
         23    2    1    2    0    0 -0.17328545086E+02 -0.12165588116E+03  0.48326115996E+02  0.18188889278E+03  0.12509086271E+03 0.  0.
          5    1    3    3  502    0  0.12573739102E+02 -0.10478881412E+03 -0.17944367997E+02  0.10713667543E+03  0.41800000000E+01 0. -1.
         -5    1    3    3    0  502 -0.29902284188E+02 -0.16867067041E+02  0.66270483992E+02  0.74752217350E+02  0.41800000000E+01 0. -1.
        -11    1    1    2    0    0  0.52200194484E+02  0.86408007770E+02  0.93024041877E+02  0.13727591369E+03  0.00000000000E+00 0. -1.
         11    1    1    2    0    0 -0.34871649398E+02  0.35247873395E+02  0.26414055587E+02  0.56179594544E+02  0.00000000000E+00 0.  1.
</event>
<event>
 7    1  0.6992302E-006  0.7947815E+02  0.7561462E-02  0.1330539E+00
         -1   -1    0    0    0  501 -0.00000000000E+00  0.00000000000E+00  0.17244428373E+02  0.17244428373E+02  0.00000000000E+00 0.  1.
          1   -1    0    0  501    0  0.00000000000E+00 -0.00000000000E+00 -0.68355675568E+03  0.68355675568E+03  0.00000000000E+00 0. -1.
         23    2    1    2    0    0  0.54214537442E+01  0.24035588030E+02 -0.35527316743E+03  0.37745367685E+03  0.12508058609E+03 0.  0.
          5    1    3    3  502    0  0.42097979996E+02  0.18151573756E+02 -0.32791773909E+03  0.33113325952E+03  0.41800000000E+01 0. -1.
         -5    1    3    3    0  502 -0.36676526252E+02  0.58840142749E+01 -0.27355428344E+02  0.46320417331E+02  0.41800000000E+01 0. -1.
        -11    1    1    2    0    0 -0.20457623532E+02 -0.45180141238E+02 -0.27192163916E+03  0.27640755664E+03  0.00000000000E+00 0. -1.
         11    1    1    2    0    0  0.15036169788E+02  0.21144553207E+02 -0.39117520704E+02  0.46939950557E+02  0.00000000000E+00 0.  1.
</event>
<event>
 7    1  0.6992302E-006  0.1776952E+03  0.7561462E-02  0.1170052E+00
         -4   -1    0    0    0  501 -0.00000000000E+00  0.00000000000E+00  0.24609366380E+03  0.24609366380E+03  0.00000000000E+00 0.  1.
          4   -1    0    0  501    0  0.00000000000E+00 -0.00000000000E+00 -0.12927802807E+03  0.12927802807E+03  0.00000000000E+00 0. -1.
         23    2    1    2    0    0 -0.33124961788E+01 -0.14012454236E+03  0.59808144008E+02  0.19715346401E+03  0.12508642724E+03 0.  0.
          5    1    3    3  502    0  0.54524326162E+02 -0.10892093712E+03  0.35246644392E+02  0.12687186854E+03  0.41800000000E+01 0.  1.
         -5    1    3    3    0  502 -0.57836822340E+02 -0.31203605243E+02  0.24561499615E+02  0.70281595471E+02  0.41800000000E+01 0.  1.
        -11    1    1    2    0    0 -0.30786772533E+02  0.88527455630E+01  0.27933781931E+01  0.32155861498E+02  0.00000000000E+00 0. -1.
         11    1    1    2    0    0  0.34099268711E+02  0.13127179680E+03  0.54214113531E+02  0.14606236636E+03  0.00000000000E+00 0.  1.
</event>
<event>
 7    1  0.6992302E-006  0.6561987E+02  0.7561462E-02  0.1375655E+00
         -1   -1    0    0    0  501 -0.00000000000E+00  0.00000000000E+00  0.20084566934E+03  0.20084566934E+03  0.00000000000E+00 0.  1.
          1   -1    0    0  501    0  0.00000000000E+00 -0.00000000000E+00 -0.33200033266E+02  0.33200033266E+02  0.00000000000E+00 0. -1.
         23    2    1    2    0    0  0.23472037880E+02  0.25680271800E+01  0.16651362951E+03  0.20926288572E+03  0.12452564073E+03 0.  0.
          5    1    3    3  502    0  0.25399782198E+01  0.52519685379E+02  0.26393851901E+02  0.58982002847E+02  0.41800000000E+01 0. -1.
         -5    1    3    3    0  502  0.20932059661E+02 -0.49951658199E+02  0.14011977761E+03  0.15028088287E+03  0.41800000000E+01 0.  1.
        -11    1    1    2    0    0 -0.12557528903E+02  0.12241993618E+01 -0.20864315028E+01  0.12788408527E+02  0.00000000000E+00 0.  1.
         11    1    1    2    0    0 -0.10914508977E+02 -0.37922265418E+01  0.32184380636E+01  0.11994408361E+02  0.00000000000E+00 0. -1.
</event>
<event>
 7    1  0.6992302E-006  0.1295376E+03  0.7561462E-02  0.1228144E+00
         -3   -1    0    0    0  501 -0.00000000000E+00  0.00000000000E+00  0.22476653193E+03  0.22476653193E+03  0.00000000000E+00 0.  1.
          3   -1    0    0  501    0  0.00000000000E+00 -0.00000000000E+00 -0.81765385250E+02  0.81765385250E+02  0.00000000000E+00 0. -1.
         23    2    1    2    0    0 -0.55901771487E+02  0.58997075667E+02  0.83460934034E+02  0.17093962649E+03  0.12509582488E+03 0.  0.
          5    1    3    3  502    0  0.23833804969E+01  0.84814448616E+02  0.53361101360E+02  0.10031974250E+03  0.41800000000E+01 0.  1.
         -5    1    3    3    0  502 -0.58285151984E+02 -0.25817372949E+02  0.30099832674E+02  0.70619883990E+02  0.41800000000E+01 0.  1.
        -11    1    1    2    0    0  0.11519668491E+02  0.17998348431E+02  0.38858207488E+02  0.44346404562E+02  0.00000000000E+00 0.  1.
         11    1    1    2    0    0  0.44382102996E+02 -0.76995424098E+02  0.20682005159E+02  0.91245886130E+02  0.00000000000E+00 0. -1.
</event>
<event>
 7    1  0.6992302E-006  0.1922535E+03  0.7561462E-02  0.1156444E+00
          2   -1    0    0  501    0  0.00000000000E+00  0.00000000000E+00  0.26734573734E+03  0.26734573734E+03  0.00000000000E+00 0. -1.
         -2   -1    0    0    0  501 -0.00000000000E+00 -0.00000000000E+00 -0.15945540108E+03  0.15945540108E+03  0.00000000000E+00 0.  1.
         23    2    1    2    0    0  0.20740137029E+02  0.17305168311E+03  0.68906340823E+02  0.22532825638E+03  0.12509077106E+03 0.  0.
          5    1    3    3  502    0  0.67735753534E+02  0.84602875782E+02  0.96703851118E+01  0.10888878567E+03  0.41800000000E+01 0. -1.
         -5    1    3    3    0  502 -0.46995616505E+02  0.88448807328E+02  0.59235955711E+02  0.11643947070E+03  0.41800000000E+01 0. -1.
        -11    1    1    2    0    0 -0.22079998552E+02 -0.87581208701E+02 -0.26120190540E+02  0.94022650502E+02  0.00000000000E+00 0.  1.
         11    1    1    2    0    0  0.13398615223E+01 -0.85470474410E+02  0.65104185978E+02  0.10745023153E+03  0.00000000000E+00 0. -1.
</event>
<event>
 7    1  0.6992302E-006  0.1024204E+03  0.7561462E-02  0.1275287E+00
         -2   -1    0    0    0  501 -0.00000000000E+00  0.00000000000E+00  0.13132491520E+03  0.13132491520E+03  0.00000000000E+00 0. -1.
          2   -1    0    0  501    0  0.00000000000E+00 -0.00000000000E+00 -0.98024661284E+02  0.98024661284E+02  0.00000000000E+00 0.  1.
         23    2    1    2    0    0  0.76444382001E+01 -0.54760098714E+02  0.34314594040E+02  0.14100266295E+03  0.12508858361E+03 0.  0.
          5    1    3    3  502    0  0.20684592565E+01  0.30592723585E+02 -0.22475478609E+02  0.38246735792E+02  0.41800000000E+01 0. -1.
         -5    1    3    3    0  502  0.55759789435E+01 -0.85352822299E+02  0.56790072649E+02  0.10275592716E+03  0.41800000000E+01 0. -1.
        -11    1    1    2    0    0  0.44476272317E+01 -0.15930850127E+02 -0.16887742025E+01  0.16626043789E+02  0.00000000000E+00 0.  1.
         11    1    1    2    0    0 -0.12092065432E+02  0.70690948841E+02  0.67443407511E+00  0.71720869737E+02  0.00000000000E+00 0. -1.
</event>
<event>
 7    1  0.6992302E-006  0.1379913E+03  0.7561462E-02  0.1216058E+00
          2   -1    0    0  501    0  0.00000000000E+00  0.00000000000E+00  0.55950365055E+02  0.55950365055E+02  0.00000000000E+00 0. -1.
         -2   -1    0    0    0  501 -0.00000000000E+00 -0.00000000000E+00 -0.47166814215E+03  0.47166814215E+03  0.00000000000E+00 0.  1.
         23    2    1    2    0    0  0.91370375913E+02  0.49988518391E+01 -0.35010521073E+03  0.38287737193E+03  0.12509152344E+03 0.  0.
          5    1    3    3  502    0  0.12055773448E+03  0.18834645268E+02 -0.28609296741E+03  0.31105557318E+03  0.41800000000E+01 0. -1.
         -5    1    3    3    0  502 -0.29187358568E+02 -0.13835793429E+02 -0.64012243323E+02  0.71821798747E+02  0.41800000000E+01 0. -1.
        -11    1    1    2    0    0 -0.10193439976E+03  0.10597389845E+02 -0.71551157044E+02  0.12498997800E+03  0.00000000000E+00 0.  1.
         11    1    1    2    0    0  0.10564023847E+02 -0.15596241684E+02  0.59385906823E+01  0.19751157277E+02  0.00000000000E+00 0. -1.
</event>
<event>
 7    1  0.6992302E-006  0.1471721E+03  0.7561462E-02  0.1203992E+00
         -2   -1    0    0    0  501 -0.00000000000E+00  0.00000000000E+00  0.12029984529E+03  0.12029984529E+03  0.00000000000E+00 0.  1.
          2   -1    0    0  501    0  0.00000000000E+00 -0.00000000000E+00 -0.21901412885E+03  0.21901412885E+03  0.00000000000E+00 0. -1.
         23    2    1    2    0    0 -0.14104384789E+02  0.11564495526E+03 -0.20972825480E+02  0.17222171838E+03  0.12509105294E+03 0.  0.
          5    1    3    3  502    0 -0.65386250002E+02  0.94660150000E+02 -0.18497170057E+02  0.11659984300E+03  0.41800000000E+01 0. -1.
         -5    1    3    3    0  502  0.51281865213E+02  0.20984805262E+02 -0.24756554223E+01  0.55621875385E+02  0.41800000000E+01 0. -1.
        -11    1    1    2    0    0 -0.10337499666E+02 -0.74742907156E+01  0.16987177246E+02  0.21243660510E+02  0.00000000000E+00 0.  1.
         11    1    1    2    0    0  0.24441884456E+02 -0.10817066455E+03 -0.94728635323E+02  0.14584859524E+03  0.00000000000E+00 0. -1.
</event>
<event>
 7    1  0.6992302E-006  0.1973187E+03  0.7561462E-02  0.1152021E+00
         -2   -1    0    0    0  501 -0.00000000000E+00  0.00000000000E+00  0.80942506866E+02  0.80942506866E+02  0.00000000000E+00 0. -1.
          2   -1    0    0  501    0  0.00000000000E+00 -0.00000000000E+00 -0.77115656562E+03  0.77115656562E+03  0.00000000000E+00 0.  1.
         23    2    1    2    0    0  0.16726897373E+03  0.10309854699E+03 -0.16851261704E+03  0.28749213321E+03  0.12508798739E+03 0.  0.
          5    1    3    3  502    0  0.14835560796E+03  0.82337462045E+02 -0.18782784026E+03  0.25315136588E+03  0.41800000000E+01 0.  1.
         -5    1    3    3    0  502  0.18913365774E+02  0.20761084948E+02  0.19315223217E+02  0.34340767334E+02  0.41800000000E+01 0.  1.
        -11    1    1    2    0    0 -0.87390370371E+02 -0.55866684109E+02 -0.15613976618E+03  0.18745076636E+03  0.00000000000E+00 0. -1.
         11    1    1    2    0    0 -0.79878603364E+02 -0.47231862884E+02 -0.36556167553E+03  0.37715617291E+03  0.00000000000E+00 0.  1.
</event>
<event>
 7    1  0.6992302E-006  0.2328877E+03  0.7561462E-02  0.1124624E+00
          2   -1    0    0  501    0  0.00000000000E+00  0.00000000000E+00  0.23327259461E+03  0.23327259461E+03  0.00000000000E+00 0. -1.
         -2   -1    0    0    0  501 -0.00000000000E+00 -0.00000000000E+00 -0.29860380680E+03  0.29860380680E+03  0.00000000000E+00 0.  1.
         23    2    1    2    0    0  0.17808219414E+03 -0.12840449722E+03 -0.13175574091E+03  0.28495698855E+03  0.12505969488E+03 0.  0.
          5    1    3    3  502    0  0.15924035470E+03 -0.13455109937E+03 -0.15066079710E+03  0.25725014498E+03  0.41800000000E+01 0.  1.
         -5    1    3    3    0  502  0.18841839439E+02  0.61466021492E+01  0.18905056188E+02  0.27706843575E+02  0.41800000000E+01 0.  1.
        -11    1    1    2    0    0 -0.17258830669E+03  0.83430885826E+02  0.61624503943E+02  0.20135792957E+03  0.00000000000E+00 0. -1.
         11    1    1    2    0    0 -0.54938874542E+01  0.44973611395E+02  0.48000247719E+01  0.45561483285E+02  0.00000000000E+00 0.  1.
</event>
<event>
 7    1  0.6992302E-006  0.1459312E+03  0.7561462E-02  0.1205564E+00
          1   -1    0    0  501    0  0.00000000000E+00  0.00000000000E+00  0.21472718213E+03  0.21472718213E+03  0.00000000000E+00 0. -1.
         -1   -1    0    0    0  501 -0.00000000000E+00 -0.00000000000E+00 -0.24790567446E+03  0.24790567446E+03  0.00000000000E+00 0.  1.
         23    2    1    2    0    0  0.32846730568E+02 -0.11442624289E+03 -0.18304690666E+03  0.25164605814E+03  0.12508915127E+03 0.  0.
          5    1    3    3  502    0  0.49690594640E+02 -0.11759510749E+03 -0.88324329578E+02  0.15529463641E+03  0.41800000000E+01 0. -1.
         -5    1    3    3    0  502 -0.16843864071E+02  0.31688646025E+01 -0.94722577085E+02  0.96351421730E+02  0.41800000000E+01 0. -1.
        -11    1    1    2    0    0 -0.62051918446E+02  0.73105855752E+02  0.80964890288E+02  0.12549988122E+03  0.00000000000E+00 0.  1.
         11    1    1    2    0    0  0.29205187878E+02  0.41320387138E+02  0.68903524043E+02  0.85486917232E+02  0.00000000000E+00 0. -1.
</event>
<event>
 7    1  0.6992302E-006  0.9103394E+02  0.7561462E-02  0.1300367E+00
          2   -1    0    0  501    0  0.00000000000E+00  0.00000000000E+00  0.37342639602E+03  0.37342639602E+03  0.00000000000E+00 0. -1.
         -2   -1    0    0    0  501 -0.00000000000E+00 -0.00000000000E+00 -0.35304003906E+02  0.35304003906E+02  0.00000000000E+00 0.  1.
         23    2    1    2    0    0  0.30015724189E+02 -0.21649138336E+02  0.17222982097E+03  0.21605743082E+03  0.12509225911E+03 0.  0.
          5    1    3    3  502    0 -0.25852795798E+02  0.74180731921E+01  0.14463254287E+03  0.14717146367E+03  0.41800000000E+01 0.  1.
         -5    1    3    3    0  502  0.55868519987E+02 -0.29067211528E+02  0.27597278101E+02  0.68885967150E+02  0.41800000000E+01 0.  1.
        -11    1    1    2    0    0 -0.45104069573E+02 -0.18569410169E+02  0.53739166059E+02  0.72574775610E+02  0.00000000000E+00 0.  1.
         11    1    1    2    0    0  0.15088345384E+02  0.40218548505E+02  0.11215340509E+03  0.12009819350E+03  0.00000000000E+00 0. -1.
</event>
<event>
 7    1  0.6992302E-006  0.7253599E+02  0.7561462E-02  0.1351676E+00
          2   -1    0    0  501    0  0.00000000000E+00  0.00000000000E+00  0.21886377516E+02  0.21886377516E+02  0.00000000000E+00 0. -1.
         -2   -1    0    0    0  501 -0.00000000000E+00 -0.00000000000E+00 -0.58080365504E+03  0.58080365504E+03  0.00000000000E+00 0.  1.
         23    2    1    2    0    0 -0.47567150579E+01  0.41819759050E+01 -0.41372037097E+03  0.43226373450E+03  0.12508907046E+03 0.  0.
          5    1    3    3  502    0 -0.34305823824E+02  0.83054129691E+00 -0.25682581686E+02  0.43065609820E+02  0.41800000000E+01 0. -1.
         -5    1    3    3    0  502  0.29549108766E+02  0.33514346081E+01 -0.38803778928E+03  0.38919812468E+03  0.41800000000E+01 0. -1.
        -11    1    1    2    0    0 -0.37398258718E+02 -0.76553398991E+01 -0.32784866448E+02  0.50319791853E+02  0.00000000000E+00 0.  1.
         11    1    1    2    0    0  0.42154973776E+02  0.34733639941E+01 -0.11241204011E+03  0.12010650621E+03  0.00000000000E+00 0. -1.
</event>
<event>
 7    1  0.6992302E-006  0.1142512E+03  0.7561462E-02  0.1252894E+00
         -2   -1    0    0    0  501 -0.00000000000E+00  0.00000000000E+00  0.25075343702E+02  0.25075343702E+02  0.00000000000E+00 0.  1.
          2   -1    0    0  501    0  0.00000000000E+00 -0.00000000000E+00 -0.62679838214E+03  0.62679838214E+03  0.00000000000E+00 0. -1.
         23    2    1    2    0    0  0.58251712185E+02 -0.86131109548E+01 -0.22447809771E+03  0.26363923729E+03  0.12509110055E+03 0.  0.
          5    1    3    3  502    0  0.14670651390E+02  0.56459981527E+02 -0.78065630454E+02  0.97543183177E+02  0.41800000000E+01 0.  1.
         -5    1    3    3    0  502  0.43581060795E+02 -0.65073092482E+02 -0.14641246725E+03  0.16609605411E+03  0.41800000000E+01 0.  1.
        -11    1    1    2    0    0 -0.31273696112E+02  0.39627657133E+02 -0.19757243764E+03  0.20391974743E+03  0.00000000000E+00 0.  1.
         11    1    1    2    0    0 -0.26978016072E+02 -0.31014546178E+02 -0.17967250309E+03  0.18431474112E+03  0.00000000000E+00 0. -1.
</event>
<event>
 7    1  0.6992302E-006  0.2590970E+03  0.7561462E-02  0.1107687E+00
         -2   -1    0    0    0  501 -0.00000000000E+00  0.00000000000E+00  0.96715716759E+02  0.96715716759E+02  0.00000000000E+00 0. -1.
          2   -1    0    0  501    0  0.00000000000E+00 -0.00000000000E+00 -0.73888814808E+03  0.73888814808E+03  0.00000000000E+00 0.  1.
         23    2    1    2    0    0  0.15009934421E+03  0.19029788774E+03 -0.28692944637E+03  0.39587596128E+03  0.12508465261E+03 0.  0.
          5    1    3    3  502    0 -0.10187368673E+02  0.39418819395E+02 -0.96345639671E+02  0.10467846238E+03  0.41800000000E+01 0. -1.
         -5    1    3    3    0  502  0.16028671288E+03  0.15087906834E+03 -0.19058380670E+03  0.29119749890E+03  0.41800000000E+01 0. -1.
        -11    1    1    2    0    0 -0.47745413806E+02 -0.85408696189E+01 -0.90526077293E+02  0.10270122523E+03  0.00000000000E+00 0. -1.
         11    1    1    2    0    0 -0.10235393040E+03 -0.18175701812E+03 -0.26471690765E+03  0.33702667832E+03  0.00000000000E+00 0.  1.
</event>
<event>
 7    1  0.6992302E-006  0.1036539E+03  0.7561462E-02  0.1272795E+00
         -1   -1    0    0    0  501 -0.00000000000E+00  0.00000000000E+00  0.83476663449E+02  0.83476663449E+02  0.00000000000E+00 0.  1.
          1   -1    0    0  501    0  0.00000000000E+00 -0.00000000000E+00 -0.19468919193E+03  0.19468919193E+03  0.00000000000E+00 0. -1.
         23    2    1    2    0    0 -0.60020552188E+02 -0.27720456346E+02 -0.61134627669E+02  0.15413202295E+03  0.12509335479E+03 0.  0.
          5    1    3    3  502    0  0.40214619856E+01  0.20355546985E+02  0.27437865724E+02  0.34652984360E+02  0.41800000000E+01 0.  1.
         -5    1    3    3    0  502 -0.64042014173E+02 -0.48076003331E+02 -0.88572493393E+02  0.11947903859E+03  0.41800000000E+01 0.  1.
        -11    1    1    2    0    0  0.80483879564E+02  0.15031144478E+02 -0.56053696984E+02  0.99225032726E+02  0.00000000000E+00 0. -1.
         11    1    1    2    0    0 -0.20463327376E+02  0.12689311868E+02  0.59757961713E+01  0.24808799706E+02  0.00000000000E+00 0.  1.
</event>
<event>
 7    1  0.6992302E-006  0.1929037E+03  0.7561462E-02  0.1155868E+00
          1   -1    0    0  501    0  0.00000000000E+00  0.00000000000E+00  0.55960219280E+02  0.55960219280E+02  0.00000000000E+00 0. -1.
         -1   -1    0    0    0  501 -0.00000000000E+00 -0.00000000000E+00 -0.71542893670E+03  0.71542893670E+03  0.00000000000E+00 0.  1.
         23    2    1    2    0    0 -0.91853637879E+01 -0.16588012815E+03 -0.33202843609E+03  0.39177965027E+03  0.12509126336E+03 0.  0.
          5    1    3    3  502    0 -0.19882803762E+02  0.15910796740E+02 -0.41913351974E+02  0.49220735590E+02  0.41800000000E+01 0. -1.
         -5    1    3    3    0  502  0.10697439974E+02 -0.18179092489E+03 -0.29011508412E+03  0.34255891468E+03  0.41800000000E+01 0. -1.
        -11    1    1    2    0    0  0.24555908661E+02  0.21458327909E+02 -0.13285150173E+03  0.13679537273E+03  0.00000000000E+00 0.  1.
         11    1    1    2    0    0 -0.15370544873E+02  0.14442180024E+03 -0.19458877960E+03  0.24281413299E+03  0.00000000000E+00 0. -1.
</event>
<event>
 7    1  0.6992302E-006  0.1541806E+03  0.7561462E-02  0.1195428E+00
          2   -1    0    0  501    0  0.00000000000E+00  0.00000000000E+00  0.48438198770E+02  0.48438198770E+02  0.00000000000E+00 0. -1.
         -2   -1    0    0    0  501 -0.00000000000E+00 -0.00000000000E+00 -0.53035057705E+03  0.53035057705E+03  0.00000000000E+00 0.  1.
         23    2    1    2    0    0 -0.71369701582E+02  0.86768040531E+02 -0.32142391974E+03  0.36274417650E+03  0.12509066408E+03 0.  0.
          5    1    3    3  502    0 -0.60161394623E+00  0.95449289468E+02 -0.20477473724E+03  0.22596702018E+03  0.41800000000E+01 0. -1.
         -5    1    3    3    0  502 -0.70768087635E+02 -0.86812489372E+01 -0.11664918250E+03  0.13677715632E+03  0.41800000000E+01 0. -1.
        -11    1    1    2    0    0 -0.19036201139E+02 -0.26944234029E+02 -0.19950798034E+02  0.38553897902E+02  0.00000000000E+00 0. -1.
         11    1    1    2    0    0  0.90405902721E+02 -0.59823806503E+02 -0.14053766051E+03  0.17749070142E+03  0.00000000000E+00 0.  1.
</event>
<event>
 7    1  0.6992302E-006  0.2638077E+03  0.7561462E-02  0.1104877E+00
         -2   -1    0    0    0  501 -0.00000000000E+00  0.00000000000E+00  0.18422806334E+03  0.18422806334E+03  0.00000000000E+00 0. -1.
          2   -1    0    0  501    0  0.00000000000E+00 -0.00000000000E+00 -0.41201864971E+03  0.41201864971E+03  0.00000000000E+00 0.  1.
         23    2    1    2    0    0  0.44413561074E+02 -0.24715908561E+03 -0.11089292955E+03  0.30166986968E+03  0.12508912999E+03 0.  0.
          5    1    3    3  502    0 -0.21723052804E+02 -0.11017187016E+02  0.11849104058E+02  0.27406989981E+02  0.41800000000E+01 0.  1.
         -5    1    3    3    0  502  0.66136613878E+02 -0.23614189859E+03 -0.12274203361E+03  0.27426287969E+03  0.41800000000E+01 0.  1.
        -11    1    1    2    0    0 -0.30165572069E+02  0.40557873392E+02 -0.62649483556E+02  0.80497581468E+02  0.00000000000E+00 0.  1.
         11    1    1    2    0    0 -0.14247989005E+02  0.20660121221E+03 -0.54248173267E+02  0.21407926191E+03  0.00000000000E+00 0. -1.
</event>
<event>
 7    1  0.6992302E-006  0.2222769E+03  0.7561462E-02  0.1132197E+00
         -1   -1    0    0    0  501 -0.00000000000E+00  0.00000000000E+00  0.17014150951E+03  0.17014150951E+03  0.00000000000E+00 0.  1.
          1   -1    0    0  501    0  0.00000000000E+00 -0.00000000000E+00 -0.33633954972E+03  0.33633954972E+03  0.00000000000E+00 0. -1.
         23    2    1    2    0    0 -0.12798555741E+03 -0.16844168847E+03 -0.10888362917E+03  0.26880962686E+03  0.12510022171E+03 0.  0.
          5    1    3    3  502    0 -0.97625981743E+01 -0.36226640183E+02  0.26091110784E+02  0.45890045151E+02  0.41800000000E+01 0. -1.
         -5    1    3    3    0  502 -0.11822295924E+03 -0.13221504829E+03 -0.13497473995E+03  0.22291958171E+03  0.41800000000E+01 0. -1.
        -11    1    1    2    0    0  0.94627423623E+01  0.82370977703E+02 -0.88488222249E+01  0.83383590205E+02  0.00000000000E+00 0. -1.
         11    1    1    2    0    0  0.11852281505E+03  0.86070710767E+02 -0.48465588811E+02  0.15428784216E+03  0.00000000000E+00 0.  1.
</event>
<event>
 7    1  0.6992302E-006  0.1294191E+03  0.7561462E-02  0.1228320E+00
         -3   -1    0    0    0  501 -0.00000000000E+00  0.00000000000E+00  0.53960841824E+03  0.53960841824E+03  0.00000000000E+00 0.  1.
          3   -1    0    0  501    0  0.00000000000E+00 -0.00000000000E+00 -0.36091735399E+02  0.36091735399E+02  0.00000000000E+00 0. -1.
         23    2    1    2    0    0 -0.53309917746E+02  0.57893859705E+02  0.36584430795E+03  0.39456719677E+03  0.12509024255E+03 0.  0.
          5    1    3    3  502    0 -0.77320732666E+02 -0.95702001828E+00  0.25742678206E+03  0.26882230583E+03  0.41800000000E+01 0. -1.
         -5    1    3    3    0  502  0.24010814920E+02  0.58850879723E+02  0.10841752589E+03  0.12574489094E+03  0.41800000000E+01 0. -1.
        -11    1    1    2    0    0  0.69559014593E+02 -0.69033136804E+02  0.11381405868E+03  0.15019211178E+03  0.00000000000E+00 0. -1.
         11    1    1    2    0    0 -0.16249096846E+02  0.11139277100E+02  0.23858316210E+02  0.30940845092E+02  0.00000000000E+00 0.  1.
</event>
<event>
 7    1  0.6992302E-006  0.8687885E+02  0.7561462E-02  0.1310591E+00
          2   -1    0    0  501    0  0.00000000000E+00  0.00000000000E+00  0.71036900564E+02  0.71036900564E+02  0.00000000000E+00 0. -1.
         -2   -1    0    0    0  501 -0.00000000000E+00 -0.00000000000E+00 -0.23136084449E+03  0.23136084449E+03  0.00000000000E+00 0.  1.
         23    2    1    2    0    0 -0.47578899966E+02  0.79110551295E+01 -0.15603306043E+03  0.20571939440E+03  0.12509123377E+03 0.  0.
          5    1    3    3  502    0 -0.41971354793E+02 -0.44398079921E+02 -0.28198669261E+02  0.67419740966E+02  0.41800000000E+01 0. -1.
         -5    1    3    3    0  502 -0.56075451733E+01  0.52309135050E+02 -0.12783439117E+03  0.13829965343E+03  0.41800000000E+01 0. -1.
        -11    1    1    2    0    0  0.31535035092E+02 -0.21952145481E+02  0.35000701396E+02  0.51975034658E+02  0.00000000000E+00 0. -1.
         11    1    1    2    0    0  0.16043864874E+02  0.14041090351E+02 -0.39291584893E+02  0.44703316004E+02  0.00000000000E+00 0.  1.
</event>
<event>
 7    1  0.6992302E-006  0.1418082E+03  0.7561462E-02  0.1210916E+00
          2   -1    0    0  501    0  0.00000000000E+00  0.00000000000E+00  0.10852055089E+04  0.10852055089E+04  0.00000000000E+00 0. -1.
         -2   -1    0    0    0  501 -0.00000000000E+00 -0.00000000000E+00 -0.22905254901E+02  0.22905254901E+02  0.00000000000E+00 0.  1.
         23    2    1    2    0    0  0.10851598123E+03  0.21548910655E+02  0.46916771232E+03  0.49800172154E+03  0.12508916275E+03 0.  0.
          5    1    3    3  502    0 -0.65833181043E+01 -0.25141260485E+02  0.23354207937E+02  0.35189692871E+02  0.41800000000E+01 0. -1.
         -5    1    3    3    0  502  0.11509929933E+03  0.46690171140E+02  0.44581350439E+03  0.46281202867E+03  0.41800000000E+01 0. -1.
        -11    1    1    2    0    0 -0.49641997357E+02  0.27175035519E+02  0.14775180779E+03  0.15821949046E+03  0.00000000000E+00 0.  1.
         11    1    1    2    0    0 -0.58873983870E+02 -0.48723946174E+02  0.44538073392E+03  0.45188955183E+03  0.00000000000E+00 0. -1.
</event>
<event>
 7    1  0.6992302E-006  0.1818559E+03  0.7561462E-02  0.1166019E+00
          1   -1    0    0  501    0  0.00000000000E+00  0.00000000000E+00  0.49697119850E+03  0.49697119850E+03  0.00000000000E+00 0. -1.
         -1   -1    0    0    0  501 -0.00000000000E+00 -0.00000000000E+00 -0.77286351783E+02  0.77286351783E+02  0.00000000000E+00 0.  1.
         23    2    1    2    0    0  0.12966543506E+03 -0.87740135275E+02  0.28280201097E+03  0.34660898911E+03  0.12509739220E+03 0.  0.
          5    1    3    3  502    0  0.12922701757E+03 -0.18018628338E+02  0.18582906637E+03  0.22709955382E+03  0.41800000000E+01 0. -1.
         -5    1    3    3    0  502  0.43841749259E+00 -0.69721506936E+02  0.96972944596E+02  0.11950943529E+03  0.41800000000E+01 0. -1.
        -11    1    1    2    0    0 -0.36383090874E+02  0.17106570265E+01 -0.55987849706E+01  0.36851079254E+02  0.00000000000E+00 0.  1.
         11    1    1    2    0    0 -0.93282344188E+02  0.86029478248E+02  0.14248162073E+03  0.19079748193E+03  0.00000000000E+00 0. -1.
</event>
<event>
 7    1  0.6992302E-006  0.1111321E+03  0.7561462E-02  0.1258488E+00
         -2   -1    0    0    0  501 -0.00000000000E+00  0.00000000000E+00  0.91532689804E+02  0.91532689804E+02  0.00000000000E+00 0.  1.
          2   -1    0    0  501    0  0.00000000000E+00 -0.00000000000E+00 -0.24205535027E+03  0.24205535027E+03  0.00000000000E+00 0. -1.
         23    2    1    2    0    0 -0.71605628920E+02 -0.86542036956E+01  0.38193619839E+00  0.14439465664E+03  0.12508960651E+03 0.  0.
          5    1    3    3  502    0 -0.64404046494E+01  0.52145667191E+02  0.12992672231E+02  0.54285645898E+02  0.41800000000E+01 0. -1.
         -5    1    3    3    0  502 -0.65165224271E+02 -0.60799870887E+02 -0.12610736032E+02  0.90109010745E+02  0.41800000000E+01 0. -1.
        -11    1    1    2    0    0  0.10342506594E+02  0.15559172579E+02  0.67878093120E+01  0.19877868328E+02  0.00000000000E+00 0.  1.
         11    1    1    2    0    0  0.61263122326E+02 -0.69049688832E+01 -0.15769240598E+03  0.16931551511E+03  0.00000000000E+00 0. -1.
</event>
<event>
 7    1  0.6992302E-006  0.1386399E+03  0.7561462E-02  0.1215171E+00
          2   -1    0    0  501    0  0.00000000000E+00  0.00000000000E+00  0.37460513907E+03  0.37460513907E+03  0.00000000000E+00 0. -1.
         -2   -1    0    0    0  501 -0.00000000000E+00 -0.00000000000E+00 -0.12427122550E+03  0.12427122550E+03  0.00000000000E+00 0.  1.
         23    2    1    2    0    0  0.32022414335E+02  0.10153807072E+03 -0.46321154517E+02  0.17067133328E+03  0.12509052651E+03 0.  0.
          5    1    3    3  502    0  0.70738505867E+02  0.38733006556E+02  0.46647010049E+01  0.80891370644E+02  0.41800000000E+01 0. -1.
         -5    1    3    3    0  502 -0.38716091532E+02  0.62805064167E+02 -0.50985855521E+02  0.89779962641E+02  0.41800000000E+01 0. -1.
        -11    1    1    2    0    0  0.45415091222E+01 -0.80122809537E+02  0.10630453260E+03  0.13319513341E+03  0.00000000000E+00 0.  1.
         11    1    1    2    0    0 -0.36563923457E+02 -0.21415261186E+02  0.19035053548E+03  0.19500989788E+03  0.00000000000E+00 0. -1.
</event>
<event>
 7    1  0.6992302E-006  0.1212176E+03  0.7561462E-02  0.1241102E+00
         -2   -1    0    0    0  501 -0.00000000000E+00  0.00000000000E+00  0.52314312955E+02  0.52314312955E+02  0.00000000000E+00 0.  1.
          2   -1    0    0  501    0  0.00000000000E+00 -0.00000000000E+00 -0.37170904548E+03  0.37170904548E+03  0.00000000000E+00 0. -1.
         23    2    1    2    0    0  0.77544663818E+02 -0.17677685157E+02 -0.11630953734E+03  0.18842035266E+03  0.12509454577E+03 0.  0.
          5    1    3    3  502    0  0.44936537001E+02  0.53372474497E+02 -0.57417298610E+02  0.90455137893E+02  0.41800000000E+01 0. -1.
         -5    1    3    3    0  502  0.32608126817E+02 -0.71050159654E+02 -0.58892238731E+02  0.97965214765E+02  0.41800000000E+01 0. -1.
        -11    1    1    2    0    0 -0.14467177939E+02  0.26861810636E+02 -0.97485987696E+01  0.32029537714E+02  0.00000000000E+00 0. -1.
         11    1    1    2    0    0 -0.63077485879E+02 -0.91841254798E+01 -0.19333659642E+03  0.20357346806E+03  0.00000000000E+00 0.  1.
</event>
<event>
 7    1  0.6992302E-006  0.1146558E+03  0.7561462E-02  0.1252183E+00
          2   -1    0    0  501    0  0.00000000000E+00  0.00000000000E+00  0.79954274063E+03  0.79954274063E+03  0.00000000000E+00 0. -1.
         -2   -1    0    0    0  501 -0.00000000000E+00 -0.00000000000E+00 -0.24346965480E+02  0.24346965480E+02  0.00000000000E+00 0.  1.
         23    2    1    2    0    0 -0.59642197714E+02  0.12372908290E+02  0.23751233663E+03  0.27526183549E+03  0.12508671960E+03 0.  0.
          5    1    3    3  502    0 -0.32999054907E+02  0.58245796518E+02  0.19780133940E+03  0.20886443619E+03  0.41800000000E+01 0.  1.
         -5    1    3    3    0  502 -0.26643142807E+02 -0.45872888228E+02  0.39710997228E+02  0.66397399300E+02  0.41800000000E+01 0.  1.
        -11    1    1    2    0    0  0.34354109868E+02  0.38873199404E+02  0.26009528748E+03  0.26521856848E+03  0.00000000000E+00 0.  1.
         11    1    1    2    0    0  0.25288087845E+02 -0.51246107695E+02  0.27758815103E+03  0.28340930213E+03  0.00000000000E+00 0. -1.
</event>
<event>
 7    1  0.6992302E-006  0.9339693E+02  0.7561462E-02  0.1294828E+00
          1   -1    0    0  501    0  0.00000000000E+00  0.00000000000E+00  0.31169724847E+03  0.31169724847E+03  0.00000000000E+00 0. -1.
         -1   -1    0    0    0  501 -0.00000000000E+00 -0.00000000000E+00 -0.41426371404E+02  0.41426371404E+02  0.00000000000E+00 0.  1.
         23    2    1    2    0    0 -0.82063547541E+01 -0.16033071125E+02  0.13404600671E+03  0.18422712141E+03  0.12508755622E+03 0.  0.
          5    1    3    3  502    0 -0.36896288076E+02 -0.42746601386E+02  0.13326600840E+03  0.14479609593E+03  0.41800000000E+01 0. -1.
         -5    1    3    3    0  502  0.28689933322E+02  0.26713530261E+02  0.77999831840E+00  0.39431025480E+02  0.41800000000E+01 0. -1.
        -11    1    1    2    0    0  0.66888308065E+01  0.53165628181E+02  0.11303056928E+03  0.12508890466E+03  0.00000000000E+00 0. -1.
         11    1    1    2    0    0  0.15175239476E+01 -0.37132557056E+02  0.23194301076E+02  0.43807593804E+02  0.00000000000E+00 0.  1.
</event>
<event>
 7    1  0.6992302E-006  0.2495207E+03  0.7561462E-02  0.1113608E+00
         -1   -1    0    0    0  501 -0.00000000000E+00  0.00000000000E+00  0.10074590973E+03  0.10074590973E+03  0.00000000000E+00 0.  1.
          1   -1    0    0  501    0  0.00000000000E+00 -0.00000000000E+00 -0.77537199121E+03  0.77537199121E+03  0.00000000000E+00 0. -1.
         23    2    1    2    0    0 -0.10345691592E+03  0.20399248743E+03 -0.16033907441E+03  0.30605787050E+03  0.12508610208E+03 0.  0.
          5    1    3    3  502    0  0.23805298787E+02  0.20914578668E+02 -0.44424527646E+02  0.54727716084E+02  0.41800000000E+01 0.  1.
         -5    1    3    3    0  502 -0.12726221471E+03  0.18307790876E+03 -0.11591454677E+03  0.25133015442E+03  0.41800000000E+01 0.  1.
        -11    1    1    2    0    0  0.30667084173E+02 -0.15088804453E+03 -0.28976519214E+03  0.32813341587E+03  0.00000000000E+00 0.  1.
         11    1    1    2    0    0  0.72789831747E+02 -0.53104442900E+02 -0.22452181493E+03  0.24192661458E+03  0.00000000000E+00 0. -1.
</event>
<event>
 7    1  0.6992302E-006  0.1126776E+03  0.7561462E-02  0.1255690E+00
          2   -1    0    0  501    0  0.00000000000E+00  0.00000000000E+00  0.58701478286E+03  0.58701478286E+03  0.00000000000E+00 0. -1.
         -2   -1    0    0    0  501 -0.00000000000E+00 -0.00000000000E+00 -0.25750666909E+02  0.25750666909E+02  0.00000000000E+00 0.  1.
         23    2    1    2    0    0 -0.53092191918E+01  0.57028019565E+02  0.29777261935E+03  0.32801697574E+03  0.12508485407E+03 0.  0.
          5    1    3    3  502    0 -0.17849770872E+02  0.85167642175E+02  0.12435598092E+03  0.15183551621E+03  0.41800000000E+01 0. -1.
         -5    1    3    3    0  502  0.12540551680E+02 -0.28139622610E+02  0.17341663843E+03  0.17618145953E+03  0.41800000000E+01 0. -1.
        -11    1    1    2    0    0  0.37839705823E+02 -0.63556302527E+02  0.16507038023E+03  0.18088526019E+03  0.00000000000E+00 0.  1.
         11    1    1    2    0    0 -0.32530486631E+02  0.65282829622E+01  0.98421116378E+02  0.10386321383E+03  0.00000000000E+00 0. -1.
</event>
<event>
 7    1  0.6992302E-006  0.1355492E+03  0.7561462E-02  0.1219446E+00
          2   -1    0    0  501    0  0.00000000000E+00  0.00000000000E+00  0.31323503814E+02  0.31323503814E+02  0.00000000000E+00 0. -1.
         -2   -1    0    0    0  501 -0.00000000000E+00 -0.00000000000E+00 -0.74223343228E+03  0.74223343228E+03  0.00000000000E+00 0.  1.
         23    2    1    2    0    0 -0.35946490084E+01  0.10685356551E+03 -0.38731846541E+03  0.42082471213E+03  0.12508892329E+03 0.  0.
          5    1    3    3  502    0  0.10542655056E+02 -0.23580552558E+02 -0.28206083098E+02  0.38473959483E+02  0.41800000000E+01 0. -1.
         -5    1    3    3    0  502 -0.14137304065E+02  0.13043411807E+03 -0.35911238231E+03  0.38235075265E+03  0.41800000000E+01 0. -1.
        -11    1    1    2    0    0 -0.17407035018E+02 -0.40870620704E+02 -0.36758314184E+02  0.57659224470E+02  0.00000000000E+00 0. -1.
         11    1    1    2    0    0  0.21001684027E+02 -0.65982944806E+02 -0.28683314888E+03  0.29507299949E+03  0.00000000000E+00 0.  1.
</event>
<event>
 7    1  0.6992302E-006  0.8398562E+02  0.7561462E-02  0.1318107E+00
          1   -1    0    0  501    0  0.00000000000E+00  0.00000000000E+00  0.36016822392E+02  0.36016822392E+02  0.00000000000E+00 0. -1.
         -1   -1    0    0    0  501 -0.00000000000E+00 -0.00000000000E+00 -0.39336789804E+03  0.39336789804E+03  0.00000000000E+00 0.  1.
         23    2    1    2    0    0 -0.46429628954E+01 -0.23349852648E+02 -0.28484085667E+03  0.31200723855E+03  0.12508969006E+03 0.  0.
          5    1    3    3  502    0  0.42177686513E+02 -0.11851808819E+00 -0.30247979947E+02  0.52070951375E+02  0.41800000000E+01 0. -1.
         -5    1    3    3    0  502 -0.46820649409E+02 -0.23231334560E+02 -0.25459287672E+03  0.25993628718E+03  0.41800000000E+01 0. -1.
        -11    1    1    2    0    0  0.21804141255E+02  0.42298622071E+02 -0.77867285721E+02  0.91257373349E+02  0.00000000000E+00 0.  1.
         11    1    1    2    0    0 -0.17161178360E+02 -0.18948769423E+02  0.53570667427E+01  0.26120108526E+02  0.00000000000E+00 0. -1.
</event>
<event>
 7    1  0.6992302E-006  0.1662468E+03  0.7561462E-02  0.1181819E+00
          1   -1    0    0  501    0  0.00000000000E+00  0.00000000000E+00  0.59159373510E+03  0.59159373510E+03  0.00000000000E+00 0. -1.
         -1   -1    0    0    0  501 -0.00000000000E+00 -0.00000000000E+00 -0.77024908346E+02  0.77024908346E+02  0.00000000000E+00 0.  1.
         23    2    1    2    0    0 -0.13005401781E+03  0.54650487288E+02  0.84126680265E+02  0.20645828258E+03  0.12508797227E+03 0.  0.
          5    1    3    3  502    0  0.17178329082E+02 -0.30942173013E+01 -0.11764102255E+02  0.21460094888E+02  0.41800000000E+01 0. -1.
         -5    1    3    3    0  502 -0.14723234689E+03  0.57744704590E+02  0.95890782519E+02  0.18499818770E+03  0.41800000000E+01 0. -1.
        -11    1    1    2    0    0  0.29606570512E+02 -0.47068365468E+02  0.79284542297E+02  0.96840170862E+02  0.00000000000E+00 0.  1.
         11    1    1    2    0    0  0.10044744729E+03 -0.75821218207E+01  0.35115760419E+03  0.36532019000E+03  0.00000000000E+00 0. -1.
</event>
<event>
 6    1  0.6992302E-006  0.8835031E+02  0.7561462E-02  0.1306897E+00
         -1   -1    0    0    0  501 -0.00000000000E+00  0.00000000000E+00  0.40184690102E+03  0.40184690102E+03  0.00000000000E+00 0.  1.
          1   -1    0    0  501    0  0.00000000000E+00 -0.00000000000E+00 -0.37741357109E+02  0.37741357109E+02  0.00000000000E+00 0. -1.
          5    1    1    2  502    0 -0.58775024505E+02 -0.29260347071E+02  0.34759015846E+02  0.74406538683E+02  0.41800000000E+01 0. -1.
         -5    1    1    2    0  502  0.35202693801E+02  0.30871041641E+02  0.19608526399E+03  0.20164115160E+03  0.41800000000E+01 0.  1.
        -11    1    1    2    0    0  0.43363499576E+02 -0.55737283642E+01  0.13628977080E+03  0.14313057384E+03  0.00000000000E+00 0.  1.
         11    1    1    2    0    0 -0.19791168872E+02  0.39630337946E+01 -0.30285067306E+01  0.20409994003E+02  0.00000000000E+00 0. -1.
</event>
<event>
 7    1  0.6992302E-006  0.1532164E+03  0.7561462E-02  0.1196576E+00
         -1   -1    0    0    0  501 -0.00000000000E+00  0.00000000000E+00  0.87452778183E+03  0.87452778183E+03  0.00000000000E+00 0.  1.
          1   -1    0    0  501    0  0.00000000000E+00 -0.00000000000E+00 -0.35840679457E+02  0.35840679457E+02  0.00000000000E+00 0. -1.
         23    2    1    2    0    0  0.13673914722E+03  0.12807302008E+02  0.38470287495E+03  0.42720724154E+03  0.12509238129E+03 0.  0.
          5    1    3    3  502    0  0.13377505340E+03 -0.16987478770E+02  0.20790598449E+03  0.24784412467E+03  0.41800000000E+01 0. -1.
         -5    1    3    3    0  502  0.29640938152E+01  0.29794780778E+02  0.17679689046E+03  0.17936311687E+03  0.41800000000E+01 0. -1.
        -11    1    1    2    0    0 -0.50651399722E+02 -0.20952936974E+02  0.66664799728E+02  0.86306346143E+02  0.00000000000E+00 0. -1.
         11    1    1    2    0    0 -0.86087747497E+02  0.81456349656E+01  0.38731942770E+03  0.39685487361E+03  0.00000000000E+00 0.  1.
</event>
<event>
 7    1  0.6992302E-006  0.1570549E+03  0.7561462E-02  0.1192062E+00
          1   -1    0    0  501    0  0.00000000000E+00  0.00000000000E+00  0.23855184301E+02  0.23855184301E+02  0.00000000000E+00 0. -1.
         -1   -1    0    0    0  501 -0.00000000000E+00 -0.00000000000E+00 -0.11877243967E+04  0.11877243967E+04  0.00000000000E+00 0.  1.
         23    2    1    2    0    0 -0.10090478247E+03  0.45777933398E+02 -0.82263820841E+03  0.83944255777E+03  0.12511111683E+03 0.  0.
          5    1    3    3  502    0 -0.55682246682E+02  0.88489227112E+02 -0.49841451621E+03  0.50927925373E+03  0.41800000000E+01 0. -1.
         -5    1    3    3    0  502 -0.45222535785E+02 -0.42711293715E+02 -0.32422369220E+03  0.33016330405E+03  0.41800000000E+01 0. -1.
        -11    1    1    2    0    0  0.32397732583E+02  0.30576871695E+02 -0.12759881280E+03  0.13515182273E+03  0.00000000000E+00 0.  1.
         11    1    1    2    0    0  0.68507049884E+02 -0.76354805093E+02 -0.21363219123E+03  0.23698520054E+03  0.00000000000E+00 0. -1.
</event>
<event>
 7    1  0.6992302E-006  0.1088910E+03  0.7561462E-02  0.1262637E+00
          1   -1    0    0  501    0  0.00000000000E+00  0.00000000000E+00  0.44772060094E+03  0.44772060094E+03  0.00000000000E+00 0. -1.
         -1   -1    0    0    0  501 -0.00000000000E+00 -0.00000000000E+00 -0.30387179506E+02  0.30387179506E+02  0.00000000000E+00 0.  1.
         23    2    1    2    0    0 -0.31589228901E+02  0.23811636473E+02  0.26738114481E+03  0.29783334287E+03  0.12508856907E+03 0.  0.
          5    1    3    3  502    0  0.33479342720E+02 -0.29398120824E+02  0.67833764537E+02  0.81265047272E+02  0.41800000000E+01 0. -1.
         -5    1    3    3    0  502 -0.65068571621E+02  0.53209757297E+02  0.19954738028E+03  0.21656829560E+03  0.41800000000E+01 0. -1.
        -11    1    1    2    0    0 -0.17231834190E+02  0.17763527248E+02  0.86854376111E+02  0.90311470254E+02  0.00000000000E+00 0. -1.
         11    1    1    2    0    0  0.48821063091E+02 -0.41575163721E+02  0.63097900504E+02  0.89962967313E+02  0.00000000000E+00 0.  1.
</event>
<event>
 6    1  0.6992302E-006  0.1361337E+03  0.7561462E-02  0.1218628E+00
          2   -1    0    0  501    0  0.00000000000E+00  0.00000000000E+00  0.13444600193E+03  0.13444600193E+03  0.00000000000E+00 0. -1.
         -2   -1    0    0    0  501 -0.00000000000E+00 -0.00000000000E+00 -0.25718621328E+03  0.25718621328E+03  0.00000000000E+00 0.  1.
          5    1    1    2  502    0 -0.80659236968E+02  0.90772126823E+01  0.54182795175E+02  0.97680888567E+02  0.41800000000E+01 0. -1.
         -5    1    1    2    0  502  0.79882938923E+02 -0.49510845876E+02 -0.17191659710E+03  0.19597294851E+03  0.41800000000E+01 0.  1.
        -11    1    1    2    0    0  0.15626873172E+02 -0.25184616472E+02  0.46826810917E+01  0.30006525527E+02  0.00000000000E+00 0.  1.
         11    1    1    2    0    0 -0.14850575127E+02  0.65618249666E+02 -0.96890905108E+01  0.67971852599E+02  0.00000000000E+00 0. -1.
</event>
<event>
 7    1  0.6992302E-006  0.3523217E+03  0.7561462E-02  0.1061666E+00
         -2   -1    0    0    0  501 -0.00000000000E+00  0.00000000000E+00  0.17267768119E+03  0.17267768119E+03  0.00000000000E+00 0.  1.
          2   -1    0    0  501    0  0.00000000000E+00 -0.00000000000E+00 -0.77841649884E+03  0.77841649884E+03  0.00000000000E+00 0. -1.
         23    2    1    2    0    0 -0.24050461906E+03 -0.24857964573E+03 -0.23896194645E+03  0.43861877931E+03  0.12509720082E+03 0.  0.
          5    1    3    3  502    0 -0.19171954649E+03 -0.24082318135E+03 -0.16416208600E+03  0.34888228970E+03  0.41800000000E+01 0. -1.
         -5    1    3    3    0  502 -0.48785072575E+02 -0.77564643725E+01 -0.74799860443E+02  0.89736489613E+02  0.41800000000E+01 0. -1.
        -11    1    1    2    0    0  0.10435981968E+03  0.86484246474E+02 -0.84787328918E+02  0.15987303712E+03  0.00000000000E+00 0.  1.
         11    1    1    2    0    0  0.13614479938E+03  0.16209539925E+03 -0.28198954229E+03  0.35260236360E+03  0.00000000000E+00 0. -1.
</event>
<event>
 7    1  0.6992302E-006  0.1864666E+03  0.7561462E-02  0.1161687E+00
          1   -1    0    0  501    0  0.00000000000E+00  0.00000000000E+00  0.90161471889E+02  0.90161471889E+02  0.00000000000E+00 0. -1.
         -1   -1    0    0    0  501 -0.00000000000E+00 -0.00000000000E+00 -0.39302382607E+03  0.39302382607E+03  0.00000000000E+00 0.  1.
         23    2    1    2    0    0  0.91406242524E+02  0.12154971268E+03 -0.13098863961E+03  0.23650842857E+03  0.12509508085E+03 0.  0.
          5    1    3    3  502    0  0.35713461200E+02 -0.22213198493E+02 -0.34735415471E+02  0.54707394255E+02  0.41800000000E+01 0.  1.
         -5    1    3    3    0  502  0.55692781324E+02  0.14376291117E+03 -0.96253224139E+02  0.18180103431E+03  0.41800000000E+01 0.  1.
        -11    1    1    2    0    0 -0.10440513286E+03 -0.76181376279E+02 -0.13392544506E+03  0.18611839966E+03  0.00000000000E+00 0.  1.
         11    1    1    2    0    0  0.12998890332E+02 -0.45368336398E+02 -0.37948269512E+02  0.60558469732E+02  0.00000000000E+00 0. -1.
</event>
<event>
 7    1  0.6992302E-006  0.1538335E+03  0.7561462E-02  0.1195840E+00
         -1   -1    0    0    0  501 -0.00000000000E+00  0.00000000000E+00  0.10560978955E+03  0.10560978955E+03  0.00000000000E+00 0.  1.
          1   -1    0    0  501    0  0.00000000000E+00 -0.00000000000E+00 -0.26702141631E+03  0.26702141631E+03  0.00000000000E+00 0. -1.
         23    2    1    2    0    0 -0.11533818560E+03  0.43915848936E+02 -0.45835254741E+02  0.18160211150E+03  0.12508779907E+03 0.  0.
          5    1    3    3  502    0  0.92431638215E+01 -0.21968755870E+02  0.14536391239E+02  0.28228379021E+02  0.41800000000E+01 0. -1.
         -5    1    3    3    0  502 -0.12458134942E+03  0.65884604806E+02 -0.60371645981E+02  0.15337373247E+03  0.41800000000E+01 0. -1.
        -11    1    1    2    0    0  0.90730523317E+02  0.15893783946E+01 -0.39357554947E+02  0.98911936168E+02  0.00000000000E+00 0.  1.
         11    1    1    2    0    0  0.24607662286E+02 -0.45505227331E+02 -0.76218817077E+02  0.92117158197E+02  0.00000000000E+00 0. -1.
</event>
<event>
 7    1  0.6992302E-006  0.1111943E+03  0.7561462E-02  0.1258374E+00
          1   -1    0    0  501    0  0.00000000000E+00  0.00000000000E+00  0.24885058284E+03  0.24885058284E+03  0.00000000000E+00 0. -1.
         -1   -1    0    0    0  501 -0.00000000000E+00 -0.00000000000E+00 -0.62214346706E+02  0.62214346706E+02  0.00000000000E+00 0.  1.
         23    2    1    2    0    0 -0.47819017927E+02 -0.37233329820E+02  0.11472838451E+03  0.18023147766E+03  0.12509118275E+03 0.  0.
          5    1    3    3  502    0 -0.15678162763E+02  0.34793007207E+02 -0.29510404842E+01  0.38503755376E+02  0.41800000000E+01 0.  1.
         -5    1    3    3    0  502 -0.32140855164E+02 -0.72026337027E+02  0.11767942499E+03  0.14172772228E+03  0.41800000000E+01 0.  1.
        -11    1    1    2    0    0  0.52911425942E+02 -0.13031831979E+02  0.19082175678E+02  0.57737137689E+02  0.00000000000E+00 0.  1.
         11    1    1    2    0    0 -0.50924080151E+01  0.50265161799E+02  0.52825675942E+02  0.73096314195E+02  0.00000000000E+00 0. -1.
</event>
<event>
 7    1  0.6992302E-006  0.1445171E+03  0.7561462E-02  0.1207377E+00
         -2   -1    0    0    0  501 -0.00000000000E+00  0.00000000000E+00  0.13307689517E+03  0.13307689517E+03  0.00000000000E+00 0.  1.
          2   -1    0    0  501    0  0.00000000000E+00 -0.00000000000E+00 -0.22527345222E+03  0.22527345222E+03  0.00000000000E+00 0. -1.
         23    2    1    2    0    0  0.73163694056E+02 -0.87804647869E+02  0.23641682642E+02  0.17106133832E+03  0.12506186467E+03 0.  0.
          5    1    3    3  502    0 -0.11262074839E+02 -0.77921396959E+02 -0.10151040566E+02  0.79492732109E+02  0.41800000000E+01 0.  1.
         -5    1    3    3    0  502  0.84425768895E+02 -0.98832509100E+01  0.33792723207E+02  0.91568606213E+02  0.41800000000E+01 0.  1.
        -11    1    1    2    0    0 -0.48720932747E+02  0.19390517103E+02 -0.22889290120E+01  0.52487718918E+02  0.00000000000E+00 0.  1.
         11    1    1    2    0    0 -0.24442761309E+02  0.68414130766E+02 -0.11354931068E+03  0.13480129015E+03  0.00000000000E+00 0. -1.
</event>
<event>
 7    1  0.6992302E-006  0.1098800E+03  0.7561462E-02  0.1260792E+00
         -1   -1    0    0    0  501 -0.00000000000E+00  0.00000000000E+00  0.26655676473E+02  0.26655676473E+02  0.00000000000E+00 0.  1.
          1   -1    0    0  501    0  0.00000000000E+00 -0.00000000000E+00 -0.51564647761E+03  0.51564647761E+03  0.00000000000E+00 0. -1.
         23    2    1    2    0    0  0.75238934160E+01 -0.41459435109E+02 -0.23866039131E+03  0.27272981718E+03  0.12508907651E+03 0.  0.
          5    1    3    3  502    0  0.59625126043E+02 -0.48527566359E+01 -0.68736011471E+02  0.91218510049E+02  0.41800000000E+01 0. -1.
         -5    1    3    3    0  502 -0.52101232627E+02 -0.36606678474E+02 -0.16992437984E+03  0.18151130713E+03  0.41800000000E+01 0. -1.
        -11    1    1    2    0    0 -0.46569711030E+02  0.29565228081E+02 -0.17992195277E+03  0.18818807026E+03  0.00000000000E+00 0. -1.
         11    1    1    2    0    0  0.39045817614E+02  0.11894207028E+02 -0.70408457053E+02  0.81384266653E+02  0.00000000000E+00 0.  1.
</event>
<event>
 7    1  0.6992302E-006  0.1109049E+03  0.7561462E-02  0.1258903E+00
          2   -1    0    0  501    0  0.00000000000E+00  0.00000000000E+00  0.22122979817E+03  0.22122979817E+03  0.00000000000E+00 0. -1.
         -2   -1    0    0    0  501 -0.00000000000E+00 -0.00000000000E+00 -0.63226001796E+02  0.63226001796E+02  0.00000000000E+00 0.  1.
         23    2    1    2    0    0 -0.26877244343E+02 -0.23461166980E+02  0.46719166261E+02  0.13821477944E+03  0.12509129522E+03 0.  0.
          5    1    3    3  502    0  0.21670289724E+02 -0.63026023685E+02  0.17825340706E+02  0.69116541360E+02  0.41800000000E+01 0.  1.
         -5    1    3    3    0  502 -0.48547534067E+02  0.39564856705E+02  0.28893825554E+02  0.69098238076E+02  0.41800000000E+01 0.  1.
        -11    1    1    2    0    0  0.20822760577E+02  0.55698347147E+02  0.54484138182E+02  0.80649950691E+02  0.00000000000E+00 0.  1.
         11    1    1    2    0    0  0.60544837657E+01 -0.32237180167E+02  0.56800491928E+02  0.65591069834E+02  0.00000000000E+00 0. -1.
</event>
<event>
 7    1  0.6992302E-006  0.1000516E+03  0.7561462E-02  0.1280187E+00
         -1   -1    0    0    0  501 -0.00000000000E+00  0.00000000000E+00  0.76273127559E+03  0.76273127559E+03  0.00000000000E+00 0.  1.
          1   -1    0    0  501    0  0.00000000000E+00 -0.00000000000E+00 -0.22057852795E+02  0.22057852795E+02  0.00000000000E+00 0. -1.
         23    2    1    2    0    0  0.18752503705E+02  0.26438868197E+02  0.59607196999E+03  0.60991848175E+03  0.12509232923E+03 0.  0.
          5    1    3    3  502    0  0.41321515571E+02 -0.38928955661E+02  0.20497448340E+03  0.21273209086E+03  0.41800000000E+01 0. -1.
         -5    1    3    3    0  502 -0.22569011866E+02  0.65367823858E+02  0.39109748659E+03  0.39718639089E+03  0.41800000000E+01 0. -1.
        -11    1    1    2    0    0 -0.11727125208E+00 -0.46509840765E+02  0.13945066603E+03  0.14700226970E+03  0.00000000000E+00 0.  1.
         11    1    1    2    0    0 -0.18635232453E+02  0.20070972568E+02  0.51507867752E+01  0.27868376932E+02  0.00000000000E+00 0. -1.
</event>
<event>
 7    1  0.6992302E-006  0.8780547E+02  0.7561462E-02  0.1308255E+00
         -1   -1    0    0    0  501 -0.00000000000E+00  0.00000000000E+00  0.35292302831E+02  0.35292302831E+02  0.00000000000E+00 0.  1.
          1   -1    0    0  501    0  0.00000000000E+00 -0.00000000000E+00 -0.44054646049E+03  0.44054646049E+03  0.00000000000E+00 0. -1.
         23    2    1    2    0    0 -0.55303365562E+02 -0.14581267945E+02 -0.17374756390E+03  0.22158624622E+03  0.12506467501E+03 0.  0.
          5    1    3    3  502    0 -0.51571731813E+02 -0.46717975334E+02 -0.33036606912E+02  0.77143389462E+02  0.41800000000E+01 0. -1.
         -5    1    3    3    0  502 -0.37316337492E+01  0.32136707389E+02 -0.14071095699E+03  0.14444285676E+03  0.41800000000E+01 0. -1.
        -11    1    1    2    0    0  0.12965356418E+02  0.26322222190E+02 -0.14289590303E+02  0.32636670159E+02  0.00000000000E+00 0.  1.
         11    1    1    2    0    0  0.42338009144E+02 -0.11740954245E+02 -0.21721700346E+03  0.22161584694E+03  0.00000000000E+00 0. -1.
</event>
<event>
 7    1  0.6992302E-006  0.1285712E+03  0.7561462E-02  0.1229591E+00
         -2   -1    0    0    0  501 -0.00000000000E+00  0.00000000000E+00  0.68100408053E+02  0.68100408053E+02  0.00000000000E+00 0. -1.
          2   -1    0    0  501    0  0.00000000000E+00 -0.00000000000E+00 -0.39661208266E+03  0.39661208266E+03  0.00000000000E+00 0.  1.
         23    2    1    2    0    0  0.29309553893E+02 -0.84822384579E+02 -0.57371113312E+02  0.16429559209E+03  0.12509080727E+03 0.  0.
          5    1    3    3  502    0 -0.13336399146E+02  0.25799766693E+02 -0.31164501886E+02  0.42804042816E+02  0.41800000000E+01 0.  1.
         -5    1    3    3    0  502  0.42645953039E+02 -0.11062215127E+03 -0.26206611427E+02  0.12149154927E+03  0.41800000000E+01 0.  1.
        -11    1    1    2    0    0  0.19271376270E+02  0.32392448223E+02 -0.18346856297E+03  0.18730021421E+03  0.00000000000E+00 0.  1.
         11    1    1    2    0    0 -0.48580930163E+02  0.52429936356E+02 -0.87671998320E+02  0.11311668441E+03  0.00000000000E+00 0. -1.
</event>
<event>
 7    1  0.6992302E-006  0.1799056E+03  0.7561462E-02  0.1167894E+00
          2   -1    0    0  501    0  0.00000000000E+00  0.00000000000E+00  0.89610014598E+03  0.89610014598E+03  0.00000000000E+00 0. -1.
         -2   -1    0    0    0  501 -0.00000000000E+00 -0.00000000000E+00 -0.64220057727E+02  0.64220057727E+02  0.00000000000E+00 0.  1.
         23    2    1    2    0    0  0.11345171887E+03 -0.96224978586E+02  0.12241768144E+03  0.22970472449E+03  0.12509049807E+03 0.  0.
          5    1    3    3  502    0  0.82161130119E+02 -0.12610374063E+03  0.89261990511E+02  0.17503651063E+03  0.41800000000E+01 0. -1.
         -5    1    3    3    0  502  0.31290588749E+02  0.29878762048E+02  0.33155690925E+02  0.54668213859E+02  0.41800000000E+01 0. -1.
        -11    1    1    2    0    0 -0.12256468823E+03  0.77657279930E+02  0.67503421637E+03  0.69045198906E+03  0.00000000000E+00 0. -1.
         11    1    1    2    0    0  0.91129693648E+01  0.18567698656E+02  0.34428190447E+02  0.40163490156E+02  0.00000000000E+00 0.  1.
</event>
<event>
 7    1  0.6992302E-006  0.1082325E+03  0.7561462E-02  0.1263878E+00
         -2   -1    0    0    0  501 -0.00000000000E+00  0.00000000000E+00  0.99594712496E+02  0.99594712496E+02  0.00000000000E+00 0.  1.
          2   -1    0    0  501    0  0.00000000000E+00 -0.00000000000E+00 -0.18804410683E+03  0.18804410683E+03  0.00000000000E+00 0. -1.
         23    2    1    2    0    0  0.22603860550E+02 -0.72601653175E+02 -0.13417915101E+02  0.14700310674E+03  0.12509171991E+03 0.  0.
          5    1    3    3  502    0 -0.13171689841E+02 -0.96159700561E+02  0.10586528594E+02  0.97722711858E+02  0.41800000000E+01 0. -1.
         -5    1    3    3    0  502  0.35775550391E+02  0.23558047386E+02 -0.24004443695E+02  0.49280394880E+02  0.41800000000E+01 0. -1.
        -11    1    1    2    0    0 -0.47668225599E+01  0.24874906044E+02  0.20355659623E+02  0.32493636711E+02  0.00000000000E+00 0.  1.
         11    1    1    2    0    0 -0.17837037990E+02  0.47726747132E+02 -0.95387138858E+02  0.10814207588E+03  0.00000000000E+00 0. -1.
</event>
<event>
 7    1  0.6992302E-006  0.2122257E+03  0.7561462E-02  0.1139816E+00
         -2   -1    0    0    0  501 -0.00000000000E+00  0.00000000000E+00  0.84327541066E+02  0.84327541066E+02  0.00000000000E+00 0.  1.
          2   -1    0    0  501    0  0.00000000000E+00 -0.00000000000E+00 -0.65709764389E+03  0.65709764389E+03  0.00000000000E+00 0. -1.
         23    2    1    2    0    0  0.17512551923E+03 -0.10160616529E+03 -0.37696952611E+03  0.44580943912E+03  0.12508905660E+03 0.  0.
          5    1    3    3  502    0  0.66202529624E+02  0.37110362058E+01 -0.43230898694E+02  0.79264933736E+02  0.41800000000E+01 0.  1.
         -5    1    3    3    0  502  0.10892298960E+03 -0.10531720150E+03 -0.33373862741E+03  0.36654450538E+03  0.41800000000E+01 0.  1.
        -11    1    1    2    0    0 -0.93255855127E+02  0.30824031088E+02 -0.14724558905E+03  0.17699728501E+03  0.00000000000E+00 0. -1.
         11    1    1    2    0    0 -0.81869664098E+02  0.70782134206E+02 -0.48554987674E+02  0.11861846083E+03  0.00000000000E+00 0.  1.
</event>
<event>
 7    1  0.6992302E-006  0.1545690E+03  0.7561462E-02  0.1194968E+00
         -2   -1    0    0    0  501 -0.00000000000E+00  0.00000000000E+00  0.39544343071E+02  0.39544343071E+02  0.00000000000E+00 0.  1.
          2   -1    0    0  501    0  0.00000000000E+00 -0.00000000000E+00 -0.73572139094E+03  0.73572139094E+03  0.00000000000E+00 0. -1.
         23    2    1    2    0    0  0.12648740865E+03 -0.49429950925E+02 -0.31569945447E+03  0.36128311178E+03  0.11143139914E+03 0.  0.
          5    1    3    3  502    0  0.11256560636E+02  0.29773476423E+02 -0.92053052675E+02  0.97490548067E+02  0.41800000000E+01 0. -1.
         -5    1    3    3    0  502  0.11523084801E+03 -0.79203427348E+02 -0.22364640179E+03  0.26379256372E+03  0.41800000000E+01 0.  1.
        -11    1    1    2    0    0 -0.76602244696E+02  0.39854879224E+02 -0.33451018666E+03  0.34547558564E+03  0.00000000000E+00 0. -1.
         11    1    1    2    0    0 -0.49885163949E+02  0.95750717001E+01 -0.45967406742E+02  0.68507036594E+02  0.00000000000E+00 0.  1.
</event>
<event>
 7    1  0.6992302E-006  0.7507462E+02  0.7561462E-02  0.1343640E+00
         -1   -1    0    0    0  501 -0.00000000000E+00  0.00000000000E+00  0.17111486876E+03  0.17111486876E+03  0.00000000000E+00 0.  1.
          1   -1    0    0  501    0  0.00000000000E+00 -0.00000000000E+00 -0.77546164281E+02  0.77546164281E+02  0.00000000000E+00 0. -1.
         23    2    1    2    0    0  0.28528295638E+02  0.20720959427E+02  0.78095849744E+02  0.15162403539E+03  0.12509062535E+03 0.  0.
          5    1    3    3  502    0  0.37713948280E+02  0.54570537517E+02  0.61209883884E+00  0.66469034330E+02  0.41800000000E+01 0. -1.
         -5    1    3    3    0  502 -0.91856526424E+01 -0.33849578090E+02  0.77483750905E+02  0.85155001061E+02  0.41800000000E+01 0. -1.
        -11    1    1    2    0    0 -0.97877080228E+01 -0.26902196846E+02  0.49800033534E+02  0.57441890319E+02  0.00000000000E+00 0.  1.
         11    1    1    2    0    0 -0.18740587615E+02  0.61812374186E+01 -0.34327178799E+02  0.39595107330E+02  0.00000000000E+00 0. -1.
</event>
<event>
 7    1  0.6992302E-006  0.1134206E+03  0.7561462E-02  0.1254363E+00
         -2   -1    0    0    0  501 -0.00000000000E+00  0.00000000000E+00  0.17995826880E+03  0.17995826880E+03  0.00000000000E+00 0.  1.
          2   -1    0    0  501    0  0.00000000000E+00 -0.00000000000E+00 -0.13227541216E+03  0.13227541216E+03  0.00000000000E+00 0. -1.
         23    2    1    2    0    0  0.92676178275E+02 -0.61960771920E+01  0.80037973994E+02  0.17516099362E+03  0.12509209013E+03 0.  0.
          5    1    3    3  502    0  0.73422566893E+02 -0.92354521440E+01 -0.17043877467E+02  0.76053488181E+02  0.41800000000E+01 0.  1.
         -5    1    3    3    0  502  0.19253611382E+02  0.30393749520E+01  0.97081851461E+02  0.99107505440E+02  0.41800000000E+01 0.  1.
        -11    1    1    2    0    0 -0.39303061428E+02  0.50099847857E+02 -0.10135495849E+02  0.64478319372E+02  0.00000000000E+00 0.  1.
         11    1    1    2    0    0 -0.53373116847E+02 -0.43903770665E+02 -0.22219621514E+02  0.72594367968E+02  0.00000000000E+00 0. -1.
</event>
<event>
 6    1  0.6992302E-006  0.8868095E+02  0.7561462E-02  0.1306078E+00
          2   -1    0    0  501    0  0.00000000000E+00  0.00000000000E+00  0.61484646915E+02  0.61484646915E+02  0.00000000000E+00 0. -1.
         -2   -1    0    0    0  501 -0.00000000000E+00 -0.00000000000E+00 -0.26038392350E+03  0.26038392350E+03  0.00000000000E+00 0.  1.
          5    1    1    2  502    0 -0.31158647363E+02  0.73566188985E+01  0.12301591513E+02  0.34551160630E+02  0.41800000000E+01 0. -1.
         -5    1    1    2    0  502  0.52212837218E+02 -0.22675515821E+02 -0.18369952650E+03  0.19236254267E+03  0.41800000000E+01 0.  1.
        -11    1    1    2    0    0 -0.47249929883E+02 -0.13412507375E+02 -0.27047394868E+02  0.56071497190E+02  0.00000000000E+00 0. -1.
         11    1    1    2    0    0  0.26195740028E+02  0.28731404297E+02 -0.45394672810E+00  0.38883369917E+02  0.00000000000E+00 0.  1.
</event>
<event>
 7    1  0.6992302E-006  0.5617928E+02  0.7561462E-02  0.1414603E+00
         -2   -1    0    0    0  501 -0.00000000000E+00  0.00000000000E+00  0.11816204144E+03  0.11816204144E+03  0.00000000000E+00 0.  1.
          2   -1    0    0  501    0  0.00000000000E+00 -0.00000000000E+00 -0.11997315139E+03  0.11997315139E+03  0.00000000000E+00 0. -1.
         23    2    1    2    0    0  0.14536500617E+02  0.36990032316E+01  0.44634835791E+02  0.13366288358E+03  0.12509398629E+03 0.  0.
          5    1    3    3  502    0  0.17339377412E+02 -0.11175855783E+02  0.86460968762E+02  0.88986095997E+02  0.41800000000E+01 0.  1.
         -5    1    3    3    0  502 -0.28028767952E+01  0.14874859015E+02 -0.41826132971E+02  0.44676787579E+02  0.41800000000E+01 0.  1.
        -11    1    1    2    0    0 -0.45007915295E+02 -0.10390709230E+01 -0.56529289802E+02  0.72265847488E+02  0.00000000000E+00 0. -1.
         11    1    1    2    0    0  0.30471414678E+02 -0.26599323087E+01  0.10083344061E+02  0.32206461771E+02  0.00000000000E+00 0.  1.
</event>
<event>
 6    1  0.6992302E-006  0.7080692E+02  0.7561462E-02  0.1357370E+00
          1   -1    0    0  501    0  0.00000000000E+00  0.00000000000E+00  0.55462535014E+03  0.55462535014E+03  0.00000000000E+00 0. -1.
         -1   -1    0    0    0  501 -0.00000000000E+00 -0.00000000000E+00 -0.22197197378E+02  0.22197197378E+02  0.00000000000E+00 0.  1.
          5    1    1    2  502    0 -0.29399447081E+02 -0.49634860325E+01  0.29804206592E+03  0.29955885756E+03  0.41800000000E+01 0. -1.
         -5    1    1    2    0  502  0.18799590922E+02 -0.11271148765E+02 -0.34647749090E+01  0.22581861714E+02  0.41800000000E+01 0.  1.
        -11    1    1    2    0    0 -0.11493309734E+02  0.48635961181E+02  0.10728996396E+03  0.11835830877E+03  0.00000000000E+00 0. -1.
         11    1    1    2    0    0  0.22093165894E+02 -0.32401326384E+02  0.13056089779E+03  0.13632351947E+03  0.00000000000E+00 0.  1.
</event>
<event>
 7    1  0.6992302E-006  0.1126869E+03  0.7561462E-02  0.1255674E+00
         -2   -1    0    0    0  501 -0.00000000000E+00  0.00000000000E+00  0.46246517146E+03  0.46246517146E+03  0.00000000000E+00 0.  1.
          2   -1    0    0  501    0  0.00000000000E+00 -0.00000000000E+00 -0.61966384638E+02  0.61966384638E+02  0.00000000000E+00 0. -1.
         23    2    1    2    0    0 -0.45474568649E+02  0.62520932066E+02  0.37408669719E+03  0.40195138731E+03  0.12508899794E+03 0.  0.
          5    1    3    3  502    0  0.30563958903E+02 -0.11404231803E+02  0.15576365976E+03  0.15919799681E+03  0.41800000000E+01 0. -1.
         -5    1    3    3    0  502 -0.76038527552E+02  0.73925163869E+02  0.21832303743E+03  0.24275339049E+03  0.41800000000E+01 0. -1.
        -11    1    1    2    0    0 -0.63617520180E+01 -0.13875505125E+02  0.46227875708E+02  0.48682830892E+02  0.00000000000E+00 0.  1.
         11    1    1    2    0    0  0.51836320667E+02 -0.48645426941E+02 -0.19815786077E+02  0.73797337895E+02  0.00000000000E+00 0. -1.
</event>
<event>
 7    1  0.6992302E-006  0.1167981E+03  0.7561462E-02  0.1248475E+00
         -2   -1    0    0    0  501 -0.00000000000E+00  0.00000000000E+00  0.72796014674E+02  0.72796014674E+02  0.00000000000E+00 0.  1.
          2   -1    0    0  501    0  0.00000000000E+00 -0.00000000000E+00 -0.45086920856E+03  0.45086920856E+03  0.00000000000E+00 0. -1.
         23    2    1    2    0    0 -0.73638124649E+02 -0.54177496584E+02 -0.36913835495E+02  0.15927542625E+03  0.12509298788E+03 0.  0.
          5    1    3    3  502    0  0.15945919236E+02 -0.27648255133E+02 -0.55277025547E+02  0.63966556149E+02  0.41800000000E+01 0.  1.
         -5    1    3    3    0  502 -0.89584043885E+02 -0.26529241451E+02  0.18363190052E+02  0.95308870099E+02  0.41800000000E+01 0.  1.
        -11    1    1    2    0    0  0.73422174249E+02  0.64397008777E+02 -0.34040807080E+03  0.35414043130E+03  0.00000000000E+00 0. -1.
         11    1    1    2    0    0  0.21595039987E+00 -0.10219512193E+02 -0.75128758906E+00  0.10249365692E+02  0.00000000000E+00 0.  1.
</event>
<event>
 7    1  0.6992302E-006  0.8497990E+02  0.7561462E-02  0.1315485E+00
          2   -1    0    0  501    0  0.00000000000E+00  0.00000000000E+00  0.91273557619E+01  0.91273557619E+01  0.00000000000E+00 0.  1.
         -2   -1    0    0    0  501 -0.00000000000E+00 -0.00000000000E+00 -0.16694690177E+04  0.16694690177E+04  0.00000000000E+00 0. -1.
         23    2    1    2    0    0 -0.19825100527E+02  0.29131329869E+02 -0.12318823414E+04  0.12387182388E+04  0.12508838094E+03 0.  0.
          5    1    3    3  502    0 -0.39569830022E+02  0.35076057217E+01 -0.12232540711E+03  0.12868198153E+03  0.41800000000E+01 0. -1.
         -5    1    3    3    0  502  0.19744729494E+02  0.25623724147E+02 -0.11095569343E+04  0.11100362573E+04  0.41800000000E+01 0. -1.
        -11    1    1    2    0    0 -0.21315762045E+02 -0.47711121363E+02 -0.27483337403E+03  0.27975720954E+03  0.00000000000E+00 0. -1.
         11    1    1    2    0    0  0.41140862572E+02  0.18579791495E+02 -0.15362594653E+03  0.16012092516E+03  0.00000000000E+00 0.  1.
</event>
<event>
 7    1  0.6992302E-006  0.1080489E+03  0.7561462E-02  0.1264226E+00
          2   -1    0    0  501    0  0.00000000000E+00  0.00000000000E+00  0.11666989282E+03  0.11666989282E+03  0.00000000000E+00 0. -1.
         -2   -1    0    0    0  501 -0.00000000000E+00 -0.00000000000E+00 -0.15774184973E+03  0.15774184973E+03  0.00000000000E+00 0.  1.
         23    2    1    2    0    0 -0.53729264845E+02 -0.36767222570E+02 -0.69477202569E+02  0.15720503722E+03  0.12509068508E+03 0.  0.
          5    1    3    3  502    0  0.36233526405E+02 -0.38646613587E+01 -0.45365417297E+02  0.58337788179E+02  0.41800000000E+01 0.  1.
         -5    1    3    3    0  502 -0.89962791249E+02 -0.32902561212E+02 -0.24111785273E+02  0.98867249040E+02  0.41800000000E+01 0.  1.
        -11    1    1    2    0    0  0.38153059676E+02 -0.54486160258E+01 -0.26085565242E+02  0.46538157390E+02  0.00000000000E+00 0.  1.
         11    1    1    2    0    0  0.15576205169E+02  0.42215838596E+02  0.54490810902E+02  0.70668547945E+02  0.00000000000E+00 0. -1.
</event>
<event>
 7    1  0.6992302E-006  0.1764491E+03  0.7561462E-02  0.1171285E+00
         -2   -1    0    0    0  501 -0.00000000000E+00  0.00000000000E+00  0.38000141931E+03  0.38000141931E+03  0.00000000000E+00 0.  1.
          2   -1    0    0  501    0  0.00000000000E+00 -0.00000000000E+00 -0.10543406594E+03  0.10543406594E+03  0.00000000000E+00 0. -1.
         23    2    1    2    0    0 -0.10079857270E+03 -0.12034556109E+03  0.21611567189E+03  0.29495247717E+03  0.12509026270E+03 0.  0.
          5    1    3    3  502    0 -0.88769554461E+01  0.21042726612E+02  0.62962308984E+02  0.67106791264E+02  0.41800000000E+01 0.  1.
         -5    1    3    3    0  502 -0.91921617250E+02 -0.14138828771E+03  0.15315336290E+03  0.22784568591E+03  0.41800000000E+01 0.  1.
        -11    1    1    2    0    0  0.49789467203E+02  0.86384345769E+02  0.77529580978E+02  0.12630155250E+03  0.00000000000E+00 0.  1.
         11    1    1    2    0    0  0.51009105493E+02  0.33961215325E+02 -0.19077899493E+02  0.64181455567E+02  0.00000000000E+00 0. -1.
</event>
<event>
 7    1  0.6992302E-006  0.1085739E+03  0.7561462E-02  0.1263234E+00
         -1   -1    0    0    0  501 -0.00000000000E+00  0.00000000000E+00  0.35336786247E+02  0.35336786247E+02  0.00000000000E+00 0.  1.
          1   -1    0    0  501    0  0.00000000000E+00 -0.00000000000E+00 -0.55165189457E+03  0.55165189457E+03  0.00000000000E+00 0. -1.
         23    2    1    2    0    0 -0.59306820305E+02  0.58321594028E+02 -0.22390456003E+03  0.26962869446E+03  0.12509066157E+03 0.  0.
          5    1    3    3  502    0 -0.41247639146E+02  0.62403088936E+02 -0.40348681999E+02  0.85094076074E+02  0.41800000000E+01 0.  1.
         -5    1    3    3    0  502 -0.18059181159E+02 -0.40814949089E+01 -0.18355587803E+03  0.18453461839E+03  0.41800000000E+01 0.  1.
        -11    1    1    2    0    0  0.83318056478E+02 -0.37110127602E+02 -0.21081543904E+03  0.22970026000E+03  0.00000000000E+00 0.  1.
         11    1    1    2    0    0 -0.24011236173E+02 -0.21211466426E+02 -0.81595109254E+02  0.87659726355E+02  0.00000000000E+00 0. -1.
</event>
<event>
 7    1  0.6992302E-006  0.1405425E+03  0.7561462E-02  0.1212601E+00
          1   -1    0    0  501    0  0.00000000000E+00  0.00000000000E+00  0.66049316530E+03  0.66049316530E+03  0.00000000000E+00 0. -1.
         -1   -1    0    0    0  501 -0.00000000000E+00 -0.00000000000E+00 -0.38206002050E+02  0.38206002050E+02  0.00000000000E+00 0.  1.
         23    2    1    2    0    0 -0.10221368966E+03  0.17309010440E+01  0.21203394228E+03  0.26656454930E+03  0.12509049483E+03 0.  0.
          5    1    3    3  502    0 -0.64285784551E+02  0.62438688628E+02  0.11249200629E+03  0.14388598199E+03  0.41800000000E+01 0. -1.
         -5    1    3    3    0  502 -0.37927905109E+02 -0.60707787584E+02  0.99541935987E+02  0.12267856732E+03  0.41800000000E+01 0. -1.
        -11    1    1    2    0    0  0.65663470100E+02  0.29125614222E+02  0.33753848018E+03  0.34509740409E+03  0.00000000000E+00 0. -1.
         11    1    1    2    0    0  0.36550219560E+02 -0.30856515266E+02  0.72714740797E+02  0.87037213957E+02  0.00000000000E+00 0.  1.
</event>
<event>
 7    1  0.6992302E-006  0.1147489E+03  0.7561462E-02  0.1252020E+00
         -1   -1    0    0    0  501 -0.00000000000E+00  0.00000000000E+00  0.14501322593E+03  0.14501322593E+03  0.00000000000E+00 0.  1.
          1   -1    0    0  501    0  0.00000000000E+00 -0.00000000000E+00 -0.16997138850E+03  0.16997138850E+03  0.00000000000E+00 0. -1.
         23    2    1    2    0    0 -0.40793135147E+02  0.45639338893E+02  0.90773149003E+02  0.15521830155E+03  0.11002693954E+03 0.  0.
          5    1    3    3  502    0  0.18253335596E+02 -0.24777098910E+02  0.95280427439E+01  0.32486072236E+02  0.41800000000E+01 0. -1.
         -5    1    3    3    0  502 -0.59046470743E+02  0.70416437804E+02  0.81245106259E+02  0.12273222931E+03  0.41800000000E+01 0.  1.
        -11    1    1    2    0    0  0.64550845971E+02 -0.12623320203E+02 -0.90585139375E+02  0.11194564486E+03  0.00000000000E+00 0. -1.
         11    1    1    2    0    0 -0.23757710824E+02 -0.33016018690E+02 -0.25146172200E+02  0.47820668022E+02  0.00000000000E+00 0.  1.
</event>
<event>
 7    1  0.6992302E-006  0.2420735E+03  0.7561462E-02  0.1118419E+00
         -2   -1    0    0    0  501 -0.00000000000E+00  0.00000000000E+00  0.35721146472E+03  0.35721146472E+03  0.00000000000E+00 0.  1.
          2   -1    0    0  501    0  0.00000000000E+00 -0.00000000000E+00 -0.21459517922E+03  0.21459517922E+03  0.00000000000E+00 0. -1.
         23    2    1    2    0    0  0.35167960776E+02  0.22841194215E+03  0.17881706955E+03  0.31785467488E+03  0.12508896513E+03 0.  0.
          5    1    3    3  502    0  0.56125495748E+02  0.22033827050E+03  0.12525722968E+03  0.25962640603E+03  0.41800000000E+01 0.  1.
         -5    1    3    3    0  502 -0.20957534973E+02  0.80736716452E+01  0.53559839871E+02  0.58228268847E+02  0.41800000000E+01 0.  1.
        -11    1    1    2    0    0 -0.29511956636E+02 -0.78388739021E+02  0.31205481133E+02  0.89384182284E+02  0.00000000000E+00 0.  1.
         11    1    1    2    0    0 -0.56560041395E+01 -0.15002320313E+03 -0.67406265188E+02  0.16456778678E+03  0.00000000000E+00 0. -1.
</event>
<event>
 7    1  0.6992302E-006  0.1023987E+03  0.7561462E-02  0.1275331E+00
         -1   -1    0    0    0  501 -0.00000000000E+00  0.00000000000E+00  0.11551015308E+03  0.11551015308E+03  0.00000000000E+00 0.  1.
          1   -1    0    0  501    0  0.00000000000E+00 -0.00000000000E+00 -0.20460034489E+03  0.20460034489E+03  0.00000000000E+00 0. -1.
         23    2    1    2    0    0  0.81975004905E+02  0.14942012126E+02  0.23866589668E+02  0.15218560808E+03  0.12509068730E+03 0.  0.
          5    1    3    3  502    0  0.62887331081E+02  0.38440054845E+02 -0.38112708443E+02  0.83081316623E+02  0.41800000000E+01 0.  1.
         -5    1    3    3    0  502  0.19087673823E+02 -0.23498042719E+02  0.61979298111E+02  0.69104291458E+02  0.41800000000E+01 0.  1.
        -11    1    1    2    0    0 -0.10448065331E+02  0.18660308948E+02 -0.79119168238E+02  0.81958599194E+02  0.00000000000E+00 0. -1.
         11    1    1    2    0    0 -0.71526939574E+02 -0.33602321073E+02 -0.33837613237E+02  0.85966290695E+02  0.00000000000E+00 0.  1.
</event>
<event>
 7    1  0.6992302E-006  0.1149795E+03  0.7561462E-02  0.1251617E+00
         -4   -1    0    0    0  501 -0.00000000000E+00  0.00000000000E+00  0.92816352984E+02  0.92816352984E+02  0.00000000000E+00 0.  1.
          4   -1    0    0  501    0  0.00000000000E+00 -0.00000000000E+00 -0.15158072277E+03  0.15158072277E+03  0.00000000000E+00 0. -1.
         23    2    1    2    0    0 -0.11266662083E+02 -0.45670195276E+02 -0.27288094119E+02  0.13639960626E+03  0.12508999998E+03 0.  0.
          5    1    3    3  502    0 -0.42523242785E+02 -0.73884387532E+02 -0.36936331097E+02  0.92999429315E+02  0.41800000000E+01 0.  1.
         -5    1    3    3    0  502  0.31256580702E+02  0.28214192256E+02  0.96482369778E+01  0.43400176943E+02  0.41800000000E+01 0.  1.
        -11    1    1    2    0    0  0.36329241359E+02 -0.12928921077E+02 -0.46222271156E+01  0.38837298586E+02  0.00000000000E+00 0.  1.
         11    1    1    2    0    0 -0.25062579276E+02  0.58599116352E+02 -0.26854048554E+02  0.69160170915E+02  0.00000000000E+00 0. -1.
</event>
<event>
 7    1  0.6992302E-006  0.1341278E+03  0.7561462E-02  0.1221456E+00
         -1   -1    0    0    0  501 -0.00000000000E+00  0.00000000000E+00  0.41267866514E+02  0.41267866514E+02  0.00000000000E+00 0.  1.
          1   -1    0    0  501    0  0.00000000000E+00 -0.00000000000E+00 -0.58927562315E+03  0.58927562315E+03  0.00000000000E+00 0. -1.
         23    2    1    2    0    0  0.98417876591E+02  0.59138869923E+02 -0.26846671570E+03  0.31765530360E+03  0.12508808936E+03 0.  0.
          5    1    3    3  502    0  0.23564933908E+02 -0.12441401164E+02  0.29355695543E+01  0.27132720867E+02  0.41800000000E+01 0.  1.
         -5    1    3    3    0  502  0.74852942682E+02  0.71580271087E+02 -0.27140228526E+03  0.29052258274E+03  0.41800000000E+01 0.  1.
        -11    1    1    2    0    0 -0.16542067634E+02 -0.53001006198E+02 -0.82697092360E+02  0.99607006502E+02  0.00000000000E+00 0.  1.
         11    1    1    2    0    0 -0.81875808956E+02 -0.61378637250E+01 -0.19684394857E+03  0.21328117955E+03  0.00000000000E+00 0. -1.
</event>
<event>
 7    1  0.6992302E-006  0.1388191E+03  0.7561462E-02  0.1214927E+00
          1   -1    0    0  501    0  0.00000000000E+00  0.00000000000E+00  0.48788348985E+03  0.48788348985E+03  0.00000000000E+00 0. -1.
         -1   -1    0    0    0  501 -0.00000000000E+00 -0.00000000000E+00 -0.42232208860E+02  0.42232208860E+02  0.00000000000E+00 0.  1.
         23    2    1    2    0    0  0.81299950477E+02  0.43704983134E+02  0.21347737266E+03  0.26407367420E+03  0.12507001747E+03 0.  0.
          5    1    3    3  502    0  0.10949617119E+03  0.17268605686E+02  0.18564331824E+03  0.21626032982E+03  0.41800000000E+01 0.  1.
         -5    1    3    3    0  502 -0.28196220715E+02  0.26436377448E+02  0.27834054421E+02  0.47813344379E+02  0.41800000000E+01 0.  1.
        -11    1    1    2    0    0 -0.37992855688E+02 -0.68207658241E+02  0.16404729440E+03  0.18167899308E+03  0.00000000000E+00 0.  1.
         11    1    1    2    0    0 -0.43307094789E+02  0.24502675107E+02  0.68126613934E+02  0.84363031434E+02  0.00000000000E+00 0. -1.
</event>
<event>
 7    1  0.6992302E-006  0.1577487E+03  0.7561462E-02  0.1191262E+00
         -1   -1    0    0    0  501 -0.00000000000E+00  0.00000000000E+00  0.62063302205E+02  0.62063302205E+02  0.00000000000E+00 0.  1.
          1   -1    0    0  501    0  0.00000000000E+00 -0.00000000000E+00 -0.55318045929E+03  0.55318045929E+03  0.00000000000E+00 0. -1.
         23    2    1    2    0    0 -0.13537810819E+03  0.37268043832E+02 -0.16695803028E+03  0.25147345857E+03  0.12509107573E+03 0.  0.
          5    1    3    3  502    0 -0.12151195452E+03 -0.95521811241E+01 -0.16118613319E+03  0.20212580535E+03  0.41800000000E+01 0. -1.
         -5    1    3    3    0  502 -0.13866153661E+02  0.46820224957E+02 -0.57718970842E+01  0.49347653220E+02  0.41800000000E+01 0. -1.
        -11    1    1    2    0    0  0.90317365705E+02 -0.77230669814E+01 -0.10801466094E+03  0.14101077721E+03  0.00000000000E+00 0.  1.
         11    1    1    2    0    0  0.45060742481E+02 -0.29544976851E+02 -0.21614446587E+03  0.22275952571E+03  0.00000000000E+00 0. -1.
</event>
<event>
 7    1  0.6992302E-006  0.1193902E+03  0.7561462E-02  0.1244106E+00
         -1   -1    0    0    0  501 -0.00000000000E+00  0.00000000000E+00  0.11395415821E+03  0.11395415821E+03  0.00000000000E+00 0.  1.
          1   -1    0    0  501    0  0.00000000000E+00 -0.00000000000E+00 -0.12660696376E+03  0.12660696376E+03  0.00000000000E+00 0. -1.
         23    2    1    2    0    0  0.57543074036E+01 -0.51154245469E+02 -0.14407283282E+02  0.13603362322E+03  0.12509079883E+03 0.  0.
          5    1    3    3  502    0 -0.53043584079E+02  0.48739356237E+01  0.63380470366E-01  0.53430828905E+02  0.41800000000E+01 0.  1.
         -5    1    3    3    0  502  0.58797891482E+02 -0.56028181093E+02 -0.14470663753E+02  0.82602794316E+02  0.41800000000E+01 0.  1.
        -11    1    1    2    0    0 -0.48091013613E+02  0.30183507275E+02  0.59831741809E+01  0.57092802305E+02  0.00000000000E+00 0.  1.
         11    1    1    2    0    0  0.42336706210E+02  0.20970738194E+02 -0.42286964481E+01  0.47434696444E+02  0.00000000000E+00 0. -1.
</event>
<event>
 7    1  0.6992302E-006  0.1078816E+03  0.7561462E-02  0.1264544E+00
         -2   -1    0    0    0  501 -0.00000000000E+00  0.00000000000E+00  0.39932065589E+02  0.39932065589E+02  0.00000000000E+00 0.  1.
          2   -1    0    0  501    0  0.00000000000E+00 -0.00000000000E+00 -0.43648270417E+03  0.43648270417E+03  0.00000000000E+00 0. -1.
         23    2    1    2    0    0  0.40723369454E+02 -0.66305127350E+02 -0.22160098125E+03  0.26609832662E+03  0.12508621750E+03 0.  0.
          5    1    3    3  502    0 -0.34657040346E+02  0.28268303468E+01 -0.10625967675E+03  0.11188249514E+03  0.41800000000E+01 0. -1.
         -5    1    3    3    0  502  0.75380409800E+02 -0.69131957697E+02 -0.11534130450E+03  0.15421583148E+03  0.41800000000E+01 0. -1.
        -11    1    1    2    0    0 -0.77652008216E+01  0.20682205974E+02  0.42405388711E+01  0.22495202992E+02  0.00000000000E+00 0.  1.
         11    1    1    2    0    0 -0.32958168632E+02  0.45622921376E+02 -0.17919019620E+03  0.18782124014E+03  0.00000000000E+00 0. -1.
</event>
<event>
 7    1  0.6992302E-006  0.9852764E+02  0.7561462E-02  0.1283423E+00
         -1   -1    0    0    0  501 -0.00000000000E+00  0.00000000000E+00  0.29676925157E+02  0.29676925157E+02  0.00000000000E+00 0.  1.
          1   -1    0    0  501    0  0.00000000000E+00 -0.00000000000E+00 -0.46021253275E+03  0.46021253275E+03  0.00000000000E+00 0. -1.
         23    2    1    2    0    0 -0.14290699448E+02  0.29063331133E+02 -0.18821040647E+03  0.22829787207E+03  0.12509140649E+03 0.  0.
          5    1    3    3  502    0  0.30912306954E+02 -0.24023822328E+02 -0.13461661237E+03  0.14025626363E+03  0.41800000000E+01 0. -1.
         -5    1    3    3    0  502 -0.45203006402E+02  0.53087153461E+02 -0.53593794099E+02  0.88041608438E+02  0.41800000000E+01 0. -1.
        -11    1    1    2    0    0 -0.27530413613E+02 -0.36125112819E+02 -0.65209327064E+02  0.79468256468E+02  0.00000000000E+00 0.  1.
         11    1    1    2    0    0  0.41821113061E+02  0.70617816867E+01 -0.17711587405E+03  0.18212332937E+03  0.00000000000E+00 0. -1.
</event>
<event>
 7    1  0.6992302E-006  0.9582434E+02  0.7561462E-02  0.1289330E+00
          1   -1    0    0  501    0  0.00000000000E+00  0.00000000000E+00  0.15007382372E+03  0.15007382372E+03  0.00000000000E+00 0. -1.
         -1   -1    0    0    0  501 -0.00000000000E+00 -0.00000000000E+00 -0.91552821092E+02  0.91552821092E+02  0.00000000000E+00 0.  1.
         23    2    1    2    0    0  0.21537802210E+02  0.37766746484E+02  0.34367927421E+02  0.13681541020E+03  0.12508836065E+03 0.  0.
          5    1    3    3  502    0  0.72627560552E+02  0.18338660958E+02  0.64587310541E+01  0.75301106527E+02  0.41800000000E+01 0. -1.
         -5    1    3    3    0  502 -0.51089758342E+02  0.19428085526E+02  0.27909196366E+02  0.61514303674E+02  0.41800000000E+01 0. -1.
        -11    1    1    2    0    0  0.12857676645E+02 -0.36620179034E+01 -0.29584820418E+02  0.32465240227E+02  0.00000000000E+00 0.  1.
         11    1    1    2    0    0 -0.34395478855E+02 -0.34104728581E+02  0.53737895626E+02  0.72345994385E+02  0.00000000000E+00 0. -1.
</event>
<event>
 7    1  0.6992302E-006  0.1767114E+03  0.7561462E-02  0.1171024E+00
          2   -1    0    0  501    0  0.00000000000E+00  0.00000000000E+00  0.13703407834E+04  0.13703407834E+04  0.00000000000E+00 0. -1.
         -2   -1    0    0    0  501 -0.00000000000E+00 -0.00000000000E+00 -0.30055306047E+02  0.30055306047E+02  0.00000000000E+00 0.  1.
         23    2    1    2    0    0 -0.16649232022E+03 -0.30099497100E+02  0.76100517752E+03  0.78955827849E+03  0.12509085700E+03 0.  0.
          5    1    3    3  502    0 -0.73817282589E+01 -0.40193292069E+01  0.31745361294E+03  0.31759237032E+03  0.41800000000E+01 0.  1.
         -5    1    3    3    0  502 -0.15911059196E+03 -0.26080167893E+02  0.44355156459E+03  0.47196590817E+03  0.41800000000E+01 0.  1.
        -11    1    1    2    0    0  0.11988651429E+03  0.52691446463E+02  0.49399238538E+03  0.51105541935E+03  0.00000000000E+00 0. -1.
         11    1    1    2    0    0  0.46605805931E+02 -0.22591949364E+02  0.85287914474E+02  0.99782391622E+02  0.00000000000E+00 0.  1.
</event>
<event>
 7    1  0.6992302E-006  0.1114649E+03  0.7561462E-02  0.1257881E+00
         -1   -1    0    0    0  501 -0.00000000000E+00  0.00000000000E+00  0.14192290426E+03  0.14192290426E+03  0.00000000000E+00 0.  1.
          1   -1    0    0  501    0  0.00000000000E+00 -0.00000000000E+00 -0.18645360680E+03  0.18645360680E+03  0.00000000000E+00 0. -1.
         23    2    1    2    0    0  0.16471767062E+02  0.11957712141E+02  0.95237887767E+02  0.15853056419E+03  0.12508948207E+03 0.  0.
          5    1    3    3  502    0  0.68177668418E+02 -0.12098441484E+02  0.47932515181E+02  0.84318237463E+02  0.41800000000E+01 0. -1.
         -5    1    3    3    0  502 -0.51705901357E+02  0.24056153626E+02  0.47305372586E+02  0.74212326725E+02  0.41800000000E+01 0. -1.
        -11    1    1    2    0    0 -0.49880993962E+01 -0.53269095939E+02 -0.73346779394E+02  0.90786715797E+02  0.00000000000E+00 0.  1.
         11    1    1    2    0    0 -0.11483667665E+02  0.41311383798E+02 -0.66421810915E+02  0.79059231083E+02  0.00000000000E+00 0. -1.
</event>
<event>
 7    1  0.6992302E-006  0.7643151E+02  0.7561462E-02  0.1339495E+00
         -1   -1    0    0    0  501 -0.00000000000E+00  0.00000000000E+00  0.46577696453E+03  0.46577696453E+03  0.00000000000E+00 0.  1.
          1   -1    0    0  501    0  0.00000000000E+00 -0.00000000000E+00 -0.33135517128E+02  0.33135517128E+02  0.00000000000E+00 0. -1.
         23    2    1    2    0    0 -0.19305856041E+02 -0.12174278327E+01  0.36015792572E+03  0.38175290696E+03  0.12508937728E+03 0.  0.
          5    1    3    3  502    0  0.19148202085E+01  0.29937058143E+02  0.13729365886E+02  0.33254501564E+02  0.41800000000E+01 0.  1.
         -5    1    3    3    0  502 -0.21220676250E+02 -0.31154485975E+02  0.34642855983E+03  0.34849840540E+03  0.41800000000E+01 0.  1.
        -11    1    1    2    0    0  0.34682676726E+02  0.33919450156E+02  0.17922884300E+02  0.51716988944E+02  0.00000000000E+00 0. -1.
         11    1    1    2    0    0 -0.15376820685E+02 -0.32702022323E+02  0.54560637388E+02  0.65442585758E+02  0.00000000000E+00 0.  1.
</event>
<event>
 7    1  0.6992302E-006  0.1272612E+03  0.7561462E-02  0.1231577E+00
         -1   -1    0    0    0  501 -0.00000000000E+00  0.00000000000E+00  0.52144240018E+02  0.52144240018E+02  0.00000000000E+00 0.  1.
          1   -1    0    0  501    0  0.00000000000E+00 -0.00000000000E+00 -0.41755950769E+03  0.41755950769E+03  0.00000000000E+00 0. -1.
         23    2    1    2    0    0  0.18700081162E+02 -0.73158151673E+02 -0.94193257589E+02  0.17384181841E+03  0.12508716905E+03 0.  0.
          5    1    3    3  502    0  0.64820070647E+02 -0.74303437100E+02 -0.53927861652E+02  0.11246478998E+03  0.41800000000E+01 0. -1.
         -5    1    3    3    0  502 -0.46119989485E+02  0.11452854268E+01 -0.40265395937E+02  0.61377028429E+02  0.41800000000E+01 0. -1.
        -11    1    1    2    0    0 -0.47604808689E+02  0.26125188915E+02 -0.78952090585E+02  0.95823670948E+02  0.00000000000E+00 0.  1.
         11    1    1    2    0    0  0.28904727527E+02  0.47032962758E+02 -0.19226991950E+03  0.20003825835E+03  0.00000000000E+00 0. -1.
</event>
<event>
 7    1  0.6992302E-006  0.1162776E+03  0.7561462E-02  0.1249367E+00
          3   -1    0    0  501    0  0.00000000000E+00  0.00000000000E+00  0.46213439108E+02  0.46213439108E+02  0.00000000000E+00 0. -1.
         -3   -1    0    0    0  501 -0.00000000000E+00 -0.00000000000E+00 -0.41211340207E+03  0.41211340207E+03  0.00000000000E+00 0.  1.
         23    2    1    2    0    0 -0.78988925916E+02  0.29082186308E+02 -0.24147034384E+03  0.28467255694E+03  0.12508202806E+03 0.  0.
          5    1    3    3  502    0 -0.44153260801E+02  0.76698059342E+02 -0.11603587530E+03  0.14599280634E+03  0.41800000000E+01 0. -1.
         -5    1    3    3    0  502 -0.34835665116E+02 -0.47615873034E+02 -0.12543446854E+03  0.13867975060E+03  0.41800000000E+01 0. -1.
        -11    1    1    2    0    0  0.38535121987E+02 -0.19721653093E+02 -0.86241783598E+00  0.43297147617E+02  0.00000000000E+00 0. -1.
         11    1    1    2    0    0  0.40453803929E+02 -0.93605332149E+01 -0.12356720129E+03  0.13035713662E+03  0.00000000000E+00 0.  1.
</event>
<event>
 7    1  0.6992302E-006  0.1117643E+03  0.7561462E-02  0.1257337E+00
          2   -1    0    0  501    0  0.00000000000E+00  0.00000000000E+00  0.19397939864E+03  0.19397939864E+03  0.00000000000E+00 0. -1.
         -2   -1    0    0    0  501 -0.00000000000E+00 -0.00000000000E+00 -0.78889569813E+02  0.78889569813E+02  0.00000000000E+00 0.  1.
         23    2    1    2    0    0 -0.44508384625E-01  0.34820591657E+02  0.12238305775E+02  0.13042599155E+03  0.12509471435E+03 0.  0.
          5    1    3    3  502    0 -0.34433615339E+02  0.69413450968E+02  0.21675737608E+02  0.80568052238E+02  0.41800000000E+01 0.  1.
         -5    1    3    3    0  502  0.34389106955E+02 -0.34592859311E+02 -0.94374318330E+01  0.49857939308E+02  0.41800000000E+01 0.  1.
        -11    1    1    2    0    0 -0.35557072386E+02  0.12558969317E+02  0.52723927749E+02  0.64821645029E+02  0.00000000000E+00 0.  1.
         11    1    1    2    0    0  0.35601580771E+02 -0.47379560974E+02  0.50127595303E+02  0.77621331877E+02  0.00000000000E+00 0. -1.
</event>
<event>
 7    1  0.6992302E-006  0.1687405E+03  0.7561462E-02  0.1179168E+00
          1   -1    0    0  501    0  0.00000000000E+00  0.00000000000E+00  0.95944644488E+02  0.95944644488E+02  0.00000000000E+00 0. -1.
         -1   -1    0    0    0  501 -0.00000000000E+00 -0.00000000000E+00 -0.33635419458E+03  0.33635419458E+03  0.00000000000E+00 0.  1.
         23    2    1    2    0    0  0.12407428191E+03 -0.71318844396E+02 -0.16745612266E+03  0.24780459625E+03  0.11351105634E+03 0.  0.
          5    1    3    3  502    0  0.41762398267E+02 -0.75258339627E+02 -0.37747730520E+02  0.94075922275E+02  0.41800000000E+01 0. -1.
         -5    1    3    3    0  502  0.82311883643E+02  0.39394952317E+01 -0.12970839214E+03  0.15372867398E+03  0.41800000000E+01 0.  1.
        -11    1    1    2    0    0 -0.31732331383E+01  0.44941227788E+02 -0.12402758845E+02  0.46729132141E+02  0.00000000000E+00 0.  1.
         11    1    1    2    0    0 -0.12090104877E+03  0.26377616608E+02 -0.60550668583E+02  0.13776511067E+03  0.00000000000E+00 0. -1.
</event>
<event>
 7    1  0.6992302E-006  0.9924842E+02  0.7561462E-02  0.1281884E+00
         -2   -1    0    0    0  501 -0.00000000000E+00  0.00000000000E+00  0.14948081937E+03  0.14948081937E+03  0.00000000000E+00 0.  1.
          2   -1    0    0  501    0  0.00000000000E+00 -0.00000000000E+00 -0.12222524965E+03  0.12222524965E+03  0.00000000000E+00 0. -1.
         23    2    1    2    0    0  0.26343788544E+02  0.15828678732E+01  0.92643664306E+02  0.15788290040E+03  0.12509061130E+03 0.  0.
          5    1    3    3  502    0  0.84096973611E+01  0.62439153494E+02  0.56596931430E+02  0.84794197596E+02  0.41800000000E+01 0.  1.
         -5    1    3    3    0  502  0.17934091183E+02 -0.60856285620E+02  0.36046732876E+02  0.73088702801E+02  0.41800000000E+01 0.  1.
        -11    1    1    2    0    0 -0.42490116693E+02  0.18212417977E+02 -0.73666184259E+02  0.86970160908E+02  0.00000000000E+00 0.  1.
         11    1    1    2    0    0  0.16146328149E+02 -0.19795285850E+02  0.82780896722E+01  0.26853007713E+02  0.00000000000E+00 0. -1.
</event>
<event>
 7    1  0.6992302E-006  0.7744453E+02  0.7561462E-02  0.1336464E+00
         -1   -1    0    0    0  501 -0.00000000000E+00  0.00000000000E+00  0.91814588569E+02  0.91814588569E+02  0.00000000000E+00 0.  1.
          1   -1    0    0  501    0  0.00000000000E+00 -0.00000000000E+00 -0.16883802870E+03  0.16883802870E+03  0.00000000000E+00 0. -1.
         23    2    1    2    0    0  0.10371946458E+02  0.46172954994E+01  0.34690610716E+02  0.11757990421E+03  0.11177074175E+03 0.  0.
          5    1    3    3  502    0  0.19357722269E+02 -0.42164546966E+02 -0.14684846907E+02  0.48843500704E+02  0.41800000000E+01 0. -1.
         -5    1    3    3    0  502 -0.89857758110E+01  0.46781842466E+02  0.49375457623E+02  0.68736403506E+02  0.41800000000E+01 0.  1.
        -11    1    1    2    0    0 -0.54365439948E+01 -0.32102955269E+02 -0.11041669469E+03  0.11511734106E+03  0.00000000000E+00 0. -1.
         11    1    1    2    0    0 -0.49354024636E+01  0.27485659770E+02 -0.12973561598E+01  0.27955371996E+02  0.00000000000E+00 0.  1.
</event>
<event>
 7    1  0.6992302E-006  0.9583193E+02  0.7561462E-02  0.1289313E+00
          1   -1    0    0  501    0  0.00000000000E+00  0.00000000000E+00  0.48129397315E+03  0.48129397315E+03  0.00000000000E+00 0. -1.
         -1   -1    0    0    0  501 -0.00000000000E+00 -0.00000000000E+00 -0.27541329724E+02  0.27541329724E+02  0.00000000000E+00 0.  1.
         23    2    1    2    0    0 -0.20709398274E+02 -0.29513744341E+02  0.28245154841E+03  0.31101000940E+03  0.12509359882E+03 0.  0.
          5    1    3    3  502    0 -0.18196970745E+02 -0.62636727074E+02  0.26560811636E+03  0.27353177731E+03  0.41800000000E+01 0.  1.
         -5    1    3    3    0  502 -0.25124275287E+01  0.33122982733E+02  0.16843432050E+02  0.37478232088E+02  0.41800000000E+01 0.  1.
        -11    1    1    2    0    0 -0.17232779841E+02  0.47722260462E+02  0.12680567626E+03  0.13657987544E+03  0.00000000000E+00 0. -1.
         11    1    1    2    0    0  0.37942178115E+02 -0.18208516121E+02  0.44495418759E+02  0.61245418033E+02  0.00000000000E+00 0.  1.
</event>
<event>
 7    1  0.6992302E-006  0.9527469E+02  0.7561462E-02  0.1290559E+00
         -1   -1    0    0    0  501 -0.00000000000E+00  0.00000000000E+00  0.29839294958E+02  0.29839294958E+02  0.00000000000E+00 0.  1.
          1   -1    0    0  501    0  0.00000000000E+00 -0.00000000000E+00 -0.40068667606E+03  0.40068667606E+03  0.00000000000E+00 0. -1.
         23    2    1    2    0    0 -0.42171447113E+01  0.13506214665E+02 -0.20609005300E+03  0.24149928391E+03  0.12509433256E+03 0.  0.
          5    1    3    3  502    0  0.26448243408E+02 -0.48477954076E+02 -0.75047153817E+02  0.93269337442E+02  0.41800000000E+01 0.  1.
         -5    1    3    3    0  502 -0.30665388119E+02  0.61984168741E+02 -0.13104289919E+03  0.14822994647E+03  0.41800000000E+01 0.  1.
        -11    1    1    2    0    0 -0.29783536096E+02 -0.14739136588E+01 -0.12124743738E+02  0.32190695155E+02  0.00000000000E+00 0.  1.
         11    1    1    2    0    0  0.34000680807E+02 -0.12032301006E+02 -0.15263258436E+03  0.15683599196E+03  0.00000000000E+00 0. -1.
</event>
<event>
 7    1  0.6992302E-006  0.1877181E+03  0.7561462E-02  0.1160536E+00
         -2   -1    0    0    0  501 -0.00000000000E+00  0.00000000000E+00  0.14245246603E+03  0.14245246603E+03  0.00000000000E+00 0.  1.
          2   -1    0    0  501    0  0.00000000000E+00 -0.00000000000E+00 -0.31400365156E+03  0.31400365156E+03  0.00000000000E+00 0. -1.
         23    2    1    2    0    0  0.17519548160E+03 -0.15973110968E+02 -0.42862878225E+02  0.22008149521E+03  0.12510012453E+03 0.  0.
          5    1    3    3  502    0  0.10426334631E+03 -0.51342828714E+02  0.21039912425E+02  0.11818240884E+03  0.41800000000E+01 0. -1.
         -5    1    3    3    0  502  0.70932135290E+02  0.35369717746E+02 -0.63902790650E+02  0.10189908637E+03  0.41800000000E+01 0. -1.
        -11    1    1    2    0    0 -0.35240088309E+02  0.18481297600E+02  0.81557344639E+01  0.40619431183E+02  0.00000000000E+00 0.  1.
         11    1    1    2    0    0 -0.13995539329E+03 -0.25081866323E+01 -0.13684404177E+03  0.19575519119E+03  0.00000000000E+00 0. -1.
</event>
<event>
 7    1  0.6992302E-006  0.1291480E+03  0.7561462E-02  0.1228725E+00
          1   -1    0    0  501    0  0.00000000000E+00  0.00000000000E+00  0.45895192376E+02  0.45895192376E+02  0.00000000000E+00 0. -1.
         -1   -1    0    0    0  501 -0.00000000000E+00 -0.00000000000E+00 -0.46628472858E+03  0.46628472858E+03  0.00000000000E+00 0.  1.
         23    2    1    2    0    0 -0.70148142287E+02 -0.68433077955E+02 -0.26008562547E+03  0.30478310159E+03  0.12507740968E+03 0.  0.
          5    1    3    3  502    0  0.41498022070E+00 -0.83581734080E+02 -0.16819265052E+03  0.18786249910E+03  0.41800000000E+01 0.  1.
         -5    1    3    3    0  502 -0.70563122508E+02  0.15148656125E+02 -0.91892974955E+02  0.11692060249E+03  0.41800000000E+01 0.  1.
        -11    1    1    2    0    0  0.72748646300E+01  0.24649768209E+02  0.40915943981E+01  0.26024524450E+02  0.00000000000E+00 0. -1.
         11    1    1    2    0    0  0.62873277657E+02  0.43783309746E+02 -0.16439550513E+03  0.18137229492E+03  0.00000000000E+00 0.  1.
</event>
<event>
 7    1  0.6992302E-006  0.1209233E+03  0.7561462E-02  0.1241582E+00
         -1   -1    0    0    0  501 -0.00000000000E+00  0.00000000000E+00  0.14081486883E+03  0.14081486883E+03  0.00000000000E+00 0.  1.
          1   -1    0    0  501    0  0.00000000000E+00 -0.00000000000E+00 -0.28730071824E+03  0.28730071824E+03  0.00000000000E+00 0. -1.
         23    2    1    2    0    0 -0.86216041006E+02 -0.34151944742E+02  0.73584855830E+02  0.17222917267E+03  0.12509434782E+03 0.  0.
          5    1    3    3  502    0 -0.95977140630E+02 -0.27798476364E+02  0.10100870103E+03  0.14214287493E+03  0.41800000000E+01 0. -1.
         -5    1    3    3    0  502  0.97610996245E+01 -0.63534683784E+01 -0.27423845197E+02  0.30086297740E+02  0.41800000000E+01 0. -1.
        -11    1    1    2    0    0  0.62622394648E+02  0.65243101927E+02 -0.13775850708E+03  0.16478966270E+03  0.00000000000E+00 0.  1.
         11    1    1    2    0    0  0.23593646358E+02 -0.31091157185E+02 -0.82312198159E+02  0.91096751694E+02  0.00000000000E+00 0. -1.
</event>
<event>
 7    1  0.6992302E-006  0.1314051E+03  0.7561462E-02  0.1225386E+00
         -2   -1    0    0    0  501 -0.00000000000E+00  0.00000000000E+00  0.51911615892E+02  0.51911615892E+02  0.00000000000E+00 0. -1.
          2   -1    0    0  501    0  0.00000000000E+00 -0.00000000000E+00 -0.51442368454E+03  0.51442368454E+03  0.00000000000E+00 0.  1.
         23    2    1    2    0    0 -0.99018455777E+02  0.58834351792E+02 -0.18731640519E+03  0.25298256668E+03  0.12508640156E+03 0.  0.
          5    1    3    3  502    0 -0.24467106677E+02  0.67973088442E+02 -0.29482975807E+02  0.78138968024E+02  0.41800000000E+01 0.  1.
         -5    1    3    3    0  502 -0.74551349100E+02 -0.91387366498E+01 -0.15783342939E+03  0.17484359866E+03  0.41800000000E+01 0.  1.
        -11    1    1    2    0    0  0.76194290124E+02 -0.46789401766E+02 -0.27320984084E+03  0.28746901589E+03  0.00000000000E+00 0.  1.
         11    1    1    2    0    0  0.22824165653E+02 -0.12044950026E+02 -0.19858226195E+01  0.25883717862E+02  0.00000000000E+00 0. -1.
</event>
<event>
 7    1  0.6992302E-006  0.1390379E+03  0.7561462E-02  0.1214629E+00
         -2   -1    0    0    0  501 -0.00000000000E+00  0.00000000000E+00  0.10497876914E+03  0.10497876914E+03  0.00000000000E+00 0.  1.
          2   -1    0    0  501    0  0.00000000000E+00 -0.00000000000E+00 -0.24967148170E+03  0.24967148170E+03  0.00000000000E+00 0. -1.
         23    2    1    2    0    0 -0.11766113122E+03 -0.18084871748E+02 -0.79362865699E+02  0.19004900154E+03  0.12509577989E+03 0.  0.
          5    1    3    3  502    0 -0.46397013035E+02  0.41911732473E+02  0.68686691080E+01  0.63039092258E+02  0.41800000000E+01 0.  1.
         -5    1    3    3    0  502 -0.71264118190E+02 -0.59996604221E+02 -0.86231534807E+02  0.12700990928E+03  0.41800000000E+01 0.  1.
        -11    1    1    2    0    0  0.95314249162E+02  0.33092674704E+01 -0.15067802135E+01  0.95383582084E+02  0.00000000000E+00 0.  1.
         11    1    1    2    0    0  0.22346882063E+02  0.14775604277E+02 -0.63823066641E+02  0.69217667218E+02  0.00000000000E+00 0. -1.
</event>
<event>
 7    1  0.6992302E-006  0.1515204E+03  0.7561462E-02  0.1198617E+00
          2   -1    0    0  501    0  0.00000000000E+00  0.00000000000E+00  0.81202509242E+03  0.81202509242E+03  0.00000000000E+00 0.  1.
         -2   -1    0    0    0  501 -0.00000000000E+00 -0.00000000000E+00 -0.35533456032E+02  0.35533456032E+02  0.00000000000E+00 0. -1.
         23    2    1    2    0    0 -0.32946758290E+02 -0.11301412383E+03  0.28970648610E+03  0.33680256247E+03  0.12509371262E+03 0.  0.
          5    1    3    3  502    0 -0.49503082445E+02 -0.50014037545E+01  0.15753161470E+03  0.16525510957E+03  0.41800000000E+01 0.  1.
         -5    1    3    3    0  502  0.16556324155E+02 -0.10801272007E+03  0.13217487140E+03  0.17154745290E+03  0.41800000000E+01 0.  1.
        -11    1    1    2    0    0 -0.23583420317E+02  0.66472636440E+02  0.33353120675E+03  0.34090739943E+03  0.00000000000E+00 0. -1.
         11    1    1    2    0    0  0.56530178607E+02  0.46541487388E+02  0.15325394354E+03  0.16984858655E+03  0.00000000000E+00 0.  1.
</event>
<event>
 7    1  0.6992302E-006  0.1280315E+03  0.7561462E-02  0.1230406E+00
         -1   -1    0    0    0  501 -0.00000000000E+00  0.00000000000E+00  0.11199100358E+03  0.11199100358E+03  0.00000000000E+00 0.  1.
          1   -1    0    0  501    0  0.00000000000E+00 -0.00000000000E+00 -0.21175044081E+03  0.21175044081E+03  0.00000000000E+00 0. -1.
         23    2    1    2    0    0  0.10834560201E+03 -0.10366785342E+02 -0.45945555287E+02  0.17206380542E+03  0.12509484150E+03 0.  0.
          5    1    3    3  502    0  0.11956682949E+02 -0.41362786022E+02  0.23486259444E+02  0.49223156312E+02  0.41800000000E+01 0. -1.
         -5    1    3    3    0  502  0.96388919059E+02  0.30996000680E+02 -0.69431814731E+02  0.12284064910E+03  0.41800000000E+01 0. -1.
        -11    1    1    2    0    0 -0.91959589074E+02  0.17477525882E+02 -0.77838016492E+02  0.12174065363E+03  0.00000000000E+00 0. -1.
         11    1    1    2    0    0 -0.16386012934E+02 -0.71107405403E+01  0.24024134543E+02  0.29936985344E+02  0.00000000000E+00 0.  1.
</event>
<event>
 7    1  0.6992302E-006  0.1107564E+03  0.7561462E-02  0.1259176E+00
         -1   -1    0    0    0  501 -0.00000000000E+00  0.00000000000E+00  0.37607172726E+02  0.37607172726E+02  0.00000000000E+00 0.  1.
          1   -1    0    0  501    0  0.00000000000E+00 -0.00000000000E+00 -0.37936586978E+03  0.37936586978E+03  0.00000000000E+00 0. -1.
         23    2    1    2    0    0 -0.48970015273E+02  0.86600805058E+01 -0.15677192842E+03  0.20663471416E+03  0.12508960054E+03 0.  0.
          5    1    3    3  502    0 -0.84335120104E+02 -0.17692027170E+02 -0.78226382730E+02  0.11645711513E+03  0.41800000000E+01 0.  1.
         -5    1    3    3    0  502  0.35365104832E+02  0.26352107675E+02 -0.78545545692E+02  0.90177599029E+02  0.41800000000E+01 0.  1.
        -11    1    1    2    0    0  0.34850047653E+02 -0.42092742797E+02 -0.64670147271E+02  0.84667306356E+02  0.00000000000E+00 0.  1.
         11    1    1    2    0    0  0.14119967620E+02  0.33432662291E+02 -0.12031662136E+03  0.12567102199E+03  0.00000000000E+00 0. -1.
</event>
<event>
 7    1  0.6992302E-006  0.1936725E+03  0.7561462E-02  0.1155190E+00
         -2   -1    0    0    0  501 -0.00000000000E+00  0.00000000000E+00  0.23690285935E+03  0.23690285935E+03  0.00000000000E+00 0.  1.
          2   -1    0    0  501    0  0.00000000000E+00 -0.00000000000E+00 -0.16399103763E+03  0.16399103763E+03  0.00000000000E+00 0. -1.
         23    2    1    2    0    0 -0.13156400481E+03 -0.97729012472E+02  0.30545474255E+02  0.20842485266E+03  0.12509135050E+03 0.  0.
          5    1    3    3  502    0 -0.49398745217E+02  0.22724670371E+02  0.30645435589E+02  0.62556069209E+02  0.41800000000E+01 0.  1.
         -5    1    3    3    0  502 -0.82165259594E+02 -0.12045368284E+03 -0.99961333222E-01  0.14586878346E+03  0.41800000000E+01 0.  1.
        -11    1    1    2    0    0 -0.32923331357E+01  0.40186094021E+02  0.18917328619E+01  0.40365087184E+02  0.00000000000E+00 0.  1.
         11    1    1    2    0    0  0.13485633795E+03  0.57542918451E+02  0.40474614606E+02  0.15210395713E+03  0.00000000000E+00 0. -1.
</event>
<event>
 7    1  0.6992302E-006  0.3068028E+03  0.7561462E-02  0.1081889E+00
          3   -1    0    0  501    0  0.00000000000E+00  0.00000000000E+00  0.10449871807E+04  0.10449871807E+04  0.00000000000E+00 0. -1.
         -3   -1    0    0    0  501 -0.00000000000E+00 -0.00000000000E+00 -0.10999513783E+03  0.10999513783E+03  0.00000000000E+00 0.  1.
         23    2    1    2    0    0  0.29800500491E+03 -0.43837878830E+02  0.28294181056E+03  0.43177697042E+03  0.12508613613E+03 0.  0.
          5    1    3    3  502    0  0.13305070525E+03  0.20054397594E+02  0.60627321121E+02  0.14764082598E+03  0.41800000000E+01 0. -1.
         -5    1    3    3    0  502  0.16495429966E+03 -0.63892276424E+02  0.22231448944E+03  0.28413614444E+03  0.41800000000E+01 0. -1.
        -11    1    1    2    0    0 -0.64418526901E+02  0.22625820575E+00  0.73367619781E+02  0.97635062520E+02  0.00000000000E+00 0.  1.
         11    1    1    2    0    0 -0.23358647801E+03  0.43611620624E+02  0.57868261251E+03  0.62557028557E+03  0.00000000000E+00 0. -1.
</event>
<event>
 7    1  0.6992302E-006  0.1852384E+03  0.7561462E-02  0.1162827E+00
          1   -1    0    0  501    0  0.00000000000E+00  0.00000000000E+00  0.52495900298E+03  0.52495900298E+03  0.00000000000E+00 0. -1.
         -1   -1    0    0    0  501 -0.00000000000E+00 -0.00000000000E+00 -0.80961300963E+02  0.80961300963E+02  0.00000000000E+00 0.  1.
         23    2    1    2    0    0  0.11296890215E+03 -0.12922486364E+03  0.17640908449E+03  0.27608605853E+03  0.12506921440E+03 0.  0.
          5    1    3    3  502    0  0.99626317707E+02 -0.77811295281E+02  0.44935116309E+02  0.13422607024E+03  0.41800000000E+01 0. -1.
         -5    1    3    3    0  502  0.13342584440E+02 -0.51413568355E+02  0.13147396818E+03  0.14185998829E+03  0.41800000000E+01 0. -1.
        -11    1    1    2    0    0 -0.55983408922E+02  0.77234532296E+01  0.58144101318E+02  0.81083477493E+02  0.00000000000E+00 0. -1.
         11    1    1    2    0    0 -0.56985493226E+02  0.12150141041E+03  0.20944451621E+03  0.24875076792E+03  0.00000000000E+00 0.  1.
</event>
<event>
 7    1  0.6992302E-006  0.1169632E+03  0.7561462E-02  0.1248193E+00
          3   -1    0    0  501    0  0.00000000000E+00  0.00000000000E+00  0.11874491840E+03  0.11874491840E+03  0.00000000000E+00 0. -1.
         -3   -1    0    0    0  501 -0.00000000000E+00 -0.00000000000E+00 -0.13409052387E+03  0.13409052387E+03  0.00000000000E+00 0.  1.
         23    2    1    2    0    0 -0.17613009240E+02 -0.53197830116E+02 -0.42695433254E+02  0.14356436709E+03  0.12509036835E+03 0.  0.
          5    1    3    3  502    0  0.47947099164E+02 -0.89948049086E+01 -0.41801496138E+02  0.64379098417E+02  0.41800000000E+01 0. -1.
         -5    1    3    3    0  502 -0.65560108404E+02 -0.44203025207E+02 -0.89393711523E+00  0.79185268674E+02  0.41800000000E+01 0. -1.
        -11    1    1    2    0    0 -0.92612393994E+01 -0.23102249556E+02  0.70405285952E+01  0.25866069138E+02  0.00000000000E+00 0.  1.
         11    1    1    2    0    0  0.26874248639E+02  0.76300079672E+02  0.20309299191E+02  0.83405006034E+02  0.00000000000E+00 0. -1.
</event>
<event>
 6    1  0.6992302E-006  0.1029291E+03  0.7561462E-02  0.1274254E+00
         -2   -1    0    0    0  501 -0.00000000000E+00  0.00000000000E+00  0.42905850440E+02  0.42905850440E+02  0.00000000000E+00 0.  1.
          2   -1    0    0  501    0  0.00000000000E+00 -0.00000000000E+00 -0.54924627001E+03  0.54924627001E+03  0.00000000000E+00 0. -1.
          5    1    1    2  502    0 -0.61022093103E+02 -0.26132795912E+02 -0.95462087923E+02  0.11634905027E+03  0.41800000000E+01 0. -1.
         -5    1    1    2    0  502  0.42873414152E+02  0.26304989730E+01  0.98026002028E+01  0.44256214667E+02  0.41800000000E+01 0.  1.
        -11    1    1    2    0    0 -0.13771871631E+02  0.51757119031E+02 -0.24061243288E+03  0.24650112915E+03  0.00000000000E+00 0. -1.
         11    1    1    2    0    0  0.31920550582E+02 -0.28254822092E+02 -0.18006849897E+03  0.18504572636E+03  0.00000000000E+00 0.  1.
</event>
<event>
 7    1  0.6992302E-006  0.1134435E+03  0.7561462E-02  0.1254323E+00
          3   -1    0    0  501    0  0.00000000000E+00  0.00000000000E+00  0.15384069876E+02  0.15384069876E+02  0.00000000000E+00 0. -1.
         -3   -1    0    0    0  501 -0.00000000000E+00 -0.00000000000E+00 -0.97912332778E+03  0.97912332778E+03  0.00000000000E+00 0.  1.
         23    2    1    2    0    0 -0.47303095378E+02 -0.18814851144E+02 -0.62548336937E+03  0.63989747753E+03  0.12509098666E+03 0.  0.
          5    1    3    3  502    0 -0.47588671454E+01  0.51941845966E+02 -0.23333543907E+03  0.23913072096E+03  0.41800000000E+01 0. -1.
         -5    1    3    3    0  502 -0.42544228233E+02 -0.70756697110E+02 -0.39214793029E+03  0.40076675658E+03  0.41800000000E+01 0. -1.
        -11    1    1    2    0    0  0.40459236089E+02 -0.24990960663E+02 -0.26299652458E+03  0.26726142603E+03  0.00000000000E+00 0.  1.
         11    1    1    2    0    0  0.68438592895E+01  0.43805811807E+02 -0.75259363960E+02  0.87348494101E+02  0.00000000000E+00 0. -1.
</event>
<event>
 6    1  0.6992302E-006  0.1178504E+03  0.7561462E-02  0.1246686E+00
          4   -1    0    0  501    0  0.00000000000E+00  0.00000000000E+00  0.14930860589E+03  0.14930860589E+03  0.00000000000E+00 0. -1.
         -4   -1    0    0    0  501 -0.00000000000E+00 -0.00000000000E+00 -0.18197531702E+03  0.18197531702E+03  0.00000000000E+00 0.  1.
          5    1    1    2  502    0 -0.23348005681E+02 -0.45118151956E+02  0.32966401472E+02  0.60704472909E+02  0.41800000000E+01 0. -1.
         -5    1    1    2    0  502 -0.47442230894E+02 -0.32945576927E+02 -0.11253443117E+03  0.12656084272E+03  0.41800000000E+01 0.  1.
        -11    1    1    2    0    0  0.34582565790E+02 -0.61721635678E+01 -0.94758929353E+01  0.36384639708E+02  0.00000000000E+00 0.  1.
         11    1    1    2    0    0  0.36207670785E+02  0.84235892451E+02  0.56377211490E+02  0.10763396758E+03  0.00000000000E+00 0. -1.
</event>
<event>
 7    1  0.6992302E-006  0.3345934E+03  0.7561462E-02  0.1069122E+00
          2   -1    0    0  501    0  0.00000000000E+00  0.00000000000E+00  0.18745257212E+04  0.18745257212E+04  0.00000000000E+00 0.  1.
         -2   -1    0    0    0  501 -0.00000000000E+00 -0.00000000000E+00 -0.63089379015E+02  0.63089379015E+02  0.00000000000E+00 0. -1.
         23    2    1    2    0    0 -0.16364225665E+03 -0.28244470957E+03  0.84790848185E+03  0.91714219582E+03  0.12508881497E+03 0.  0.
          5    1    3    3  502    0  0.43017299329E+01 -0.30999835430E+02  0.19579113579E+03  0.19832079046E+03  0.41800000000E+01 0.  1.
         -5    1    3    3    0  502 -0.16794398658E+03 -0.25144487414E+03  0.65211734606E+03  0.71882140536E+03  0.41800000000E+01 0.  1.
        -11    1    1    2    0    0  0.14750737292E+03  0.18583397181E+03  0.71511462945E+03  0.75344649670E+03  0.00000000000E+00 0. -1.
         11    1    1    2    0    0  0.16134883729E+02  0.96610737762E+02  0.24841323084E+03  0.26702640765E+03  0.00000000000E+00 0.  1.
</event>
<event>
 7    1  0.6992302E-006  0.5784617E+02  0.7561462E-02  0.1407099E+00
         -2   -1    0    0    0  501 -0.00000000000E+00  0.00000000000E+00  0.23128601299E+02  0.23128601299E+02  0.00000000000E+00 0.  1.
          2   -1    0    0  501    0  0.00000000000E+00 -0.00000000000E+00 -0.40827458054E+03  0.40827458054E+03  0.00000000000E+00 0. -1.
         23    2    1    2    0    0 -0.21817215161E+02  0.24736899573E+02 -0.24498034240E+03  0.27695136282E+03  0.12489509249E+03 0.  0.
          5    1    3    3  502    0  0.16474542157E+02  0.47586112108E+01 -0.23054737138E+03  0.23122200970E+03  0.41800000000E+01 0. -1.
         -5    1    3    3    0  502 -0.38291757318E+02  0.19978288362E+02 -0.14432971022E+02  0.45729353121E+02  0.41800000000E+01 0.  1.
        -11    1    1    2    0    0  0.20818031417E+02  0.77011430891E+01 -0.10184278235E+03  0.10423363351E+03  0.00000000000E+00 0. -1.
         11    1    1    2    0    0  0.99918374366E+00 -0.32438042662E+02 -0.38322854488E+02  0.50218185511E+02  0.00000000000E+00 0.  1.
</event>
<event>
 7    1  0.6992302E-006  0.9779035E+02  0.7561462E-02  0.1285012E+00
         -1   -1    0    0    0  501 -0.00000000000E+00  0.00000000000E+00  0.21684986334E+02  0.21684986334E+02  0.00000000000E+00 0.  1.
          1   -1    0    0  501    0  0.00000000000E+00 -0.00000000000E+00 -0.72843962869E+03  0.72843962869E+03  0.00000000000E+00 0. -1.
         23    2    1    2    0    0 -0.51478240779E+02  0.67821820926E+01 -0.26193516159E+03  0.29382017493E+03  0.12257348429E+03 0.  0.
          5    1    3    3  502    0 -0.70903057209E+02 -0.63210243833E+01 -0.26038104396E+03  0.26996844135E+03  0.41800000000E+01 0. -1.
         -5    1    3    3    0  502  0.19424816431E+02  0.13103206476E+02 -0.15541176322E+01  0.23851733583E+02  0.41800000000E+01 0.  1.
        -11    1    1    2    0    0  0.51733890154E+02 -0.41150093092E+02 -0.25693259447E+03  0.26529998804E+03  0.00000000000E+00 0.  1.
         11    1    1    2    0    0 -0.25564937508E+00  0.34367910999E+02 -0.18788688630E+03  0.19100445206E+03  0.00000000000E+00 0. -1.
</event>
<event>
 7    1  0.6992302E-006  0.8285196E+02  0.7561462E-02  0.1321147E+00
          1   -1    0    0  501    0  0.00000000000E+00  0.00000000000E+00  0.11794350902E+03  0.11794350902E+03  0.00000000000E+00 0. -1.
         -1   -1    0    0    0  501 -0.00000000000E+00 -0.00000000000E+00 -0.11049554774E+03  0.11049554774E+03  0.00000000000E+00 0.  1.
         23    2    1    2    0    0 -0.13492379934E+02  0.22647472791E+02 -0.21632877268E+02  0.12965424852E+03  0.12508912999E+03 0.  0.
          5    1    3    3  502    0 -0.72013027860E+01 -0.24866869375E+02  0.42222348052E+02  0.49703310044E+02  0.41800000000E+01 0. -1.
         -5    1    3    3    0  502 -0.62910771478E+01  0.47514342167E+02 -0.63855225319E+02  0.79950938480E+02  0.41800000000E+01 0. -1.
        -11    1    1    2    0    0  0.50745459234E+02 -0.17923059034E+02  0.47212708563E+01  0.54024328561E+02  0.00000000000E+00 0.  1.
         11    1    1    2    0    0 -0.37253079300E+02 -0.47244137576E+01  0.24359567688E+02  0.44760479674E+02  0.00000000000E+00 0. -1.
</event>
<event>
 7    1  0.6992302E-006  0.1394517E+03  0.7561462E-02  0.1214069E+00
         -2   -1    0    0    0  501 -0.00000000000E+00  0.00000000000E+00  0.20549535002E+02  0.20549535002E+02  0.00000000000E+00 0.  1.
          2   -1    0    0  501    0  0.00000000000E+00 -0.00000000000E+00 -0.12112927916E+04  0.12112927916E+04  0.00000000000E+00 0. -1.
         23    2    1    2    0    0  0.93099534650E+02 -0.66851257784E+02 -0.63180480352E+03  0.65419020367E+03  0.12510355232E+03 0.  0.
          5    1    3    3  502    0  0.10233200576E+03 -0.48825071687E+02 -0.28478198069E+03  0.30655175085E+03  0.41800000000E+01 0. -1.
         -5    1    3    3    0  502 -0.92324711053E+01 -0.18026186097E+02 -0.34702282284E+03  0.34763845282E+03  0.41800000000E+01 0. -1.
        -11    1    1    2    0    0 -0.75716689192E+02  0.88843263739E+02 -0.47600893871E+03  0.49011289747E+03  0.00000000000E+00 0.  1.
         11    1    1    2    0    0 -0.17382845458E+02 -0.21992005955E+02 -0.82929514403E+02  0.87539225501E+02  0.00000000000E+00 0. -1.
</event>
<event>
 7    1  0.6992302E-006  0.2141098E+03  0.7561462E-02  0.1138352E+00
         -1   -1    0    0    0  501 -0.00000000000E+00  0.00000000000E+00  0.29809018809E+03  0.29809018809E+03  0.00000000000E+00 0.  1.
          1   -1    0    0  501    0  0.00000000000E+00 -0.00000000000E+00 -0.17566523547E+03  0.17566523547E+03  0.00000000000E+00 0. -1.
         23    2    1    2    0    0  0.71420104311E+02  0.17764320137E+03  0.12728213825E+03  0.26173966486E+03  0.12509584786E+03 0.  0.
          5    1    3    3  502    0  0.18606605179E+02 -0.12767050312E+02 -0.55449492715E+01  0.23609790181E+02  0.41800000000E+01 0. -1.
         -5    1    3    3    0  502  0.52813499132E+02  0.19041025169E+03  0.13282708752E+03  0.23812987468E+03  0.41800000000E+01 0. -1.
        -11    1    1    2    0    0 -0.30619137050E+02 -0.60003189841E+01 -0.16331831299E+02  0.35217383423E+02  0.00000000000E+00 0. -1.
         11    1    1    2    0    0 -0.40800967261E+02 -0.17164288239E+03  0.11474645669E+02  0.17679837527E+03  0.00000000000E+00 0.  1.
</event>
<event>
 7    1  0.6992302E-006  0.1848770E+03  0.7561462E-02  0.1163165E+00
          2   -1    0    0  501    0  0.00000000000E+00  0.00000000000E+00  0.51111212988E+03  0.51111212988E+03  0.00000000000E+00 0. -1.
         -2   -1    0    0    0  501 -0.00000000000E+00 -0.00000000000E+00 -0.79610522663E+02  0.79610522663E+02  0.00000000000E+00 0.  1.
         23    2    1    2    0    0  0.99144646754E+02 -0.13528073559E+03  0.18612599383E+03  0.28003816442E+03  0.12509176452E+03 0.  0.
          5    1    3    3  502    0  0.41584153761E+02 -0.11532584659E+03  0.18114617608E+03  0.21877088985E+03  0.41800000000E+01 0.  1.
         -5    1    3    3    0  502  0.57560492993E+02 -0.19954889001E+02  0.49798177504E+01  0.61267274572E+02  0.41800000000E+01 0.  1.
        -11    1    1    2    0    0 -0.10836519774E+02  0.82366746546E+02  0.14373101319E+03  0.16601299723E+03  0.00000000000E+00 0. -1.
         11    1    1    2    0    0 -0.88308126980E+02  0.52913989048E+02  0.10164460019E+03  0.14467149089E+03  0.00000000000E+00 0.  1.
</event>
<event>
 7    1  0.6992302E-006  0.1007139E+03  0.7561462E-02  0.1278802E+00
          2   -1    0    0  501    0  0.00000000000E+00  0.00000000000E+00  0.15838105193E+03  0.15838105193E+03  0.00000000000E+00 0. -1.
         -2   -1    0    0    0  501 -0.00000000000E+00 -0.00000000000E+00 -0.81773407713E+02  0.81773407713E+02  0.00000000000E+00 0.  1.
         23    2    1    2    0    0 -0.23811911441E+02 -0.17180877213E+02  0.18936784245E+02  0.12987864938E+03  0.12509065552E+03 0.  0.
          5    1    3    3  502    0  0.40813589754E+02 -0.10713566925E+02 -0.26953228877E+02  0.50244189433E+02  0.41800000000E+01 0.  1.
         -5    1    3    3    0  502 -0.64625501194E+02 -0.64673102885E+01  0.45890013122E+02  0.79634459949E+02  0.41800000000E+01 0.  1.
        -11    1    1    2    0    0  0.54564284637E+02  0.28016680867E+02  0.39381535727E+02  0.72891020853E+02  0.00000000000E+00 0. -1.
         11    1    1    2    0    0 -0.30752373196E+02 -0.10835803654E+02  0.18289324250E+02  0.37384789414E+02  0.00000000000E+00 0.  1.
</event>
<event>
 7    1  0.6992302E-006  0.1168677E+03  0.7561462E-02  0.1248356E+00
          2   -1    0    0  501    0  0.00000000000E+00  0.00000000000E+00  0.60502085059E+02  0.60502085059E+02  0.00000000000E+00 0. -1.
         -2   -1    0    0    0  501 -0.00000000000E+00 -0.00000000000E+00 -0.27175985487E+03  0.27175985487E+03  0.00000000000E+00 0.  1.
         23    2    1    2    0    0  0.62744585735E+02 -0.17613722319E+02 -0.95929776781E+02  0.17058031346E+03  0.12509194624E+03 0.  0.
          5    1    3    3  502    0  0.63079102442E+02  0.40070366051E+02 -0.24679670971E+02  0.78810950759E+02  0.41800000000E+01 0. -1.
         -5    1    3    3    0  502 -0.33451670665E+00 -0.57684088370E+02 -0.71250105809E+02  0.91769362700E+02  0.41800000000E+01 0. -1.
        -11    1    1    2    0    0 -0.80628244215E+02  0.87779212083E+01 -0.54623770088E+02  0.97784057620E+02  0.00000000000E+00 0. -1.
         11    1    1    2    0    0  0.17883658480E+02  0.88358011105E+01 -0.60704222946E+02  0.63897568853E+02  0.00000000000E+00 0.  1.
</event>
<event>
 7    1  0.6992302E-006  0.1969240E+03  0.7561462E-02  0.1152361E+00
          2   -1    0    0  501    0  0.00000000000E+00  0.00000000000E+00  0.76914491249E+03  0.76914491249E+03  0.00000000000E+00 0.  1.
         -2   -1    0    0    0  501 -0.00000000000E+00 -0.00000000000E+00 -0.52921953550E+02  0.52921953550E+02  0.00000000000E+00 0. -1.
         23    2    1    2    0    0 -0.15980477697E+03 -0.59137313392E+02  0.36489760590E+03  0.42170122693E+03  0.12508746312E+03 0.  0.
          5    1    3    3  502    0 -0.38895280313E+02 -0.77259689252E+02  0.18351273669E+03  0.20291944052E+03  0.41800000000E+01 0. -1.
         -5    1    3    3    0  502 -0.12090949665E+03  0.18122375860E+02  0.18138486921E+03  0.21878178641E+03  0.41800000000E+01 0. -1.
        -11    1    1    2    0    0  0.45999073223E+02  0.54083550297E+02  0.85345405357E+02  0.11101704088E+03  0.00000000000E+00 0. -1.
         11    1    1    2    0    0  0.11380570374E+03  0.50537630952E+01  0.26597994768E+03  0.28934859823E+03  0.00000000000E+00 0.  1.
</event>
<event>
 7    1  0.6992302E-006  0.1172534E+03  0.7561462E-02  0.1247698E+00
         -1   -1    0    0    0  501 -0.00000000000E+00  0.00000000000E+00  0.39255325516E+02  0.39255325516E+02  0.00000000000E+00 0.  1.
          1   -1    0    0  501    0  0.00000000000E+00 -0.00000000000E+00 -0.40432216733E+03  0.40432216733E+03  0.00000000000E+00 0. -1.
         23    2    1    2    0    0 -0.43649531436E+02 -0.62398161404E+01 -0.16992985093E+03  0.21556477580E+03  0.12509117246E+03 0.  0.
          5    1    3    3  502    0  0.36198648282E+02 -0.32133352877E+02 -0.61294745047E+02  0.78213890549E+02  0.41800000000E+01 0.  1.
         -5    1    3    3    0  502 -0.79848179718E+02  0.25893536736E+02 -0.10863510588E+03  0.13735088525E+03  0.41800000000E+01 0.  1.
        -11    1    1    2    0    0  0.25590755528E+02 -0.42661519449E+02 -0.15330343964E+03  0.16117331236E+03  0.00000000000E+00 0. -1.
         11    1    1    2    0    0  0.18058775908E+02  0.48901335590E+02 -0.41833551244E+02  0.66839404691E+02  0.00000000000E+00 0.  1.
</event>
<event>
 6    1  0.6992302E-006  0.9081780E+02  0.7561462E-02  0.1300883E+00
          2   -1    0    0  501    0  0.00000000000E+00  0.00000000000E+00  0.18062489095E+03  0.18062489095E+03  0.00000000000E+00 0.  1.
         -2   -1    0    0    0  501 -0.00000000000E+00 -0.00000000000E+00 -0.75485979786E+02  0.75485979786E+02  0.00000000000E+00 0. -1.
          5    1    1    2  502    0  0.66664604651E+02 -0.16953910022E+02  0.58454696134E+02  0.90366080354E+02  0.41800000000E+01 0.  1.
         -5    1    1    2    0  502 -0.74774666437E+02  0.13766532665E+01 -0.23828963583E+02  0.78603039512E+02  0.41800000000E+01 0. -1.
        -11    1    1    2    0    0  0.19175043804E+02  0.18210090646E+02  0.70992584190E+02  0.75757750205E+02  0.00000000000E+00 0.  1.
         11    1    1    2    0    0 -0.11064982019E+02 -0.26328338903E+01 -0.47940558086E+00  0.11384000662E+02  0.00000000000E+00 0. -1.
</event>
<event>
 7    1  0.6992302E-006  0.9535227E+02  0.7561462E-02  0.1290385E+00
          2   -1    0    0  501    0  0.00000000000E+00  0.00000000000E+00  0.25826544910E+02  0.25826544910E+02  0.00000000000E+00 0. -1.
         -2   -1    0    0    0  501 -0.00000000000E+00 -0.00000000000E+00 -0.55412720724E+03  0.55412720724E+03  0.00000000000E+00 0.  1.
         23    2    1    2    0    0  0.30568654020E+02 -0.30165381158E+02 -0.40834072820E+03  0.42922433921E+03  0.12508793004E+03 0.  0.
          5    1    3    3  502    0 -0.58029015961E+01 -0.66222719250E+02 -0.32143298744E+03  0.32826172489E+03  0.41800000000E+01 0.  1.
         -5    1    3    3    0  502  0.36371555616E+02  0.36057338092E+02 -0.86907740758E+02  0.10096261433E+03  0.41800000000E+01 0.  1.
        -11    1    1    2    0    0 -0.44730862419E+02  0.65967224941E+01 -0.24577490868E+02  0.51462800718E+02  0.00000000000E+00 0. -1.
         11    1    1    2    0    0  0.14162208398E+02  0.23568658664E+02 -0.95382443261E+02  0.99266612214E+02  0.00000000000E+00 0.  1.
</event>
<event>
 7    1  0.6992302E-006  0.1097623E+03  0.7561462E-02  0.1261011E+00
          2   -1    0    0  501    0  0.00000000000E+00  0.00000000000E+00  0.35743210324E+02  0.35743210324E+02  0.00000000000E+00 0. -1.
         -2   -1    0    0    0  501 -0.00000000000E+00 -0.00000000000E+00 -0.41029400858E+03  0.41029400858E+03  0.00000000000E+00 0.  1.
         23    2    1    2    0    0 -0.11797179226E+02 -0.37656548955E+02 -0.24662440306E+03  0.27933464979E+03  0.12508821397E+03 0.  0.
          5    1    3    3  502    0 -0.68080042849E+02 -0.28262127396E+02 -0.13302230821E+03  0.15213824950E+03  0.41800000000E+01 0. -1.
         -5    1    3    3    0  502  0.56282863623E+02 -0.93944215586E+01 -0.11360209485E+03  0.12719640030E+03  0.41800000000E+01 0. -1.
        -11    1    1    2    0    0 -0.30452064208E+02 -0.20208852143E+01 -0.95566653672E+02  0.10032147071E+03  0.00000000000E+00 0.  1.
         11    1    1    2    0    0  0.42249243435E+02  0.39677434169E+02 -0.32359741526E+02  0.66381098399E+02  0.00000000000E+00 0. -1.
</event>
<event>
 7    1  0.6992302E-006  0.1140961E+03  0.7561462E-02  0.1253167E+00
         -2   -1    0    0    0  501 -0.00000000000E+00  0.00000000000E+00  0.10210549923E+03  0.10210549923E+03  0.00000000000E+00 0. -1.
          2   -1    0    0  501    0  0.00000000000E+00 -0.00000000000E+00 -0.23932127605E+03  0.23932127605E+03  0.00000000000E+00 0.  1.
         23    2    1    2    0    0  0.82686574681E+01  0.38988890779E+02  0.40901744864E+02  0.13751215902E+03  0.12509251314E+03 0.  0.
          5    1    3    3  502    0 -0.54317387063E+02 -0.49413525549E+01  0.17777840356E+02  0.57517992925E+02  0.41800000000E+01 0.  1.
         -5    1    3    3    0  502  0.62586044531E+02  0.43930243334E+02  0.23123904508E+02  0.79994166094E+02  0.41800000000E+01 0.  1.
        -11    1    1    2    0    0  0.37122225708E+02 -0.73428967548E-01 -0.90734766380E+02  0.98035008356E+02  0.00000000000E+00 0. -1.
         11    1    1    2    0    0 -0.45390883176E+02 -0.38915461812E+02 -0.87382755306E+02  0.10587960790E+03  0.00000000000E+00 0.  1.
</event>
<event>
 7    1  0.6992302E-006  0.1147870E+03  0.7561462E-02  0.1251953E+00
          1   -1    0    0  501    0  0.00000000000E+00  0.00000000000E+00  0.17158267577E+03  0.17158267577E+03  0.00000000000E+00 0. -1.
         -1   -1    0    0    0  501 -0.00000000000E+00 -0.00000000000E+00 -0.12077156007E+03  0.12077156007E+03  0.00000000000E+00 0.  1.
         23    2    1    2    0    0  0.48561372460E+02  0.70721119718E+02 -0.10563493997E+02  0.15204232140E+03  0.12508235856E+03 0.  0.
          5    1    3    3  502    0  0.75219527641E+02  0.52682389457E+02  0.33038675150E+02  0.97685402969E+02  0.41800000000E+01 0. -1.
         -5    1    3    3    0  502 -0.26658155182E+02  0.18038730262E+02 -0.43602169147E+02  0.54356918433E+02  0.41800000000E+01 0. -1.
        -11    1    1    2    0    0 -0.90062738189E+01 -0.64524165606E+02 -0.21927492788E+01  0.65186571199E+02  0.00000000000E+00 0.  1.
         11    1    1    2    0    0 -0.39555098641E+02 -0.61969541123E+01  0.63567358978E+02  0.75125343235E+02  0.00000000000E+00 0. -1.
</event>
<event>
 7    1  0.6992302E-006  0.1106840E+03  0.7561462E-02  0.1259308E+00
         -1   -1    0    0    0  501 -0.00000000000E+00  0.00000000000E+00  0.10273582894E+03  0.10273582894E+03  0.00000000000E+00 0.  1.
          1   -1    0    0  501    0  0.00000000000E+00 -0.00000000000E+00 -0.16615495681E+03  0.16615495681E+03  0.00000000000E+00 0. -1.
         23    2    1    2    0    0  0.62680845804E+02  0.16025670135E+02 -0.67719301751E+00  0.14086620003E+03  0.12512840280E+03 0.  0.
          5    1    3    3  502    0 -0.31608198668E+02 -0.21069746708E+02  0.81404808700E+01  0.39073677561E+02  0.41800000000E+01 0. -1.
         -5    1    3    3    0  502  0.94289044472E+02  0.37095416843E+02 -0.88176738876E+01  0.10179252247E+03  0.41800000000E+01 0. -1.
        -11    1    1    2    0    0 -0.55298512037E+02  0.86631264961E+01  0.43622239863E+01  0.56142712727E+02  0.00000000000E+00 0.  1.
         11    1    1    2    0    0 -0.73823337666E+01 -0.24688796631E+02 -0.67104158839E+02  0.71881872989E+02  0.00000000000E+00 0. -1.
</event>
<event>
 7    1  0.6992302E-006  0.9421586E+02  0.7561462E-02  0.1292952E+00
         -2   -1    0    0    0  501 -0.00000000000E+00  0.00000000000E+00  0.79269467362E+03  0.79269467362E+03  0.00000000000E+00 0.  1.
          2   -1    0    0  501    0  0.00000000000E+00 -0.00000000000E+00 -0.20759207691E+02  0.20759207691E+02  0.00000000000E+00 0. -1.
         23    2    1    2    0    0  0.17115024980E+00 -0.46363233445E+02  0.58804411645E+03  0.60298692755E+03  0.12509105965E+03 0.  0.
          5    1    3    3  502    0  0.54667552687E+02 -0.40250420307E+01  0.15503854809E+03  0.16449670536E+03  0.41800000000E+01 0.  1.
         -5    1    3    3    0  502 -0.54496402437E+02 -0.42338191414E+02  0.43300556836E+03  0.43849022220E+03  0.41800000000E+01 0.  1.
        -11    1    1    2    0    0  0.22172287126E+02  0.21335182270E+02  0.17221568065E+03  0.17494296493E+03  0.00000000000E+00 0.  1.
         11    1    1    2    0    0 -0.22343437376E+02  0.25028051175E+02  0.11675668835E+02  0.35523988826E+02  0.00000000000E+00 0. -1.
</event>
<event>
 7    1  0.6992302E-006  0.2073231E+03  0.7561462E-02  0.1143703E+00
          2   -1    0    0  501    0  0.00000000000E+00  0.00000000000E+00  0.17011727073E+03  0.17011727073E+03  0.00000000000E+00 0. -1.
         -2   -1    0    0    0  501 -0.00000000000E+00 -0.00000000000E+00 -0.32372540962E+03  0.32372540962E+03  0.00000000000E+00 0.  1.
         23    2    1    2    0    0 -0.14895885414E+03 -0.13938998553E+03 -0.12208942585E+03  0.26864719294E+03  0.12508868084E+03 0.  0.
          5    1    3    3  502    0 -0.12106962181E+03 -0.11226630079E+03 -0.29028632806E+02  0.16769528777E+03  0.41800000000E+01 0. -1.
         -5    1    3    3    0  502 -0.27889232328E+02 -0.27123684740E+02 -0.93060793044E+02  0.10095190516E+03  0.41800000000E+01 0. -1.
        -11    1    1    2    0    0  0.79708222111E+02  0.39901635360E+02 -0.50580679906E+02  0.10248876210E+03  0.00000000000E+00 0.  1.
         11    1    1    2    0    0  0.69250632028E+02  0.99488350172E+02  0.19061966869E+02  0.12270672531E+03  0.00000000000E+00 0. -1.
</event>
<event>
 7    1  0.6992302E-006  0.1272354E+03  0.7561462E-02  0.1231617E+00
          2   -1    0    0  501    0  0.00000000000E+00  0.00000000000E+00  0.24192822615E+03  0.24192822615E+03  0.00000000000E+00 0. -1.
         -2   -1    0    0    0  501 -0.00000000000E+00 -0.00000000000E+00 -0.81626291295E+02  0.81626291295E+02  0.00000000000E+00 0.  1.
         23    2    1    2    0    0  0.57971571669E+02  0.69656947046E+02  0.47230944331E+02  0.16153082306E+03  0.12509456943E+03 0.  0.
          5    1    3    3  502    0  0.61959882317E+01  0.84711196970E+02 -0.65091451857E+01  0.85289029384E+02  0.41800000000E+01 0. -1.
         -5    1    3    3    0  502  0.51775583437E+02 -0.15054249924E+02  0.53740089517E+02  0.76241793672E+02  0.41800000000E+01 0. -1.
        -11    1    1    2    0    0  0.98702062328E+01 -0.40189653031E+02  0.49265916746E+02  0.64340964670E+02  0.00000000000E+00 0. -1.
         11    1    1    2    0    0 -0.67841777901E+02 -0.29467294015E+02  0.63805073779E+02  0.97682729719E+02  0.00000000000E+00 0.  1.
</event>
<event>
 7    1  0.6992302E-006  0.1237218E+03  0.7561462E-02  0.1237081E+00
          1   -1    0    0  501    0  0.00000000000E+00  0.00000000000E+00  0.45518766789E+03  0.45518766789E+03  0.00000000000E+00 0. -1.
         -1   -1    0    0    0  501 -0.00000000000E+00 -0.00000000000E+00 -0.37758954992E+02  0.37758954992E+02  0.00000000000E+00 0.  1.
         23    2    1    2    0    0  0.72002967401E+02 -0.44775176664E+02  0.23871553689E+03  0.28252740571E+03  0.12508950262E+03 0.  0.
          5    1    3    3  502    0  0.84140773498E+02  0.18372540601E+02  0.12568661306E+03  0.15241987113E+03  0.41800000000E+01 0.  1.
         -5    1    3    3    0  502 -0.12137806097E+02 -0.63147717265E+02  0.11302892383E+03  0.13010753458E+03  0.41800000000E+01 0.  1.
        -11    1    1    2    0    0 -0.43999438905E+02  0.36603277937E-01  0.31730474373E+02  0.54247349868E+02  0.00000000000E+00 0.  1.
         11    1    1    2    0    0 -0.28003528496E+02  0.44738573386E+02  0.14698270164E+03  0.15617186731E+03  0.00000000000E+00 0. -1.
</event>
<event>
 7    1  0.6992302E-006  0.8509333E+02  0.7561462E-02  0.1315189E+00
         -1   -1    0    0    0  501 -0.00000000000E+00  0.00000000000E+00  0.26628621669E+02  0.26628621669E+02  0.00000000000E+00 0.  1.
          1   -1    0    0  501    0  0.00000000000E+00 -0.00000000000E+00 -0.46978447274E+03  0.46978447274E+03  0.00000000000E+00 0. -1.
         23    2    1    2    0    0 -0.26137211129E+02 -0.10218655253E+02 -0.21600992400E+03  0.25118728525E+03  0.12508872964E+03 0.  0.
          5    1    3    3  502    0  0.13687812896E+02  0.22261370288E+02  0.25877220375E+01  0.26591230403E+02  0.41800000000E+01 0. -1.
         -5    1    3    3    0  502 -0.39825024025E+02 -0.32480025541E+02 -0.21859764604E+03  0.22459605485E+03  0.41800000000E+01 0. -1.
        -11    1    1    2    0    0  0.51642924796E+02 -0.17467958273E+02 -0.14316641473E+03  0.15319511596E+03  0.00000000000E+00 0. -1.
         11    1    1    2    0    0 -0.25505713667E+02  0.27686613526E+02 -0.83979512331E+02  0.92030693193E+02  0.00000000000E+00 0.  1.
</event>
<event>
 7    1  0.6992302E-006  0.2188535E+03  0.7561462E-02  0.1134741E+00
         -2   -1    0    0    0  501 -0.00000000000E+00  0.00000000000E+00  0.39464533887E+02  0.39464533887E+02  0.00000000000E+00 0. -1.
          2   -1    0    0  501    0  0.00000000000E+00 -0.00000000000E+00 -0.13238049928E+04  0.13238049928E+04  0.00000000000E+00 0.  1.
         23    2    1    2    0    0  0.42043917331E+02 -0.19574305425E+03 -0.67945636557E+03  0.71930024497E+03  0.12509538529E+03 0.  0.
          5    1    3    3  502    0  0.77252484433E+02 -0.13461522800E+03 -0.35885721901E+03  0.39100534779E+03  0.41800000000E+01 0. -1.
         -5    1    3    3    0  502 -0.35208567101E+02 -0.61127826247E+02 -0.32059914656E+03  0.32829489718E+03  0.41800000000E+01 0. -1.
        -11    1    1    2    0    0 -0.40524778510E+02  0.43221117515E+02 -0.26319471596E+03  0.26978098743E+03  0.00000000000E+00 0.  1.
         11    1    1    2    0    0 -0.15191388215E+01  0.15252193673E+03 -0.34168937741E+03  0.37418829431E+03  0.00000000000E+00 0. -1.
</event>
<event>
 7    1  0.6992302E-006  0.8005179E+02  0.7561462E-02  0.1328905E+00
         -2   -1    0    0    0  501 -0.00000000000E+00  0.00000000000E+00  0.68181847646E+03  0.68181847646E+03  0.00000000000E+00 0.  1.
          2   -1    0    0  501    0  0.00000000000E+00 -0.00000000000E+00 -0.22570799538E+02  0.22570799538E+02  0.00000000000E+00 0. -1.
         23    2    1    2    0    0  0.17034414920E+02 -0.99582525280E+01  0.46687404603E+03  0.48162233403E+03  0.11661629258E+03 0.  0.
          5    1    3    3  502    0  0.37818376691E+02 -0.38305141866E+02  0.10544119787E+03  0.11846025544E+03  0.41800000000E+01 0. -1.
         -5    1    3    3    0  502 -0.20783961771E+02  0.28346889339E+02  0.36143284815E+03  0.36316207859E+03  0.41800000000E+01 0.  1.
        -11    1    1    2    0    0 -0.55666210294E+01 -0.29296057831E+02  0.40972751657E+01  0.30100397637E+02  0.00000000000E+00 0. -1.
         11    1    1    2    0    0 -0.11467793890E+02  0.39254310359E+02  0.18827635573E+03  0.19266654433E+03  0.00000000000E+00 0.  1.
</event>
<event>
 7    1  0.6992302E-006  0.6504015E+02  0.7561462E-02  0.1377821E+00
          1   -1    0    0  501    0  0.00000000000E+00  0.00000000000E+00  0.45863198098E+02  0.45863198098E+02  0.00000000000E+00 0. -1.
         -1   -1    0    0    0  501 -0.00000000000E+00 -0.00000000000E+00 -0.26918398562E+03  0.26918398562E+03  0.00000000000E+00 0.  1.
         23    2    1    2    0    0 -0.73020482502E+01  0.16344003186E+02 -0.13827942196E+03  0.18732184526E+03  0.12509128197E+03 0.  0.
          5    1    3    3  502    0 -0.25671862435E+02 -0.53914292139E+00  0.16290751308E+02  0.30695214190E+02  0.41800000000E+01 0.  1.
         -5    1    3    3    0  502  0.18369814184E+02  0.16883146107E+02 -0.15457017327E+03  0.15662663107E+03  0.41800000000E+01 0.  1.
        -11    1    1    2    0    0  0.38122973297E+02  0.86425911326E+01 -0.63577468188E+01  0.39603994989E+02  0.00000000000E+00 0. -1.
         11    1    1    2    0    0 -0.30820925047E+02 -0.24986594318E+02 -0.78683618741E+02  0.88121343467E+02  0.00000000000E+00 0.  1.
</event>
<event>
 7    1  0.6992302E-006  0.1091851E+03  0.7561462E-02  0.1262086E+00
         -2   -1    0    0    0  501 -0.00000000000E+00  0.00000000000E+00  0.32465810996E+03  0.32465810996E+03  0.00000000000E+00 0.  1.
          2   -1    0    0  501    0  0.00000000000E+00 -0.00000000000E+00 -0.55355247719E+02  0.55355247719E+02  0.00000000000E+00 0. -1.
         23    2    1    2    0    0 -0.22659412426E+02 -0.74580182139E+02  0.14662804038E+03  0.20789584212E+03  0.12508095941E+03 0.  0.
          5    1    3    3  502    0 -0.32715839365E+02 -0.96781948430E+02  0.61655924348E+02  0.11939848029E+03  0.41800000000E+01 0. -1.
         -5    1    3    3    0  502  0.10056426939E+02  0.22201766290E+02  0.84972116028E+02  0.88497361834E+02  0.41800000000E+01 0. -1.
        -11    1    1    2    0    0  0.36067794102E+02  0.66737280634E+02  0.13324652615E+03  0.15332771155E+03  0.00000000000E+00 0.  1.
         11    1    1    2    0    0 -0.13408381676E+02  0.78429015050E+01 -0.10571704287E+02  0.18789804010E+02  0.00000000000E+00 0. -1.
</event>
<event>
 7    1  0.6992302E-006  0.1000484E+03  0.7561462E-02  0.1280194E+00
         -1   -1    0    0    0  501 -0.00000000000E+00  0.00000000000E+00  0.27415786708E+03  0.27415786708E+03  0.00000000000E+00 0.  1.
          1   -1    0    0  501    0  0.00000000000E+00 -0.00000000000E+00 -0.62566983831E+02  0.62566983831E+02  0.00000000000E+00 0. -1.
         23    2    1    2    0    0  0.65326827510E+02  0.22882002877E+02  0.14371723011E+03  0.20271553612E+03  0.12509103048E+03 0.  0.
          5    1    3    3  502    0  0.26336662191E+02 -0.16379098316E+02 -0.14908229792E+02  0.34664424884E+02  0.41800000000E+01 0.  1.
         -5    1    3    3    0  502  0.38990165319E+02  0.39261101193E+02  0.15862545991E+03  0.16805111124E+03  0.41800000000E+01 0.  1.
        -11    1    1    2    0    0  0.10495941927E+02 -0.34988333401E+02  0.34643147690E+02  0.50343777699E+02  0.00000000000E+00 0. -1.
         11    1    1    2    0    0 -0.75822769437E+02  0.12106330524E+02  0.33230505440E+02  0.83665537084E+02  0.00000000000E+00 0.  1.
</event>
<event>
 7    1  0.8866693E-006  0.3908203E+03  0.7561462E-02  0.1047005E+00
         -1   -1    0    0    0  501 -0.00000000000E+00  0.00000000000E+00  0.82544311381E+02  0.82544311381E+02  0.00000000000E+00 0.  1.
          1   -1    0    0  501    0  0.00000000000E+00 -0.00000000000E+00 -0.21729763891E+04  0.21729763891E+04  0.00000000000E+00 0. -1.
         23    2    1    2    0    0  0.10482290685E+03  0.36162353278E+03 -0.62776902444E+03  0.74263039122E+03  0.12508608499E+03 0.  0.
          5    1    3    3  502    0  0.96123690676E+02  0.11892346921E+03 -0.21880502718E+03  0.26697503209E+03  0.41800000000E+01 0.  1.
         -5    1    3    3    0  502  0.86992161695E+01  0.24270006357E+03 -0.40896399726E+03  0.47565535913E+03  0.41800000000E+01 0.  1.
        -11    1    1    2    0    0 -0.42349309817E+02 -0.27899166019E+03 -0.10249470051E+04  0.10630833334E+04  0.00000000000E+00 0.  1.
         11    1    1    2    0    0 -0.62473597028E+02 -0.82631872596E+02 -0.43771604819E+03  0.44980697586E+03  0.00000000000E+00 0. -1.
</event>
<event>
 7    1  0.6992302E-006  0.7258661E+02  0.7561462E-02  0.1351512E+00
          4   -1    0    0  501    0  0.00000000000E+00  0.00000000000E+00  0.11661971031E+03  0.11661971031E+03  0.00000000000E+00 0. -1.
         -4   -1    0    0    0  501 -0.00000000000E+00 -0.00000000000E+00 -0.97597284455E+02  0.97597284455E+02  0.00000000000E+00 0.  1.
         23    2    1    2    0    0  0.34751432638E+02 -0.25624671232E+02  0.11264211256E+01  0.13233203818E+03  0.12508482585E+03 0.  0.
          5    1    3    3  502    0  0.12646741722E+02 -0.37548840384E+02  0.57800495528E+02  0.70201318889E+02  0.41800000000E+01 0.  1.
         -5    1    3    3    0  502  0.22104690916E+02  0.11924169152E+02 -0.56674074403E+02  0.62130719293E+02  0.41800000000E+01 0.  1.
        -11    1    1    2    0    0  0.14186401096E+02 -0.11647574353E+02  0.31007175907E+01  0.18615434831E+02  0.00000000000E+00 0. -1.
         11    1    1    2    0    0 -0.48937833734E+02  0.37272245585E+02  0.14795287140E+02  0.63269521755E+02  0.00000000000E+00 0.  1.
</event>
<event>
 7    1  0.6992302E-006  0.1149368E+03  0.7561462E-02  0.1251691E+00
          2   -1    0    0  501    0  0.00000000000E+00  0.00000000000E+00  0.13297037673E+03  0.13297037673E+03  0.00000000000E+00 0. -1.
         -2   -1    0    0    0  501 -0.00000000000E+00 -0.00000000000E+00 -0.13870347240E+03  0.13870347240E+03  0.00000000000E+00 0.  1.
         23    2    1    2    0    0 -0.23485274740E+02  0.43122506915E+02 -0.69424404893E+02  0.15125497831E+03  0.12508881540E+03 0.  0.
          5    1    3    3  502    0 -0.40389583300E+02  0.82094624912E+02 -0.44510944847E+02  0.10183095055E+03  0.41800000000E+01 0.  1.
         -5    1    3    3    0  502  0.16904308560E+02 -0.38972117997E+02 -0.24913460046E+02  0.49424027765E+02  0.41800000000E+01 0.  1.
        -11    1    1    2    0    0  0.53695409016E+02 -0.19058609533E+02  0.16261346540E+02  0.59252501534E+02  0.00000000000E+00 0.  1.
         11    1    1    2    0    0 -0.30210134276E+02 -0.24063897382E+02  0.47429962682E+02  0.61166369274E+02  0.00000000000E+00 0. -1.
</event>
<event>
 7    1  0.6992302E-006  0.1599514E+03  0.7561462E-02  0.1188752E+00
          1   -1    0    0  501    0  0.00000000000E+00  0.00000000000E+00  0.86127302633E+02  0.86127302633E+02  0.00000000000E+00 0. -1.
         -1   -1    0    0    0  501 -0.00000000000E+00 -0.00000000000E+00 -0.34067846107E+03  0.34067846107E+03  0.00000000000E+00 0.  1.
         23    2    1    2    0    0 -0.11677388942E+03  0.61471156128E+02 -0.14511892052E+03  0.23263907235E+03  0.12508634061E+03 0.  0.
          5    1    3    3  502    0 -0.78115413534E+02  0.99916336133E+02 -0.95734640357E+02  0.15895875510E+03  0.41800000000E+01 0.  1.
         -5    1    3    3    0  502 -0.38658475883E+02 -0.38445180006E+02 -0.49384280164E+02  0.73680317253E+02  0.41800000000E+01 0.  1.
        -11    1    1    2    0    0  0.89465615382E+02 -0.25244728425E+02 -0.11564713726E+03  0.14837672663E+03  0.00000000000E+00 0.  1.
         11    1    1    2    0    0  0.27308274035E+02 -0.36226427702E+02  0.62148993488E+01  0.45789964717E+02  0.00000000000E+00 0. -1.
</event>
<event>
 7    1  0.1498202E-005  0.3377356E+03  0.7561462E-02  0.1067764E+00
          1   -1    0    0  501    0  0.00000000000E+00  0.00000000000E+00  0.14962466910E+04  0.14962466910E+04  0.00000000000E+00 0. -1.
         -1   -1    0    0    0  501 -0.00000000000E+00 -0.00000000000E+00 -0.77533978413E+02  0.77533978413E+02  0.00000000000E+00 0.  1.
         23    2    1    2    0    0  0.32371663583E+03  0.94217989847E+00  0.71919530465E+03  0.79855027394E+03  0.12508919123E+03 0.  0.
          5    1    3    3  502    0 -0.66419246835E+01  0.91113208410E+01  0.83623999352E+01  0.14646960901E+02  0.41800000000E+01 0.  1.
         -5    1    3    3    0  502  0.33035856052E+03 -0.81691409426E+01  0.71083290471E+03  0.78390331304E+03  0.41800000000E+01 0.  1.
        -11    1    1    2    0    0 -0.22558322685E+03  0.35339344150E+02  0.50916878188E+03  0.55802285788E+03  0.00000000000E+00 0.  1.
         11    1    1    2    0    0 -0.98133408979E+02 -0.36281524049E+02  0.19034862611E+03  0.21720753764E+03  0.00000000000E+00 0. -1.
</event>
<event>
 7    1  0.6992302E-006  0.9750081E+02  0.7561462E-02  0.1285641E+00
         -2   -1    0    0    0  501 -0.00000000000E+00  0.00000000000E+00  0.10616522634E+03  0.10616522634E+03  0.00000000000E+00 0.  1.
          2   -1    0    0  501    0  0.00000000000E+00 -0.00000000000E+00 -0.16606209765E+03  0.16606209765E+03  0.00000000000E+00 0. -1.
         23    2    1    2    0    0  0.29125951790E+02 -0.17794328765E+02  0.37260720872E+02  0.13494966599E+03  0.12513229730E+03 0.  0.
          5    1    3    3  502    0  0.67606876345E+02  0.23762466246E+02  0.29591060509E+02  0.77643079493E+02  0.41800000000E+01 0.  1.
         -5    1    3    3    0  502 -0.38480924555E+02 -0.41556795011E+02  0.76696603636E+01  0.57306586500E+02  0.41800000000E+01 0.  1.
        -11    1    1    2    0    0 -0.24647766169E+02 -0.17894623903E+02 -0.96617444016E+02  0.10130478977E+03  0.00000000000E+00 0. -1.
         11    1    1    2    0    0 -0.44781856211E+01  0.35688952668E+02 -0.54014816676E+00  0.35972868234E+02  0.00000000000E+00 0.  1.
</event>
<event>
 7    1  0.6992302E-006  0.1105772E+03  0.7561462E-02  0.1259505E+00
         -1   -1    0    0    0  501 -0.00000000000E+00  0.00000000000E+00  0.29737440877E+03  0.29737440877E+03  0.00000000000E+00 0.  1.
          1   -1    0    0  501    0  0.00000000000E+00 -0.00000000000E+00 -0.63755092852E+02  0.63755092852E+02  0.00000000000E+00 0. -1.
         23    2    1    2    0    0 -0.77431772156E+02 -0.19333136603E+02  0.16046186605E+03  0.21855217085E+03  0.12509033303E+03 0.  0.
          5    1    3    3  502    0 -0.48283609759E+02 -0.43013107827E+02  0.16796220942E+03  0.18002836057E+03  0.41800000000E+01 0. -1.
         -5    1    3    3    0  502 -0.29148162397E+02  0.23679971223E+02 -0.75003433635E+01  0.38523810284E+02  0.41800000000E+01 0. -1.
        -11    1    1    2    0    0  0.28324343652E+02  0.52261390064E+02  0.54317907077E+02  0.80523017603E+02  0.00000000000E+00 0.  1.
         11    1    1    2    0    0  0.49107428504E+02 -0.32928253460E+02  0.18839542789E+02  0.62054313167E+02  0.00000000000E+00 0. -1.
</event>
<event>
 7    1  0.6992302E-006  0.1309945E+03  0.7561462E-02  0.1225987E+00
         -3   -1    0    0    0  501 -0.00000000000E+00  0.00000000000E+00  0.25114945962E+03  0.25114945962E+03  0.00000000000E+00 0.  1.
          3   -1    0    0  501    0  0.00000000000E+00 -0.00000000000E+00 -0.83226273772E+02  0.83226273772E+02  0.00000000000E+00 0. -1.
         23    2    1    2    0    0 -0.41469383209E+02 -0.66921251834E+02  0.15448362438E+03  0.21380000960E+03  0.12508832963E+03 0.  0.
          5    1    3    3  502    0 -0.84070315150E+02 -0.33733100932E+02  0.11655511803E+03  0.14767636211E+03  0.41800000000E+01 0.  1.
         -5    1    3    3    0  502  0.42600931941E+02 -0.33188150902E+02  0.37928506355E+02  0.66123647487E+02  0.41800000000E+01 0.  1.
        -11    1    1    2    0    0  0.40022415407E+02 -0.91523411368E+01  0.16927832748E+02  0.44408451953E+02  0.00000000000E+00 0.  1.
         11    1    1    2    0    0  0.14469678019E+01  0.76073592971E+02 -0.34882712808E+01  0.76167271842E+02  0.00000000000E+00 0. -1.
</event>
<event>
 7    1  0.6992302E-006  0.1385794E+03  0.7561462E-02  0.1215253E+00
         -3   -1    0    0    0  501 -0.00000000000E+00  0.00000000000E+00  0.21993884592E+03  0.21993884592E+03  0.00000000000E+00 0.  1.
          3   -1    0    0  501    0  0.00000000000E+00 -0.00000000000E+00 -0.11333841107E+03  0.11333841107E+03  0.00000000000E+00 0. -1.
         23    2    1    2    0    0  0.95047862452E+02  0.62918560259E+02  0.62402364064E+02  0.18037228434E+03  0.12508902644E+03 0.  0.
          5    1    3    3  502    0  0.96316795184E+02  0.87656484281E+02  0.76967794152E+02  0.15133439136E+03  0.41800000000E+01 0.  1.
         -5    1    3    3    0  502 -0.12689327316E+01 -0.24737924023E+02 -0.14565430088E+02  0.29037892983E+02  0.41800000000E+01 0.  1.
        -11    1    1    2    0    0 -0.47565436891E+02 -0.56448980157E+02  0.67132564957E+02  0.99778451708E+02  0.00000000000E+00 0.  1.
         11    1    1    2    0    0 -0.47482425561E+02 -0.64695801014E+01 -0.22934494174E+02  0.53126520937E+02  0.00000000000E+00 0. -1.
</event>
<event>
 7    1  0.6992302E-006  0.1336540E+03  0.7561462E-02  0.1222132E+00
          2   -1    0    0  501    0  0.00000000000E+00  0.00000000000E+00  0.50096353129E+02  0.50096353129E+02  0.00000000000E+00 0. -1.
         -2   -1    0    0    0  501 -0.00000000000E+00 -0.00000000000E+00 -0.44237728114E+03  0.44237728114E+03  0.00000000000E+00 0.  1.
         23    2    1    2    0    0 -0.52499354769E+02  0.70379280495E+02 -0.28528082855E+03  0.32363491590E+03  0.12507990358E+03 0.  0.
          5    1    3    3  502    0  0.46347997991E+01  0.84397177002E+02 -0.11057687307E+03  0.13924468432E+03  0.41800000000E+01 0. -1.
         -5    1    3    3    0  502 -0.57134154568E+02 -0.14017896507E+02 -0.17470395548E+03  0.18439023158E+03  0.41800000000E+01 0. -1.
        -11    1    1    2    0    0  0.35604973873E+02  0.13545834390E+02 -0.98423781162E+01  0.39345599510E+02  0.00000000000E+00 0. -1.
         11    1    1    2    0    0  0.16894380896E+02 -0.83925114885E+02 -0.97157721347E+02  0.12949311886E+03  0.00000000000E+00 0.  1.
</event>
<event>
 7    1  0.6992302E-006  0.1282697E+03  0.7561462E-02  0.1230046E+00
          1   -1    0    0  501    0  0.00000000000E+00  0.00000000000E+00  0.10537904896E+03  0.10537904896E+03  0.00000000000E+00 0. -1.
         -1   -1    0    0    0  501 -0.00000000000E+00 -0.00000000000E+00 -0.18538721436E+03  0.18538721436E+03  0.00000000000E+00 0.  1.
         23    2    1    2    0    0 -0.46817266516E+01 -0.81684452376E+02 -0.13497725751E+02  0.15006952775E+03  0.12507760085E+03 0.  0.
          5    1    3    3  502    0  0.59124138312E+02 -0.27999008685E+02 -0.37432468760E+00  0.65553190140E+02  0.41800000000E+01 0. -1.
         -5    1    3    3    0  502 -0.63805864964E+02 -0.53685443691E+02 -0.13123401063E+02  0.84516337613E+02  0.41800000000E+01 0. -1.
        -11    1    1    2    0    0  0.34097991977E+02  0.20968290326E+02  0.73092892765E+01  0.40691128833E+02  0.00000000000E+00 0. -1.
         11    1    1    2    0    0 -0.29416265325E+02  0.60716162051E+02 -0.73819728920E+02  0.10000560673E+03  0.00000000000E+00 0.  1.
</event>
<event>
 7    1  0.6992302E-006  0.1454931E+03  0.7561462E-02  0.1206123E+00
          1   -1    0    0  501    0  0.00000000000E+00  0.00000000000E+00  0.13914341970E+03  0.13914341970E+03  0.00000000000E+00 0. -1.
         -1   -1    0    0    0  501 -0.00000000000E+00 -0.00000000000E+00 -0.18403841783E+03  0.18403841783E+03  0.00000000000E+00 0.  1.
         23    2    1    2    0    0 -0.97692273606E+02  0.34501494839E+02 -0.79458153751E+02  0.18081878299E+03  0.12509076950E+03 0.  0.
          5    1    3    3  502    0 -0.99630416580E+02 -0.24951948428E+02 -0.50537798819E+02  0.11454414497E+03  0.41800000000E+01 0.  1.
         -5    1    3    3    0  502  0.19381429736E+01  0.59453443268E+02 -0.28920354932E+02  0.66274638015E+02  0.41800000000E+01 0.  1.
        -11    1    1    2    0    0  0.40121730051E+02  0.23780960753E+02  0.38307980846E+02  0.60355519326E+02  0.00000000000E+00 0.  1.
         11    1    1    2    0    0  0.57570543555E+02 -0.58282455592E+02 -0.37448252274E+01  0.82007535209E+02  0.00000000000E+00 0. -1.
</event>
<event>
 7    1  0.6992302E-006  0.6949397E+02  0.7561462E-02  0.1361822E+00
          3   -1    0    0  501    0  0.00000000000E+00  0.00000000000E+00  0.40243623827E+02  0.40243623827E+02  0.00000000000E+00 0. -1.
         -3   -1    0    0    0  501 -0.00000000000E+00 -0.00000000000E+00 -0.39208483541E+03  0.39208483541E+03  0.00000000000E+00 0.  1.
         23    2    1    2    0    0  0.43541625498E+02 -0.41274743393E+02 -0.22574242411E+03  0.26496624732E+03  0.12509193653E+03 0.  0.
          5    1    3    3  502    0  0.10190769102E+02 -0.41368548322E+02 -0.66652145958E+01  0.43325581944E+02  0.41800000000E+01 0. -1.
         -5    1    3    3    0  502  0.33350856396E+02  0.93804929234E-01 -0.21907720951E+03  0.22164066538E+03  0.41800000000E+01 0. -1.
        -11    1    1    2    0    0 -0.33170912294E+02  0.40231855023E+02 -0.14034023354E+03  0.14971403652E+03  0.00000000000E+00 0.  1.
         11    1    1    2    0    0 -0.10370713204E+02  0.10428883698E+01  0.14241446069E+02  0.17648175392E+02  0.00000000000E+00 0. -1.
</event>
<event>
 7    1  0.6992302E-006  0.1204760E+03  0.7561462E-02  0.1242314E+00
         -1   -1    0    0    0  501 -0.00000000000E+00  0.00000000000E+00  0.53417739263E+02  0.53417739263E+02  0.00000000000E+00 0.  1.
          1   -1    0    0  501    0  0.00000000000E+00 -0.00000000000E+00 -0.49286128674E+03  0.49286128674E+03  0.00000000000E+00 0. -1.
         23    2    1    2    0    0 -0.96387746462E+01 -0.11895434569E+03 -0.20328207158E+03  0.26686055631E+03  0.12509162064E+03 0.  0.
          5    1    3    3  502    0 -0.31305762945E+01 -0.10972014430E+02  0.17301856851E+02  0.21142664427E+02  0.41800000000E+01 0. -1.
         -5    1    3    3    0  502 -0.65081983517E+01 -0.10798233126E+03 -0.22058392843E+03  0.24571789188E+03  0.41800000000E+01 0. -1.
        -11    1    1    2    0    0  0.62645078739E+01  0.12024021711E+02  0.58870668360E+01  0.14781025436E+02  0.00000000000E+00 0.  1.
         11    1    1    2    0    0  0.33742667722E+01  0.10693032398E+03 -0.24204854273E+03  0.26463744425E+03  0.00000000000E+00 0. -1.
</event>
<event>
 7    1  0.6992302E-006  0.1550658E+03  0.7561462E-02  0.1194383E+00
         -2   -1    0    0    0  501 -0.00000000000E+00  0.00000000000E+00  0.70568130848E+02  0.70568130848E+02  0.00000000000E+00 0.  1.
          2   -1    0    0  501    0  0.00000000000E+00 -0.00000000000E+00 -0.62340620517E+03  0.62340620517E+03  0.00000000000E+00 0. -1.
         23    2    1    2    0    0  0.12340657140E+03 -0.67975493810E+02 -0.10513711606E+03  0.21575688523E+03  0.12508945091E+03 0.  0.
          5    1    3    3  502    0  0.12268378338E+03 -0.25868477728E+02 -0.29170890506E+02  0.12879791185E+03  0.41800000000E+01 0. -1.
         -5    1    3    3    0  502  0.72278801864E+00 -0.42107016081E+02 -0.75966225559E+02  0.86958973381E+02  0.41800000000E+01 0. -1.
        -11    1    1    2    0    0 -0.60430965803E+02  0.21692683609E+02 -0.81414621252E+02  0.10368613554E+03  0.00000000000E+00 0.  1.
         11    1    1    2    0    0 -0.62975605598E+02  0.46282810200E+02 -0.36628633701E+03  0.37453131524E+03  0.00000000000E+00 0. -1.
</event>
<event>
 7    1  0.6992302E-006  0.1035311E+03  0.7561462E-02  0.1273041E+00
          3   -1    0    0  501    0  0.00000000000E+00  0.00000000000E+00  0.14755768070E+03  0.14755768070E+03  0.00000000000E+00 0. -1.
         -3   -1    0    0    0  501 -0.00000000000E+00 -0.00000000000E+00 -0.83769945554E+02  0.83769945554E+02  0.00000000000E+00 0.  1.
         23    2    1    2    0    0 -0.14650289690E+02  0.15992492817E+02  0.27368659632E+02  0.12986597945E+03  0.12508292559E+03 0.  0.
          5    1    3    3  502    0 -0.37586449492E+01 -0.50271244983E+02 -0.11895462111E+02  0.51964409963E+02  0.41800000000E+01 0.  1.
         -5    1    3    3    0  502 -0.10891644741E+02  0.66263737799E+02  0.39264121743E+02  0.77901569487E+02  0.41800000000E+01 0.  1.
        -11    1    1    2    0    0  0.15690686792E+02 -0.51415584378E+02  0.48040457975E+01  0.53970721924E+02  0.00000000000E+00 0.  1.
         11    1    1    2    0    0 -0.10403971021E+01  0.35423091562E+02  0.31615029717E+02  0.47490924880E+02  0.00000000000E+00 0. -1.
</event>
<event>
 7    1  0.6992302E-006  0.1295974E+03  0.7561462E-02  0.1228054E+00
          1   -1    0    0  501    0  0.00000000000E+00  0.00000000000E+00  0.13168122482E+03  0.13168122482E+03  0.00000000000E+00 0. -1.
         -1   -1    0    0    0  501 -0.00000000000E+00 -0.00000000000E+00 -0.26159244623E+03  0.26159244623E+03  0.00000000000E+00 0.  1.
         23    2    1    2    0    0 -0.10710075480E+03 -0.50728264212E+02 -0.16670717923E+03  0.23975470302E+03  0.12508839093E+03 0.  0.
          5    1    3    3  502    0 -0.42088561895E+02 -0.40153841573E+02 -0.16359811679E+03  0.17368245234E+03  0.41800000000E+01 0. -1.
         -5    1    3    3    0  502 -0.65012192906E+02 -0.10574422639E+02 -0.31090624404E+01  0.66072250680E+02  0.41800000000E+01 0. -1.
        -11    1    1    2    0    0  0.42088300526E+02  0.55539269948E+02 -0.13749700325E+02  0.71028795616E+02  0.00000000000E+00 0.  1.
         11    1    1    2    0    0  0.65012454275E+02 -0.48110057361E+01  0.50545658146E+02  0.82490172412E+02  0.00000000000E+00 0. -1.
</event>
<event>
 7    1  0.6992302E-006  0.1178056E+03  0.7561462E-02  0.1246762E+00
          1   -1    0    0  501    0  0.00000000000E+00  0.00000000000E+00  0.32232857486E+03  0.32232857486E+03  0.00000000000E+00 0. -1.
         -1   -1    0    0    0  501 -0.00000000000E+00 -0.00000000000E+00 -0.76548297343E+02  0.76548297343E+02  0.00000000000E+00 0.  1.
         23    2    1    2    0    0  0.39416809163E+02  0.49556101366E+02  0.10463552651E+02  0.14059229407E+03  0.12508882920E+03 0.  0.
          5    1    3    3  502    0 -0.30601369678E+02 -0.21762878540E+02  0.14523092561E+02  0.40477886877E+02  0.41800000000E+01 0.  1.
         -5    1    3    3    0  502  0.70018178841E+02  0.71318979907E+02 -0.40595399097E+01  0.10011440719E+03  0.41800000000E+01 0.  1.
        -11    1    1    2    0    0  0.21379766739E+02 -0.23152111526E+02  0.13063825132E+03  0.13438551782E+03  0.00000000000E+00 0. -1.
         11    1    1    2    0    0 -0.60796575902E+02 -0.26403989840E+02  0.10467847355E+03  0.12389906031E+03  0.00000000000E+00 0.  1.
</event>
<event>
 7    1  0.6992302E-006  0.3993670E+02  0.7561462E-02  0.1508678E+00
          3   -1    0    0  501    0  0.00000000000E+00  0.00000000000E+00  0.58233959899E+02  0.58233959899E+02  0.00000000000E+00 0. -1.
         -3   -1    0    0    0  501 -0.00000000000E+00 -0.00000000000E+00 -0.20682350365E+03  0.20682350365E+03  0.00000000000E+00 0.  1.
         23    2    1    2    0    0 -0.88909770840E+01 -0.28773454746E+01 -0.92911555170E+02  0.15610035031E+03  0.12508970259E+03 0.  0.
          5    1    3    3  502    0 -0.30328781963E+02 -0.85694424590E+01 -0.11808495719E+03  0.12228981918E+03  0.41800000000E+01 0.  1.
         -5    1    3    3    0  502  0.21437804879E+02  0.56920969844E+01  0.25173402024E+02  0.33810531134E+02  0.41800000000E+01 0.  1.
        -11    1    1    2    0    0  0.41558088297E+01  0.13368695232E+02 -0.80440740506E+02  0.81649895850E+02  0.00000000000E+00 0.  1.
         11    1    1    2    0    0  0.47351682542E+01 -0.10491349757E+02  0.24762751927E+02  0.27307217382E+02  0.00000000000E+00 0. -1.
</event>
<event>
 7    1  0.6992302E-006  0.1221621E+03  0.7561462E-02  0.1239572E+00
         -1   -1    0    0    0  501 -0.00000000000E+00  0.00000000000E+00  0.44445972139E+02  0.44445972139E+02  0.00000000000E+00 0.  1.
          1   -1    0    0  501    0  0.00000000000E+00 -0.00000000000E+00 -0.41196206283E+03  0.41196206283E+03  0.00000000000E+00 0. -1.
         23    2    1    2    0    0 -0.44495243089E+01  0.69804751264E+02 -0.13338604040E+03  0.19578435633E+03  0.12508867592E+03 0.  0.
          5    1    3    3  502    0 -0.92652377721E+00 -0.33278803687E+02 -0.10210116548E+02  0.35072155637E+02  0.41800000000E+01 0.  1.
         -5    1    3    3    0  502 -0.35230005317E+01  0.10308355495E+03 -0.12317592385E+03  0.16071220069E+03  0.41800000000E+01 0.  1.
        -11    1    1    2    0    0  0.40116784900E+02 -0.16437268230E+02 -0.53099325639E+02  0.68549825681E+02  0.00000000000E+00 0.  1.
         11    1    1    2    0    0 -0.35667260591E+02 -0.53367483034E+02 -0.18103072465E+03  0.19207385296E+03  0.00000000000E+00 0. -1.
</event>
<event>
 7    1  0.6992302E-006  0.1181576E+03  0.7561462E-02  0.1246168E+00
          2   -1    0    0  501    0  0.00000000000E+00  0.00000000000E+00  0.45276860348E+03  0.45276860348E+03  0.00000000000E+00 0. -1.
         -2   -1    0    0    0  501 -0.00000000000E+00 -0.00000000000E+00 -0.44222036149E+02  0.44222036149E+02  0.00000000000E+00 0.  1.
         23    2    1    2    0    0 -0.16774108145E+02 -0.87008742950E+02  0.26080226495E+03  0.30251872739E+03  0.12509143441E+03 0.  0.
          5    1    3    3  502    0 -0.51253202586E+02 -0.36235000450E+02  0.43008947277E+02  0.76204382938E+02  0.41800000000E+01 0.  1.
         -5    1    3    3    0  502  0.34479094442E+02 -0.50773742500E+02  0.21779331767E+03  0.22631434445E+03  0.41800000000E+01 0.  1.
        -11    1    1    2    0    0  0.41023966565E+02  0.32863592308E+02  0.25137581985E+02  0.58265594995E+02  0.00000000000E+00 0.  1.
         11    1    1    2    0    0 -0.24249858420E+02  0.54145150642E+02  0.12260672040E+03  0.13620631725E+03  0.00000000000E+00 0. -1.
</event>
<event>
 7    1  0.6992302E-006  0.1432850E+03  0.7561462E-02  0.1208976E+00
         -1   -1    0    0    0  501 -0.00000000000E+00  0.00000000000E+00  0.22404621452E+03  0.22404621452E+03  0.00000000000E+00 0.  1.
          1   -1    0    0  501    0  0.00000000000E+00 -0.00000000000E+00 -0.98419687265E+02  0.98419687265E+02  0.00000000000E+00 0. -1.
         23    2    1    2    0    0 -0.94320255771E+02 -0.22233139632E+02  0.10064177584E+03  0.18752838217E+03  0.12508998332E+03 0.  0.
          5    1    3    3  502    0  0.26009441389E+02 -0.22663266625E+02  0.39094555231E+02  0.52306513401E+02  0.41800000000E+01 0. -1.
         -5    1    3    3    0  502 -0.12032969716E+03  0.43012699291E+00  0.61547220609E+02  0.13522186877E+03  0.41800000000E+01 0. -1.
        -11    1    1    2    0    0  0.83177827754E+02 -0.21806802760E+02  0.24857584307E+02  0.89509704357E+02  0.00000000000E+00 0. -1.
         11    1    1    2    0    0  0.11142428017E+02  0.44039942392E+02  0.12716710998E+00  0.45427815262E+02  0.00000000000E+00 0.  1.
</event>
<event>
 7    1  0.6992302E-006  0.9580404E+02  0.7561462E-02  0.1289375E+00
         -2   -1    0    0    0  501 -0.00000000000E+00  0.00000000000E+00  0.56745398825E+02  0.56745398825E+02  0.00000000000E+00 0.  1.
          2   -1    0    0  501    0  0.00000000000E+00 -0.00000000000E+00 -0.37938202373E+03  0.37938202373E+03  0.00000000000E+00 0. -1.
         23    2    1    2    0    0  0.18270027921E+02  0.89425228089E+02 -0.12366548335E+03  0.19816523943E+03  0.12508255277E+03 0.  0.
          5    1    3    3  502    0  0.14387136929E+02  0.33189548445E+02 -0.13559182063E+03  0.14039640329E+03  0.41800000000E+01 0. -1.
         -5    1    3    3    0  502  0.38828909925E+01  0.56235679644E+02  0.11926337283E+02  0.57768836136E+02  0.41800000000E+01 0. -1.
        -11    1    1    2    0    0 -0.11447763466E+02 -0.28122957340E+01  0.74893316752E+01  0.13966043986E+02  0.00000000000E+00 0.  1.
         11    1    1    2    0    0 -0.68222644553E+01 -0.86612932355E+02 -0.20646047323E+03  0.22399613914E+03  0.00000000000E+00 0. -1.
</event>
<event>
 7    1  0.6992302E-006  0.1850229E+03  0.7561462E-02  0.1163029E+00
         -2   -1    0    0    0  501 -0.00000000000E+00  0.00000000000E+00  0.56030732558E+02  0.56030732558E+02  0.00000000000E+00 0. -1.
          2   -1    0    0  501    0  0.00000000000E+00 -0.00000000000E+00 -0.78549869817E+03  0.78549869817E+03  0.00000000000E+00 0.  1.
         23    2    1    2    0    0  0.10766289557E+03  0.12799155245E+03 -0.25127241422E+03  0.32673832439E+03  0.12508784872E+03 0.  0.
          5    1    3    3  502    0  0.33901970745E+02  0.12324986579E+03 -0.19727839781E+03  0.23510872311E+03  0.41800000000E+01 0. -1.
         -5    1    3    3    0  502  0.73760924823E+02  0.47416866573E+01 -0.53994016406E+02  0.91629601280E+02  0.41800000000E+01 0. -1.
        -11    1    1    2    0    0 -0.45839857122E+02 -0.41721150319E+02 -0.72222701706E+02  0.95173869978E+02  0.00000000000E+00 0. -1.
         11    1    1    2    0    0 -0.61823038446E+02 -0.86270402133E+02 -0.40597284969E+03  0.41961723636E+03  0.00000000000E+00 0.  1.
</event>
<event>
 7    1  0.6992302E-006  0.8900120E+02  0.7561462E-02  0.1305289E+00
          2   -1    0    0  501    0  0.00000000000E+00  0.00000000000E+00  0.14756658463E+03  0.14756658463E+03  0.00000000000E+00 0. -1.
         -2   -1    0    0    0  501 -0.00000000000E+00 -0.00000000000E+00 -0.10209185685E+03  0.10209185685E+03  0.00000000000E+00 0.  1.
         23    2    1    2    0    0 -0.38659714756E+02  0.36273577892E+02  0.14773782041E+02  0.13666199504E+03  0.12509152751E+03 0.  0.
          5    1    3    3  502    0 -0.48400080359E+02 -0.28474457697E+02  0.37013028819E+02  0.67385452601E+02  0.41800000000E+01 0.  1.
         -5    1    3    3    0  502  0.97403656028E+01  0.64748035589E+02 -0.22239246777E+02  0.69276542436E+02  0.41800000000E+01 0.  1.
        -11    1    1    2    0    0  0.14810837477E+02 -0.26399247022E+02  0.64039576149E+02  0.70833244055E+02  0.00000000000E+00 0. -1.
         11    1    1    2    0    0  0.23848877279E+02 -0.98743308700E+01 -0.33338630416E+02  0.42163202388E+02  0.00000000000E+00 0.  1.
</event>
<event>
 7    1  0.6992302E-006  0.9501958E+02  0.7561462E-02  0.1291132E+00
          1   -1    0    0  501    0  0.00000000000E+00  0.00000000000E+00  0.35984580538E+03  0.35984580538E+03  0.00000000000E+00 0. -1.
         -1   -1    0    0    0  501 -0.00000000000E+00 -0.00000000000E+00 -0.57923537608E+02  0.57923537608E+02  0.00000000000E+00 0.  1.
         23    2    1    2    0    0  0.67039347607E+02  0.35330748995E+02  0.87075441197E+02  0.17020510695E+03  0.12508041421E+03 0.  0.
          5    1    3    3  502    0  0.82583412384E+02  0.20251535382E+02  0.50682621089E+01  0.85283669991E+02  0.41800000000E+01 0.  1.
         -5    1    3    3    0  502 -0.15544064777E+02  0.15079213613E+02  0.82007179088E+02  0.84921436958E+02  0.41800000000E+01 0.  1.
        -11    1    1    2    0    0 -0.16882454759E+02  0.59393842787E+01 -0.47880835955E+01  0.18526179013E+02  0.00000000000E+00 0.  1.
         11    1    1    2    0    0 -0.50156892848E+02 -0.41270133274E+02  0.21963491017E+03  0.22903805702E+03  0.00000000000E+00 0. -1.
</event>
<event>
 7    1  0.6992302E-006  0.9853773E+02  0.7561462E-02  0.1283401E+00
          3   -1    0    0  501    0  0.00000000000E+00  0.00000000000E+00  0.56277182990E+02  0.56277182990E+02  0.00000000000E+00 0. -1.
         -3   -1    0    0    0  501 -0.00000000000E+00 -0.00000000000E+00 -0.29875757699E+03  0.29875757699E+03  0.00000000000E+00 0.  1.
         23    2    1    2    0    0  0.58139103517E+02  0.12498441566E+02 -0.18555080589E+03  0.23154338286E+03  0.12508745014E+03 0.  0.
          5    1    3    3  502    0  0.79528490597E+02 -0.16006772102E+02 -0.17686188471E+03  0.19462424369E+03  0.41800000000E+01 0. -1.
         -5    1    3    3    0  502 -0.21389387080E+02  0.28505213668E+02 -0.86889211786E+01  0.36919139172E+02  0.41800000000E+01 0. -1.
        -11    1    1    2    0    0 -0.89862882065E+01 -0.27209739045E+02  0.17137937441E+02  0.33389102629E+02  0.00000000000E+00 0. -1.
         11    1    1    2    0    0 -0.49152815311E+02  0.14711297478E+02 -0.74067525559E+02  0.90102274494E+02  0.00000000000E+00 0.  1.
</event>
<event>
 7    1  0.6992302E-006  0.8564997E+02  0.7561462E-02  0.1313741E+00
         -2   -1    0    0    0  501 -0.00000000000E+00  0.00000000000E+00  0.62935077040E+03  0.62935077040E+03  0.00000000000E+00 0. -1.
          2   -1    0    0  501    0  0.00000000000E+00 -0.00000000000E+00 -0.28656271280E+02  0.28656271280E+02  0.00000000000E+00 0.  1.
         23    2    1    2    0    0 -0.29504836532E+01 -0.18401703396E+02  0.51757155796E+03  0.53279869878E+03  0.12508720067E+03 0.  0.
          5    1    3    3  502    0  0.47897788412E+02  0.56873346147E+01  0.39390984467E+03  0.39687401280E+03  0.41800000000E+01 0. -1.
         -5    1    3    3    0  502 -0.50848272065E+02 -0.24089038011E+02  0.12366171329E+03  0.13592468597E+03  0.41800000000E+01 0. -1.
        -11    1    1    2    0    0  0.33405957891E+02  0.10021287226E+02  0.86668267769E+02  0.93422550053E+02  0.00000000000E+00 0. -1.
         11    1    1    2    0    0 -0.30455474238E+02  0.83804161707E+01 -0.35453266077E+01  0.31785792848E+02  0.00000000000E+00 0.  1.
</event>
<event>
 7    1  0.6992302E-006  0.2735353E+03  0.7561462E-02  0.1099273E+00
         -2   -1    0    0    0  501 -0.00000000000E+00  0.00000000000E+00  0.14691360310E+03  0.14691360310E+03  0.00000000000E+00 0.  1.
          2   -1    0    0  501    0  0.00000000000E+00 -0.00000000000E+00 -0.67805703726E+03  0.67805703726E+03  0.00000000000E+00 0. -1.
         23    2    1    2    0    0 -0.21818072197E+03 -0.14546486460E+03 -0.91175087237E+02  0.30450458293E+03  0.12508912911E+03 0.  0.
          5    1    3    3  502    0  0.76869202301E+01 -0.16710263281E+02  0.14538095707E+02  0.23814916929E+02  0.41800000000E+01 0. -1.
         -5    1    3    3    0  502 -0.22586764220E+03 -0.12875460132E+03 -0.10571318294E+03  0.28068966600E+03  0.41800000000E+01 0. -1.
        -11    1    1    2    0    0  0.11913126769E+03  0.45682114331E+02 -0.14142890450E+03  0.19047637528E+03  0.00000000000E+00 0.  1.
         11    1    1    2    0    0  0.99049454277E+02  0.99782750267E+02 -0.29853944242E+03  0.32998968215E+03  0.00000000000E+00 0. -1.
</event>
<event>
 7    1  0.6992302E-006  0.1022756E+03  0.7561462E-02  0.1275582E+00
          2   -1    0    0  501    0  0.00000000000E+00  0.00000000000E+00  0.33598703944E+03  0.33598703944E+03  0.00000000000E+00 0. -1.
         -2   -1    0    0    0  501 -0.00000000000E+00 -0.00000000000E+00 -0.51754014724E+02  0.51754014724E+02  0.00000000000E+00 0.  1.
         23    2    1    2    0    0 -0.51451371860E+02  0.44686557489E+01  0.79885595501E+02  0.15715009142E+03  0.12508888966E+03 0.  0.
          5    1    3    3  502    0 -0.41515365473E+02  0.53266758001E+02  0.82991568180E+02  0.10707915702E+03  0.41800000000E+01 0. -1.
         -5    1    3    3    0  502 -0.99360063868E+01 -0.48798102252E+02 -0.31059726785E+01  0.50070934409E+02  0.41800000000E+01 0. -1.
        -11    1    1    2    0    0  0.46672514347E+02 -0.33525864797E+02  0.59267621221E+02  0.82552759681E+02  0.00000000000E+00 0.  1.
         11    1    1    2    0    0  0.47788575128E+01  0.29057209048E+02  0.14507980800E+03  0.14803820306E+03  0.00000000000E+00 0. -1.
</event>
<event>
 7    1  0.6992302E-006  0.1452043E+03  0.7561462E-02  0.1206493E+00
         -1   -1    0    0    0  501 -0.00000000000E+00  0.00000000000E+00  0.60009105531E+02  0.60009105531E+02  0.00000000000E+00 0.  1.
          1   -1    0    0  501    0  0.00000000000E+00 -0.00000000000E+00 -0.36974202639E+03  0.36974202639E+03  0.00000000000E+00 0. -1.
         23    2    1    2    0    0  0.62585242214E+02  0.78458553749E+02 -0.13899336222E+03  0.21222162824E+03  0.12508480144E+03 0.  0.
          5    1    3    3  502    0 -0.36040945595E+02  0.14289320498E+02 -0.55724686868E+02  0.68013583688E+02  0.41800000000E+01 0.  1.
         -5    1    3    3    0  502  0.98626187809E+02  0.64169233252E+02 -0.83268675350E+02  0.14420804455E+03  0.41800000000E+01 0.  1.
        -11    1    1    2    0    0  0.22262893121E+02 -0.89633666873E+01 -0.20797989377E+02  0.31757435580E+02  0.00000000000E+00 0.  1.
         11    1    1    2    0    0 -0.84848135335E+02 -0.69495187062E+02 -0.14994156926E+03  0.18577206810E+03  0.00000000000E+00 0. -1.
</event>
<event>
 7    1  0.6992302E-006  0.7755044E+02  0.7561462E-02  0.1336150E+00
         -3   -1    0    0    0  501 -0.00000000000E+00  0.00000000000E+00  0.45783265971E+03  0.45783265971E+03  0.00000000000E+00 0.  1.
          3   -1    0    0  501    0  0.00000000000E+00 -0.00000000000E+00 -0.25111024031E+02  0.25111024031E+02  0.00000000000E+00 0. -1.
         23    2    1    2    0    0 -0.85771496507E-01  0.37255995786E+01  0.26590694719E+03  0.29388379231E+03  0.12508913370E+03 0.  0.
          5    1    3    3  502    0  0.26074637745E+02 -0.22982912587E+02  0.25098288443E+03  0.25341267072E+03  0.41800000000E+01 0. -1.
         -5    1    3    3    0  502 -0.26160409242E+02  0.26708512165E+02  0.14924062763E+02  0.40471121595E+02  0.41800000000E+01 0. -1.
        -11    1    1    2    0    0  0.41237107929E+02 -0.16492276670E+01  0.11893480550E+03  0.12589164778E+03  0.00000000000E+00 0.  1.
         11    1    1    2    0    0 -0.41151336432E+02 -0.20763719116E+01  0.47879882992E+02  0.63168243650E+02  0.00000000000E+00 0. -1.
</event>
<event>
 7    1  0.6992302E-006  0.1386225E+03  0.7561462E-02  0.1215195E+00
          1   -1    0    0  501    0  0.00000000000E+00  0.00000000000E+00  0.85471823989E+03  0.85471823989E+03  0.00000000000E+00 0. -1.
         -1   -1    0    0    0  501 -0.00000000000E+00 -0.00000000000E+00 -0.29831531290E+02  0.29831531290E+02  0.00000000000E+00 0.  1.
         23    2    1    2    0    0 -0.84895455243E+02  0.65435833329E+02  0.30972157043E+03  0.35080546849E+03  0.12509172208E+03 0.  0.
          5    1    3    3  502    0 -0.85314986982E+02  0.14550284908E+02  0.27682042566E+03  0.29006443811E+03  0.41800000000E+01 0.  1.
         -5    1    3    3    0  502  0.41953173833E+00  0.50885548421E+02  0.32901144771E+02  0.60741030385E+02  0.41800000000E+01 0.  1.
        -11    1    1    2    0    0  0.51382550212E+02  0.14056662773E+02  0.18910165653E+03  0.19646168262E+03  0.00000000000E+00 0.  1.
         11    1    1    2    0    0  0.33512905031E+02 -0.79492496101E+02  0.32606348164E+03  0.33728262007E+03  0.00000000000E+00 0. -1.
</event>
<event>
 7    1  0.6992302E-006  0.1668518E+03  0.7561462E-02  0.1181171E+00
         -1   -1    0    0    0  501 -0.00000000000E+00  0.00000000000E+00  0.42995614698E+03  0.42995614698E+03  0.00000000000E+00 0.  1.
          1   -1    0    0  501    0  0.00000000000E+00 -0.00000000000E+00 -0.84254970760E+02  0.84254970760E+02  0.00000000000E+00 0. -1.
         23    2    1    2    0    0  0.24413319621E+02  0.15272684878E+03  0.20770191624E+03  0.28771008894E+03  0.12536151226E+03 0.  0.
          5    1    3    3  502    0 -0.78599851680E+01  0.14503614139E+03  0.10384220521E+03  0.17859993745E+03  0.41800000000E+01 0.  1.
         -5    1    3    3    0  502  0.32273304789E+02  0.76907073855E+01  0.10385971103E+03  0.10911015149E+03  0.41800000000E+01 0.  1.
        -11    1    1    2    0    0 -0.97931413520E+01 -0.90769793665E+02  0.13474219976E+03  0.16275909024E+03  0.00000000000E+00 0.  1.
         11    1    1    2    0    0 -0.14620178269E+02 -0.61957055110E+02  0.32570602259E+01  0.63741938564E+02  0.00000000000E+00 0. -1.
</event>
<event>
 7    1  0.6992302E-006  0.1718260E+03  0.7561462E-02  0.1175957E+00
          1   -1    0    0  501    0  0.00000000000E+00  0.00000000000E+00  0.63996016067E+03  0.63996016067E+03  0.00000000000E+00 0. -1.
         -1   -1    0    0    0  501 -0.00000000000E+00 -0.00000000000E+00 -0.50683117478E+02  0.50683117478E+02  0.00000000000E+00 0.  1.
         23    2    1    2    0    0  0.10481316360E+03  0.96958886820E+02  0.33218472561E+03  0.38259709109E+03  0.12508803773E+03 0.  0.
          5    1    3    3  502    0  0.11816886782E+03  0.48092845224E+02  0.28886227372E+03  0.31580957658E+03  0.41800000000E+01 0.  1.
         -5    1    3    3    0  502 -0.13355704217E+02  0.48866041595E+02  0.43322451899E+02  0.66787514514E+02  0.41800000000E+01 0.  1.
        -11    1    1    2    0    0  0.38833246463E+01 -0.44161204636E+02  0.10365713418E+03  0.11273905123E+03  0.00000000000E+00 0.  1.
         11    1    1    2    0    0 -0.10869648825E+03 -0.52797682184E+02  0.15343518340E+03  0.19530713583E+03  0.00000000000E+00 0. -1.
</event>
<event>
 6    1  0.6992302E-006  0.9195623E+02  0.7561462E-02  0.1298182E+00
         -1   -1    0    0    0  501 -0.00000000000E+00  0.00000000000E+00  0.98910520722E+03  0.98910520722E+03  0.00000000000E+00 0.  1.
          1   -1    0    0  501    0  0.00000000000E+00 -0.00000000000E+00 -0.22973206349E+02  0.22973206349E+02  0.00000000000E+00 0. -1.
          5    1    1    2  502    0  0.14588805449E+02 -0.62583326194E+02  0.11157874789E+03  0.12882855018E+03  0.41800000000E+01 0. -1.
         -5    1    1    2    0  502  0.10292486744E+02  0.84465040765E+02  0.83082497299E+03  0.83518134949E+03  0.41800000000E+01 0.  1.
        -11    1    1    2    0    0 -0.10003930171E+02 -0.33319475703E+01  0.21794592738E+02  0.24211252882E+02  0.00000000000E+00 0.  1.
         11    1    1    2    0    0 -0.14877362022E+02 -0.18549767000E+02  0.19336872522E+01  0.23857261010E+02  0.00000000000E+00 0. -1.
</event>
<event>
 6    1  0.6992302E-006  0.2210344E+03  0.7561462E-02  0.1133114E+00
          2   -1    0    0  501    0  0.00000000000E+00  0.00000000000E+00  0.81718101898E+03  0.81718101898E+03  0.00000000000E+00 0. -1.
         -2   -1    0    0    0  501 -0.00000000000E+00 -0.00000000000E+00 -0.15482442371E+03  0.15482442371E+03  0.00000000000E+00 0.  1.
          5    1    1    2  502    0  0.19419008764E+03 -0.71423383103E+02  0.50919888027E+03  0.54964721582E+03  0.41800000000E+01 0. -1.
         -5    1    1    2    0  502 -0.67403553360E+02  0.14550261514E+02 -0.98769558243E+02  0.12053151933E+03  0.41800000000E+01 0.  1.
        -11    1    1    2    0    0  0.14320017727E+02  0.12969310667E+01  0.17955086768E+02  0.23002827625E+02  0.00000000000E+00 0. -1.
         11    1    1    2    0    0 -0.14110655200E+03  0.55576190522E+02  0.23397218647E+03  0.27882387992E+03  0.00000000000E+00 0.  1.
</event>
<event>
 7    1  0.6992302E-006  0.9021085E+02  0.7561462E-02  0.1302342E+00
          2   -1    0    0  501    0  0.00000000000E+00  0.00000000000E+00  0.13153440254E+03  0.13153440254E+03  0.00000000000E+00 0.  1.
         -2   -1    0    0    0  501 -0.00000000000E+00 -0.00000000000E+00 -0.23446696080E+03  0.23446696080E+03  0.00000000000E+00 0. -1.
         23    2    1    2    0    0 -0.20955407815E+02 -0.39934266864E+02 -0.18979423728E+03  0.23173810570E+03  0.12508725892E+03 0.  0.
          5    1    3    3  502    0  0.41118076505E+01 -0.55624184172E+02 -0.20097995134E+02  0.59433649016E+02  0.41800000000E+01 0. -1.
         -5    1    3    3    0  502 -0.25067215466E+02  0.15689917309E+02 -0.16969624214E+03  0.17230445669E+03  0.41800000000E+01 0. -1.
        -11    1    1    2    0    0 -0.32249442362E+02  0.19120673820E+02  0.10573713303E+02  0.38954205331E+02  0.00000000000E+00 0. -1.
         11    1    1    2    0    0  0.53204850177E+02  0.20813593044E+02  0.76287965714E+02  0.95309052301E+02  0.00000000000E+00 0.  1.
</event>
<event>
 7    1  0.6992302E-006  0.1236934E+03  0.7561462E-02  0.1237126E+00
         -1   -1    0    0    0  501 -0.00000000000E+00  0.00000000000E+00  0.40411322082E+02  0.40411322082E+02  0.00000000000E+00 0.  1.
          1   -1    0    0  501    0  0.00000000000E+00 -0.00000000000E+00 -0.65203286755E+03  0.65203286755E+03  0.00000000000E+00 0. -1.
         23    2    1    2    0    0 -0.94701214703E+02 -0.63153457656E+02 -0.24175390792E+03  0.29504112693E+03  0.12509050845E+03 0.  0.
          5    1    3    3  502    0 -0.38079252235E+02 -0.54392327089E+02 -0.22583197568E+03  0.23542750123E+03  0.41800000000E+01 0.  1.
         -5    1    3    3    0  502 -0.56621962469E+02 -0.87611305666E+01 -0.15921932243E+02  0.59613625699E+02  0.41800000000E+01 0.  1.
        -11    1    1    2    0    0  0.88190945998E+02  0.35611738052E+02 -0.35033616755E+03  0.36301689924E+03  0.00000000000E+00 0. -1.
         11    1    1    2    0    0  0.65102687052E+01  0.27541719603E+02 -0.19531470002E+02  0.34386163464E+02  0.00000000000E+00 0.  1.
</event>
<event>
 7    1  0.6992302E-006  0.4894622E+02  0.7561462E-02  0.1451110E+00
          2   -1    0    0  501    0  0.00000000000E+00  0.00000000000E+00  0.17409481264E+03  0.17409481264E+03  0.00000000000E+00 0.  1.
         -2   -1    0    0    0  501 -0.00000000000E+00 -0.00000000000E+00 -0.73134348020E+02  0.73134348020E+02  0.00000000000E+00 0. -1.
         23    2    1    2    0    0 -0.13125154870E+02  0.22236982807E+02  0.44226526267E+02  0.13516708019E+03  0.12508957129E+03 0.  0.
          5    1    3    3  502    0 -0.15011126115E+02  0.31947863429E+02  0.85460308182E+02  0.92557747161E+02  0.41800000000E+01 0. -1.
         -5    1    3    3    0  502  0.18859712450E+01 -0.97108806218E+01 -0.41233781916E+02  0.42609333027E+02  0.41800000000E+01 0. -1.
        -11    1    1    2    0    0  0.24269651784E+02 -0.29579686342E+02 -0.13498242953E+02  0.40573099519E+02  0.00000000000E+00 0. -1.
         11    1    1    2    0    0 -0.11144496914E+02  0.73427035351E+01  0.70232181302E+02  0.71488980949E+02  0.00000000000E+00 0.  1.
</event>
<event>
 7    1  0.6992302E-006  0.1243719E+03  0.7561462E-02  0.1236054E+00
          2   -1    0    0  501    0  0.00000000000E+00  0.00000000000E+00  0.64773103684E+03  0.64773103684E+03  0.00000000000E+00 0.  1.
         -2   -1    0    0    0  501 -0.00000000000E+00 -0.00000000000E+00 -0.38132764488E+02  0.38132764488E+02  0.00000000000E+00 0. -1.
         23    2    1    2    0    0  0.10884461525E+03 -0.26630962448E+01  0.25418212247E+03  0.30349483061E+03  0.12508524484E+03 0.  0.
          5    1    3    3  502    0  0.55218330781E+02 -0.44716477460E+02  0.21106502421E+03  0.22274322494E+03  0.41800000000E+01 0.  1.
         -5    1    3    3    0  502  0.53626284465E+02  0.42053381215E+02  0.43117098255E+02  0.80751605675E+02  0.41800000000E+01 0.  1.
        -11    1    1    2    0    0 -0.54507928781E+02 -0.34152649120E+01  0.29846428833E+03  0.30342002199E+03  0.00000000000E+00 0.  1.
         11    1    1    2    0    0 -0.54336686465E+02  0.60783611568E+01  0.56951861552E+02  0.78948948724E+02  0.00000000000E+00 0. -1.
</event>
<event>
 7    1  0.6992302E-006  0.1383505E+03  0.7561462E-02  0.1215566E+00
         -1   -1    0    0    0  501 -0.00000000000E+00  0.00000000000E+00  0.26811911011E+03  0.26811911011E+03  0.00000000000E+00 0.  1.
          1   -1    0    0  501    0  0.00000000000E+00 -0.00000000000E+00 -0.11515319178E+03  0.11515319178E+03  0.00000000000E+00 0. -1.
         23    2    1    2    0    0  0.36939657020E+02  0.12997490505E+03  0.10831415909E+03  0.21362741138E+03  0.12508676840E+03 0.  0.
          5    1    3    3  502    0  0.40250237808E+02  0.11528851087E+03  0.13538695809E+03  0.18236946894E+03  0.41800000000E+01 0. -1.
         -5    1    3    3    0  502 -0.33105807873E+01  0.14686394189E+02 -0.27072799002E+02  0.31257942435E+02  0.41800000000E+01 0. -1.
        -11    1    1    2    0    0  0.11616332769E+01 -0.52914059325E+02 -0.25442685138E+02  0.58724588488E+02  0.00000000000E+00 0. -1.
         11    1    1    2    0    0 -0.38101290297E+02 -0.77060845730E+02  0.70094444384E+02  0.11092030202E+03  0.00000000000E+00 0.  1.
</event>
<event>
 7    1  0.6992302E-006  0.1004053E+03  0.7561462E-02  0.1279446E+00
          4   -1    0    0  501    0  0.00000000000E+00  0.00000000000E+00  0.10334811819E+03  0.10334811819E+03  0.00000000000E+00 0. -1.
         -4   -1    0    0    0  501 -0.00000000000E+00 -0.00000000000E+00 -0.13851782495E+03  0.13851782495E+03  0.00000000000E+00 0.  1.
         23    2    1    2    0    0  0.30932995674E+02 -0.89740087821E+01 -0.59757906849E+02  0.14231750164E+03  0.12508349526E+03 0.  0.
          5    1    3    3  502    0 -0.69279172067E+01 -0.62110868394E+02 -0.38717205056E+02  0.73635931289E+02  0.41800000000E+01 0. -1.
         -5    1    3    3    0  502  0.37860912881E+02  0.53136859612E+02 -0.21040701792E+02  0.68681570348E+02  0.41800000000E+01 0. -1.
        -11    1    1    2    0    0 -0.49236549972E+02 -0.53874427958E+01  0.46245092007E+02  0.67763345016E+02  0.00000000000E+00 0. -1.
         11    1    1    2    0    0  0.18303554298E+02  0.14361451578E+02 -0.21656891916E+02  0.31785096489E+02  0.00000000000E+00 0.  1.
</event>
<event>
 7    1  0.6992302E-006  0.1040388E+03  0.7561462E-02  0.1272025E+00
          1   -1    0    0  501    0  0.00000000000E+00  0.00000000000E+00  0.83530647185E+03  0.83530647185E+03  0.00000000000E+00 0. -1.
         -1   -1    0    0    0  501 -0.00000000000E+00 -0.00000000000E+00 -0.15361974502E+02  0.15361974502E+02  0.00000000000E+00 0.  1.
         23    2    1    2    0    0  0.23409744880E+02 -0.19918677036E+02  0.43006670906E+03  0.44894314602E+03  0.12509118380E+03 0.  0.
          5    1    3    3  502    0  0.40294497898E+02  0.36112492890E+02  0.31648100250E+03  0.32110038313E+03  0.41800000000E+01 0. -1.
         -5    1    3    3    0  502 -0.16884753018E+02 -0.56031169926E+02  0.11358570656E+03  0.12784276289E+03  0.41800000000E+01 0. -1.
        -11    1    1    2    0    0  0.34590084154E+02  0.11938264388E+02  0.11498456842E+03  0.12066667748E+03  0.00000000000E+00 0. -1.
         11    1    1    2    0    0 -0.57999829034E+02  0.79804126479E+01  0.27489321987E+03  0.28105862286E+03  0.00000000000E+00 0.  1.
</event>
<event>
 7    1  0.6992302E-006  0.5998263E+02  0.7561462E-02  0.1397905E+00
          1   -1    0    0  501    0  0.00000000000E+00  0.00000000000E+00  0.56349973122E+02  0.56349973122E+02  0.00000000000E+00 0. -1.
         -1   -1    0    0    0  501 -0.00000000000E+00 -0.00000000000E+00 -0.22521334066E+03  0.22521334066E+03  0.00000000000E+00 0.  1.
         23    2    1    2    0    0  0.51899277495E+01  0.21293167437E+00 -0.13290404011E+03  0.18258100664E+03  0.12508141117E+03 0.  0.
          5    1    3    3  502    0 -0.38873338005E+02 -0.22164068256E+02 -0.47843079441E+01  0.45196729216E+02  0.41800000000E+01 0. -1.
         -5    1    3    3    0  502  0.44063265754E+02  0.22376999931E+02 -0.12811973216E+03  0.13738427743E+03  0.41800000000E+01 0. -1.
        -11    1    1    2    0    0  0.37910156973E+01  0.10665779776E+02  0.29721274692E+02  0.31803849257E+02  0.00000000000E+00 0. -1.
         11    1    1    2    0    0 -0.89809434468E+01 -0.10878711451E+02 -0.65680602125E+02  0.67178457883E+02  0.00000000000E+00 0.  1.
</event>
<event>
 7    1  0.6992302E-006  0.5519603E+02  0.7561462E-02  0.1419174E+00
          2   -1    0    0  501    0  0.00000000000E+00  0.00000000000E+00  0.11286108878E+03  0.11286108878E+03  0.00000000000E+00 0. -1.
         -2   -1    0    0    0  501 -0.00000000000E+00 -0.00000000000E+00 -0.13217728133E+03  0.13217728133E+03  0.00000000000E+00 0.  1.
         23    2    1    2    0    0  0.52149765539E+02  0.64277053310E+01 -0.27492978346E+02  0.13843964530E+03  0.12509499627E+03 0.  0.
          5    1    3    3  502    0  0.44900398028E+02  0.79830330362E+01  0.45733044010E+02  0.64720617070E+02  0.41800000000E+01 0.  1.
         -5    1    3    3    0  502  0.72493675105E+01 -0.15553277052E+01 -0.73226022356E+02  0.73719028233E+02  0.41800000000E+01 0.  1.
        -11    1    1    2    0    0 -0.22724639097E+02  0.69469595553E+01 -0.41212887074E+02  0.47572802421E+02  0.00000000000E+00 0.  1.
         11    1    1    2    0    0 -0.29425126442E+02 -0.13374664886E+02  0.49389672875E+02  0.59025922387E+02  0.00000000000E+00 0. -1.
</event>
<event>
 7    1  0.6992302E-006  0.1789733E+03  0.7561462E-02  0.1168800E+00
          3   -1    0    0  501    0  0.00000000000E+00  0.00000000000E+00  0.48093676936E+02  0.48093676936E+02  0.00000000000E+00 0. -1.
         -3   -1    0    0    0  501 -0.00000000000E+00 -0.00000000000E+00 -0.96532104277E+03  0.96532104277E+03  0.00000000000E+00 0.  1.
         23    2    1    2    0    0 -0.86932951522E+02  0.11360535671E+03 -0.75762170557E+03  0.78109009852E+03  0.12509027985E+03 0.  0.
          5    1    3    3  502    0 -0.60633736630E+02 -0.11671795964E+02 -0.25647905534E+03  0.26384021503E+03  0.41800000000E+01 0. -1.
         -5    1    3    3    0  502 -0.26299214892E+02  0.12527715267E+03 -0.50114265023E+03  0.51724988348E+03  0.41800000000E+01 0. -1.
        -11    1    1    2    0    0  0.55225421650E+02 -0.12306952515E+03 -0.11845655789E+03  0.17952133947E+03  0.00000000000E+00 0. -1.
         11    1    1    2    0    0  0.31707529872E+02  0.94641684381E+01 -0.41149102367E+02  0.52803281720E+02  0.00000000000E+00 0.  1.
</event>
<event>
 7    1  0.6992302E-006  0.1125286E+03  0.7561462E-02  0.1255958E+00
          3   -1    0    0  501    0  0.00000000000E+00  0.00000000000E+00  0.12346116604E+03  0.12346116604E+03  0.00000000000E+00 0. -1.
         -3   -1    0    0    0  501 -0.00000000000E+00 -0.00000000000E+00 -0.11483080524E+03  0.11483080524E+03  0.00000000000E+00 0.  1.
         23    2    1    2    0    0  0.23997876579E+02 -0.32517773242E+02  0.97572157611E+01  0.13182849080E+03  0.12510093553E+03 0.  0.
          5    1    3    3  502    0 -0.41988525837E+02 -0.44126868917E+02  0.19279363506E+02  0.64026425167E+02  0.41800000000E+01 0. -1.
         -5    1    3    3    0  502  0.65986402416E+02  0.11609095675E+02 -0.95221477451E+01  0.67802065632E+02  0.41800000000E+01 0. -1.
        -11    1    1    2    0    0 -0.51670255559E+02 -0.31058570037E+01 -0.22627041885E+02  0.56492872841E+02  0.00000000000E+00 0.  1.
         11    1    1    2    0    0  0.27672378980E+02  0.35623630246E+02  0.21500186927E+02  0.49970607643E+02  0.00000000000E+00 0. -1.
</event>
<event>
 7    1  0.6992302E-006  0.2022420E+03  0.7561462E-02  0.1147861E+00
          2   -1    0    0  501    0  0.00000000000E+00  0.00000000000E+00  0.10655917107E+04  0.10655917107E+04  0.00000000000E+00 0. -1.
         -2   -1    0    0    0  501 -0.00000000000E+00 -0.00000000000E+00 -0.52665546176E+02  0.52665546176E+02  0.00000000000E+00 0.  1.
         23    2    1    2    0    0  0.52178361402E+01  0.18714510227E+03  0.29282729965E+03  0.36938256273E+03  0.12508051453E+03 0.  0.
          5    1    3    3  502    0  0.48380164518E+02  0.38351171627E+02  0.13332222020E+03  0.14698210600E+03  0.41800000000E+01 0.  1.
         -5    1    3    3    0  502 -0.43162328378E+02  0.14879393064E+03  0.15950507944E+03  0.22240045673E+03  0.41800000000E+01 0.  1.
        -11    1    1    2    0    0  0.35849146410E+01 -0.92047935516E+02  0.50774080344E+03  0.51602945413E+03  0.00000000000E+00 0.  1.
         11    1    1    2    0    0 -0.88027507812E+01 -0.95097166749E+02  0.21235806148E+03  0.23284524006E+03  0.00000000000E+00 0. -1.
</event>
<event>
 7    1  0.6992302E-006  0.1481598E+03  0.7561462E-02  0.1202753E+00
         -1   -1    0    0    0  501 -0.00000000000E+00  0.00000000000E+00  0.53341501654E+03  0.53341501654E+03  0.00000000000E+00 0.  1.
          1   -1    0    0  501    0  0.00000000000E+00 -0.00000000000E+00 -0.75553678988E+02  0.75553678988E+02  0.00000000000E+00 0. -1.
         23    2    1    2    0    0  0.42406096849E+02  0.11439489400E+03  0.41334642292E+03  0.44876147876E+03  0.12508849131E+03 0.  0.
          5    1    3    3  502    0  0.81253240553E+02  0.40858275054E+02  0.23132692107E+03  0.24859827946E+03  0.41800000000E+01 0. -1.
         -5    1    3    3    0  502 -0.38847143705E+02  0.73536618945E+02  0.18201950185E+03  0.20016319930E+03  0.41800000000E+01 0. -1.
        -11    1    1    2    0    0 -0.25591187819E+02 -0.70021626889E+02 -0.22698999183E+02  0.77930621004E+02  0.00000000000E+00 0. -1.
         11    1    1    2    0    0 -0.16814909029E+02 -0.44373267109E+02  0.67213913813E+02  0.82276595759E+02  0.00000000000E+00 0.  1.
</event>
<event>
 7    1  0.6992302E-006  0.8734128E+02  0.7561462E-02  0.1309421E+00
         -1   -1    0    0    0  501 -0.00000000000E+00  0.00000000000E+00  0.76282551472E+02  0.76282551472E+02  0.00000000000E+00 0.  1.
          1   -1    0    0  501    0  0.00000000000E+00 -0.00000000000E+00 -0.29044886739E+03  0.29044886739E+03  0.00000000000E+00 0. -1.
         23    2    1    2    0    0  0.62201281441E+02  0.91515747715E+01 -0.17700471024E+02  0.14111029266E+03  0.12508420079E+03 0.  0.
          5    1    3    3  502    0  0.30098808616E+02 -0.43054128922E+01 -0.70979724603E+02  0.77330903040E+02  0.41800000000E+01 0. -1.
         -5    1    3    3    0  502  0.32102472825E+02  0.13456987664E+02  0.53279253579E+02  0.63779389621E+02  0.41800000000E+01 0. -1.
        -11    1    1    2    0    0 -0.15183350259E+02  0.38867195236E+02 -0.55323042857E+02  0.69295252806E+02  0.00000000000E+00 0. -1.
         11    1    1    2    0    0 -0.47017931182E+02 -0.48018770007E+02 -0.14114280204E+03  0.15632587340E+03  0.00000000000E+00 0.  1.
</event>
<event>
 7    1  0.6992302E-006  0.1152127E+03  0.7561462E-02  0.1251210E+00
          1   -1    0    0  501    0  0.00000000000E+00  0.00000000000E+00  0.60696739172E+02  0.60696739172E+02  0.00000000000E+00 0. -1.
         -1   -1    0    0    0  501 -0.00000000000E+00 -0.00000000000E+00 -0.34551571963E+03  0.34551571963E+03  0.00000000000E+00 0.  1.
         23    2    1    2    0    0 -0.66952914949E+02 -0.42098444342E+02 -0.20371407242E+03  0.25179678248E+03  0.12508886652E+03 0.  0.
          5    1    3    3  502    0 -0.17333875622E+02  0.43889529615E+02 -0.81697590700E+02  0.94438989723E+02  0.41800000000E+01 0.  1.
         -5    1    3    3    0  502 -0.49619039328E+02 -0.85987973957E+02 -0.12201648172E+03  0.15735779275E+03  0.41800000000E+01 0.  1.
        -11    1    1    2    0    0  0.30318245365E+02  0.35115037971E+02 -0.10172214168E+03  0.11180186045E+03  0.00000000000E+00 0.  1.
         11    1    1    2    0    0  0.36634669584E+02  0.69834063717E+01  0.20617233639E+02  0.42613815870E+02  0.00000000000E+00 0. -1.
</event>
<event>
 7    1  0.6992302E-006  0.1066909E+03  0.7561462E-02  0.1266823E+00
          2   -1    0    0  501    0  0.00000000000E+00  0.00000000000E+00  0.22713144493E+03  0.22713144493E+03  0.00000000000E+00 0. -1.
         -2   -1    0    0    0  501 -0.00000000000E+00 -0.00000000000E+00 -0.57272533384E+02  0.57272533384E+02  0.00000000000E+00 0.  1.
         23    2    1    2    0    0 -0.27339281016E+02 -0.15428402710E+02  0.69949269941E+02  0.14671603205E+03  0.12508885561E+03 0.  0.
          5    1    3    3  502    0 -0.59062782204E+01  0.54389859136E+02  0.21276652491E+02  0.58849887344E+02  0.41800000000E+01 0. -1.
         -5    1    3    3    0  502 -0.21433002796E+02 -0.69818261846E+02  0.48672617450E+02  0.87866144706E+02  0.41800000000E+01 0. -1.
        -11    1    1    2    0    0 -0.66874909683E+01  0.41786182124E+02  0.19741324751E+02  0.46696118200E+02  0.00000000000E+00 0.  1.
         11    1    1    2    0    0  0.34026771984E+02 -0.26357779414E+02  0.80168316859E+02  0.90991828069E+02  0.00000000000E+00 0. -1.
</event>
<event>
 7    1  0.6992302E-006  0.1181447E+03  0.7561462E-02  0.1246189E+00
          2   -1    0    0  501    0  0.00000000000E+00  0.00000000000E+00  0.36263963184E+02  0.36263963184E+02  0.00000000000E+00 0. -1.
         -2   -1    0    0    0  501 -0.00000000000E+00 -0.00000000000E+00 -0.11910927853E+04  0.11910927853E+04  0.00000000000E+00 0.  1.
         23    2    1    2    0    0 -0.78456127150E+02 -0.55328196751E+02 -0.10403309434E+04  0.10522130804E+04  0.12508925370E+03 0.  0.
          5    1    3    3  502    0 -0.45276802247E+02 -0.61603727786E+02 -0.25748381956E+03  0.26862687475E+03  0.41800000000E+01 0. -1.
         -5    1    3    3    0  502 -0.33179324902E+02  0.62755310351E+01 -0.78284712385E+03  0.78358620561E+03  0.41800000000E+01 0. -1.
        -11    1    1    2    0    0  0.35402290802E+02 -0.18716538008E+02 -0.64634636424E+02  0.76034644832E+02  0.00000000000E+00 0.  1.
         11    1    1    2    0    0  0.43053836348E+02  0.74044734759E+02 -0.49863242279E+02  0.99109023304E+02  0.00000000000E+00 0. -1.
</event>
<event>
 7    1  0.6992302E-006  0.1042569E+03  0.7561462E-02  0.1271591E+00
          2   -1    0    0  501    0  0.00000000000E+00  0.00000000000E+00  0.44641995927E+03  0.44641995927E+03  0.00000000000E+00 0. -1.
         -2   -1    0    0    0  501 -0.00000000000E+00 -0.00000000000E+00 -0.28264146193E+02  0.28264146193E+02  0.00000000000E+00 0.  1.
         23    2    1    2    0    0  0.28341077287E+02  0.20434492967E+02  0.23167103487E+03  0.26558847905E+03  0.12507992103E+03 0.  0.
          5    1    3    3  502    0 -0.30552049713E+02  0.42383569700E+02  0.16815701746E+03  0.17613645178E+03  0.41800000000E+01 0.  1.
         -5    1    3    3    0  502  0.58893127000E+02 -0.21949076733E+02  0.63514017402E+02  0.89452027276E+02  0.41800000000E+01 0.  1.
        -11    1    1    2    0    0  0.22060022711E+02 -0.34349853613E+02  0.10030848360E+03  0.10829750195E+03  0.00000000000E+00 0. -1.
         11    1    1    2    0    0 -0.50401099998E+02  0.13915360646E+02  0.86176294614E+02  0.10079812447E+03  0.00000000000E+00 0.  1.
</event>
<event>
 7    1  0.6992302E-006  0.1518409E+03  0.7561462E-02  0.1198229E+00
          1   -1    0    0  501    0  0.00000000000E+00  0.00000000000E+00  0.10315112727E+03  0.10315112727E+03  0.00000000000E+00 0. -1.
         -1   -1    0    0    0  501 -0.00000000000E+00 -0.00000000000E+00 -0.29758693714E+03  0.29758693714E+03  0.00000000000E+00 0.  1.
         23    2    1    2    0    0  0.11731941800E+03 -0.19333470712E+02 -0.16516425050E+03  0.23888155526E+03  0.12509012300E+03 0.  0.
          5    1    3    3  502    0  0.47424117681E+02 -0.61614459600E+02 -0.12618020397E+03  0.14827105194E+03  0.41800000000E+01 0.  1.
         -5    1    3    3    0  502  0.69895300320E+02  0.42280988888E+02 -0.38984046526E+02  0.90610503319E+02  0.41800000000E+01 0.  1.
        -11    1    1    2    0    0 -0.45876991108E+02  0.48585795947E+02  0.20628169356E+02  0.69934249491E+02  0.00000000000E+00 0. -1.
         11    1    1    2    0    0 -0.71442426893E+02 -0.29252325234E+02 -0.49899728728E+02  0.91922259649E+02  0.00000000000E+00 0.  1.
</event>
<event>
 7    1  0.6992302E-006  0.2154442E+03  0.7561462E-02  0.1137326E+00
         -2   -1    0    0    0  501 -0.00000000000E+00  0.00000000000E+00  0.94734400748E+02  0.94734400748E+02  0.00000000000E+00 0.  1.
          2   -1    0    0  501    0  0.00000000000E+00 -0.00000000000E+00 -0.54199241707E+03  0.54199241707E+03  0.00000000000E+00 0. -1.
         23    2    1    2    0    0 -0.19639585364E+03 -0.26006007891E+02 -0.23165405322E+03  0.32948068886E+03  0.12508509178E+03 0.  0.
          5    1    3    3  502    0 -0.17094464308E+03 -0.48761999270E+02 -0.12482859299E+03  0.21725435231E+03  0.41800000000E+01 0.  1.
         -5    1    3    3    0  502 -0.25451210562E+02  0.22755991379E+02 -0.10682546023E+03  0.11222633655E+03  0.41800000000E+01 0.  1.
        -11    1    1    2    0    0  0.97375562763E+02 -0.33711786381E+02 -0.10840671918E+03  0.14956771553E+03  0.00000000000E+00 0.  1.
         11    1    1    2    0    0  0.99020290875E+02  0.59717794272E+02 -0.10719724392E+03  0.15767841343E+03  0.00000000000E+00 0. -1.
</event>
<event>
 7    1  0.6992302E-006  0.8646142E+02  0.7561462E-02  0.1311654E+00
          1   -1    0    0  501    0  0.00000000000E+00  0.00000000000E+00  0.21200049318E+03  0.21200049318E+03  0.00000000000E+00 0. -1.
         -1   -1    0    0    0  501 -0.00000000000E+00 -0.00000000000E+00 -0.56137306988E+02  0.56137306988E+02  0.00000000000E+00 0.  1.
         23    2    1    2    0    0 -0.12050342707E+02  0.12333447315E+02  0.63116084628E+02  0.14110074903E+03  0.12501382545E+03 0.  0.
          5    1    3    3  502    0  0.43516459719E+02  0.12555806258E+02 -0.12499573615E+02  0.47170353802E+02  0.41800000000E+01 0.  1.
         -5    1    3    3    0  502 -0.55566802426E+02 -0.22235894253E+00  0.75615658243E+02  0.93930395224E+02  0.41800000000E+01 0.  1.
        -11    1    1    2    0    0  0.19840337063E+02  0.25939246517E+02  0.78511333210E+01  0.33587553930E+02  0.00000000000E+00 0.  1.
         11    1    1    2    0    0 -0.77899943559E+01 -0.38272693832E+02  0.84895968245E+02  0.93449497214E+02  0.00000000000E+00 0. -1.
</event>
<event>
 7    1  0.6992302E-006  0.1191396E+03  0.7561462E-02  0.1244523E+00
          2   -1    0    0  501    0  0.00000000000E+00  0.00000000000E+00  0.64693705749E+03  0.64693705749E+03  0.00000000000E+00 0. -1.
         -2   -1    0    0    0  501 -0.00000000000E+00 -0.00000000000E+00 -0.31123990642E+02  0.31123990642E+02  0.00000000000E+00 0.  1.
         23    2    1    2    0    0 -0.90770897414E+02  0.78216138685E+01  0.37615045009E+03  0.40674001192E+03  0.12509093785E+03 0.  0.
          5    1    3    3  502    0 -0.61989588756E+02 -0.32477904453E+02  0.33488127899E+03  0.34214100428E+03  0.41800000000E+01 0.  1.
         -5    1    3    3    0  502 -0.28781308657E+02  0.40299518322E+02  0.41269171106E+02  0.64599007645E+02  0.41800000000E+01 0.  1.
        -11    1    1    2    0    0  0.62736185796E+02  0.31485560546E+02  0.90449888635E+02  0.11449171099E+03  0.00000000000E+00 0.  1.
         11    1    1    2    0    0  0.28034711618E+02 -0.39307174415E+02  0.14921272812E+03  0.15682932522E+03  0.00000000000E+00 0. -1.
</event>
<event>
 7    1  0.6992302E-006  0.9646064E+02  0.7561462E-02  0.1287920E+00
          2   -1    0    0  501    0  0.00000000000E+00  0.00000000000E+00  0.19594517440E+03  0.19594517440E+03  0.00000000000E+00 0.  1.
         -2   -1    0    0    0  501 -0.00000000000E+00 -0.00000000000E+00 -0.10136233898E+03  0.10136233898E+03  0.00000000000E+00 0. -1.
         23    2    1    2    0    0 -0.80962064176E+02  0.37503351017E+02  0.43356708262E+02  0.15964832382E+03  0.12508567454E+03 0.  0.
          5    1    3    3  502    0 -0.79161723208E+02  0.32936318615E+02 -0.26232726401E+02  0.89760836892E+02  0.41800000000E+01 0.  1.
         -5    1    3    3    0  502 -0.18003409682E+01  0.45670324017E+01  0.69589434663E+02  0.69887486929E+02  0.41800000000E+01 0.  1.
        -11    1    1    2    0    0  0.76774380685E+02 -0.15614891685E+02  0.72576852009E+02  0.10679667513E+03  0.00000000000E+00 0.  1.
         11    1    1    2    0    0  0.41876834915E+01 -0.21888459332E+02 -0.21350724851E+02  0.30862514425E+02  0.00000000000E+00 0. -1.
</event>
<event>
 7    1  0.6992302E-006  0.8425525E+02  0.7561462E-02  0.1317392E+00
          2   -1    0    0  501    0  0.00000000000E+00  0.00000000000E+00  0.13798654135E+03  0.13798654135E+03  0.00000000000E+00 0.  1.
         -2   -1    0    0    0  501 -0.00000000000E+00 -0.00000000000E+00 -0.87125042609E+02  0.87125042609E+02  0.00000000000E+00 0. -1.
         23    2    1    2    0    0 -0.11630573096E+01 -0.18537232968E+02  0.31513683669E+02  0.13033401195E+03  0.12509540640E+03 0.  0.
          5    1    3    3  502    0 -0.48929716703E+02 -0.25901267940E+02 -0.20523359912E+02  0.59191836934E+02  0.41800000000E+01 0. -1.
         -5    1    3    3    0  502  0.47766659393E+02  0.73640349723E+01  0.52037043582E+02  0.71142175012E+02  0.41800000000E+01 0. -1.
        -11    1    1    2    0    0 -0.14000104281E+02 -0.19227243668E+02 -0.25055714925E+02  0.34546760620E+02  0.00000000000E+00 0. -1.
         11    1    1    2    0    0  0.15163161591E+02  0.37764476635E+02  0.44403530000E+02  0.60230811396E+02  0.00000000000E+00 0.  1.
</event>
<event>
 7    1  0.6992302E-006  0.9694359E+02  0.7561462E-02  0.1286858E+00
          1   -1    0    0  501    0  0.00000000000E+00  0.00000000000E+00  0.26111357160E+03  0.26111357160E+03  0.00000000000E+00 0. -1.
         -1   -1    0    0    0  501 -0.00000000000E+00 -0.00000000000E+00 -0.45516961168E+02  0.45516961168E+02  0.00000000000E+00 0.  1.
         23    2    1    2    0    0  0.10116425447E+02 -0.39716541875E+01  0.11151988318E+03  0.16793409369E+03  0.12508820640E+03 0.  0.
          5    1    3    3  502    0 -0.13018264615E+02 -0.49464641997E+02  0.73304831971E+01  0.51840470729E+02  0.41800000000E+01 0.  1.
         -5    1    3    3    0  502  0.23134690062E+02  0.45492987810E+02  0.10418939998E+03  0.11609362297E+03  0.41800000000E+01 0.  1.
        -11    1    1    2    0    0  0.35626113180E+02 -0.18777773712E+02  0.40188629052E+02  0.56894205601E+02  0.00000000000E+00 0.  1.
         11    1    1    2    0    0 -0.45742538627E+02  0.22749427900E+02  0.63888098201E+02  0.81802233475E+02  0.00000000000E+00 0. -1.
</event>
<event>
 7    1  0.6992302E-006  0.1290053E+03  0.7561462E-02  0.1228939E+00
          1   -1    0    0  501    0  0.00000000000E+00  0.00000000000E+00  0.21214929875E+03  0.21214929875E+03  0.00000000000E+00 0. -1.
         -1   -1    0    0    0  501 -0.00000000000E+00 -0.00000000000E+00 -0.13569949603E+03  0.13569949603E+03  0.00000000000E+00 0.  1.
         23    2    1    2    0    0  0.10370520308E+03 -0.39919259694E+01 -0.39058108408E+02  0.16716277283E+03  0.12508857730E+03 0.  0.
          5    1    3    3  502    0  0.48125768576E+02 -0.50080132337E+02 -0.59989681846E+02  0.91871342561E+02  0.41800000000E+01 0. -1.
         -5    1    3    3    0  502  0.55579434499E+02  0.46088206368E+02  0.20931573438E+02  0.75291430270E+02  0.41800000000E+01 0. -1.
        -11    1    1    2    0    0 -0.71031303433E+02  0.27165155069E+02  0.22324621142E+02  0.79257683706E+02  0.00000000000E+00 0.  1.
         11    1    1    2    0    0 -0.32673899643E+02 -0.23173229100E+02  0.93183289985E+02  0.10142833824E+03  0.00000000000E+00 0. -1.
</event>
<event>
 7    1  0.6992302E-006  0.1142801E+03  0.7561462E-02  0.1252843E+00
         -2   -1    0    0    0  501 -0.00000000000E+00  0.00000000000E+00  0.27432565746E+03  0.27432565746E+03  0.00000000000E+00 0.  1.
          2   -1    0    0  501    0  0.00000000000E+00 -0.00000000000E+00 -0.67410916411E+02  0.67410916411E+02  0.00000000000E+00 0. -1.
         23    2    1    2    0    0 -0.28791722733E+02 -0.55783778903E+02  0.18582256577E+03  0.23263148719E+03  0.12508632857E+03 0.  0.
          5    1    3    3  502    0 -0.59395465747E+02  0.97426790346E+01  0.12192327309E+03  0.13603491488E+03  0.41800000000E+01 0. -1.
         -5    1    3    3    0  502  0.30603743015E+02 -0.65526457937E+02  0.63899292678E+02  0.96596572305E+02  0.41800000000E+01 0. -1.
        -11    1    1    2    0    0  0.21430198154E+02 -0.14010132062E+02  0.28761007749E+02  0.38506269101E+02  0.00000000000E+00 0.  1.
         11    1    1    2    0    0  0.73615245788E+01  0.69793910965E+02 -0.76688324726E+01  0.70598817578E+02  0.00000000000E+00 0. -1.
</event>
<event>
 6    1  0.6992302E-006  0.1162851E+03  0.7561462E-02  0.1249354E+00
         -1   -1    0    0    0  501 -0.00000000000E+00  0.00000000000E+00  0.27299395384E+03  0.27299395384E+03  0.00000000000E+00 0.  1.
          1   -1    0    0  501    0  0.00000000000E+00 -0.00000000000E+00 -0.18889217342E+03  0.18889217342E+03  0.00000000000E+00 0. -1.
          5    1    1    2  502    0  0.51675125586E+02  0.44895124988E+02  0.14750298905E+03  0.16266682216E+03  0.41800000000E+01 0. -1.
         -5    1    1    2    0  502 -0.67071015538E+02 -0.23232961901E+01  0.92122722769E+02  0.11405256367E+03  0.41800000000E+01 0.  1.
        -11    1    1    2    0    0 -0.25053832478E+02  0.12832430155E+02 -0.24704387915E+02  0.37452270529E+02  0.00000000000E+00 0.  1.
         11    1    1    2    0    0  0.40449722430E+02 -0.55404258954E+02 -0.13081954348E+03  0.14771447090E+03  0.00000000000E+00 0. -1.
</event>
<event>
 7    1  0.6992302E-006  0.9893607E+02  0.7561462E-02  0.1282549E+00
         -2   -1    0    0    0  501 -0.00000000000E+00  0.00000000000E+00  0.45085258603E+03  0.45085258603E+03  0.00000000000E+00 0.  1.
          2   -1    0    0  501    0  0.00000000000E+00 -0.00000000000E+00 -0.40841655348E+02  0.40841655348E+02  0.00000000000E+00 0. -1.
         23    2    1    2    0    0  0.55397263107E+02 -0.41780011269E+02  0.32080942654E+03  0.35124868375E+03  0.12507007467E+03 0.  0.
          5    1    3    3  502    0 -0.26557034390E+02 -0.31196673541E+02  0.20393050960E+03  0.20804719095E+03  0.41800000000E+01 0.  1.
         -5    1    3    3    0  502  0.81954297497E+02 -0.10583337728E+02  0.11687891694E+03  0.14320149280E+03  0.41800000000E+01 0.  1.
        -11    1    1    2    0    0 -0.53546748788E+02  0.28727100194E+02  0.11764436159E+02  0.61894285273E+02  0.00000000000E+00 0. -1.
         11    1    1    2    0    0 -0.18505143185E+01  0.13052911074E+02  0.77437067984E+02  0.78551272355E+02  0.00000000000E+00 0.  1.
</event>
<event>
 7    1  0.6992302E-006  0.1343306E+03  0.7561462E-02  0.1221168E+00
          2   -1    0    0  501    0  0.00000000000E+00  0.00000000000E+00  0.16480234875E+03  0.16480234875E+03  0.00000000000E+00 0. -1.
         -2   -1    0    0    0  501 -0.00000000000E+00 -0.00000000000E+00 -0.12641825432E+03  0.12641825432E+03  0.00000000000E+00 0.  1.
         23    2    1    2    0    0  0.39158430376E+02 -0.85290181323E+02  0.33981368119E+02  0.16001441833E+03  0.12506831331E+03 0.  0.
          5    1    3    3  502    0 -0.44981208347E+02 -0.18926319505E+02  0.75033609368E+01  0.49550857709E+02  0.41800000000E+01 0.  1.
         -5    1    3    3    0  502  0.84139638723E+02 -0.66363861818E+02  0.26478007182E+02  0.11046356062E+03  0.41800000000E+01 0.  1.
        -11    1    1    2    0    0 -0.55080155751E+02  0.53010277915E+02 -0.29327918508E+02  0.81878201777E+02  0.00000000000E+00 0.  1.
         11    1    1    2    0    0  0.15921725374E+02  0.32279903408E+02  0.33730644820E+02  0.49327982960E+02  0.00000000000E+00 0. -1.
</event>
<event>
 7    1  0.6992302E-006  0.2084845E+03  0.7561462E-02  0.1142772E+00
         -1   -1    0    0    0  501 -0.00000000000E+00  0.00000000000E+00  0.22130557548E+03  0.22130557548E+03  0.00000000000E+00 0.  1.
          1   -1    0    0  501    0  0.00000000000E+00 -0.00000000000E+00 -0.22864882242E+03  0.22864882242E+03  0.00000000000E+00 0. -1.
         23    2    1    2    0    0  0.96512797407E+02 -0.16901234187E+03  0.23904850026E+02  0.23259026783E+03  0.12508756560E+03 0.  0.
          5    1    3    3  502    0  0.65025622041E+02 -0.16170542895E+03 -0.22602479865E+02  0.17579909490E+03  0.41800000000E+01 0.  1.
         -5    1    3    3    0  502  0.31487175366E+02 -0.73069129217E+01  0.46507329891E+02  0.56791172928E+02  0.41800000000E+01 0.  1.
        -11    1    1    2    0    0 -0.11003623586E+03  0.14034320136E+03 -0.88613429977E+01  0.17855730388E+03  0.00000000000E+00 0.  1.
         11    1    1    2    0    0  0.13523438455E+02  0.28669140508E+02 -0.22386753974E+02  0.38806826185E+02  0.00000000000E+00 0. -1.
</event>
<event>
 7    1  0.6992302E-006  0.8591949E+02  0.7561462E-02  0.1313045E+00
          2   -1    0    0  501    0  0.00000000000E+00  0.00000000000E+00  0.26334051096E+03  0.26334051096E+03  0.00000000000E+00 0. -1.
         -2   -1    0    0    0  501 -0.00000000000E+00 -0.00000000000E+00 -0.58249346043E+02  0.58249346043E+02  0.00000000000E+00 0.  1.
         23    2    1    2    0    0 -0.24055799379E+02  0.47457835245E+01  0.43066646327E+02  0.13455122019E+03  0.12509232943E+03 0.  0.
          5    1    3    3  502    0  0.22711343917E+02 -0.15395458269E+02 -0.32874291819E+02  0.43023444079E+02  0.41800000000E+01 0.  1.
         -5    1    3    3    0  502 -0.46767143296E+02  0.20141241794E+02  0.75940938146E+02  0.91527776109E+02  0.41800000000E+01 0.  1.
        -11    1    1    2    0    0  0.51087804783E+02 -0.27177127316E+02  0.91751354115E+02  0.10847520928E+03  0.00000000000E+00 0.  1.
         11    1    1    2    0    0 -0.27032005404E+02  0.22431343792E+02  0.70273164474E+02  0.78563427533E+02  0.00000000000E+00 0. -1.
</event>
<event>
 7    1  0.6992302E-006  0.1275541E+03  0.7561462E-02  0.1231131E+00
          1   -1    0    0  501    0  0.00000000000E+00  0.00000000000E+00  0.77617730736E+02  0.77617730736E+02  0.00000000000E+00 0. -1.
         -1   -1    0    0    0  501 -0.00000000000E+00 -0.00000000000E+00 -0.33893899226E+03  0.33893899226E+03  0.00000000000E+00 0.  1.
         23    2    1    2    0    0 -0.51960861037E+02 -0.76364962861E+02 -0.23784797419E+03  0.28416525803E+03  0.12508675555E+03 0.  0.
          5    1    3    3  502    0  0.25072368450E+02 -0.12863406011E+02 -0.14497970788E+03  0.14775208618E+03  0.41800000000E+01 0. -1.
         -5    1    3    3    0  502 -0.77033229486E+02 -0.63501556850E+02 -0.92868266310E+02  0.13641317185E+03  0.41800000000E+01 0. -1.
        -11    1    1    2    0    0 -0.24103852080E+01 -0.17801459065E+02 -0.14862100438E+02  0.23314886470E+02  0.00000000000E+00 0.  1.
         11    1    1    2    0    0  0.54371246245E+02  0.94166421925E+02 -0.86111868991E+01  0.10907657850E+03  0.00000000000E+00 0. -1.
</event>
<event>
 7    1  0.6992302E-006  0.1053466E+03  0.7561462E-02  0.1269438E+00
         -1   -1    0    0    0  501 -0.00000000000E+00  0.00000000000E+00  0.63790405643E+02  0.63790405643E+02  0.00000000000E+00 0.  1.
          1   -1    0    0  501    0  0.00000000000E+00 -0.00000000000E+00 -0.31886111175E+03  0.31886111175E+03  0.00000000000E+00 0. -1.
         23    2    1    2    0    0  0.26574910911E+02 -0.57761378668E+02 -0.52151116314E+02  0.14970103620E+03  0.12509220020E+03 0.  0.
          5    1    3    3  502    0  0.30673934451E+02  0.19269477244E+02 -0.61893154756E+02  0.71836188747E+02  0.41800000000E+01 0.  1.
         -5    1    3    3    0  502 -0.40990235404E+01 -0.77030855912E+02  0.97420384419E+01  0.77864847457E+02  0.41800000000E+01 0.  1.
        -11    1    1    2    0    0  0.23929712951E+02  0.60283341760E+01 -0.94695949649E+01  0.26431897466E+02  0.00000000000E+00 0.  1.
         11    1    1    2    0    0 -0.50504623862E+02  0.51733044492E+02 -0.19344999483E+03  0.20651858373E+03  0.00000000000E+00 0. -1.
</event>
<event>
 7    1  0.6992302E-006  0.1116967E+03  0.7561462E-02  0.1257460E+00
         -1   -1    0    0    0  501 -0.00000000000E+00  0.00000000000E+00  0.94871605681E+02  0.94871605681E+02  0.00000000000E+00 0.  1.
          1   -1    0    0  501    0  0.00000000000E+00 -0.00000000000E+00 -0.27934373299E+03  0.27934373299E+03  0.00000000000E+00 0. -1.
         23    2    1    2    0    0 -0.50981133303E+02  0.35108824443E+02  0.28591340422E+02  0.13366202190E+03  0.11496245406E+03 0.  0.
          5    1    3    3  502    0  0.27721244085E+02 -0.13189099591E+02  0.27182560670E+02  0.41216304131E+02  0.41800000000E+01 0. -1.
         -5    1    3    3    0  502 -0.78702377388E+02  0.48297924034E+02  0.14087797513E+01  0.92445717764E+02  0.41800000000E+01 0.  1.
        -11    1    1    2    0    0  0.48141396391E+02 -0.58868948561E+02 -0.19843271645E+03  0.21250574136E+03  0.00000000000E+00 0. -1.
         11    1    1    2    0    0  0.28397369118E+01  0.23760124118E+02 -0.14630751275E+02  0.28047575416E+02  0.00000000000E+00 0.  1.
</event>
<event>
 7    1  0.6992302E-006  0.8035813E+02  0.7561462E-02  0.1328038E+00
          3   -1    0    0  501    0  0.00000000000E+00  0.00000000000E+00  0.14935210768E+03  0.14935210768E+03  0.00000000000E+00 0. -1.
         -3   -1    0    0    0  501 -0.00000000000E+00 -0.00000000000E+00 -0.82175084125E+02  0.82175084125E+02  0.00000000000E+00 0.  1.
         23    2    1    2    0    0 -0.90938753847E+01  0.23402142555E+02  0.28232510223E+02  0.13067374402E+03  0.12509274118E+03 0.  0.
          5    1    3    3  502    0  0.30981994863E+02  0.50609294112E+02  0.49709938280E+02  0.77522480740E+02  0.41800000000E+01 0.  1.
         -5    1    3    3    0  502 -0.40075870248E+02 -0.27207151558E+02 -0.21477428057E+02  0.53151263277E+02  0.41800000000E+01 0.  1.
        -11    1    1    2    0    0 -0.16020516049E+02  0.28593421609E+01 -0.23512564061E+02  0.28594989785E+02  0.00000000000E+00 0.  1.
         11    1    1    2    0    0  0.25114391434E+02 -0.26261484716E+02  0.62457077397E+02  0.72258458007E+02  0.00000000000E+00 0. -1.
</event>
<event>
 7    1  0.1290581E-005  0.2460725E+03  0.7561462E-02  0.1115812E+00
         -1   -1    0    0    0  501 -0.00000000000E+00  0.00000000000E+00  0.29218477403E+03  0.29218477403E+03  0.00000000000E+00 0.  1.
          1   -1    0    0  501    0  0.00000000000E+00 -0.00000000000E+00 -0.23259246657E+03  0.23259246657E+03  0.00000000000E+00 0. -1.
         23    2    1    2    0    0  0.13668263873E+03 -0.19159726611E+03  0.60639858930E+02  0.27334262274E+03  0.12508933130E+03 0.  0.
          5    1    3    3  502    0  0.59986164908E+02 -0.15795061450E+03  0.80446569371E+02  0.18717868342E+03  0.41800000000E+01 0.  1.
         -5    1    3    3    0  502  0.76696473825E+02 -0.33646651605E+02 -0.19806710440E+02  0.86163939325E+02  0.41800000000E+01 0.  1.
        -11    1    1    2    0    0 -0.32173254497E+02  0.80797201547E+02  0.36892201241E+02  0.94468728134E+02  0.00000000000E+00 0.  1.
         11    1    1    2    0    0 -0.10450938424E+03  0.11080006456E+03 -0.37939752709E+02  0.15696588972E+03  0.00000000000E+00 0. -1.
</event>
<event>
 7    1  0.6992302E-006  0.1130713E+03  0.7561462E-02  0.1254986E+00
          2   -1    0    0  501    0  0.00000000000E+00  0.00000000000E+00  0.37388770530E+02  0.37388770530E+02  0.00000000000E+00 0.  1.
         -2   -1    0    0    0  501 -0.00000000000E+00 -0.00000000000E+00 -0.43377058221E+03  0.43377058221E+03  0.00000000000E+00 0. -1.
         23    2    1    2    0    0 -0.26154795585E+02 -0.57410200328E+02 -0.23957961147E+03  0.27753668562E+03  0.12509283434E+03 0.  0.
          5    1    3    3  502    0  0.22959567758E+02 -0.79331911816E+02 -0.17376242188E+03  0.19243582214E+03  0.41800000000E+01 0.  1.
         -5    1    3    3    0  502 -0.49114363343E+02  0.21921711488E+02 -0.65817189582E+02  0.85100863484E+02  0.41800000000E+01 0.  1.
        -11    1    1    2    0    0  0.14460854512E+02 -0.12198356029E+02  0.27853037135E+01  0.19122607557E+02  0.00000000000E+00 0.  1.
         11    1    1    2    0    0  0.11693941073E+02  0.69608556357E+02 -0.15958750392E+03  0.17450005955E+03  0.00000000000E+00 0. -1.
</event>
<event>
 7    1  0.6992302E-006  0.9408505E+02  0.7561462E-02  0.1293250E+00
         -1   -1    0    0    0  501 -0.00000000000E+00  0.00000000000E+00  0.14548572948E+03  0.14548572948E+03  0.00000000000E+00 0.  1.
          1   -1    0    0  501    0  0.00000000000E+00 -0.00000000000E+00 -0.11813110468E+03  0.11813110468E+03  0.00000000000E+00 0. -1.
         23    2    1    2    0    0  0.63006828430E+02  0.20066906744E+02  0.46906761593E+02  0.14906646627E+03  0.12509206973E+03 0.  0.
          5    1    3    3  502    0  0.35698838321E+01  0.53310865269E+02 -0.16342292919E+02  0.56029772123E+02  0.41800000000E+01 0. -1.
         -5    1    3    3    0  502  0.59436944598E+02 -0.33243958525E+02  0.63249054512E+02  0.93036694150E+02  0.41800000000E+01 0. -1.
        -11    1    1    2    0    0 -0.28136441433E+02 -0.61466850626E+01 -0.55526854750E+02  0.62551360275E+02  0.00000000000E+00 0. -1.
         11    1    1    2    0    0 -0.34870386997E+02 -0.13920221681E+02  0.35974717959E+02  0.51999007618E+02  0.00000000000E+00 0.  1.
</event>
<event>
 7    1  0.6992302E-006  0.8105044E+02  0.7561462E-02  0.1326097E+00
         -2   -1    0    0    0  501 -0.00000000000E+00  0.00000000000E+00  0.30059012913E+02  0.30059012913E+02  0.00000000000E+00 0.  1.
          2   -1    0    0  501    0  0.00000000000E+00 -0.00000000000E+00 -0.41226383902E+03  0.41226383902E+03  0.00000000000E+00 0. -1.
         23    2    1    2    0    0  0.35318588269E+02 -0.54420398380E+02 -0.18658419570E+03  0.23380632266E+03  0.12507098781E+03 0.  0.
          5    1    3    3  502    0 -0.20240387422E+02 -0.24810444429E+02  0.44739366722E+01  0.32599385655E+02  0.41800000000E+01 0. -1.
         -5    1    3    3    0  502  0.55558975691E+02 -0.29609953951E+02 -0.19105813237E+03  0.20120693700E+03  0.41800000000E+01 0. -1.
        -11    1    1    2    0    0 -0.48335716243E+01  0.20700349407E+02 -0.29979024489E+02  0.36750643389E+02  0.00000000000E+00 0.  1.
         11    1    1    2    0    0 -0.30485016645E+02  0.33720048974E+02 -0.16564160593E+03  0.17176588589E+03  0.00000000000E+00 0. -1.
</event>
<event>
 7    1  0.6992302E-006  0.1178881E+03  0.7561462E-02  0.1246622E+00
          1   -1    0    0  501    0  0.00000000000E+00  0.00000000000E+00  0.28641558537E+03  0.28641558537E+03  0.00000000000E+00 0. -1.
         -1   -1    0    0    0  501 -0.00000000000E+00 -0.00000000000E+00 -0.64696735860E+02  0.64696735860E+02  0.00000000000E+00 0.  1.
         23    2    1    2    0    0 -0.73171925968E+02  0.19572091399E+02  0.80562575422E+02  0.16695808788E+03  0.12508987584E+03 0.  0.
          5    1    3    3  502    0 -0.25246089765E+02  0.54885646496E+02 -0.70336932350E+01  0.60965108712E+02  0.41800000000E+01 0.  1.
         -5    1    3    3    0  502 -0.47925836203E+02 -0.35313555098E+02  0.87596268657E+02  0.10599297916E+03  0.41800000000E+01 0.  1.
        -11    1    1    2    0    0  0.28058923671E+00  0.28321465514E+02  0.53297006427E+02  0.60355240313E+02  0.00000000000E+00 0.  1.
         11    1    1    2    0    0  0.72891336731E+02 -0.47893556913E+02  0.87859267664E+02  0.12379899304E+03  0.00000000000E+00 0. -1.
</event>
<event>
 7    1  0.6992302E-006  0.1044954E+03  0.7561462E-02  0.1271117E+00
         -3   -1    0    0    0  501 -0.00000000000E+00  0.00000000000E+00  0.18481814432E+02  0.18481814432E+02  0.00000000000E+00 0.  1.
          3   -1    0    0  501    0  0.00000000000E+00 -0.00000000000E+00 -0.73105903251E+03  0.73105903251E+03  0.00000000000E+00 0. -1.
         23    2    1    2    0    0  0.16018623652E+02  0.18942886343E+02 -0.29756374844E+03  0.32373830805E+03  0.12508748326E+03 0.  0.
          5    1    3    3  502    0  0.19947831473E+02  0.64913374892E+02 -0.10093053762E+03  0.12172143625E+03  0.41800000000E+01 0. -1.
         -5    1    3    3    0  502 -0.39292078209E+01 -0.45970488550E+02 -0.19663321083E+03  0.20201687180E+03  0.41800000000E+01 0. -1.
        -11    1    1    2    0    0 -0.28274340293E+02  0.31725553808E+02 -0.16254649055E+03  0.16800985290E+03  0.00000000000E+00 0.  1.
         11    1    1    2    0    0  0.12255716641E+02 -0.50668440151E+02 -0.25246697909E+03  0.25779268599E+03  0.00000000000E+00 0. -1.
</event>
<event>
 7    1  0.6992302E-006  0.1820490E+03  0.7561462E-02  0.1165835E+00
          2   -1    0    0  501    0  0.00000000000E+00  0.00000000000E+00  0.29058424100E+03  0.29058424100E+03  0.00000000000E+00 0. -1.
         -2   -1    0    0    0  501 -0.00000000000E+00 -0.00000000000E+00 -0.15266968564E+03  0.15266968564E+03  0.00000000000E+00 0.  1.
         23    2    1    2    0    0  0.16606046780E+03 -0.54709877864E+02  0.25543654429E+02  0.21649215816E+03  0.12508847492E+03 0.  0.
          5    1    3    3  502    0  0.14482313345E+03 -0.61037270732E+02 -0.26812846836E+02  0.15948570330E+03  0.41800000000E+01 0.  1.
         -5    1    3    3    0  502  0.21237334354E+02  0.63273928676E+01  0.52356501265E+02  0.57006454860E+02  0.41800000000E+01 0.  1.
        -11    1    1    2    0    0 -0.12132071975E+03  0.11056379206E+02  0.11011307917E+03  0.16421282156E+03  0.00000000000E+00 0.  1.
         11    1    1    2    0    0 -0.44739748052E+02  0.43653498658E+02  0.22578217625E+01  0.62548946913E+02  0.00000000000E+00 0. -1.
</event>
<event>
 7    1  0.6992302E-006  0.1119541E+03  0.7561462E-02  0.1256993E+00
         -1   -1    0    0    0  501 -0.00000000000E+00  0.00000000000E+00  0.51751213842E+03  0.51751213842E+03  0.00000000000E+00 0.  1.
          1   -1    0    0  501    0  0.00000000000E+00 -0.00000000000E+00 -0.35728932699E+02  0.35728932699E+02  0.00000000000E+00 0. -1.
         23    2    1    2    0    0  0.22001594240E+02  0.63011408761E+02  0.34623922569E+03  0.37414425572E+03  0.12509122630E+03 0.  0.
          5    1    3    3  502    0  0.72809203022E+02  0.42137483360E+02  0.24209276122E+03  0.25632620815E+03  0.41800000000E+01 0.  1.
         -5    1    3    3    0  502 -0.50807608782E+02  0.20873925401E+02  0.10414646446E+03  0.11781804757E+03  0.41800000000E+01 0.  1.
        -11    1    1    2    0    0 -0.26814720716E+02 -0.61266421234E+01 -0.44932095505E+01  0.27870305395E+02  0.00000000000E+00 0.  1.
         11    1    1    2    0    0  0.48131264755E+01 -0.56884766638E+02  0.14003718958E+03  0.15122651000E+03  0.00000000000E+00 0. -1.
</event>
<event>
 7    1  0.6992302E-006  0.1659914E+03  0.7561462E-02  0.1182094E+00
          2   -1    0    0  501    0  0.00000000000E+00  0.00000000000E+00  0.34360783264E+02  0.34360783264E+02  0.00000000000E+00 0. -1.
         -2   -1    0    0    0  501 -0.00000000000E+00 -0.00000000000E+00 -0.10372700652E+04  0.10372700652E+04  0.00000000000E+00 0.  1.
         23    2    1    2    0    0 -0.71351147571E+02 -0.12565383731E+03 -0.67770342379E+03  0.70413730691E+03  0.12509014063E+03 0.  0.
          5    1    3    3  502    0  0.19756393590E+02  0.10694606908E+02 -0.44417029055E+02  0.49950321066E+02  0.41800000000E+01 0.  1.
         -5    1    3    3    0  502 -0.91107541161E+02 -0.13634844422E+03 -0.63328639473E+03  0.65418698585E+03  0.41800000000E+01 0.  1.
        -11    1    1    2    0    0  0.34011703923E+02  0.46894547287E+02 -0.43031185190E+02  0.72163546669E+02  0.00000000000E+00 0. -1.
         11    1    1    2    0    0  0.37339443648E+02  0.78759290024E+02 -0.28217467291E+03  0.29532999484E+03  0.00000000000E+00 0.  1.
</event>
<event>
 7    1  0.6992302E-006  0.9459921E+02  0.7561462E-02  0.1292081E+00
         -3   -1    0    0    0  501 -0.00000000000E+00  0.00000000000E+00  0.78578351508E+03  0.78578351508E+03  0.00000000000E+00 0.  1.
          3   -1    0    0  501    0  0.00000000000E+00 -0.00000000000E+00 -0.20266496728E+02  0.20266496728E+02  0.00000000000E+00 0. -1.
         23    2    1    2    0    0  0.10701282859E+02  0.16098563160E+01  0.62521130527E+03  0.63769351498E+03  0.12508690467E+03 0.  0.
          5    1    3    3  502    0  0.30593246394E+02  0.53086615493E+02  0.20955180058E+03  0.21836566808E+03  0.41800000000E+01 0.  1.
         -5    1    3    3    0  502 -0.19891963535E+02 -0.51476759177E+02  0.41565950469E+03  0.41932784691E+03  0.41800000000E+01 0.  1.
        -11    1    1    2    0    0  0.10316354126E+02 -0.33049703706E+02  0.15475867153E+02  0.37923772777E+02  0.00000000000E+00 0. -1.
         11    1    1    2    0    0 -0.21017636986E+02  0.31439847390E+02  0.12482984593E+03  0.13043272405E+03  0.00000000000E+00 0.  1.
</event>
<event>
 7    1  0.6992302E-006  0.1044317E+03  0.7561462E-02  0.1271243E+00
          2   -1    0    0  501    0  0.00000000000E+00  0.00000000000E+00  0.24027731908E+03  0.24027731908E+03  0.00000000000E+00 0. -1.
         -2   -1    0    0    0  501 -0.00000000000E+00 -0.00000000000E+00 -0.74240222173E+02  0.74240222173E+02  0.00000000000E+00 0.  1.
         23    2    1    2    0    0  0.26998358633E+02 -0.67143125924E+02  0.69912221899E+02  0.16054127293E+03  0.12509464742E+03 0.  0.
          5    1    3    3  502    0  0.54111240082E+02  0.84893785727E+01  0.56814225494E+02  0.79027998015E+02  0.41800000000E+01 0.  1.
         -5    1    3    3    0  502 -0.27112881448E+02 -0.75632504497E+02  0.13097996405E+02  0.81513274911E+02  0.41800000000E+01 0.  1.
        -11    1    1    2    0    0 -0.22077081046E+02  0.38219062467E+02 -0.88177552383E+01  0.45009410692E+02  0.00000000000E+00 0.  1.
         11    1    1    2    0    0 -0.49212775876E+01  0.28924063457E+02  0.10494263025E+03  0.10896685764E+03  0.00000000000E+00 0. -1.
</event>
<event>
 7    1  0.6992302E-006  0.1119147E+03  0.7561462E-02  0.1257065E+00
          2   -1    0    0  501    0  0.00000000000E+00  0.00000000000E+00  0.26281348678E+03  0.26281348678E+03  0.00000000000E+00 0. -1.
         -2   -1    0    0    0  501 -0.00000000000E+00 -0.00000000000E+00 -0.54182667580E+02  0.54182667580E+02  0.00000000000E+00 0.  1.
         23    2    1    2    0    0  0.22137285870E+02  0.40190826832E+02  0.90948941596E+02  0.16132791951E+03  0.12509846382E+03 0.  0.
          5    1    3    3  502    0 -0.24074877328E+02 -0.36225041302E+02  0.33508473042E+02  0.55064902627E+02  0.41800000000E+01 0. -1.
         -5    1    3    3    0  502  0.46212163198E+02  0.76415868134E+02  0.57440468554E+02  0.10626301689E+03  0.41800000000E+01 0. -1.
        -11    1    1    2    0    0 -0.13948522016E+02  0.23062207730E+02  0.68737366247E+01  0.27815012978E+02  0.00000000000E+00 0.  1.
         11    1    1    2    0    0 -0.81887638533E+01 -0.63253034562E+02  0.11080814098E+03  0.12785322187E+03  0.00000000000E+00 0. -1.
</event>
<event>
 7    1  0.6992302E-006  0.1163252E+03  0.7561462E-02  0.1249285E+00
         -1   -1    0    0    0  501 -0.00000000000E+00  0.00000000000E+00  0.49172856279E+02  0.49172856279E+02  0.00000000000E+00 0.  1.
          1   -1    0    0  501    0  0.00000000000E+00 -0.00000000000E+00 -0.35596583791E+03  0.35596583791E+03  0.00000000000E+00 0. -1.
         23    2    1    2    0    0 -0.36836723483E+02 -0.65569141427E+02 -0.16079459239E+03  0.21716045254E+03  0.12508998642E+03 0.  0.
          5    1    3    3  502    0  0.31997486725E+02 -0.56521843315E+01 -0.10528322842E+03  0.11026249104E+03  0.41800000000E+01 0. -1.
         -5    1    3    3    0  502 -0.68834210208E+02 -0.59916957095E+02 -0.55511363969E+02  0.10689796150E+03  0.41800000000E+01 0. -1.
        -11    1    1    2    0    0 -0.23946742697E+02  0.28960326814E+02 -0.90185267406E+02  0.97701225540E+02  0.00000000000E+00 0. -1.
         11    1    1    2    0    0  0.60783466180E+02  0.36608814612E+02 -0.55813121833E+02  0.90277016106E+02  0.00000000000E+00 0.  1.
</event>
<event>
 7    1  0.6992302E-006  0.1585973E+03  0.7561462E-02  0.1190290E+00
         -1   -1    0    0    0  501 -0.00000000000E+00  0.00000000000E+00  0.42473556685E+02  0.42473556685E+02  0.00000000000E+00 0.  1.
          1   -1    0    0  501    0  0.00000000000E+00 -0.00000000000E+00 -0.69993591036E+03  0.69993591036E+03  0.00000000000E+00 0. -1.
         23    2    1    2    0    0  0.64049304959E+02  0.11459696372E+03 -0.27695826568E+03  0.33103995699E+03  0.12508714817E+03 0.  0.
          5    1    3    3  502    0  0.16896856551E+01  0.11743185636E+03 -0.16166386779E+03  0.19986439021E+03  0.41800000000E+01 0. -1.
         -5    1    3    3    0  502  0.62359619304E+02 -0.28348926332E+01 -0.11529439789E+03  0.13117556679E+03  0.41800000000E+01 0. -1.
        -11    1    1    2    0    0 -0.57753796643E+02 -0.64324882719E+02 -0.32463882128E+03  0.33595171654E+03  0.00000000000E+00 0. -1.
         11    1    1    2    0    0 -0.62955083160E+01 -0.50272081005E+02 -0.55865266720E+02  0.75417793518E+02  0.00000000000E+00 0.  1.
</event>
<event>
 7    1  0.6992302E-006  0.9007475E+02  0.7561462E-02  0.1302671E+00
         -1   -1    0    0    0  501 -0.00000000000E+00  0.00000000000E+00  0.40072968674E+02  0.40072968674E+02  0.00000000000E+00 0.  1.
          1   -1    0    0  501    0  0.00000000000E+00 -0.00000000000E+00 -0.37625116500E+03  0.37625116500E+03  0.00000000000E+00 0. -1.
         23    2    1    2    0    0  0.34168463526E+02  0.46117476056E+02 -0.17310160977E+03  0.22114889416E+03  0.12509340744E+03 0.  0.
          5    1    3    3  502    0 -0.13827821887E+02  0.53234690068E+02 -0.17141671843E+02  0.57762013455E+02  0.41800000000E+01 0.  1.
         -5    1    3    3    0  502  0.47996285413E+02 -0.71172140115E+01 -0.15595993792E+03  0.16338688070E+03  0.41800000000E+01 0.  1.
        -11    1    1    2    0    0 -0.32514537128E+02 -0.56816714682E+02 -0.17010578720E+03  0.18226714743E+03  0.00000000000E+00 0. -1.
         11    1    1    2    0    0 -0.16539263986E+01  0.10699238625E+02  0.70292006419E+01  0.12908092088E+02  0.00000000000E+00 0.  1.
</event>
<event>
 7    1  0.6992302E-006  0.9977206E+02  0.7561462E-02  0.1280776E+00
         -1   -1    0    0    0  501 -0.00000000000E+00  0.00000000000E+00  0.27422046856E+03  0.27422046856E+03  0.00000000000E+00 0.  1.
          1   -1    0    0  501    0  0.00000000000E+00 -0.00000000000E+00 -0.47850737175E+02  0.47850737175E+02  0.00000000000E+00 0. -1.
         23    2    1    2    0    0  0.21519297851E+02 -0.42582525240E+01  0.16481655360E+03  0.20806856034E+03  0.12508723583E+03 0.  0.
          5    1    3    3  502    0  0.53634612985E+02 -0.30594926942E+02  0.15244827996E+03  0.16453167393E+03  0.41800000000E+01 0.  1.
         -5    1    3    3    0  502 -0.32115315134E+02  0.26336674418E+02  0.12368273640E+02  0.43536886411E+02  0.41800000000E+01 0.  1.
        -11    1    1    2    0    0 -0.20874723799E+02  0.47907815908E+02  0.35270794059E+02  0.63047139763E+02  0.00000000000E+00 0.  1.
         11    1    1    2    0    0 -0.64457405174E+00 -0.43649563384E+02  0.26282383723E+02  0.50955505625E+02  0.00000000000E+00 0. -1.
</event>
<event>
 7    1  0.6992302E-006  0.2097725E+03  0.7561462E-02  0.1141746E+00
         -1   -1    0    0    0  501 -0.00000000000E+00  0.00000000000E+00  0.31420212287E+03  0.31420212287E+03  0.00000000000E+00 0.  1.
          1   -1    0    0  501    0  0.00000000000E+00 -0.00000000000E+00 -0.15343596304E+03  0.15343596304E+03  0.00000000000E+00 0. -1.
         23    2    1    2    0    0 -0.19068452233E+03  0.50426452118E+01  0.81552710541E+02  0.24224547046E+03  0.12508400390E+03 0.  0.
          5    1    3    3  502    0 -0.73493829803E+02  0.63016662231E+02  0.41729530748E+02  0.10550482868E+03  0.41800000000E+01 0.  1.
         -5    1    3    3    0  502 -0.11719069253E+03 -0.57974017020E+02  0.39823179793E+02  0.13674064178E+03  0.41800000000E+01 0.  1.
        -11    1    1    2    0    0  0.13833301823E+03 -0.12729096238E+02  0.11408343077E+02  0.13938509288E+03  0.00000000000E+00 0. -1.
         11    1    1    2    0    0  0.52351504100E+02  0.76864510257E+01  0.67805106211E+02  0.86007522573E+02  0.00000000000E+00 0.  1.
</event>
<event>
 7    1  0.6992302E-006  0.1322251E+03  0.7561462E-02  0.1224191E+00
         -2   -1    0    0    0  501 -0.00000000000E+00  0.00000000000E+00  0.75776393182E+02  0.75776393182E+02  0.00000000000E+00 0.  1.
          2   -1    0    0  501    0  0.00000000000E+00 -0.00000000000E+00 -0.38493241457E+03  0.38493241457E+03  0.00000000000E+00 0. -1.
         23    2    1    2    0    0  0.24440188342E+02  0.10650106971E+03 -0.64607719072E+02  0.17820835133E+03  0.12507701014E+03 0.  0.
          5    1    3    3  502    0  0.14256198948E+02  0.12885330608E+03 -0.76514669067E+02  0.15059342840E+03  0.41800000000E+01 0.  1.
         -5    1    3    3    0  502  0.10183989394E+02 -0.22352236362E+02  0.11906949995E+02  0.27614922932E+02  0.41800000000E+01 0.  1.
        -11    1    1    2    0    0 -0.20738696566E+02 -0.66586759885E+02 -0.22920211205E+03  0.23957775000E+03  0.00000000000E+00 0. -1.
         11    1    1    2    0    0 -0.37014917763E+01 -0.39914309829E+02 -0.15346190264E+02  0.42922706416E+02  0.00000000000E+00 0.  1.
</event>
<event>
 7    1  0.6992302E-006  0.8338000E+02  0.7561462E-02  0.1319724E+00
         -1   -1    0    0    0  501 -0.00000000000E+00  0.00000000000E+00  0.76800168255E+02  0.76800168255E+02  0.00000000000E+00 0.  1.
          1   -1    0    0  501    0  0.00000000000E+00 -0.00000000000E+00 -0.18346973264E+03  0.18346973264E+03  0.00000000000E+00 0. -1.
         23    2    1    2    0    0 -0.98498242893E+01 -0.42564360418E+02 -0.76022309857E+01  0.11893350491E+03  0.11035687952E+03 0.  0.
          5    1    3    3  502    0  0.29812915100E+02  0.22907994027E+02  0.12211233778E+02  0.39751386485E+02  0.41800000000E+01 0. -1.
         -5    1    3    3    0  502 -0.39662739390E+02 -0.65472354445E+02 -0.19813464764E+02  0.79182118426E+02  0.41800000000E+01 0.  1.
        -11    1    1    2    0    0 -0.58425434488E+01  0.33784524350E+02  0.59433386757E+01  0.34797308432E+02  0.00000000000E+00 0.  1.
         11    1    1    2    0    0  0.15692367738E+02  0.87798360682E+01 -0.10501067207E+03  0.10653908755E+03  0.00000000000E+00 0. -1.
</event>
<event>
 7    1  0.6992302E-006  0.1178463E+03  0.7561462E-02  0.1246693E+00
          1   -1    0    0  501    0  0.00000000000E+00  0.00000000000E+00  0.94360147842E+03  0.94360147842E+03  0.00000000000E+00 0. -1.
         -1   -1    0    0    0  501 -0.00000000000E+00 -0.00000000000E+00 -0.22460159209E+02  0.22460159209E+02  0.00000000000E+00 0.  1.
         23    2    1    2    0    0  0.99951454095E+02 -0.12658912963E+02  0.52172471530E+03  0.54470781154E+03  0.11983063108E+03 0.  0.
          5    1    3    3  502    0  0.67140289457E+02 -0.10052983642E+01  0.49763393092E+03  0.50216116008E+03  0.41800000000E+01 0. -1.
         -5    1    3    3    0  502  0.32811164638E+02 -0.11653614599E+02  0.24090784379E+02  0.42546651456E+02  0.41800000000E+01 0.  1.
        -11    1    1    2    0    0 -0.37137323725E+02 -0.37638335665E+02  0.18191105038E+03  0.18943984632E+03  0.00000000000E+00 0.  1.
         11    1    1    2    0    0 -0.62814130370E+02  0.50297248628E+02  0.21750555354E+03  0.23191397977E+03  0.00000000000E+00 0. -1.
</event>
<event>
 7    1  0.6992302E-006  0.2516806E+03  0.7561462E-02  0.1112247E+00
         -2   -1    0    0    0  501 -0.00000000000E+00  0.00000000000E+00  0.26053202435E+03  0.26053202435E+03  0.00000000000E+00 0.  1.
          2   -1    0    0  501    0  0.00000000000E+00 -0.00000000000E+00 -0.30349479097E+03  0.30349479097E+03  0.00000000000E+00 0. -1.
         23    2    1    2    0    0 -0.24999083469E+02 -0.24501153178E+03  0.58318700603E+02  0.28231907169E+03  0.12508949804E+03 0.  0.
          5    1    3    3  502    0 -0.18551237498E+02 -0.13504662301E+03  0.94929887061E+02  0.16616526308E+03  0.41800000000E+01 0.  1.
         -5    1    3    3    0  502 -0.64478459713E+01 -0.10996490878E+03 -0.36611186458E+02  0.11615380861E+03  0.41800000000E+01 0.  1.
        -11    1    1    2    0    0  0.31656674295E+02  0.37265474944E+02  0.33386270947E+01  0.49010275260E+02  0.00000000000E+00 0.  1.
         11    1    1    2    0    0 -0.66575908255E+01  0.20774605684E+03 -0.10462009432E+03  0.23269746836E+03  0.00000000000E+00 0. -1.
</event>
<event>
 7    1  0.6992302E-006  0.1082873E+03  0.7561462E-02  0.1263775E+00
         -3   -1    0    0    0  501 -0.00000000000E+00  0.00000000000E+00  0.62828875260E+02  0.62828875260E+02  0.00000000000E+00 0.  1.
          3   -1    0    0  501    0  0.00000000000E+00 -0.00000000000E+00 -0.23358176982E+03  0.23358176982E+03  0.00000000000E+00 0. -1.
         23    2    1    2    0    0 -0.30984962332E+02  0.36525315973E+02 -0.65527527313E+02  0.14911900492E+03  0.12509378161E+03 0.  0.
          5    1    3    3  502    0 -0.32564243776E+02  0.74507612270E+02 -0.73913820225E+02  0.10996608331E+03  0.41800000000E+01 0. -1.
         -5    1    3    3    0  502  0.15792814444E+01 -0.37982296298E+02  0.83862929118E+01  0.39152921612E+02  0.41800000000E+01 0. -1.
        -11    1    1    2    0    0  0.45540454668E+02  0.11297641379E+02 -0.26081268248E+02  0.53682420451E+02  0.00000000000E+00 0.  1.
         11    1    1    2    0    0 -0.14555492336E+02 -0.47822957351E+02 -0.79144098996E+02  0.93609219700E+02  0.00000000000E+00 0. -1.
</event>
<event>
 7    1  0.6992302E-006  0.1240349E+03  0.7561462E-02  0.1236585E+00
         -4   -1    0    0    0  501 -0.00000000000E+00  0.00000000000E+00  0.36175974909E+02  0.36175974909E+02  0.00000000000E+00 0.  1.
          4   -1    0    0  501    0  0.00000000000E+00 -0.00000000000E+00 -0.51380134811E+03  0.51380134811E+03  0.00000000000E+00 0. -1.
         23    2    1    2    0    0  0.57051975132E+02  0.29095650710E+02 -0.15857860892E+03  0.21188691473E+03  0.12508958659E+03 0.  0.
          5    1    3    3  502    0  0.91269630186E+02 -0.33689292051E+01 -0.11967682081E+03  0.15060381442E+03  0.41800000000E+01 0.  1.
         -5    1    3    3    0  502 -0.34217655054E+02  0.32464579915E+02 -0.38901788112E+02  0.61283100320E+02  0.41800000000E+01 0.  1.
        -11    1    1    2    0    0  0.21863156500E+02  0.63690098398E+01 -0.10036341793E+03  0.10291441861E+03  0.00000000000E+00 0. -1.
         11    1    1    2    0    0 -0.78915131632E+02 -0.35464660550E+02 -0.21868334635E+03  0.23517598967E+03  0.00000000000E+00 0.  1.
</event>
<event>
 7    1  0.6992302E-006  0.8708882E+02  0.7561462E-02  0.1310059E+00
         -1   -1    0    0    0  501 -0.00000000000E+00  0.00000000000E+00  0.40048708667E+03  0.40048708667E+03  0.00000000000E+00 0.  1.
          1   -1    0    0  501    0  0.00000000000E+00 -0.00000000000E+00 -0.67858612752E+02  0.67858612752E+02  0.00000000000E+00 0. -1.
         23    2    1    2    0    0 -0.80461299856E+02 -0.15198781356E+02  0.30883087271E+03  0.34311591010E+03  0.12508795342E+03 0.  0.
          5    1    3    3  502    0 -0.17471040115E+02 -0.19225724747E+02 -0.15467603272E+01  0.26357742738E+02  0.41800000000E+01 0. -1.
         -5    1    3    3    0  502 -0.62990259741E+02  0.40269433904E+01  0.31037763304E+03  0.31675816736E+03  0.41800000000E+01 0. -1.
        -11    1    1    2    0    0  0.30761592345E+02  0.16468051183E+02 -0.34187634718E+02  0.48849428256E+02  0.00000000000E+00 0. -1.
         11    1    1    2    0    0  0.49699707511E+02 -0.12692698264E+01  0.57985235922E+02  0.76380361072E+02  0.00000000000E+00 0.  1.
</event>
<event>
 7    1  0.6992302E-006  0.1018109E+03  0.7561462E-02  0.1276533E+00
          2   -1    0    0  501    0  0.00000000000E+00  0.00000000000E+00  0.15937795275E+03  0.15937795275E+03  0.00000000000E+00 0. -1.
         -2   -1    0    0    0  501 -0.00000000000E+00 -0.00000000000E+00 -0.83449473694E+02  0.83449473694E+02  0.00000000000E+00 0.  1.
         23    2    1    2    0    0  0.32728844707E+02  0.20726753077E+02  0.34991063882E+02  0.13554509697E+03  0.12508926090E+03 0.  0.
          5    1    3    3  502    0 -0.94648140867E+01 -0.34487383420E+02 -0.24846560470E+02  0.43746843178E+02  0.41800000000E+01 0.  1.
         -5    1    3    3    0  502  0.42193658793E+02  0.55214136496E+02  0.59837624352E+02  0.91798253793E+02  0.41800000000E+01 0.  1.
        -11    1    1    2    0    0 -0.10918894073E+02 -0.55712674960E+02  0.31735869004E+02  0.65040677890E+02  0.00000000000E+00 0. -1.
         11    1    1    2    0    0 -0.21809950634E+02  0.34985921884E+02  0.92015461728E+01  0.42241651585E+02  0.00000000000E+00 0.  1.
</event>
<event>
 7    1  0.6992302E-006  0.9926642E+02  0.7561462E-02  0.1281846E+00
         -1   -1    0    0    0  501 -0.00000000000E+00  0.00000000000E+00  0.46706687517E+02  0.46706687517E+02  0.00000000000E+00 0.  1.
          1   -1    0    0  501    0  0.00000000000E+00 -0.00000000000E+00 -0.35097386939E+03  0.35097386939E+03  0.00000000000E+00 0. -1.
         23    2    1    2    0    0 -0.41714961508E+02  0.25054063982E+02 -0.86620454134E+02  0.15974486555E+03  0.12508986713E+03 0.  0.
          5    1    3    3  502    0  0.15886381714E+01  0.52093267449E+02 -0.94421653909E+02  0.10793124391E+03  0.41800000000E+01 0. -1.
         -5    1    3    3    0  502 -0.43303599679E+02 -0.27039203467E+02  0.78011997756E+01  0.51813621638E+02  0.41800000000E+01 0. -1.
        -11    1    1    2    0    0 -0.15993835744E+02  0.17210389822E+02 -0.39419807346E+02  0.45890320448E+02  0.00000000000E+00 0.  1.
         11    1    1    2    0    0  0.57708797252E+02 -0.42264453804E+02 -0.17822692040E+03  0.19204537091E+03  0.00000000000E+00 0. -1.
</event>
<event>
 7    1  0.6992302E-006  0.1040667E+03  0.7561462E-02  0.1271969E+00
          1   -1    0    0  501    0  0.00000000000E+00  0.00000000000E+00  0.31778828357E+03  0.31778828357E+03  0.00000000000E+00 0. -1.
         -1   -1    0    0    0  501 -0.00000000000E+00 -0.00000000000E+00 -0.53073647091E+02  0.53073647091E+02  0.00000000000E+00 0.  1.
         23    2    1    2    0    0  0.13008065472E+02 -0.13919761470E+02  0.47555550324E+02  0.13517390199E+03  0.12508990322E+03 0.  0.
          5    1    3    3  502    0  0.21984077902E+01  0.50884490624E+02 -0.44239689109E+01  0.51294329938E+02  0.41800000000E+01 0.  1.
         -5    1    3    3    0  502  0.10809657681E+02 -0.64804252094E+02  0.51979519235E+02  0.83879572057E+02  0.41800000000E+01 0.  1.
        -11    1    1    2    0    0  0.28868698459E+02 -0.21784899617E+02  0.97126929457E+02  0.10364180637E+03  0.00000000000E+00 0.  1.
         11    1    1    2    0    0 -0.41876763931E+02  0.35704661087E+02  0.12003215670E+03  0.13204622229E+03  0.00000000000E+00 0. -1.
</event>
<event>
 7    1  0.6992302E-006  0.1036416E+03  0.7561462E-02  0.1272819E+00
          1   -1    0    0  501    0  0.00000000000E+00  0.00000000000E+00  0.22825806372E+02  0.22825806372E+02  0.00000000000E+00 0. -1.
         -1   -1    0    0    0  501 -0.00000000000E+00 -0.00000000000E+00 -0.54100867447E+03  0.54100867447E+03  0.00000000000E+00 0.  1.
         23    2    1    2    0    0  0.72815369814E+01 -0.51707010987E+01 -0.36422474313E+03  0.38521036250E+03  0.12509037910E+03 0.  0.
          5    1    3    3  502    0 -0.52793611604E+02  0.13049323419E+02 -0.10339073071E+03  0.11689553398E+03  0.41800000000E+01 0.  1.
         -5    1    3    3    0  502  0.60075148585E+02 -0.18220024517E+02 -0.26083401242E+03  0.26831482852E+03  0.41800000000E+01 0.  1.
        -11    1    1    2    0    0 -0.21719881293E+02  0.43633540646E+02 -0.72012146414E+02  0.86956243846E+02  0.00000000000E+00 0. -1.
         11    1    1    2    0    0  0.14438344311E+02 -0.38462839548E+02 -0.81945978558E+02  0.91667874495E+02  0.00000000000E+00 0.  1.
</event>
<event>
 7    1  0.6992302E-006  0.1033474E+03  0.7561462E-02  0.1273410E+00
          1   -1    0    0  501    0  0.00000000000E+00  0.00000000000E+00  0.23228196538E+03  0.23228196538E+03  0.00000000000E+00 0. -1.
         -1   -1    0    0    0  501 -0.00000000000E+00 -0.00000000000E+00 -0.10457558812E+03  0.10457558812E+03  0.00000000000E+00 0.  1.
         23    2    1    2    0    0  0.10707453595E+01  0.70995341734E+02 -0.21567976095E+02  0.14544421320E+03  0.12508939411E+03 0.  0.
          5    1    3    3  502    0  0.46399331217E+02  0.65506256849E+02  0.20783884727E+02  0.83026561341E+02  0.41800000000E+01 0.  1.
         -5    1    3    3    0  502 -0.45328585858E+02  0.54890848850E+01 -0.42351860823E+02  0.62417651861E+02  0.41800000000E+01 0.  1.
        -11    1    1    2    0    0 -0.19373128083E+02 -0.40499124216E+02  0.14924022656E+03  0.15584653470E+03  0.00000000000E+00 0. -1.
         11    1    1    2    0    0  0.18302382723E+02 -0.30496217517E+02  0.34126796554E-01  0.35566805604E+02  0.00000000000E+00 0.  1.
</event>
<event>
 7    1  0.6992302E-006  0.1310547E+03  0.7561462E-02  0.1225899E+00
          2   -1    0    0  501    0  0.00000000000E+00  0.00000000000E+00  0.86620448384E+02  0.86620448384E+02  0.00000000000E+00 0.  1.
         -2   -1    0    0    0  501 -0.00000000000E+00 -0.00000000000E+00 -0.22658044355E+03  0.22658044355E+03  0.00000000000E+00 0. -1.
         23    2    1    2    0    0  0.49581526039E+02 -0.74875464676E+02 -0.74217655730E+02  0.17094098297E+03  0.12509155168E+03 0.  0.
          5    1    3    3  502    0  0.84096789467E+02 -0.17459715940E+02 -0.50661354157E+02  0.99805595457E+02  0.41800000000E+01 0. -1.
         -5    1    3    3    0  502 -0.34515263428E+02 -0.57415748736E+02 -0.23556301573E+02  0.71135387510E+02  0.41800000000E+01 0. -1.
        -11    1    1    2    0    0  0.13066609840E+02  0.27516440371E+02 -0.55164879295E+02  0.63016304962E+02  0.00000000000E+00 0. -1.
         11    1    1    2    0    0 -0.62648135879E+02  0.47359024306E+02 -0.10577460137E+02  0.79243604002E+02  0.00000000000E+00 0.  1.
</event>
<event>
 7    1  0.6992302E-006  0.1619389E+03  0.7561462E-02  0.1186525E+00
          1   -1    0    0  501    0  0.00000000000E+00  0.00000000000E+00  0.56174753649E+03  0.56174753649E+03  0.00000000000E+00 0. -1.
         -1   -1    0    0    0  501 -0.00000000000E+00 -0.00000000000E+00 -0.51193064804E+02  0.51193064804E+02  0.00000000000E+00 0.  1.
         23    2    1    2    0    0  0.27354564107E+02  0.12617808126E+03  0.27201534004E+03  0.32604970870E+03  0.12508751721E+03 0.  0.
          5    1    3    3  502    0 -0.37151817399E+01 -0.18875705426E+02  0.46018276088E+01  0.20217419420E+02  0.41800000000E+01 0.  1.
         -5    1    3    3    0  502  0.31069745847E+02  0.14505378668E+03  0.26741351243E+03  0.30583228928E+03  0.41800000000E+01 0.  1.
        -11    1    1    2    0    0 -0.22140161920E+02 -0.13962301456E+03  0.19377624654E+03  0.23986247453E+03  0.00000000000E+00 0.  1.
         11    1    1    2    0    0 -0.52144021870E+01  0.13444933306E+02  0.44762885108E+02  0.47028418057E+02  0.00000000000E+00 0. -1.
</event>
<event>
 7    1  0.6992302E-006  0.1048182E+03  0.7561462E-02  0.1270478E+00
          2   -1    0    0  501    0  0.00000000000E+00  0.00000000000E+00  0.81222942427E+03  0.81222942427E+03  0.00000000000E+00 0. -1.
         -2   -1    0    0    0  501 -0.00000000000E+00 -0.00000000000E+00 -0.18096955668E+02  0.18096955668E+02  0.00000000000E+00 0.  1.
         23    2    1    2    0    0 -0.14670333097E+02  0.42758185879E+02  0.33038549818E+03  0.35615378000E+03  0.12508979362E+03 0.  0.
          5    1    3    3  502    0 -0.40742104000E+01  0.76971967774E+02  0.29749525479E+03  0.30734700590E+03  0.41800000000E+01 0.  1.
         -5    1    3    3    0  502 -0.10596122697E+02 -0.34213781895E+02  0.32890243391E+02  0.48806774101E+02  0.41800000000E+01 0.  1.
        -11    1    1    2    0    0  0.47829734815E+02 -0.82689140186E+01  0.28646082311E+03  0.29054407867E+03  0.00000000000E+00 0.  1.
         11    1    1    2    0    0 -0.33159401718E+02 -0.34489271860E+02  0.17728614731E+03  0.18362852127E+03  0.00000000000E+00 0. -1.
</event>
<event>
 7    1  0.6992302E-006  0.9983754E+02  0.7561462E-02  0.1280638E+00
         -1   -1    0    0    0  501 -0.00000000000E+00  0.00000000000E+00  0.23936531955E+03  0.23936531955E+03  0.00000000000E+00 0.  1.
          1   -1    0    0  501    0  0.00000000000E+00 -0.00000000000E+00 -0.53218432784E+02  0.53218432784E+02  0.00000000000E+00 0. -1.
         23    2    1    2    0    0 -0.17653061129E+02 -0.12805887137E+02  0.13983078734E+03  0.18887978305E+03  0.12508917637E+03 0.  0.
          5    1    3    3  502    0 -0.10171113525E+01  0.45991858072E+02  0.11287623109E+03  0.12196229528E+03  0.41800000000E+01 0. -1.
         -5    1    3    3    0  502 -0.16635949777E+02 -0.58797745209E+02  0.26954556243E+02  0.66917487766E+02  0.41800000000E+01 0. -1.
        -11    1    1    2    0    0  0.46159790980E+02 -0.18647778706E+02  0.30611266134E+02  0.58442412410E+02  0.00000000000E+00 0.  1.
         11    1    1    2    0    0 -0.28506729851E+02  0.31453665843E+02  0.15704833292E+02  0.45261556872E+02  0.00000000000E+00 0. -1.
</event>
<event>
 7    1  0.6992302E-006  0.1428402E+03  0.7561462E-02  0.1209558E+00
          2   -1    0    0  501    0  0.00000000000E+00  0.00000000000E+00  0.56161280312E+03  0.56161280312E+03  0.00000000000E+00 0. -1.
         -2   -1    0    0    0  501 -0.00000000000E+00 -0.00000000000E+00 -0.53480759907E+02  0.53480759907E+02  0.00000000000E+00 0.  1.
         23    2    1    2    0    0 -0.67813501227E+02 -0.10451996613E+03  0.18215491879E+03  0.25367518442E+03  0.12509032930E+03 0.  0.
          5    1    3    3  502    0 -0.85807992031E+02 -0.48769801971E+02  0.53720788764E+02  0.11244954702E+03  0.41800000000E+01 0. -1.
         -5    1    3    3    0  502  0.17994490804E+02 -0.55750164155E+02  0.12843413003E+03  0.14122563740E+03  0.41800000000E+01 0. -1.
        -11    1    1    2    0    0  0.32151361821E+02  0.24074454606E+02  0.23795776889E+02  0.46685419879E+02  0.00000000000E+00 0. -1.
         11    1    1    2    0    0  0.35662139406E+02  0.80445511520E+02  0.30218134753E+03  0.31473295873E+03  0.00000000000E+00 0.  1.
</event>
<event>
 6    1  0.6992302E-006  0.1076586E+03  0.7561462E-02  0.1264968E+00
         -2   -1    0    0    0  501 -0.00000000000E+00  0.00000000000E+00  0.19243667993E+02  0.19243667993E+02  0.00000000000E+00 0. -1.
          2   -1    0    0  501    0  0.00000000000E+00 -0.00000000000E+00 -0.76647990192E+03  0.76647990192E+03  0.00000000000E+00 0.  1.
          5    1    1    2  502    0 -0.46688746261E+02 -0.75358660972E+02 -0.40199095957E+03  0.41167094966E+03  0.41800000000E+01 0.  1.
         -5    1    1    2    0  502  0.20384295682E+02  0.76557945703E+02 -0.13371260678E+03  0.15547724005E+03  0.41800000000E+01 0. -1.
        -11    1    1    2    0    0  0.36663797216E+02 -0.27135154298E+01 -0.19841374841E+03  0.20179101257E+03  0.00000000000E+00 0.  1.
         11    1    1    2    0    0 -0.10359346637E+02  0.15142306990E+01 -0.13118919159E+02  0.16784367645E+02  0.00000000000E+00 0. -1.
</event>
<event>
 6    1  0.6992302E-006  0.1447500E+03  0.7561462E-02  0.1207077E+00
         -1   -1    0    0    0  501 -0.00000000000E+00  0.00000000000E+00  0.79598894506E+02  0.79598894506E+02  0.00000000000E+00 0.  1.
          1   -1    0    0  501    0  0.00000000000E+00 -0.00000000000E+00 -0.50765888234E+03  0.50765888234E+03  0.00000000000E+00 0. -1.
          5    1    1    2  502    0  0.39990326518E+02 -0.72834984651E+02 -0.34138745395E+02  0.89928235506E+02  0.41800000000E+01 0. -1.
         -5    1    1    2    0  502  0.36214253565E+02  0.91450263426E+02 -0.14166105267E+02  0.99462423962E+02  0.41800000000E+01 0.  1.
        -11    1    1    2    0    0 -0.30422556363E+02  0.28837179440E+02 -0.73673531292E+02  0.84763813428E+02  0.00000000000E+00 0.  1.
         11    1    1    2    0    0 -0.45782023721E+02 -0.47452458215E+02 -0.30608160588E+03  0.31310330395E+03  0.00000000000E+00 0. -1.
</event>
<event>
 7    1  0.6992302E-006  0.9051167E+02  0.7561462E-02  0.1301617E+00
         -1   -1    0    0    0  501 -0.00000000000E+00  0.00000000000E+00  0.20943211708E+02  0.20943211708E+02  0.00000000000E+00 0.  1.
          1   -1    0    0  501    0  0.00000000000E+00 -0.00000000000E+00 -0.75207344772E+03  0.75207344772E+03  0.00000000000E+00 0. -1.
         23    2    1    2    0    0  0.59796831745E+02  0.15742151571E+02 -0.37172331961E+03  0.39705035572E+03  0.12508909709E+03 0.  0.
          5    1    3    3  502    0  0.35440371425E+02  0.27202195977E+02 -0.36659553550E+03  0.36933147502E+03  0.41800000000E+01 0.  1.
         -5    1    3    3    0  502  0.24356460319E+02 -0.11460044406E+02 -0.51277841097E+01  0.27718880694E+02  0.41800000000E+01 0.  1.
        -11    1    1    2    0    0 -0.83761194963E+02 -0.13503435042E+02 -0.30264264669E+03  0.31431012096E+03  0.00000000000E+00 0. -1.
         11    1    1    2    0    0  0.23964363218E+02 -0.22387165286E+01 -0.56764269703E+02  0.61656182748E+02  0.00000000000E+00 0.  1.
</event>
<event>
 7    1  0.6992302E-006  0.1973838E+03  0.7561462E-02  0.1151965E+00
         -2   -1    0    0    0  501 -0.00000000000E+00  0.00000000000E+00  0.75587452827E+02  0.75587452827E+02  0.00000000000E+00 0.  1.
          2   -1    0    0  501    0  0.00000000000E+00 -0.00000000000E+00 -0.76628286323E+03  0.76628286323E+03  0.00000000000E+00 0. -1.
         23    2    1    2    0    0  0.13298836033E+02  0.18458742601E+03 -0.16575937427E+03  0.27815969516E+03  0.12508904418E+03 0.  0.
          5    1    3    3  502    0  0.31916584185E+02  0.10666271829E+03 -0.22052741001E+02  0.11357552380E+03  0.41800000000E+01 0.  1.
         -5    1    3    3    0  502 -0.18617748152E+02  0.77924707712E+02 -0.14370663327E+03  0.16458417136E+03  0.41800000000E+01 0.  1.
        -11    1    1    2    0    0  0.12765274628E+02 -0.17483102566E+03 -0.47818321291E+03  0.50930150685E+03  0.00000000000E+00 0.  1.
         11    1    1    2    0    0 -0.26064110661E+02 -0.97564003486E+01 -0.46752823229E+02  0.54409114055E+02  0.00000000000E+00 0. -1.
</event>
<event>
 6    1  0.6992302E-006  0.1576692E+03  0.7561462E-02  0.1191354E+00
          2   -1    0    0  501    0  0.00000000000E+00  0.00000000000E+00  0.86348681626E+02  0.86348681626E+02  0.00000000000E+00 0. -1.
         -2   -1    0    0    0  501 -0.00000000000E+00 -0.00000000000E+00 -0.37069633028E+03  0.37069633028E+03  0.00000000000E+00 0.  1.
          5    1    1    2  502    0  0.90132783130E+02  0.70433981826E+02 -0.13106170555E+03  0.17401007859E+03  0.41800000000E+01 0. -1.
         -5    1    1    2    0  502 -0.85169091668E+02  0.15430996645E+02 -0.12871310683E+03  0.15516580197E+03  0.41800000000E+01 0.  1.
        -11    1    1    2    0    0 -0.39216418120E+02 -0.33149051068E+02 -0.37628966946E+02  0.63661025678E+02  0.00000000000E+00 0.  1.
         11    1    1    2    0    0  0.34252726658E+02 -0.52715927404E+02  0.13056130662E+02  0.64208105667E+02  0.00000000000E+00 0. -1.
</event>
<event>
 7    1  0.6992302E-006  0.9612048E+02  0.7561462E-02  0.1288672E+00
          1   -1    0    0  501    0  0.00000000000E+00  0.00000000000E+00  0.82662786327E+02  0.82662786327E+02  0.00000000000E+00 0. -1.
         -1   -1    0    0    0  501 -0.00000000000E+00 -0.00000000000E+00 -0.17076673079E+03  0.17076673079E+03  0.00000000000E+00 0.  1.
         23    2    1    2    0    0  0.24280946799E+02 -0.25022082615E+02 -0.75659075294E+02  0.15030839436E+03  0.12511054609E+03 0.  0.
          5    1    3    3  502    0  0.50376547668E+02  0.18741747599E+02  0.57074677802E+01  0.54213441566E+02  0.41800000000E+01 0. -1.
         -5    1    3    3    0  502 -0.26095600869E+02 -0.43763830214E+02 -0.81366543074E+02  0.96094952789E+02  0.41800000000E+01 0. -1.
        -11    1    1    2    0    0 -0.26044160156E+02  0.53061931954E+02  0.17907123377E+02  0.61761897385E+02  0.00000000000E+00 0.  1.
         11    1    1    2    0    0  0.17632133579E+01 -0.28039849339E+02 -0.30351992550E+02  0.41359225380E+02  0.00000000000E+00 0. -1.
</event>
<event>
 7    1  0.6992302E-006  0.7086611E+02  0.7561462E-02  0.1357172E+00
         -2   -1    0    0    0  501 -0.00000000000E+00  0.00000000000E+00  0.70063217688E+03  0.70063217688E+03  0.00000000000E+00 0.  1.
          2   -1    0    0  501    0  0.00000000000E+00 -0.00000000000E+00 -0.31614816851E+02  0.31614816851E+02  0.00000000000E+00 0. -1.
         23    2    1    2    0    0 -0.28000739612E+02  0.78758267423E+00  0.60014279253E+03  0.61368098108E+03  0.12509321888E+03 0.  0.
          5    1    3    3  502    0 -0.50747510462E+02  0.36133237932E+02  0.51358789476E+03  0.51736922865E+03  0.41800000000E+01 0.  1.
         -5    1    3    3    0  502  0.22746770850E+02 -0.35345655257E+02  0.86554897766E+02  0.96311752435E+02  0.41800000000E+01 0.  1.
        -11    1    1    2    0    0  0.22777947884E+02  0.10148199117E+02  0.90447554648E+02  0.93822070948E+02  0.00000000000E+00 0.  1.
         11    1    1    2    0    0  0.52227917278E+01 -0.10935781791E+02 -0.21572987145E+02  0.24743941706E+02  0.00000000000E+00 0. -1.
</event>
<event>
 6    1  0.6992302E-006  0.1219045E+03  0.7561462E-02  0.1239988E+00
          2   -1    0    0  501    0  0.00000000000E+00  0.00000000000E+00  0.96092337132E+02  0.96092337132E+02  0.00000000000E+00 0. -1.
         -2   -1    0    0    0  501 -0.00000000000E+00 -0.00000000000E+00 -0.23475189433E+03  0.23475189433E+03  0.00000000000E+00 0.  1.
          5    1    1    2  502    0 -0.48590253681E+02  0.18991201512E+02 -0.48404468636E+02  0.71289153955E+02  0.41800000000E+01 0. -1.
         -5    1    1    2    0  502  0.85987383672E+02 -0.37975190214E+02 -0.12162126254E+03  0.15376979263E+03  0.41800000000E+01 0.  1.
        -11    1    1    2    0    0  0.20340549059E+02 -0.19350574762E+02 -0.33459709047E+01  0.28273277153E+02  0.00000000000E+00 0.  1.
         11    1    1    2    0    0 -0.57737679051E+02  0.38334563464E+02  0.34712144891E+02  0.77512007722E+02  0.00000000000E+00 0. -1.
</event>
<event>
 7    1  0.6992302E-006  0.1279848E+03  0.7561462E-02  0.1230477E+00
          1   -1    0    0  501    0  0.00000000000E+00  0.00000000000E+00  0.72933603586E+03  0.72933603586E+03  0.00000000000E+00 0. -1.
         -1   -1    0    0    0  501 -0.00000000000E+00 -0.00000000000E+00 -0.31168651571E+02  0.31168651571E+02  0.00000000000E+00 0.  1.
         23    2    1    2    0    0 -0.25525320784E+02 -0.66816448124E+02  0.18577337432E+03  0.23510910859E+03  0.12509423086E+03 0.  0.
          5    1    3    3  502    0 -0.77682278095E+01 -0.10250441848E+03  0.14630765622E+03  0.17886001185E+03  0.41800000000E+01 0. -1.
         -5    1    3    3    0  502 -0.17757092975E+02  0.35687970352E+02  0.39465718101E+02  0.56249096740E+02  0.41800000000E+01 0. -1.
        -11    1    1    2    0    0  0.49268851935E+02  0.84409790531E+01  0.28863755006E+03  0.29293396048E+03  0.00000000000E+00 0. -1.
         11    1    1    2    0    0 -0.23743531151E+02  0.58375469070E+02  0.22375645990E+03  0.23246161835E+03  0.00000000000E+00 0.  1.
</event>
<event>
 7    1  0.6992302E-006  0.9365875E+02  0.7561462E-02  0.1294226E+00
         -2   -1    0    0    0  501 -0.00000000000E+00  0.00000000000E+00  0.73173280194E+02  0.73173280194E+02  0.00000000000E+00 0.  1.
          2   -1    0    0  501    0  0.00000000000E+00 -0.00000000000E+00 -0.20328726483E+03  0.20328726483E+03  0.00000000000E+00 0. -1.
         23    2    1    2    0    0 -0.17591840546E+02 -0.39475123146E+02 -0.54039391442E+02  0.14292885758E+03  0.12506256155E+03 0.  0.
          5    1    3    3  502    0  0.41132109650E+02  0.29735574734E+01  0.13692872531E+02  0.43653861759E+02  0.41800000000E+01 0.  1.
         -5    1    3    3    0  502 -0.58723950196E+02 -0.42448680620E+02 -0.67732263972E+02  0.99274995824E+02  0.41800000000E+01 0.  1.
        -11    1    1    2    0    0 -0.18869016315E+02  0.30290337816E+02 -0.87283020951E+02  0.94296713029E+02  0.00000000000E+00 0. -1.
         11    1    1    2    0    0  0.36460856861E+02  0.91847853301E+01  0.11208427755E+02  0.39234974415E+02  0.00000000000E+00 0.  1.
</event>
<event>
 7    1  0.6992302E-006  0.7732476E+02  0.7561462E-02  0.1336819E+00
          3   -1    0    0  501    0  0.00000000000E+00  0.00000000000E+00  0.38332054161E+03  0.38332054161E+03  0.00000000000E+00 0. -1.
         -3   -1    0    0    0  501 -0.00000000000E+00 -0.00000000000E+00 -0.35656175345E+02  0.35656175345E+02  0.00000000000E+00 0.  1.
         23    2    1    2    0    0  0.30601661117E+02 -0.38994614261E+02  0.12271309101E+03  0.17262361551E+03  0.11083035831E+03 0.  0.
          5    1    3    3  502    0 -0.31151305720E+01 -0.46923103924E+01  0.12412512987E+03  0.12432313574E+03  0.41800000000E+01 0. -1.
         -5    1    3    3    0  502  0.33716791689E+02 -0.34302303868E+02 -0.14120388606E+01  0.48300479772E+02  0.41800000000E+01 0.  1.
        -11    1    1    2    0    0  0.30364542147E+02  0.14566983550E+02  0.94076761677E+02  0.99923168071E+02  0.00000000000E+00 0.  1.
         11    1    1    2    0    0 -0.60966203265E+02  0.24427630710E+02  0.13087451359E+03  0.14642993338E+03  0.00000000000E+00 0. -1.
</event>
<event>
 7    1  0.6992302E-006  0.9807489E+02  0.7561462E-02  0.1284397E+00
          1   -1    0    0  501    0  0.00000000000E+00  0.00000000000E+00  0.36925737003E+03  0.36925737003E+03  0.00000000000E+00 0. -1.
         -1   -1    0    0    0  501 -0.00000000000E+00 -0.00000000000E+00 -0.57292219749E+02  0.57292219749E+02  0.00000000000E+00 0.  1.
         23    2    1    2    0    0 -0.21924239896E+02  0.32479853519E+02  0.39257808702E+02  0.13683955668E+03  0.12509306755E+03 0.  0.
          5    1    3    3  502    0 -0.30955610573E+02 -0.29956812402E+02  0.56626946411E+02  0.71272322083E+02  0.41800000000E+01 0.  1.
         -5    1    3    3    0  502  0.90313706773E+01  0.62436665922E+02 -0.17369137708E+02  0.65567234595E+02  0.41800000000E+01 0.  1.
        -11    1    1    2    0    0 -0.58613576956E+01 -0.54114039874E+02  0.10417255125E+03  0.11753554892E+03  0.00000000000E+00 0.  1.
         11    1    1    2    0    0  0.27785597592E+02  0.21634186355E+02  0.16853479033E+03  0.17217448418E+03  0.00000000000E+00 0. -1.
</event>
<event>
 7    1  0.6992302E-006  0.9115528E+02  0.7561462E-02  0.1300078E+00
         -1   -1    0    0    0  501 -0.00000000000E+00  0.00000000000E+00  0.41879972531E+02  0.41879972531E+02  0.00000000000E+00 0.  1.
          1   -1    0    0  501    0  0.00000000000E+00 -0.00000000000E+00 -0.31243477211E+03  0.31243477211E+03  0.00000000000E+00 0. -1.
         23    2    1    2    0    0  0.98499924982E+01 -0.17612834406E+02 -0.10402571038E+03  0.16395357729E+03  0.12510872390E+03 0.  0.
          5    1    3    3  502    0  0.23662486340E+02 -0.67390777144E+02 -0.41391300954E+02  0.82656774063E+02  0.41800000000E+01 0.  1.
         -5    1    3    3    0  502 -0.13812493842E+02  0.49777942738E+02 -0.62634409431E+02  0.81296803223E+02  0.41800000000E+01 0.  1.
        -11    1    1    2    0    0  0.95551390945E+01  0.32883286730E+02 -0.16159065775E+03  0.16517915093E+03  0.00000000000E+00 0. -1.
         11    1    1    2    0    0 -0.19405131593E+02 -0.15270452324E+02 -0.49384314481E+01  0.25182016430E+02  0.00000000000E+00 0.  1.
</event>
<event>
 7    1  0.6992302E-006  0.2016714E+03  0.7561462E-02  0.1148336E+00
          1   -1    0    0  501    0  0.00000000000E+00  0.00000000000E+00  0.15550749332E+03  0.15550749332E+03  0.00000000000E+00 0. -1.
         -1   -1    0    0    0  501 -0.00000000000E+00 -0.00000000000E+00 -0.31109833222E+03  0.31109833222E+03  0.00000000000E+00 0.  1.
         23    2    1    2    0    0 -0.66495146366E+01  0.18850470734E+03 -0.49172793918E+02  0.23161156308E+03  0.12509081402E+03 0.  0.
          5    1    3    3  502    0 -0.27827899305E+02  0.60415759157E+02 -0.73759147552E+02  0.99409960174E+02  0.41800000000E+01 0. -1.
         -5    1    3    3    0  502  0.21178384668E+02  0.12808894819E+03  0.24586353634E+02  0.13220160290E+03  0.41800000000E+01 0. -1.
        -11    1    1    2    0    0 -0.38916745190E+02 -0.75133277762E+02 -0.25233867280E+02  0.88296492236E+02  0.00000000000E+00 0. -1.
         11    1    1    2    0    0  0.45566259826E+02 -0.11337142958E+03 -0.81184177701E+02  0.14669777023E+03  0.00000000000E+00 0.  1.
</event>
<event>
 7    1  0.6992302E-006  0.1701967E+03  0.7561462E-02  0.1177643E+00
         -1   -1    0    0    0  501 -0.00000000000E+00  0.00000000000E+00  0.34935782176E+03  0.34935782176E+03  0.00000000000E+00 0.  1.
          1   -1    0    0  501    0  0.00000000000E+00 -0.00000000000E+00 -0.10384326342E+03  0.10384326342E+03  0.00000000000E+00 0. -1.
         23    2    1    2    0    0  0.13577040499E+03 -0.22823853540E+02  0.21600736377E+03  0.28506215334E+03  0.12508684543E+03 0.  0.
          5    1    3    3  502    0  0.26401251653E+02 -0.54731146268E+02  0.12549507277E+03  0.13949555602E+03  0.41800000000E+01 0. -1.
         -5    1    3    3    0  502  0.10936915334E+03  0.31907292727E+02  0.90512291001E+02  0.14556659732E+03  0.41800000000E+01 0. -1.
        -11    1    1    2    0    0 -0.88537021388E+02 -0.31056589039E+02  0.14662428295E+02  0.94964744419E+02  0.00000000000E+00 0.  1.
         11    1    1    2    0    0 -0.47233383605E+02  0.53880442580E+02  0.14844766275E+02  0.73174187424E+02  0.00000000000E+00 0. -1.
</event>
<event>
 7    1  0.6992302E-006  0.1195187E+03  0.7561462E-02  0.1243893E+00
         -1   -1    0    0    0  501 -0.00000000000E+00  0.00000000000E+00  0.15344839099E+03  0.15344839099E+03  0.00000000000E+00 0. -1.
          1   -1    0    0  501    0  0.00000000000E+00 -0.00000000000E+00 -0.14553512563E+03  0.14553512563E+03  0.00000000000E+00 0.  1.
         23    2    1    2    0    0 -0.70519824281E+02 -0.50081919639E+02  0.55706615808E+02  0.16196463881E+03  0.12509225752E+03 0.  0.
          5    1    3    3  502    0  0.30421059748E+02 -0.39946622142E+02  0.22033834432E+02  0.54992142680E+02  0.41800000000E+01 0.  1.
         -5    1    3    3    0  502 -0.10094088403E+03 -0.10135297497E+02  0.33672781376E+02  0.10697249614E+03  0.41800000000E+01 0.  1.
        -11    1    1    2    0    0  0.39097375571E+02  0.34029775351E+02 -0.75898387902E+02  0.91908626761E+02  0.00000000000E+00 0.  1.
         11    1    1    2    0    0  0.31422448710E+02  0.16052144288E+02  0.28105037446E+02  0.45110251042E+02  0.00000000000E+00 0. -1.
</event>
<event>
 7    1  0.6992302E-006  0.1330999E+03  0.7561462E-02  0.1222927E+00
         -1   -1    0    0    0  501 -0.00000000000E+00  0.00000000000E+00  0.14501794475E+03  0.14501794475E+03  0.00000000000E+00 0.  1.
          1   -1    0    0  501    0  0.00000000000E+00 -0.00000000000E+00 -0.15804930272E+03  0.15804930272E+03  0.00000000000E+00 0. -1.
         23    2    1    2    0    0 -0.67919299201E+02 -0.79432808121E+02 -0.12047967563E+02  0.16344905559E+03  0.12509131881E+03 0.  0.
          5    1    3    3  502    0  0.32252647040E+02 -0.44975003497E+02 -0.14646807588E+02  0.57401964715E+02  0.41800000000E+01 0.  1.
         -5    1    3    3    0  502 -0.10017194624E+03 -0.34457804623E+02  0.25988400250E+01  0.10604709087E+03  0.41800000000E+01 0.  1.
        -11    1    1    2    0    0  0.61621255414E+02  0.69129598298E+02 -0.38436211724E+02  0.10026675846E+03  0.00000000000E+00 0. -1.
         11    1    1    2    0    0  0.62980437877E+01  0.10303209823E+02  0.37452821320E+02  0.39351433431E+02  0.00000000000E+00 0.  1.
</event>
<event>
 7    1  0.6992302E-006  0.1198653E+03  0.7561462E-02  0.1243319E+00
          2   -1    0    0  501    0  0.00000000000E+00  0.00000000000E+00  0.51749755489E+03  0.51749755489E+03  0.00000000000E+00 0. -1.
         -2   -1    0    0    0  501 -0.00000000000E+00 -0.00000000000E+00 -0.29426830860E+02  0.29426830860E+02  0.00000000000E+00 0.  1.
         23    2    1    2    0    0  0.36876378466E+02 -0.41585560357E+02  0.22556889138E+03  0.26385624959E+03  0.12509823969E+03 0.  0.
          5    1    3    3  502    0  0.83383701838E+02 -0.30107636081E+02  0.14980458862E+03  0.17412121828E+03  0.41800000000E+01 0. -1.
         -5    1    3    3    0  502 -0.46507323372E+02 -0.11477924275E+02  0.75764302758E+02  0.89735031316E+02  0.41800000000E+01 0. -1.
        -11    1    1    2    0    0 -0.50303299249E+02  0.61140105737E+02  0.22663950671E+03  0.24007082381E+03  0.00000000000E+00 0. -1.
         11    1    1    2    0    0  0.13426920783E+02 -0.19554545381E+02  0.35862325949E+02  0.42997312349E+02  0.00000000000E+00 0.  1.
</event>
<event>
 7    1  0.6992302E-006  0.1195856E+03  0.7561462E-02  0.1243782E+00
         -1   -1    0    0    0  501 -0.00000000000E+00  0.00000000000E+00  0.29699792588E+02  0.29699792588E+02  0.00000000000E+00 0.  1.
          1   -1    0    0  501    0  0.00000000000E+00 -0.00000000000E+00 -0.62448668029E+03  0.62448668029E+03  0.00000000000E+00 0. -1.
         23    2    1    2    0    0 -0.74751066497E+02 -0.33810999039E+02 -0.30954205354E+03  0.34379338513E+03  0.12508678248E+03 0.  0.
          5    1    3    3  502    0  0.77472362867E+01  0.31133063844E+02 -0.14497303360E+03  0.14853935575E+03  0.41800000000E+01 0. -1.
         -5    1    3    3    0  502 -0.82498302784E+02 -0.64944062883E+02 -0.16456901993E+03  0.19525402938E+03  0.41800000000E+01 0. -1.
        -11    1    1    2    0    0 -0.10474548062E+02  0.14345470981E+01  0.37191536632E+00  0.10578865890E+02  0.00000000000E+00 0.  1.
         11    1    1    2    0    0  0.85225614559E+02  0.32376451941E+02 -0.28561674953E+03  0.29981422186E+03  0.00000000000E+00 0. -1.
</event>
<event>
 7    1  0.6992302E-006  0.1893493E+03  0.7561462E-02  0.1159050E+00
          1   -1    0    0  501    0  0.00000000000E+00  0.00000000000E+00  0.17261353070E+04  0.17261353070E+04  0.00000000000E+00 0. -1.
         -1   -1    0    0    0  501 -0.00000000000E+00 -0.00000000000E+00 -0.21935485308E+02  0.21935485308E+02  0.00000000000E+00 0.  1.
         23    2    1    2    0    0 -0.94028815499E+02 -0.12900005661E+03  0.98152046365E+03  0.10022547926E+04  0.12509922471E+03 0.  0.
          5    1    3    3  502    0  0.19312709589E+01 -0.10129397316E+03  0.43448438953E+03  0.44615956333E+03  0.41800000000E+01 0.  1.
         -5    1    3    3    0  502 -0.95960086457E+02 -0.27706083446E+02  0.54703607412E+03  0.55609522929E+03  0.41800000000E+01 0.  1.
        -11    1    1    2    0    0  0.15129324418E+02  0.86307345366E+02  0.25567028407E+03  0.27026865981E+03  0.00000000000E+00 0. -1.
         11    1    1    2    0    0  0.78899491080E+02  0.42692711242E+02  0.46700907397E+03  0.47554733987E+03  0.00000000000E+00 0.  1.
</event>
<event>
 7    1  0.6992302E-006  0.1223408E+03  0.7561462E-02  0.1239285E+00
          2   -1    0    0  501    0  0.00000000000E+00  0.00000000000E+00  0.36759269199E+03  0.36759269199E+03  0.00000000000E+00 0. -1.
         -2   -1    0    0    0  501 -0.00000000000E+00 -0.00000000000E+00 -0.81447817475E+02  0.81447817475E+02  0.00000000000E+00 0.  1.
         23    2    1    2    0    0 -0.24847517027E+01 -0.11768872267E+03  0.73709528265E+02  0.18691632296E+03  0.12509119792E+03 0.  0.
          5    1    3    3  502    0 -0.49989615784E+00 -0.29059048634E+02 -0.35579129190E+02  0.46130521757E+02  0.41800000000E+01 0.  1.
         -5    1    3    3    0  502 -0.19848555449E+01 -0.88629674036E+02  0.10928865745E+03  0.14078580120E+03  0.41800000000E+01 0.  1.
        -11    1    1    2    0    0  0.16049035248E+02  0.12066301691E+02  0.11830039730E+03  0.11999229630E+03  0.00000000000E+00 0. -1.
         11    1    1    2    0    0 -0.13564283545E+02  0.10562242098E+03  0.94134948947E+02  0.14213189021E+03  0.00000000000E+00 0.  1.
</event>
<event>
 7    1  0.6992302E-006  0.7293840E+02  0.7561462E-02  0.1350377E+00
         -2   -1    0    0    0  501 -0.00000000000E+00  0.00000000000E+00  0.10507388859E+03  0.10507388859E+03  0.00000000000E+00 0.  1.
          2   -1    0    0  501    0  0.00000000000E+00 -0.00000000000E+00 -0.18848649189E+03  0.18848649189E+03  0.00000000000E+00 0. -1.
         23    2    1    2    0    0  0.15129630829E+02  0.29625755707E+02  0.52259521661E+02  0.12650024218E+03  0.11029352899E+03 0.  0.
          5    1    3    3  502    0 -0.11170131577E+02  0.38229900688E+01 -0.32042790113E+02  0.34403486607E+02  0.41800000000E+01 0. -1.
         -5    1    3    3    0  502  0.26299762407E+02  0.25802765638E+02  0.84302311774E+02  0.92096755576E+02  0.41800000000E+01 0.  1.
        -11    1    1    2    0    0 -0.49213873501E+02  0.27121835573E+01 -0.82518855117E+02  0.96118274717E+02  0.00000000000E+00 0. -1.
         11    1    1    2    0    0  0.34084242672E+02 -0.32337939264E+02 -0.53153269843E+02  0.70941863588E+02  0.00000000000E+00 0.  1.
</event>
<event>
 7    1  0.6992302E-006  0.9063447E+02  0.7561462E-02  0.1301322E+00
          3   -1    0    0  501    0  0.00000000000E+00  0.00000000000E+00  0.24852597485E+02  0.24852597485E+02  0.00000000000E+00 0. -1.
         -3   -1    0    0    0  501 -0.00000000000E+00 -0.00000000000E+00 -0.72084331153E+03  0.72084331153E+03  0.00000000000E+00 0.  1.
         23    2    1    2    0    0 -0.60609021424E+02 -0.19937768188E+02 -0.48149893114E+03  0.50155753032E+03  0.12509103667E+03 0.  0.
          5    1    3    3  502    0 -0.21048061377E+02 -0.17140122483E+02 -0.44973831257E+03  0.45057610553E+03  0.41800000000E+01 0. -1.
         -5    1    3    3    0  502 -0.39560960047E+02 -0.27976457042E+01 -0.31760618573E+02  0.50981424789E+02  0.41800000000E+01 0. -1.
        -11    1    1    2    0    0  0.57158611620E+02 -0.29530956223E+02 -0.94686159045E+02  0.11447555622E+03  0.00000000000E+00 0.  1.
         11    1    1    2    0    0  0.34504098039E+01  0.49468724411E+02 -0.11980562387E+03  0.12966282248E+03  0.00000000000E+00 0. -1.
</event>
<event>
 7    1  0.6992302E-006  0.1434817E+03  0.7561462E-02  0.1208719E+00
         -1   -1    0    0    0  501 -0.00000000000E+00  0.00000000000E+00  0.17943868127E+03  0.17943868127E+03  0.00000000000E+00 0.  1.
          1   -1    0    0  501    0  0.00000000000E+00 -0.00000000000E+00 -0.20972071436E+03  0.20972071436E+03  0.00000000000E+00 0. -1.
         23    2    1    2    0    0  0.20472850820E+02  0.12154214651E+03  0.86313017642E+02  0.19567555654E+03  0.12508938969E+03 0.  0.
          5    1    3    3  502    0  0.19556053090E+02 -0.37655985983E+01 -0.22014965279E+02  0.29979160120E+02  0.41800000000E+01 0.  1.
         -5    1    3    3    0  502  0.91679772980E+00  0.12530774511E+03  0.10832798292E+03  0.16569639642E+03  0.41800000000E+01 0.  1.
        -11    1    1    2    0    0  0.25585441528E+02 -0.49611646879E+02 -0.86453877809E+02  0.10290871349E+03  0.00000000000E+00 0. -1.
         11    1    1    2    0    0 -0.46058292348E+02 -0.71930499633E+02 -0.30141172931E+02  0.90575125598E+02  0.00000000000E+00 0.  1.
</event>
<event>
 7    1  0.6992302E-006  0.9168009E+02  0.7561462E-02  0.1298833E+00
          1   -1    0    0  501    0  0.00000000000E+00  0.00000000000E+00  0.22214222697E+03  0.22214222697E+03  0.00000000000E+00 0. -1.
         -1   -1    0    0    0  501 -0.00000000000E+00 -0.00000000000E+00 -0.63851986857E+02  0.63851986857E+02  0.00000000000E+00 0.  1.
         23    2    1    2    0    0 -0.19903581146E+02 -0.43058139820E+02  0.10486485154E+03  0.16997979619E+03  0.12508532319E+03 0.  0.
          5    1    3    3  502    0 -0.49680137142E+02 -0.50829693529E+02  0.12183594743E+02  0.72233552810E+02  0.41800000000E+01 0. -1.
         -5    1    3    3    0  502  0.29776555996E+02  0.77715537090E+01  0.92681256795E+02  0.97746243381E+02  0.41800000000E+01 0. -1.
        -11    1    1    2    0    0 -0.15185303816E+02  0.43436120674E+02 -0.65994827675E+01  0.46484870700E+02  0.00000000000E+00 0.  1.
         11    1    1    2    0    0  0.35088884963E+02 -0.37798085363E+00  0.60024871346E+02  0.69529546939E+02  0.00000000000E+00 0. -1.
</event>
<event>
 6    1  0.6992302E-006  0.1179625E+03  0.7561462E-02  0.1246497E+00
         -1   -1    0    0    0  501 -0.00000000000E+00  0.00000000000E+00  0.63099024192E+03  0.63099024192E+03  0.00000000000E+00 0.  1.
          1   -1    0    0  501    0  0.00000000000E+00 -0.00000000000E+00 -0.41450292619E+02  0.41450292619E+02  0.00000000000E+00 0. -1.
          5    1    1    2  502    0  0.47139766913E+02  0.97599685490E+02  0.12765677243E+03  0.16751591023E+03  0.41800000000E+01 0. -1.
         -5    1    1    2    0  502 -0.44048440517E+02 -0.25862807462E+02  0.31286059547E+03  0.31703055771E+03  0.41800000000E+01 0.  1.
        -11    1    1    2    0    0 -0.11994195403E+02 -0.17329503432E+02  0.12665814047E+03  0.12839959875E+03  0.00000000000E+00 0.  1.
         11    1    1    2    0    0  0.89028690069E+01 -0.54407374596E+02  0.22364440935E+02  0.59494467855E+02  0.00000000000E+00 0. -1.
</event>
<event>
 7    1  0.6992302E-006  0.1194768E+03  0.7561462E-02  0.1243963E+00
         -1   -1    0    0    0  501 -0.00000000000E+00  0.00000000000E+00  0.62337734240E+03  0.62337734240E+03  0.00000000000E+00 0.  1.
          1   -1    0    0  501    0  0.00000000000E+00 -0.00000000000E+00 -0.52334067701E+02  0.52334067701E+02  0.00000000000E+00 0. -1.
         23    2    1    2    0    0 -0.35674422964E+02 -0.70700454959E+01  0.22874417511E+03  0.26323279005E+03  0.12507979099E+03 0.  0.
          5    1    3    3  502    0 -0.63828182564E+02  0.45875075345E+01  0.48554390349E+02  0.80436828238E+02  0.41800000000E+01 0. -1.
         -5    1    3    3    0  502  0.28153759600E+02 -0.11657553030E+02  0.18018978476E+03  0.18279596181E+03  0.41800000000E+01 0. -1.
        -11    1    1    2    0    0 -0.28860768748E+02 -0.50121471466E+02  0.31753996537E+03  0.32276421035E+03  0.00000000000E+00 0.  1.
         11    1    1    2    0    0  0.64535191712E+02  0.57191516962E+02  0.24759134224E+02  0.89714409708E+02  0.00000000000E+00 0. -1.
</event>
<event>
 7    1  0.6992302E-006  0.1049394E+03  0.7561462E-02  0.1270239E+00
         -2   -1    0    0    0  501 -0.00000000000E+00  0.00000000000E+00  0.68730567320E+02  0.68730567320E+02  0.00000000000E+00 0.  1.
          2   -1    0    0  501    0  0.00000000000E+00 -0.00000000000E+00 -0.23689459605E+03  0.23689459605E+03  0.00000000000E+00 0. -1.
         23    2    1    2    0    0  0.13693856268E+02 -0.53853796742E+02 -0.55645749596E+02  0.14775735538E+03  0.12509210006E+03 0.  0.
          5    1    3    3  502    0  0.32513258816E+02 -0.76266991370E+02 -0.75446304803E+02  0.11217568043E+03  0.41800000000E+01 0.  1.
         -5    1    3    3    0  502 -0.18819402548E+02  0.22413194628E+02  0.19800555207E+02  0.35581674949E+02  0.41800000000E+01 0.  1.
        -11    1    1    2    0    0  0.33594103287E+02  0.19396515693E+02 -0.10377892171E+02  0.40155812065E+02  0.00000000000E+00 0.  1.
         11    1    1    2    0    0 -0.47287959555E+02  0.34457281049E+02 -0.10214038696E+03  0.11771199592E+03  0.00000000000E+00 0. -1.
</event>
<event>
 7    1  0.6992302E-006  0.2248638E+03  0.7561462E-02  0.1130308E+00
         -1   -1    0    0    0  501 -0.00000000000E+00  0.00000000000E+00  0.27847361073E+03  0.27847361073E+03  0.00000000000E+00 0.  1.
          1   -1    0    0  501    0  0.00000000000E+00 -0.00000000000E+00 -0.21492666791E+03  0.21492666791E+03  0.00000000000E+00 0. -1.
         23    2    1    2    0    0  0.15635947400E+03  0.15197209618E+03  0.99316311569E+01  0.25157706419E+03  0.12509427965E+03 0.  0.
          5    1    3    3  502    0  0.18503104800E+02  0.23915167744E+02  0.50539845679E+02  0.59042768708E+02  0.41800000000E+01 0.  1.
         -5    1    3    3    0  502  0.13785636920E+03  0.12805692844E+03 -0.40608214522E+02  0.19253429548E+03  0.41800000000E+01 0.  1.
        -11    1    1    2    0    0 -0.74819185204E+02 -0.22749810708E+02 -0.45382000981E+01  0.78333004678E+02  0.00000000000E+00 0.  1.
         11    1    1    2    0    0 -0.81540288797E+02 -0.12922228547E+03  0.58153511769E+02  0.16349020977E+03  0.00000000000E+00 0. -1.
</event>
<event>
 7    1  0.6992302E-006  0.2487072E+03  0.7561462E-02  0.1114125E+00
          2   -1    0    0  501    0  0.00000000000E+00  0.00000000000E+00  0.81968651301E+03  0.81968651301E+03  0.00000000000E+00 0. -1.
         -2   -1    0    0    0  501 -0.00000000000E+00 -0.00000000000E+00 -0.85937521400E+02  0.85937521400E+02  0.00000000000E+00 0.  1.
         23    2    1    2    0    0 -0.17416542455E+03  0.15404590339E+03  0.25875541451E+03  0.36968270124E+03  0.12508876686E+03 0.  0.
          5    1    3    3  502    0 -0.36998929358E+02 -0.87099247869E+01  0.51772213137E+01  0.38588334817E+02  0.41800000000E+01 0. -1.
         -5    1    3    3    0  502 -0.13716649519E+03  0.16275582818E+03  0.25357819320E+03  0.33109436642E+03  0.41800000000E+01 0. -1.
        -11    1    1    2    0    0 -0.74511715751E+01 -0.17640728451E+02  0.21817686098E+02  0.29029755163E+02  0.00000000000E+00 0.  1.
         11    1    1    2    0    0  0.18161659612E+03 -0.13640517494E+03  0.45317589100E+03  0.50691157801E+03  0.00000000000E+00 0. -1.
</event>
<event>
 7    1  0.6992302E-006  0.1607643E+03  0.7561462E-02  0.1187837E+00
         -2   -1    0    0    0  501 -0.00000000000E+00  0.00000000000E+00  0.44851240268E+02  0.44851240268E+02  0.00000000000E+00 0.  1.
          2   -1    0    0  501    0  0.00000000000E+00 -0.00000000000E+00 -0.66662290239E+03  0.66662290239E+03  0.00000000000E+00 0. -1.
         23    2    1    2    0    0  0.10195779234E+02 -0.12991373208E+03 -0.27207599434E+03  0.32657807653E+03  0.12508541751E+03 0.  0.
          5    1    3    3  502    0  0.47678456355E+02 -0.12953812850E+03 -0.24076472595E+03  0.27755807968E+03  0.41800000000E+01 0.  1.
         -5    1    3    3    0  502 -0.37482677122E+02 -0.37560358318E+00 -0.31311268391E+02  0.49019996843E+02  0.41800000000E+01 0.  1.
        -11    1    1    2    0    0  0.27742092834E+02  0.61978102943E+02 -0.83848895971E+02  0.10789599768E+03  0.00000000000E+00 0.  1.
         11    1    1    2    0    0 -0.37937872068E+02  0.67935629136E+02 -0.26584677181E+03  0.27700006846E+03  0.00000000000E+00 0. -1.
</event>
<event>
 7    1  0.6992302E-006  0.3198006E+03  0.7561462E-02  0.1075741E+00
         -1   -1    0    0    0  501 -0.00000000000E+00  0.00000000000E+00  0.72345217908E+03  0.72345217908E+03  0.00000000000E+00 0.  1.
          1   -1    0    0  501    0  0.00000000000E+00 -0.00000000000E+00 -0.21921931514E+03  0.21921931514E+03  0.00000000000E+00 0. -1.
         23    2    1    2    0    0 -0.26384198297E+03  0.15524903316E+03  0.52716025461E+03  0.62229627926E+03  0.12505946936E+03 0.  0.
          5    1    3    3  502    0 -0.24450922637E+03  0.17647476812E+03  0.47635527659E+03  0.56379067702E+03  0.41800000000E+01 0. -1.
         -5    1    3    3    0  502 -0.19332756597E+02 -0.21225734961E+02  0.50804978020E+02  0.58505602244E+02  0.41800000000E+01 0. -1.
        -11    1    1    2    0    0  0.48672871318E+02 -0.48920125582E+02 -0.39996030378E+02  0.79761579318E+02  0.00000000000E+00 0. -1.
         11    1    1    2    0    0  0.21516911165E+03 -0.10632890758E+03  0.17068639710E+02  0.24061363564E+03  0.00000000000E+00 0.  1.
</event>
<event>
 7    1  0.6992302E-006  0.1351837E+03  0.7561462E-02  0.1219961E+00
         -2   -1    0    0    0  501 -0.00000000000E+00  0.00000000000E+00  0.12339649727E+03  0.12339649727E+03  0.00000000000E+00 0.  1.
          2   -1    0    0  501    0  0.00000000000E+00 -0.00000000000E+00 -0.39681040316E+03  0.39681040316E+03  0.00000000000E+00 0. -1.
         23    2    1    2    0    0  0.95996478221E+02 -0.19576723909E+02  0.53181807820E+02  0.16756157118E+03  0.12509997403E+03 0.  0.
          5    1    3    3  502    0  0.51496875299E+02 -0.59006149936E+02  0.70538868514E+02  0.10548392421E+03  0.41800000000E+01 0. -1.
         -5    1    3    3    0  502  0.44499602922E+02  0.39429426027E+02 -0.17357060693E+02  0.62077646967E+02  0.41800000000E+01 0. -1.
        -11    1    1    2    0    0 -0.10804571031E+03 -0.15030143904E+01 -0.27946811983E+03  0.29963071367E+03  0.00000000000E+00 0.  1.
         11    1    1    2    0    0  0.12049232091E+02  0.21079738299E+02 -0.47127593874E+02  0.53014615580E+02  0.00000000000E+00 0. -1.
</event>
<event>
 7    1  0.6992302E-006  0.8024018E+02  0.7561462E-02  0.1328371E+00
          1   -1    0    0  501    0  0.00000000000E+00  0.00000000000E+00  0.54633315460E+02  0.54633315460E+02  0.00000000000E+00 0. -1.
         -1   -1    0    0    0  501 -0.00000000000E+00 -0.00000000000E+00 -0.23508055010E+03  0.23508055010E+03  0.00000000000E+00 0.  1.
         23    2    1    2    0    0  0.14446754281E+02 -0.27292584339E+02 -0.11054529757E+03  0.16977235733E+03  0.12509515029E+03 0.  0.
          5    1    3    3  502    0  0.49976033092E+02 -0.38616967383E+01  0.10015238909E+01  0.50308965756E+02  0.41800000000E+01 0. -1.
         -5    1    3    3    0  502 -0.35529278811E+02 -0.23430887601E+02 -0.11154682147E+03  0.11946339157E+03  0.41800000000E+01 0. -1.
        -11    1    1    2    0    0  0.23099192803E+02  0.16379021038E+02  0.10768135489E+02  0.30295177508E+02  0.00000000000E+00 0. -1.
         11    1    1    2    0    0 -0.37545947085E+02  0.10913563302E+02 -0.80670072554E+02  0.89646330724E+02  0.00000000000E+00 0.  1.
</event>
<event>
 7    1  0.6992302E-006  0.1069689E+03  0.7561462E-02  0.1266288E+00
          2   -1    0    0  501    0  0.00000000000E+00  0.00000000000E+00  0.46245524001E+03  0.46245524001E+03  0.00000000000E+00 0. -1.
         -2   -1    0    0    0  501 -0.00000000000E+00 -0.00000000000E+00 -0.43020455635E+02  0.43020455635E+02  0.00000000000E+00 0.  1.
         23    2    1    2    0    0 -0.61821373150E+02 -0.44204141711E+02  0.14456766070E+03  0.20572551778E+03  0.12508913550E+03 0.  0.
          5    1    3    3  502    0 -0.47847659961E+02  0.76475806794E+01 -0.29072398453E+01  0.48721745632E+02  0.41800000000E+01 0. -1.
         -5    1    3    3    0  502 -0.13973713189E+02 -0.51851722391E+02  0.14747490055E+03  0.15700377214E+03  0.41800000000E+01 0. -1.
        -11    1    1    2    0    0  0.26942614039E+01  0.51760616861E+02  0.74877153594E+02  0.91065957595E+02  0.00000000000E+00 0. -1.
         11    1    1    2    0    0  0.59127111746E+02 -0.75564751498E+01  0.19998997008E+03  0.20868422028E+03  0.00000000000E+00 0.  1.
</event>
<event>
 7    1  0.6992302E-006  0.8531929E+02  0.7561462E-02  0.1314600E+00
         -3   -1    0    0    0  501 -0.00000000000E+00  0.00000000000E+00  0.19093821957E+03  0.19093821957E+03  0.00000000000E+00 0.  1.
          3   -1    0    0  501    0  0.00000000000E+00 -0.00000000000E+00 -0.70399052100E+02  0.70399052100E+02  0.00000000000E+00 0. -1.
         23    2    1    2    0    0 -0.17334484518E+02 -0.21813967698E+02  0.95311379476E+02  0.15971282104E+03  0.12509033778E+03 0.  0.
          5    1    3    3  502    0 -0.13269141744E+02 -0.71924174448E+02  0.35314411689E+02  0.81324885893E+02  0.41800000000E+01 0. -1.
         -5    1    3    3    0  502 -0.40653427748E+01  0.50110206750E+02  0.59996967787E+02  0.78387935143E+02  0.41800000000E+01 0. -1.
        -11    1    1    2    0    0  0.28211185081E+02  0.22426392079E+02 -0.29034281805E+02  0.46279623435E+02  0.00000000000E+00 0. -1.
         11    1    1    2    0    0 -0.10876700563E+02 -0.61242438124E+00  0.54262069804E+02  0.55344827203E+02  0.00000000000E+00 0.  1.
</event>
<event>
 7    1  0.6992302E-006  0.1130345E+03  0.7561462E-02  0.1255051E+00
          2   -1    0    0  501    0  0.00000000000E+00  0.00000000000E+00  0.13616380231E+03  0.13616380231E+03  0.00000000000E+00 0. -1.
         -2   -1    0    0    0  501 -0.00000000000E+00 -0.00000000000E+00 -0.11178286813E+03  0.11178286813E+03  0.00000000000E+00 0.  1.
         23    2    1    2    0    0  0.32525068284E+02  0.15464488195E+02 -0.25508473152E+02  0.13264892132E+03  0.12509206075E+03 0.  0.
          5    1    3    3  502    0 -0.30923472205E+02  0.49135373582E+02 -0.12431358104E+02  0.59519384528E+02  0.41800000000E+01 0.  1.
         -5    1    3    3    0  502  0.63448540489E+02 -0.33670885388E+02 -0.13077115048E+02  0.73129536789E+02  0.41800000000E+01 0.  1.
        -11    1    1    2    0    0  0.22312342960E+02 -0.31660205572E+02  0.42730342410E+02  0.57672276075E+02  0.00000000000E+00 0. -1.
         11    1    1    2    0    0 -0.54837411244E+02  0.16195717378E+02  0.71590649255E+01  0.57625473047E+02  0.00000000000E+00 0.  1.
</event>
<event>
 7    1  0.6992302E-006  0.1307517E+03  0.7561462E-02  0.1226345E+00
          1   -1    0    0  501    0  0.00000000000E+00  0.00000000000E+00  0.74257016871E+02  0.74257016871E+02  0.00000000000E+00 0. -1.
         -1   -1    0    0    0  501 -0.00000000000E+00 -0.00000000000E+00 -0.41265205153E+03  0.41265205153E+03  0.00000000000E+00 0.  1.
         23    2    1    2    0    0 -0.92206464076E+02 -0.42002520369E+02 -0.30306941129E+03  0.34316812092E+03  0.12508815860E+03 0.  0.
          5    1    3    3  502    0 -0.12126741420E+03 -0.39057683770E+02 -0.27161816850E+03  0.30004198085E+03  0.41800000000E+01 0. -1.
         -5    1    3    3    0  502  0.29060950129E+02 -0.29448365987E+01 -0.31451242788E+02  0.43126140077E+02  0.41800000000E+01 0. -1.
        -11    1    1    2    0    0  0.50081619830E+01  0.10813885526E+02  0.28753115092E+02  0.31124964805E+02  0.00000000000E+00 0. -1.
         11    1    1    2    0    0  0.87198302093E+02  0.31188634843E+02 -0.64078738464E+02  0.11261598268E+03  0.00000000000E+00 0.  1.
</event>
<event>
 6    1  0.6992302E-006  0.1743652E+03  0.7561462E-02  0.1173371E+00
         -1   -1    0    0    0  501 -0.00000000000E+00  0.00000000000E+00  0.72259113813E+03  0.72259113813E+03  0.00000000000E+00 0.  1.
          1   -1    0    0  501    0  0.00000000000E+00 -0.00000000000E+00 -0.36245864294E+03  0.36245864294E+03  0.00000000000E+00 0. -1.
          5    1    1    2  502    0  0.24620877481E+02 -0.50693923865E+02  0.71101377147E+02  0.90823673990E+02  0.41800000000E+01 0. -1.
         -5    1    1    2    0  502 -0.14530985333E+03  0.58818047183E+02  0.61475371426E+03  0.63444000327E+03  0.41800000000E+01 0.  1.
        -11    1    1    2    0    0  0.10874988511E+03  0.14605399596E+02 -0.31187720262E+03  0.33061646166E+03  0.00000000000E+00 0. -1.
         11    1    1    2    0    0  0.11939090736E+02 -0.22729522914E+02 -0.13845393608E+02  0.29169642159E+02  0.00000000000E+00 0.  1.
</event>
<event>
 7    1  0.6992302E-006  0.2381106E+03  0.7561462E-02  0.1121058E+00
         -2   -1    0    0    0  501 -0.00000000000E+00  0.00000000000E+00  0.85226313494E+02  0.85226313494E+02  0.00000000000E+00 0.  1.
          2   -1    0    0  501    0  0.00000000000E+00 -0.00000000000E+00 -0.81019424921E+03  0.81019424921E+03  0.00000000000E+00 0. -1.
         23    2    1    2    0    0 -0.15019636542E+03  0.17976384750E+03 -0.29105438563E+03  0.39399817845E+03  0.12509164710E+03 0.  0.
          5    1    3    3  502    0 -0.40413359040E+02  0.93726122802E+02 -0.20768266565E+03  0.23144629549E+03  0.41800000000E+01 0.  1.
         -5    1    3    3    0  502 -0.10978300638E+03  0.86037724694E+02 -0.83371719977E+02  0.16255188296E+03  0.41800000000E+01 0.  1.
        -11    1    1    2    0    0  0.10737144740E+03 -0.13624470509E+03 -0.38805440487E+03  0.42506172319E+03  0.00000000000E+00 0.  1.
         11    1    1    2    0    0  0.42824918018E+02 -0.43519142402E+02 -0.45859145220E+02  0.76360661070E+02  0.00000000000E+00 0. -1.
</event>
<event>
 7    1  0.6992302E-006  0.1066927E+03  0.7561462E-02  0.1266820E+00
         -1   -1    0    0    0  501 -0.00000000000E+00  0.00000000000E+00  0.65665635287E+02  0.65665635287E+02  0.00000000000E+00 0.  1.
          1   -1    0    0  501    0  0.00000000000E+00 -0.00000000000E+00 -0.24490032960E+03  0.24490032960E+03  0.00000000000E+00 0. -1.
         23    2    1    2    0    0  0.15929956252E+02  0.52794645458E+02 -0.56783277643E+02  0.14802989600E+03  0.12508985329E+03 0.  0.
          5    1    3    3  502    0  0.40458673674E+02 -0.82673077007E+01 -0.69430608539E+02  0.80890879920E+02  0.41800000000E+01 0. -1.
         -5    1    3    3    0  502 -0.24528717422E+02  0.61061953159E+02  0.12647330896E+02  0.67139016084E+02  0.41800000000E+01 0. -1.
        -11    1    1    2    0    0  0.30108999036E+02 -0.51773873026E+02 -0.79742463248E+02  0.99729364762E+02  0.00000000000E+00 0. -1.
         11    1    1    2    0    0 -0.46038955288E+02 -0.10207724320E+01 -0.42708953426E+02  0.62806704125E+02  0.00000000000E+00 0.  1.
</event>
<event>
 7    1  0.6992302E-006  0.1818066E+03  0.7561462E-02  0.1166066E+00
         -1   -1    0    0    0  501 -0.00000000000E+00  0.00000000000E+00  0.17059178785E+03  0.17059178785E+03  0.00000000000E+00 0.  1.
          1   -1    0    0  501    0  0.00000000000E+00 -0.00000000000E+00 -0.41425141015E+03  0.41425141015E+03  0.00000000000E+00 0. -1.
         23    2    1    2    0    0  0.13419065670E+03  0.91336408078E+02  0.73992810465E+02  0.21788199539E+03  0.12509259023E+03 0.  0.
          5    1    3    3  502    0  0.19262798715E+02  0.79107471470E+02  0.17981669645E+01  0.81546019284E+02  0.41800000000E+01 0. -1.
         -5    1    3    3    0  502  0.11492785799E+03  0.12228936609E+02  0.72194643500E+02  0.13633597611E+03  0.41800000000E+01 0. -1.
        -11    1    1    2    0    0 -0.49358268583E+02 -0.13179882477E+02 -0.18131809009E+03  0.18837780594E+03  0.00000000000E+00 0. -1.
         11    1    1    2    0    0 -0.84832388117E+02 -0.78156525602E+02 -0.13633434268E+03  0.17858339666E+03  0.00000000000E+00 0.  1.
</event>
<event>
 7    1  0.6992302E-006  0.8015209E+02  0.7561462E-02  0.1328620E+00
         -1   -1    0    0    0  501 -0.00000000000E+00  0.00000000000E+00  0.21416646894E+03  0.21416646894E+03  0.00000000000E+00 0.  1.
          1   -1    0    0  501    0  0.00000000000E+00 -0.00000000000E+00 -0.66803079918E+02  0.66803079918E+02  0.00000000000E+00 0. -1.
         23    2    1    2    0    0  0.42303962856E+02 -0.20523334904E+02  0.13052995590E+03  0.18682343207E+03  0.12511631722E+03 0.  0.
          5    1    3    3  502    0  0.37992483187E+02 -0.39702679332E+02  0.36087749475E+00  0.55112014637E+02  0.41800000000E+01 0.  1.
         -5    1    3    3    0  502  0.43114796691E+01  0.19179344428E+02  0.13016907841E+03  0.13171141744E+03  0.41800000000E+01 0.  1.
        -11    1    1    2    0    0  0.81774464963E+01 -0.19193871981E+02 -0.11634096172E+02  0.23887811674E+02  0.00000000000E+00 0. -1.
         11    1    1    2    0    0 -0.50481409352E+02  0.39717206885E+02  0.28467529292E+02  0.70258305110E+02  0.00000000000E+00 0.  1.
</event>
<event>
 7    1  0.6992302E-006  0.1095623E+03  0.7561462E-02  0.1261383E+00
          2   -1    0    0  501    0  0.00000000000E+00  0.00000000000E+00  0.41363628633E+03  0.41363628633E+03  0.00000000000E+00 0. -1.
         -2   -1    0    0    0  501 -0.00000000000E+00 -0.00000000000E+00 -0.36732522288E+02  0.36732522288E+02  0.00000000000E+00 0.  1.
         23    2    1    2    0    0  0.42593370452E+02  0.32658567586E+02  0.24399218285E+03  0.27939263084E+03  0.12508908679E+03 0.  0.
          5    1    3    3  502    0  0.73253486133E+02  0.60665255444E+01  0.22015573728E+03  0.23213982213E+03  0.41800000000E+01 0.  1.
         -5    1    3    3    0  502 -0.30660115680E+02  0.26592042041E+02  0.23836445569E+02  0.47252808708E+02  0.41800000000E+01 0.  1.
        -11    1    1    2    0    0 -0.49766029909E+02 -0.59124341044E+02  0.79125361756E+02  0.11060365414E+03  0.00000000000E+00 0.  1.
         11    1    1    2    0    0  0.71726594568E+01  0.26465773458E+02  0.53786219438E+02  0.60372523633E+02  0.00000000000E+00 0. -1.
</event>
<event>
 7    1  0.6992302E-006  0.1339279E+03  0.7561462E-02  0.1221741E+00
          1   -1    0    0  501    0  0.00000000000E+00  0.00000000000E+00  0.14675937413E+03  0.14675937413E+03  0.00000000000E+00 0. -1.
         -1   -1    0    0    0  501 -0.00000000000E+00 -0.00000000000E+00 -0.21421797919E+03  0.21421797919E+03  0.00000000000E+00 0.  1.
         23    2    1    2    0    0  0.90789332140E+02  0.69225911834E+02 -0.11682164328E+03  0.20574682931E+03  0.12509808845E+03 0.  0.
          5    1    3    3  502    0  0.88869844353E+02  0.50405651773E+02 -0.14136945873E+03  0.17447456900E+03  0.41800000000E+01 0.  1.
         -5    1    3    3    0  502  0.19194877871E+01  0.18820260061E+02  0.24547815445E+02  0.31272260316E+02  0.41800000000E+01 0.  1.
        -11    1    1    2    0    0 -0.24191723949E+02  0.22389976391E+02  0.39384871801E+01  0.33197322659E+02  0.00000000000E+00 0. -1.
         11    1    1    2    0    0 -0.66597608191E+02 -0.91615888226E+02  0.45424551041E+02  0.12203320134E+03  0.00000000000E+00 0.  1.
</event>
<event>
 7    1  0.6992302E-006  0.2326028E+03  0.7561462E-02  0.1124821E+00
          1   -1    0    0  501    0  0.00000000000E+00  0.00000000000E+00  0.26300534456E+03  0.26300534456E+03  0.00000000000E+00 0. -1.
         -1   -1    0    0    0  501 -0.00000000000E+00 -0.00000000000E+00 -0.23684150518E+03  0.23684150518E+03  0.00000000000E+00 0.  1.
         23    2    1    2    0    0  0.27420424949E+02 -0.21896381626E+03 -0.22950599138E+02  0.25469906289E+03  0.12509136702E+03 0.  0.
          5    1    3    3  502    0  0.38929170377E+02 -0.10728833431E+03  0.45729524465E+02  0.12302409842E+03  0.41800000000E+01 0.  1.
         -5    1    3    3    0  502 -0.11508745428E+02 -0.11167548195E+03 -0.68680123603E+02  0.13167496447E+03  0.41800000000E+01 0.  1.
        -11    1    1    2    0    0 -0.53657423418E+02  0.19778273539E+03  0.32277820705E+02  0.20745839876E+03  0.00000000000E+00 0.  1.
         11    1    1    2    0    0  0.26236998469E+02  0.21181080872E+02  0.16836617809E+02  0.37689388093E+02  0.00000000000E+00 0. -1.
</event>
<event>
 7    1  0.6992302E-006  0.1578266E+03  0.7561462E-02  0.1191173E+00
         -1   -1    0    0    0  501 -0.00000000000E+00  0.00000000000E+00  0.38822269974E+02  0.38822269974E+02  0.00000000000E+00 0.  1.
          1   -1    0    0  501    0  0.00000000000E+00 -0.00000000000E+00 -0.74828849345E+03  0.74828849345E+03  0.00000000000E+00 0. -1.
         23    2    1    2    0    0 -0.86612366227E+01 -0.12842022326E+03 -0.31641580269E+03  0.36379038256E+03  0.12513077756E+03 0.  0.
          5    1    3    3  502    0  0.39146067693E+02 -0.11817616490E+03 -0.18066896452E+03  0.21944650306E+03  0.41800000000E+01 0.  1.
         -5    1    3    3    0  502 -0.47807304316E+02 -0.10244058369E+02 -0.13574683817E+03  0.14434387950E+03  0.41800000000E+01 0.  1.
        -11    1    1    2    0    0 -0.25965375716E+02  0.58077640279E+02 -0.89489308469E+02  0.10979776576E+03  0.00000000000E+00 0.  1.
         11    1    1    2    0    0  0.34626612339E+02  0.70342582986E+02 -0.30356111232E+03  0.31352261510E+03  0.00000000000E+00 0. -1.
</event>
<event>
 7    1  0.6992302E-006  0.1699700E+03  0.7561462E-02  0.1177879E+00
          1   -1    0    0  501    0  0.00000000000E+00  0.00000000000E+00  0.18920261980E+02  0.18920261980E+02  0.00000000000E+00 0. -1.
         -1   -1    0    0    0  501 -0.00000000000E+00 -0.00000000000E+00 -0.16295078366E+04  0.16295078366E+04  0.00000000000E+00 0.  1.
         23    2    1    2    0    0 -0.13088290691E+03 -0.18340254471E+02 -0.93804328663E+03  0.95553113748E+03  0.12509135400E+03 0.  0.
          5    1    3    3  502    0 -0.14054840858E+03  0.13196709374E+02 -0.62661965570E+03  0.64233766323E+03  0.41800000000E+01 0. -1.
         -5    1    3    3    0  502  0.96655016715E+01 -0.31536963845E+02 -0.31142363093E+03  0.31319347425E+03  0.41800000000E+01 0. -1.
        -11    1    1    2    0    0  0.25863214405E+02 -0.38244956617E+02 -0.15193828532E+03  0.15879806394E+03  0.00000000000E+00 0. -1.
         11    1    1    2    0    0  0.10501969251E+03  0.56585211088E+02 -0.52060600265E+03  0.53409889714E+03  0.00000000000E+00 0.  1.
</event>
<event>
 7    1  0.6992302E-006  0.9819552E+02  0.7561462E-02  0.1284137E+00
          1   -1    0    0  501    0  0.00000000000E+00  0.00000000000E+00  0.10689397837E+03  0.10689397837E+03  0.00000000000E+00 0. -1.
         -1   -1    0    0    0  501 -0.00000000000E+00 -0.00000000000E+00 -0.25923632761E+03  0.25923632761E+03  0.00000000000E+00 0.  1.
         23    2    1    2    0    0  0.16097259287E+02 -0.29777349108E+02 -0.21504983385E+03  0.25108104447E+03  0.12509775209E+03 0.  0.
          5    1    3    3  502    0  0.17920274459E+02 -0.74898352487E+02 -0.17222580371E+03  0.18870638385E+03  0.41800000000E+01 0.  1.
         -5    1    3    3    0  502 -0.18230151723E+01  0.45121003378E+02 -0.42824030137E+02  0.62374660619E+02  0.41800000000E+01 0.  1.
        -11    1    1    2    0    0 -0.28570975011E+02  0.45572401136E+02  0.51024257135E+01  0.54029428153E+02  0.00000000000E+00 0.  1.
         11    1    1    2    0    0  0.12473715724E+02 -0.15795052027E+02  0.57605058900E+02  0.61019833361E+02  0.00000000000E+00 0. -1.
</event>
<event>
 7    1  0.6992302E-006  0.9213399E+02  0.7561462E-02  0.1297765E+00
          1   -1    0    0  501    0  0.00000000000E+00  0.00000000000E+00  0.17417054018E+02  0.17417054018E+02  0.00000000000E+00 0. -1.
         -1   -1    0    0    0  501 -0.00000000000E+00 -0.00000000000E+00 -0.69754073206E+03  0.69754073206E+03  0.00000000000E+00 0.  1.
         23    2    1    2    0    0  0.17622910828E+02 -0.83296985676E+01 -0.40956269672E+03  0.42868332062E+03  0.12509131052E+03 0.  0.
          5    1    3    3  502    0  0.57706197540E+02 -0.18154964703E+02 -0.35500695542E+03  0.36014860652E+03  0.41800000000E+01 0. -1.
         -5    1    3    3    0  502 -0.40083286712E+02  0.98252661359E+01 -0.54555741298E+02  0.68534714100E+02  0.41800000000E+01 0. -1.
        -11    1    1    2    0    0 -0.16878277297E+02 -0.34976194358E+02 -0.61213641939E+02  0.72493588514E+02  0.00000000000E+00 0. -1.
         11    1    1    2    0    0 -0.74463353114E+00  0.43305892925E+02 -0.20934733938E+03  0.21378087694E+03  0.00000000000E+00 0.  1.
</event>
<event>
 7    1  0.6992302E-006  0.1217406E+03  0.7561462E-02  0.1240253E+00
         -2   -1    0    0    0  501 -0.00000000000E+00  0.00000000000E+00  0.80057822063E+02  0.80057822063E+02  0.00000000000E+00 0.  1.
          2   -1    0    0  501    0  0.00000000000E+00 -0.00000000000E+00 -0.21203388887E+03  0.21203388887E+03  0.00000000000E+00 0. -1.
         23    2    1    2    0    0 -0.25760819069E+02  0.66734999148E+02 -0.76962073481E+02  0.16334925240E+03  0.12507053048E+03 0.  0.
          5    1    3    3  502    0  0.18882772766E+02  0.89787979164E+02 -0.37020307801E+02  0.99027349250E+02  0.41800000000E+01 0.  1.
         -5    1    3    3    0  502 -0.44643591835E+02 -0.23052980016E+02 -0.39941765680E+02  0.64321903153E+02  0.41800000000E+01 0.  1.
        -11    1    1    2    0    0  0.74112003835E+01 -0.78869615586E+02 -0.11585318604E+02  0.80059738701E+02  0.00000000000E+00 0.  1.
         11    1    1    2    0    0  0.18349618685E+02  0.12134616437E+02 -0.43428674724E+02  0.48682719832E+02  0.00000000000E+00 0. -1.
</event>
<event>
 7    1  0.6992302E-006  0.1121178E+03  0.7561462E-02  0.1256698E+00
         -2   -1    0    0    0  501 -0.00000000000E+00  0.00000000000E+00  0.93558564010E+02  0.93558564010E+02  0.00000000000E+00 0.  1.
          2   -1    0    0  501    0  0.00000000000E+00 -0.00000000000E+00 -0.18181634066E+03  0.18181634066E+03  0.00000000000E+00 0. -1.
         23    2    1    2    0    0  0.67968793518E+02  0.10585181541E+02 -0.29102538466E+02  0.14568925012E+03  0.12508635775E+03 0.  0.
          5    1    3    3  502    0 -0.42413426389E+01  0.38790552076E+02 -0.51628857095E+02  0.64851424060E+02  0.41800000000E+01 0.  1.
         -5    1    3    3    0  502  0.72210136157E+02 -0.28205370535E+02  0.22526318629E+02  0.80837826058E+02  0.41800000000E+01 0.  1.
        -11    1    1    2    0    0 -0.78037876422E+02 -0.31489650553E+02 -0.64316302159E+02  0.10591550865E+03  0.00000000000E+00 0. -1.
         11    1    1    2    0    0  0.10069082904E+02  0.20904469012E+02  0.51610639707E+01  0.23770145909E+02  0.00000000000E+00 0.  1.
</event>
<event>
 7    1  0.6992302E-006  0.1167081E+03  0.7561462E-02  0.1248629E+00
         -3   -1    0    0    0  501 -0.00000000000E+00  0.00000000000E+00  0.51470610445E+03  0.51470610445E+03  0.00000000000E+00 0.  1.
          3   -1    0    0  501    0  0.00000000000E+00 -0.00000000000E+00 -0.28308821552E+02  0.28308821552E+02  0.00000000000E+00 0. -1.
         23    2    1    2    0    0 -0.43721703454E+02 -0.22686091593E+02  0.30295529704E+03  0.33144723874E+03  0.12509641866E+03 0.  0.
          5    1    3    3  502    0  0.43863692508E+02 -0.76512512774E+01  0.11850650001E+03  0.12666423375E+03  0.41800000000E+01 0.  1.
         -5    1    3    3    0  502 -0.87585395962E+02 -0.15034840316E+02  0.18444879703E+03  0.20478300499E+03  0.41800000000E+01 0.  1.
        -11    1    1    2    0    0 -0.20278562571E+02  0.29034872172E+02  0.34999903776E+02  0.49791938768E+02  0.00000000000E+00 0. -1.
         11    1    1    2    0    0  0.64000266025E+02 -0.63487805787E+01  0.14844208208E+03  0.16177574849E+03  0.00000000000E+00 0.  1.
</event>
<event>
 7    1  0.6992302E-006  0.9170813E+02  0.7561462E-02  0.1298767E+00
          2   -1    0    0  501    0  0.00000000000E+00  0.00000000000E+00  0.79738089087E+02  0.79738089087E+02  0.00000000000E+00 0. -1.
         -2   -1    0    0    0  501 -0.00000000000E+00 -0.00000000000E+00 -0.27184575339E+03  0.27184575339E+03  0.00000000000E+00 0.  1.
         23    2    1    2    0    0  0.11944212190E+02 -0.11974458236E+02 -0.21883317666E+03  0.25262960085E+03  0.12509078369E+03 0.  0.
          5    1    3    3  502    0  0.12603685325E+02 -0.52726027741E+02 -0.35877438634E+02  0.65142535168E+02  0.41800000000E+01 0. -1.
         -5    1    3    3    0  502 -0.65947313495E+00  0.40751569505E+02 -0.18295573803E+03  0.18748706569E+03  0.41800000000E+01 0. -1.
        -11    1    1    2    0    0 -0.34745637250E+02 -0.26262173424E+02 -0.56341874679E+01  0.43917025506E+02  0.00000000000E+00 0.  1.
         11    1    1    2    0    0  0.22801425060E+02  0.38236631660E+02  0.32359699825E+02  0.55037216120E+02  0.00000000000E+00 0. -1.
</event>
<event>
 7    1  0.6992302E-006  0.1371241E+03  0.7561462E-02  0.1217252E+00
         -1   -1    0    0    0  501 -0.00000000000E+00  0.00000000000E+00  0.15827370901E+03  0.15827370901E+03  0.00000000000E+00 0.  1.
          1   -1    0    0  501    0  0.00000000000E+00 -0.00000000000E+00 -0.23234968368E+03  0.23234968368E+03  0.00000000000E+00 0. -1.
         23    2    1    2    0    0 -0.69776217740E+02 -0.96798428451E+02  0.68544892476E+02  0.18596941076E+03  0.12509022000E+03 0.  0.
          5    1    3    3  502    0 -0.70301659973E+02 -0.26226073511E+02  0.84922276468E+02  0.11339927587E+03  0.41800000000E+01 0.  1.
         -5    1    3    3    0  502  0.52544223343E+00 -0.70572354940E+02 -0.16377383991E+02  0.72570134889E+02  0.41800000000E+01 0.  1.
        -11    1    1    2    0    0  0.75287547496E+02  0.76369732249E+02 -0.67745556134E+02  0.12684640786E+03  0.00000000000E+00 0.  1.
         11    1    1    2    0    0 -0.55113297558E+01  0.20428696202E+02 -0.74875311012E+02  0.77807574075E+02  0.00000000000E+00 0. -1.
</event>
<event>
 6    1  0.6992302E-006  0.1029084E+03  0.7561462E-02  0.1274296E+00
         -2   -1    0    0    0  501 -0.00000000000E+00  0.00000000000E+00  0.73544147339E+03  0.73544147339E+03  0.00000000000E+00 0.  1.
          2   -1    0    0  501    0  0.00000000000E+00 -0.00000000000E+00 -0.38258857103E+02  0.38258857103E+02  0.00000000000E+00 0. -1.
          5    1    1    2  502    0 -0.14378485091E+02 -0.69543773164E+02  0.34037545196E+02  0.78861296606E+02  0.41800000000E+01 0. -1.
         -5    1    1    2    0  502 -0.12927193656E+02  0.78374303943E+02  0.48816572681E+03  0.49460377383E+03  0.41800000000E+01 0.  1.
        -11    1    1    2    0    0  0.15107000334E+02 -0.28346735931E+02  0.17427401858E+03  0.17720945925E+03  0.00000000000E+00 0.  1.
         11    1    1    2    0    0  0.12198678412E+02  0.19516205152E+02  0.70532570525E+00  0.23025800809E+02  0.00000000000E+00 0. -1.
</event>
<event>
 7    1  0.6992302E-006  0.1337525E+03  0.7561462E-02  0.1221992E+00
         -2   -1    0    0    0  501 -0.00000000000E+00  0.00000000000E+00  0.19051861893E+03  0.19051861893E+03  0.00000000000E+00 0.  1.
          2   -1    0    0  501    0  0.00000000000E+00 -0.00000000000E+00 -0.22420713557E+03  0.22420713557E+03  0.00000000000E+00 0. -1.
         23    2    1    2    0    0 -0.10674964952E+03 -0.14282341425E+02  0.12171939565E+03  0.20509340911E+03  0.12509285445E+03 0.  0.
          5    1    3    3  502    0 -0.10470988154E+03  0.33177963324E+02  0.54534648956E+02  0.12270467342E+03  0.41800000000E+01 0.  1.
         -5    1    3    3    0  502 -0.20397679819E+01 -0.47460304750E+02  0.67184746694E+02  0.82388735691E+02  0.41800000000E+01 0.  1.
        -11    1    1    2    0    0  0.33385172784E+02  0.14830246464E+02  0.13493612644E+01  0.36555803203E+02  0.00000000000E+00 0.  1.
         11    1    1    2    0    0  0.73364476734E+02 -0.54790503840E+00 -0.15675727355E+03  0.17307654220E+03  0.00000000000E+00 0. -1.
</event>
<event>
 7    1  0.6992302E-006  0.1138981E+03  0.7561462E-02  0.1253517E+00
         -3   -1    0    0    0  501 -0.00000000000E+00  0.00000000000E+00  0.13165471965E+04  0.13165471965E+04  0.00000000000E+00 0.  1.
          3   -1    0    0  501    0  0.00000000000E+00 -0.00000000000E+00 -0.15247462064E+02  0.15247462064E+02  0.00000000000E+00 0. -1.
         23    2    1    2    0    0  0.36339360125E+01 -0.68128694081E+02  0.99148449243E+03  0.10016705825E+04  0.12509089769E+03 0.  0.
          5    1    3    3  502    0 -0.10657768916E+02 -0.99285900831E+02  0.56344303724E+03  0.57223841775E+03  0.41800000000E+01 0.  1.
         -5    1    3    3    0  502  0.14291704928E+02  0.31157206750E+02  0.42804145520E+03  0.42943216476E+03  0.41800000000E+01 0.  1.
        -11    1    1    2    0    0  0.30057754774E+02  0.33409433427E+02  0.56316082885E+02  0.72049705451E+02  0.00000000000E+00 0. -1.
         11    1    1    2    0    0 -0.33691690787E+02  0.34719260653E+02  0.25349915908E+03  0.25807437056E+03  0.00000000000E+00 0.  1.
</event>
<event>
 6    1  0.6992302E-006  0.1428647E+03  0.7561462E-02  0.1209525E+00
          2   -1    0    0  501    0  0.00000000000E+00  0.00000000000E+00  0.77875892962E+03  0.77875892962E+03  0.00000000000E+00 0.  1.
         -2   -1    0    0    0  501 -0.00000000000E+00 -0.00000000000E+00 -0.27558229232E+02  0.27558229232E+02  0.00000000000E+00 0. -1.
          5    1    1    2  502    0  0.12775408684E+03  0.55900924872E+01  0.39424297119E+03  0.41448443706E+03  0.41800000000E+01 0.  1.
         -5    1    1    2    0  502 -0.13078226708E+03  0.43794218308E+01  0.26362122771E+03  0.29434130668E+03  0.41800000000E+01 0. -1.
        -11    1    1    2    0    0 -0.10945869365E+02 -0.37939785179E+01  0.55318171920E+02  0.56518195952E+02  0.00000000000E+00 0. -1.
         11    1    1    2    0    0  0.13974049604E+02 -0.61755358001E+01  0.38018329568E+02  0.40973219155E+02  0.00000000000E+00 0.  1.
</event>
<event>
 7    1  0.6992302E-006  0.1238946E+03  0.7561462E-02  0.1236807E+00
          2   -1    0    0  501    0  0.00000000000E+00  0.00000000000E+00  0.76766157730E+02  0.76766157730E+02  0.00000000000E+00 0. -1.
         -2   -1    0    0    0  501 -0.00000000000E+00 -0.00000000000E+00 -0.27964213743E+03  0.27964213743E+03  0.00000000000E+00 0.  1.
         23    2    1    2    0    0  0.10009933206E+03  0.29383980194E+00 -0.11402270294E+03  0.19664456887E+03  0.12509175458E+03 0.  0.
          5    1    3    3  502    0  0.10728010922E+03 -0.17113724723E+01 -0.13587486541E+03  0.17318025892E+03  0.41800000000E+01 0.  1.
         -5    1    3    3    0  502 -0.71807771653E+01  0.20052122743E+01  0.21852162472E+02  0.23464309955E+02  0.41800000000E+01 0.  1.
        -11    1    1    2    0    0 -0.82435027698E+02 -0.37588431455E+02 -0.69486472125E+02  0.11417877990E+03  0.00000000000E+00 0.  1.
         11    1    1    2    0    0 -0.17664304357E+02  0.37294591653E+02 -0.19366804639E+02  0.45584946385E+02  0.00000000000E+00 0. -1.
</event>
<event>
 7    1  0.6992302E-006  0.1100929E+03  0.7561462E-02  0.1260398E+00
          2   -1    0    0  501    0  0.00000000000E+00  0.00000000000E+00  0.32478110980E+03  0.32478110980E+03  0.00000000000E+00 0. -1.
         -2   -1    0    0    0  501 -0.00000000000E+00 -0.00000000000E+00 -0.72846955372E+02  0.72846955372E+02  0.00000000000E+00 0.  1.
         23    2    1    2    0    0 -0.24176090115E+02 -0.10675415768E+03  0.13458286858E+03  0.21387004047E+03  0.12508761801E+03 0.  0.
          5    1    3    3  502    0 -0.12823565103E+02 -0.29102521107E+02  0.13135580702E+03  0.13521546137E+03  0.41800000000E+01 0. -1.
         -5    1    3    3    0  502 -0.11352525012E+02 -0.77651636575E+02  0.32270615677E+01  0.78654579099E+02  0.41800000000E+01 0. -1.
        -11    1    1    2    0    0  0.12548841850E+02  0.46991945579E+02 -0.31594787064E+01  0.48741139572E+02  0.00000000000E+00 0.  1.
         11    1    1    2    0    0  0.11627248265E+02  0.59762212103E+02  0.12051076455E+03  0.13501688513E+03  0.00000000000E+00 0. -1.
</event>
<event>
 7    1  0.6992302E-006  0.1494755E+03  0.7561462E-02  0.1201119E+00
         -3   -1    0    0    0  501 -0.00000000000E+00  0.00000000000E+00  0.56614451151E+03  0.56614451151E+03  0.00000000000E+00 0.  1.
          3   -1    0    0  501    0  0.00000000000E+00 -0.00000000000E+00 -0.45881342108E+02  0.45881342108E+02  0.00000000000E+00 0. -1.
         23    2    1    2    0    0  0.26316164690E+02 -0.10500013260E+03  0.37032885748E+03  0.40559646820E+03  0.12508982359E+03 0.  0.
          5    1    3    3  502    0  0.73337984502E+02 -0.87931004137E+02  0.27347166250E+03  0.29650386852E+03  0.41800000000E+01 0.  1.
         -5    1    3    3    0  502 -0.47021819811E+02 -0.17069128459E+02  0.96857194979E+02  0.10909259968E+03  0.41800000000E+01 0.  1.
        -11    1    1    2    0    0 -0.18062024430E+02 -0.87896400327E+01  0.28564165754E+01  0.20289248731E+02  0.00000000000E+00 0. -1.
         11    1    1    2    0    0 -0.82541402600E+01  0.11378977263E+03  0.14707789535E+03  0.18614013669E+03  0.00000000000E+00 0.  1.
</event>
<event>
 7    1  0.6992302E-006  0.1051628E+03  0.7561462E-02  0.1269799E+00
          1   -1    0    0  501    0  0.00000000000E+00  0.00000000000E+00  0.17563219750E+03  0.17563219750E+03  0.00000000000E+00 0. -1.
         -1   -1    0    0    0  501 -0.00000000000E+00 -0.00000000000E+00 -0.97899514323E+02  0.97899514323E+02  0.00000000000E+00 0.  1.
         23    2    1    2    0    0 -0.57500661775E+02  0.24336681663E+02  0.57543686085E+02  0.15119507924E+03  0.12510026378E+03 0.  0.
          5    1    3    3  502    0 -0.17723837147E+02  0.46006361731E+02  0.84789678382E+02  0.98170676288E+02  0.41800000000E+01 0.  1.
         -5    1    3    3    0  502 -0.39776824628E+02 -0.21669680067E+02 -0.27245992296E+02  0.53024402948E+02  0.41800000000E+01 0.  1.
        -11    1    1    2    0    0  0.74103390020E+02  0.12316007614E+02 -0.42823893420E+01  0.75241845502E+02  0.00000000000E+00 0.  1.
         11    1    1    2    0    0 -0.16602728245E+02 -0.36652689277E+02  0.24471386432E+02  0.47094787082E+02  0.00000000000E+00 0. -1.
</event>
<event>
 7    1  0.6992302E-006  0.2242174E+03  0.7561462E-02  0.1130777E+00
          1   -1    0    0  501    0  0.00000000000E+00  0.00000000000E+00  0.49989222078E+03  0.49989222078E+03  0.00000000000E+00 0. -1.
         -1   -1    0    0    0  501 -0.00000000000E+00 -0.00000000000E+00 -0.13147310397E+03  0.13147310397E+03  0.00000000000E+00 0.  1.
         23    2    1    2    0    0  0.21169040908E+03 -0.34252572459E+02  0.77094466841E+02  0.25995527909E+03  0.12508845787E+03 0.  0.
          5    1    3    3  502    0  0.21659658662E+03 -0.27969172362E+02  0.96318638830E+02  0.23872810585E+03  0.41800000000E+01 0. -1.
         -5    1    3    3    0  502 -0.49061775440E+01 -0.62834000974E+01 -0.19224171989E+02  0.21227173235E+02  0.41800000000E+01 0. -1.
        -11    1    1    2    0    0 -0.15776325996E+03  0.48809479640E+02  0.25812459939E+03  0.30643093888E+03  0.00000000000E+00 0. -1.
         11    1    1    2    0    0 -0.53927149120E+02 -0.14556907181E+02  0.33200050576E+02  0.64979106774E+02  0.00000000000E+00 0.  1.
</event>
<event>
 7    1  0.6992302E-006  0.1739487E+03  0.7561462E-02  0.1173791E+00
         -2   -1    0    0    0  501 -0.00000000000E+00  0.00000000000E+00  0.32833049752E+03  0.32833049752E+03  0.00000000000E+00 0.  1.
          2   -1    0    0  501    0  0.00000000000E+00 -0.00000000000E+00 -0.16872594437E+03  0.16872594437E+03  0.00000000000E+00 0. -1.
         23    2    1    2    0    0  0.11498812573E+03  0.90615672950E+02  0.23927867885E+03  0.30714270726E+03  0.12509551242E+03 0.  0.
          5    1    3    3  502    0  0.54314604517E+02 -0.12437402100E+02  0.14309418877E+03  0.15361700588E+03  0.41800000000E+01 0.  1.
         -5    1    3    3    0  502  0.60673521211E+02  0.10305307505E+03  0.96184490080E+02  0.15352570138E+03  0.41800000000E+01 0.  1.
        -11    1    1    2    0    0 -0.44488659730E+02  0.13615274217E+02 -0.23164097273E+02  0.51972992401E+02  0.00000000000E+00 0. -1.
         11    1    1    2    0    0 -0.70499465998E+02 -0.10423094717E+03 -0.56510028422E+02  0.13794074223E+03  0.00000000000E+00 0.  1.
</event>
<event>
 7    1  0.6992302E-006  0.1481604E+03  0.7561462E-02  0.1202752E+00
         -1   -1    0    0    0  501 -0.00000000000E+00  0.00000000000E+00  0.18656943080E+03  0.18656943080E+03  0.00000000000E+00 0.  1.
          1   -1    0    0  501    0  0.00000000000E+00 -0.00000000000E+00 -0.18203698262E+03  0.18203698262E+03  0.00000000000E+00 0. -1.
         23    2    1    2    0    0  0.78483312448E+02  0.11257782000E+03  0.58567977117E+02  0.19471552707E+03  0.12510208892E+03 0.  0.
          5    1    3    3  502    0  0.71221863359E+02  0.83904444274E+02 -0.18846826803E+02  0.11173712395E+03  0.41800000000E+01 0.  1.
         -5    1    3    3    0  502  0.72614490889E+01  0.28673375724E+02  0.77414803921E+02  0.82978403120E+02  0.41800000000E+01 0.  1.
        -11    1    1    2    0    0 -0.35017917154E+02  0.65453847600E+00  0.10418134322E+02  0.36540668647E+02  0.00000000000E+00 0.  1.
         11    1    1    2    0    0 -0.43465395294E+02 -0.11323235847E+03 -0.64453663257E+02  0.13735021769E+03  0.00000000000E+00 0. -1.
</event>
<event>
 7    1  0.6992302E-006  0.1085833E+03  0.7561462E-02  0.1263216E+00
         -2   -1    0    0    0  501 -0.00000000000E+00  0.00000000000E+00  0.14872305408E+03  0.14872305408E+03  0.00000000000E+00 0.  1.
          2   -1    0    0  501    0  0.00000000000E+00 -0.00000000000E+00 -0.14029454012E+03  0.14029454012E+03  0.00000000000E+00 0. -1.
         23    2    1    2    0    0  0.69869289825E+02 -0.46994929697E+02  0.18322575555E+02  0.15189938985E+03  0.12508983486E+03 0.  0.
          5    1    3    3  502    0 -0.26402343804E+02 -0.56959330367E+01 -0.26326383231E+02  0.37948363147E+02  0.41800000000E+01 0.  1.
         -5    1    3    3    0  502  0.96271633629E+02 -0.41298996660E+02  0.44648958785E+02  0.11395102671E+03  0.41800000000E+01 0.  1.
        -11    1    1    2    0    0 -0.20594002488E+02  0.20461898494E+02 -0.57000199611E+02  0.63967374373E+02  0.00000000000E+00 0. -1.
         11    1    1    2    0    0 -0.49275287337E+02  0.26533031203E+02  0.47106138014E+02  0.73150829972E+02  0.00000000000E+00 0.  1.
</event>
<event>
 7    1  0.6992302E-006  0.1523000E+03  0.7561462E-02  0.1197675E+00
         -2   -1    0    0    0  501 -0.00000000000E+00  0.00000000000E+00  0.48974918767E+02  0.48974918767E+02  0.00000000000E+00 0.  1.
          2   -1    0    0  501    0  0.00000000000E+00 -0.00000000000E+00 -0.63474759801E+03  0.63474759801E+03  0.00000000000E+00 0. -1.
         23    2    1    2    0    0  0.16577418159E+02  0.12438716581E+03 -0.17984016812E+03  0.25245951537E+03  0.12508534294E+03 0.  0.
          5    1    3    3  502    0 -0.22770860964E+02  0.11630726202E+03 -0.17554217113E+03  0.21184526795E+03  0.41800000000E+01 0.  1.
         -5    1    3    3    0  502  0.39348279123E+02  0.80799037920E+01 -0.42979969942E+01  0.40614247418E+02  0.41800000000E+01 0.  1.
        -11    1    1    2    0    0 -0.32163683901E+02 -0.15637203515E+02 -0.99474125168E+02  0.10570773990E+03  0.00000000000E+00 0. -1.
         11    1    1    2    0    0  0.15586265742E+02 -0.10874996230E+03 -0.30645838595E+03  0.32555526151E+03  0.00000000000E+00 0.  1.
</event>
<event>
 7    1  0.1004118E-005  0.4250450E+03  0.7561462E-02  0.1035437E+00
          2   -1    0    0  501    0  0.00000000000E+00  0.00000000000E+00  0.26789256608E+04  0.26789256608E+04  0.00000000000E+00 0. -1.
         -2   -1    0    0    0  501 -0.00000000000E+00 -0.00000000000E+00 -0.73634850807E+02  0.73634850807E+02  0.00000000000E+00 0.  1.
         23    2    1    2    0    0  0.31729655654E+03  0.27595109389E+03  0.10288262974E+04  0.11184640730E+04  0.12510883776E+03 0.  0.
          5    1    3    3  502    0  0.16592022729E+03  0.17242564820E+03  0.42932419829E+03  0.49152504069E+03  0.41800000000E+01 0. -1.
         -5    1    3    3    0  502  0.15137632925E+03  0.10352544569E+03  0.59950209914E+03  0.62693903231E+03  0.41800000000E+01 0. -1.
        -11    1    1    2    0    0 -0.17609224813E+03 -0.10282477780E+03  0.65930191935E+03  0.69011624792E+03  0.00000000000E+00 0.  1.
         11    1    1    2    0    0 -0.14120430841E+03 -0.17312631609E+03  0.91716259322E+03  0.94398019070E+03  0.00000000000E+00 0. -1.
</event>
<event>
 7    1  0.6992302E-006  0.1001068E+03  0.7561462E-02  0.1280072E+00
         -2   -1    0    0    0  501 -0.00000000000E+00  0.00000000000E+00  0.33999111721E+02  0.33999111721E+02  0.00000000000E+00 0. -1.
          2   -1    0    0  501    0  0.00000000000E+00 -0.00000000000E+00 -0.37480607225E+03  0.37480607225E+03  0.00000000000E+00 0.  1.
         23    2    1    2    0    0 -0.15734388530E+02 -0.26758009663E+02 -0.18961620918E+03  0.22926304467E+03  0.12507467690E+03 0.  0.
          5    1    3    3  502    0  0.10304734364E+02 -0.61871312353E+02 -0.42875418663E+02  0.76092185986E+02  0.41800000000E+01 0. -1.
         -5    1    3    3    0  502 -0.26039122894E+02  0.35113302690E+02 -0.14674079052E+03  0.15317085868E+03  0.41800000000E+01 0. -1.
        -11    1    1    2    0    0 -0.13923000959E+02  0.52408053691E+02 -0.11018955860E+03  0.12280957973E+03  0.00000000000E+00 0.  1.
         11    1    1    2    0    0  0.29657389489E+02 -0.25650044028E+02 -0.41001192748E+02  0.56732559581E+02  0.00000000000E+00 0. -1.
</event>
<event>
 7    1  0.6992302E-006  0.1178068E+03  0.7561462E-02  0.1246760E+00
         -1   -1    0    0    0  501 -0.00000000000E+00  0.00000000000E+00  0.10315705366E+03  0.10315705366E+03  0.00000000000E+00 0.  1.
          1   -1    0    0  501    0  0.00000000000E+00 -0.00000000000E+00 -0.21873929624E+03  0.21873929624E+03  0.00000000000E+00 0. -1.
         23    2    1    2    0    0 -0.92808482924E+02  0.80344866707E+01 -0.15586302879E+02  0.15674372237E+03  0.12509074380E+03 0.  0.
          5    1    3    3  502    0 -0.35012102299E+02  0.53529247238E+02  0.29295520362E+02  0.70476432448E+02  0.41800000000E+01 0. -1.
         -5    1    3    3    0  502 -0.57796380625E+02 -0.45494760567E+02 -0.44881823242E+02  0.86267289919E+02  0.41800000000E+01 0. -1.
        -11    1    1    2    0    0  0.30603733600E+02 -0.16977493218E+02  0.11775353913E+02  0.36925367243E+02  0.00000000000E+00 0.  1.
         11    1    1    2    0    0  0.62204749324E+02  0.89430065474E+01 -0.11177129362E+03  0.12822726029E+03  0.00000000000E+00 0. -1.
</event>
<event>
 6    1  0.6992302E-006  0.3184023E+03  0.7561462E-02  0.1076387E+00
         -2   -1    0    0    0  501 -0.00000000000E+00  0.00000000000E+00  0.53877904972E+03  0.53877904972E+03  0.00000000000E+00 0.  1.
          2   -1    0    0  501    0  0.00000000000E+00 -0.00000000000E+00 -0.26121727641E+03  0.26121727641E+03  0.00000000000E+00 0. -1.
          5    1    1    2  502    0  0.10213516132E+03  0.51595797677E+02 -0.38112594114E+02  0.12068040333E+03  0.41800000000E+01 0. -1.
         -5    1    1    2    0  502 -0.13398454230E+03 -0.26064184326E+03  0.33897840101E+03  0.44811812816E+03  0.41800000000E+01 0.  1.
        -11    1    1    2    0    0  0.56844440524E+02  0.18839778407E+03 -0.13156227353E+02  0.19722601699E+03  0.00000000000E+00 0. -1.
         11    1    1    2    0    0 -0.24995059549E+02  0.20648261514E+02 -0.10147806227E+02  0.33971777649E+02  0.00000000000E+00 0.  1.
</event>
<event>
 7    1  0.6992302E-006  0.9086366E+02  0.7561462E-02  0.1300774E+00
          1   -1    0    0  501    0  0.00000000000E+00  0.00000000000E+00  0.45899119000E+02  0.45899119000E+02  0.00000000000E+00 0. -1.
         -1   -1    0    0    0  501 -0.00000000000E+00 -0.00000000000E+00 -0.26604298961E+03  0.26604298961E+03  0.00000000000E+00 0.  1.
         23    2    1    2    0    0 -0.73617863279E+01 -0.84046939289E+00 -0.16139625133E+03  0.20433241378E+03  0.12509229829E+03 0.  0.
          5    1    3    3  502    0  0.24027762643E+02 -0.50059586171E+02 -0.12106020292E+03  0.13325291996E+03  0.41800000000E+01 0.  1.
         -5    1    3    3    0  502 -0.31389548971E+02  0.49219116778E+02 -0.40336048404E+02  0.71079493821E+02  0.41800000000E+01 0.  1.
        -11    1    1    2    0    0 -0.95808425107E+01 -0.30456590317E+02  0.71475287176E+01  0.32718245731E+02  0.00000000000E+00 0. -1.
         11    1    1    2    0    0  0.16942628839E+02  0.31297059709E+02 -0.65895148005E+02  0.74891449105E+02  0.00000000000E+00 0.  1.
</event>
<event>
 7    1  0.6992302E-006  0.1055554E+03  0.7561462E-02  0.1269029E+00
         -2   -1    0    0    0  501 -0.00000000000E+00  0.00000000000E+00  0.29767865449E+03  0.29767865449E+03  0.00000000000E+00 0.  1.
          2   -1    0    0  501    0  0.00000000000E+00 -0.00000000000E+00 -0.44112637370E+02  0.44112637370E+02  0.00000000000E+00 0. -1.
         23    2    1    2    0    0 -0.33018154076E+02 -0.14299361455E+02  0.14867164991E+03  0.19759860851E+03  0.12508908970E+03 0.  0.
          5    1    3    3  502    0 -0.71164052649E+02 -0.37392551208E+02  0.68206503129E+02  0.10550888467E+03  0.41800000000E+01 0.  1.
         -5    1    3    3    0  502  0.38145898572E+02  0.23093189753E+02  0.80465146784E+02  0.92089723845E+02  0.41800000000E+01 0.  1.
        -11    1    1    2    0    0  0.30491140373E+02 -0.29220526869E+02  0.15957051950E+02  0.45146166379E+02  0.00000000000E+00 0. -1.
         11    1    1    2    0    0  0.25270137027E+01  0.43519888324E+02  0.88937315260E+02  0.99046516969E+02  0.00000000000E+00 0.  1.
</event>
<event>
 7    1  0.6992302E-006  0.1790888E+03  0.7561462E-02  0.1168688E+00
         -2   -1    0    0    0  501 -0.00000000000E+00  0.00000000000E+00  0.57479244177E+03  0.57479244177E+03  0.00000000000E+00 0.  1.
          2   -1    0    0  501    0  0.00000000000E+00 -0.00000000000E+00 -0.20852959405E+03  0.20852959405E+03  0.00000000000E+00 0. -1.
         23    2    1    2    0    0  0.94037140895E+02  0.12431073978E+03  0.51358614804E+03  0.54958361415E+03  0.11821706133E+03 0.  0.
          5    1    3    3  502    0 -0.16421121002E+02  0.61177163745E+02  0.23260985497E+03  0.24111639432E+03  0.41800000000E+01 0. -1.
         -5    1    3    3    0  502  0.11045826190E+03  0.63133576038E+02  0.28097629306E+03  0.30846721983E+03  0.41800000000E+01 0.  1.
        -11    1    1    2    0    0 -0.48563991161E+02 -0.18034107058E+02 -0.92006310782E+02  0.10558812186E+03  0.00000000000E+00 0.  1.
         11    1    1    2    0    0 -0.45473149734E+02 -0.10627663272E+03 -0.55316989534E+02  0.12815029981E+03  0.00000000000E+00 0. -1.
</event>
<event>
 7    1  0.6992302E-006  0.9984515E+02  0.7561462E-02  0.1280622E+00
          2   -1    0    0  501    0  0.00000000000E+00  0.00000000000E+00  0.40575405282E+03  0.40575405282E+03  0.00000000000E+00 0.  1.
         -2   -1    0    0    0  501 -0.00000000000E+00 -0.00000000000E+00 -0.30948558067E+02  0.30948558067E+02  0.00000000000E+00 0. -1.
         23    2    1    2    0    0 -0.16765012876E+02 -0.10725827871E+02  0.17588799529E+03  0.21675095886E+03  0.12509309430E+03 0.  0.
          5    1    3    3  502    0 -0.48581048630E+02  0.27672030094E+02  0.32325100514E+02  0.64716644371E+02  0.41800000000E+01 0. -1.
         -5    1    3    3    0  502  0.31816035754E+02 -0.38397857965E+02  0.14356289477E+03  0.15203431449E+03  0.41800000000E+01 0. -1.
        -11    1    1    2    0    0  0.30135051630E+02 -0.34858735692E+02  0.89450488198E+02  0.10062128318E+03  0.00000000000E+00 0. -1.
         11    1    1    2    0    0 -0.13370038754E+02  0.45584563564E+02  0.10946701127E+03  0.11933036884E+03  0.00000000000E+00 0.  1.
</event>
<event>
 7    1  0.6992302E-006  0.1348857E+03  0.7561462E-02  0.1220381E+00
         -1   -1    0    0    0  501 -0.00000000000E+00  0.00000000000E+00  0.21168928483E+02  0.21168928483E+02  0.00000000000E+00 0.  1.
          1   -1    0    0  501    0  0.00000000000E+00 -0.00000000000E+00 -0.11363772816E+04  0.11363772816E+04  0.00000000000E+00 0. -1.
         23    2    1    2    0    0  0.68162847149E+02  0.76586772976E+02 -0.75219345189E+03  0.76938595787E+03  0.12509218829E+03 0.  0.
          5    1    3    3  502    0 -0.30671914729E+02 -0.63529940415E+01 -0.11599538615E+03  0.12022283017E+03  0.41800000000E+01 0. -1.
         -5    1    3    3    0  502  0.98834761878E+02  0.82939767017E+02 -0.63619806574E+03  0.64916312770E+03  0.41800000000E+01 0. -1.
        -11    1    1    2    0    0 -0.11732460713E+02 -0.40336052001E+02 -0.39148326239E+02  0.57421591520E+02  0.00000000000E+00 0.  1.
         11    1    1    2    0    0 -0.56430386437E+02 -0.36250720975E+02 -0.32386657500E+03  0.33073866071E+03  0.00000000000E+00 0. -1.
</event>
<event>
 7    1  0.6992302E-006  0.1702206E+03  0.7561462E-02  0.1177618E+00
         -2   -1    0    0    0  501 -0.00000000000E+00  0.00000000000E+00  0.69473007336E+02  0.69473007336E+02  0.00000000000E+00 0.  1.
          2   -1    0    0  501    0  0.00000000000E+00 -0.00000000000E+00 -0.49602336424E+03  0.49602336424E+03  0.00000000000E+00 0. -1.
         23    2    1    2    0    0  0.11595516944E+03 -0.63237898621E+02 -0.11612075697E+03  0.21581718622E+03  0.12509354310E+03 0.  0.
          5    1    3    3  502    0  0.12765051588E+03 -0.87377969872E+02 -0.97672502780E+02  0.18299440981E+03  0.41800000000E+01 0.  1.
         -5    1    3    3    0  502 -0.11695346439E+02  0.24140071251E+02 -0.18448254189E+02  0.32822776405E+02  0.41800000000E+01 0.  1.
        -11    1    1    2    0    0 -0.12683117721E+03  0.70841820234E+02 -0.26331821814E+03  0.30073442605E+03  0.00000000000E+00 0.  1.
         11    1    1    2    0    0  0.10876007773E+02 -0.76039216129E+01 -0.47111381799E+02  0.48944759311E+02  0.00000000000E+00 0. -1.
</event>
<event>
 7    1  0.6992302E-006  0.1027842E+03  0.7561462E-02  0.1274548E+00
         -1   -1    0    0    0  501 -0.00000000000E+00  0.00000000000E+00  0.46183831459E+02  0.46183831459E+02  0.00000000000E+00 0.  1.
          1   -1    0    0  501    0  0.00000000000E+00 -0.00000000000E+00 -0.35556903659E+03  0.35556903659E+03  0.00000000000E+00 0. -1.
         23    2    1    2    0    0 -0.22947149616E+02 -0.21211918319E+02 -0.76815081219E+02  0.15008426727E+03  0.12509281924E+03 0.  0.
          5    1    3    3  502    0 -0.18600775474E+02 -0.73228941293E+02 -0.36587964711E+02  0.84051283469E+02  0.41800000000E+01 0. -1.
         -5    1    3    3    0  502 -0.43463741422E+01  0.52017022974E+02 -0.40227116508E+02  0.66032983802E+02  0.41800000000E+01 0. -1.
        -11    1    1    2    0    0  0.14975305346E+02  0.47635063384E+02 -0.65649337592E+02  0.82481480104E+02  0.00000000000E+00 0.  1.
         11    1    1    2    0    0  0.79718442702E+01 -0.26423145065E+02 -0.16692078632E+03  0.16918712067E+03  0.00000000000E+00 0. -1.
</event>
<event>
 7    1  0.6992302E-006  0.1501882E+03  0.7561462E-02  0.1200242E+00
         -2   -1    0    0    0  501 -0.00000000000E+00  0.00000000000E+00  0.13141271748E+03  0.13141271748E+03  0.00000000000E+00 0.  1.
          2   -1    0    0  501    0  0.00000000000E+00 -0.00000000000E+00 -0.20914972491E+03  0.20914972491E+03  0.00000000000E+00 0. -1.
         23    2    1    2    0    0 -0.10095449987E+03  0.16480233141E+02  0.27883330078E+02  0.16397554024E+03  0.12508832308E+03 0.  0.
          5    1    3    3  502    0 -0.62808225518E+02  0.70674035409E+02  0.97728129811E+01  0.95145534563E+02  0.41800000000E+01 0. -1.
         -5    1    3    3    0  502 -0.38146274356E+02 -0.54193802268E+02  0.18110517097E+02  0.68830005674E+02  0.41800000000E+01 0. -1.
        -11    1    1    2    0    0  0.84829681453E+02 -0.52572058161E+02 -0.60958528784E+02  0.11694374026E+03  0.00000000000E+00 0.  1.
         11    1    1    2    0    0  0.16124818422E+02  0.36091825020E+02 -0.44661808724E+02  0.59643161896E+02  0.00000000000E+00 0. -1.
</event>
<event>
 7    1  0.6992302E-006  0.1462608E+03  0.7561462E-02  0.1205144E+00
          2   -1    0    0  501    0  0.00000000000E+00  0.00000000000E+00  0.37433426772E+03  0.37433426772E+03  0.00000000000E+00 0. -1.
         -2   -1    0    0    0  501 -0.00000000000E+00 -0.00000000000E+00 -0.61664517936E+02  0.61664517936E+02  0.00000000000E+00 0.  1.
         23    2    1    2    0    0 -0.60753385369E+02  0.79229400125E+02  0.11680392894E+03  0.19813114053E+03  0.12507805305E+03 0.  0.
          5    1    3    3  502    0 -0.69445068405E+02  0.10765337014E+03  0.10566348285E+03  0.16611474841E+03  0.41800000000E+01 0.  1.
         -5    1    3    3    0  502  0.86916830355E+01 -0.28423970020E+02  0.11140446081E+02  0.32016392123E+02  0.41800000000E+01 0.  1.
        -11    1    1    2    0    0  0.22669844867E+02  0.18615611885E+02  0.33689158405E+02  0.44670149610E+02  0.00000000000E+00 0.  1.
         11    1    1    2    0    0  0.38083540503E+02 -0.97845012010E+02  0.16217666244E+03  0.19319749552E+03  0.00000000000E+00 0. -1.
</event>
<event>
 7    1  0.6992302E-006  0.8463597E+02  0.7561462E-02  0.1316387E+00
          2   -1    0    0  501    0  0.00000000000E+00  0.00000000000E+00  0.39894169312E+02  0.39894169312E+02  0.00000000000E+00 0. -1.
         -2   -1    0    0    0  501 -0.00000000000E+00 -0.00000000000E+00 -0.29631669593E+03  0.29631669593E+03  0.00000000000E+00 0.  1.
         23    2    1    2    0    0  0.19705387920E+02 -0.95702447776E+01 -0.16129684358E+03  0.20529133926E+03  0.12509184756E+03 0.  0.
          5    1    3    3  502    0  0.18572980859E+02  0.45814698774E+02 -0.13500008134E+03  0.14382780192E+03  0.41800000000E+01 0. -1.
         -5    1    3    3    0  502  0.11324070610E+01 -0.55384943552E+02 -0.26296762235E+02  0.61463537337E+02  0.41800000000E+01 0. -1.
        -11    1    1    2    0    0  0.94176735699E+01 -0.20305676520E+02  0.45705435469E+01  0.22845195178E+02  0.00000000000E+00 0. -1.
         11    1    1    2    0    0 -0.29123061490E+02  0.29875921298E+02 -0.99696226584E+02  0.10807433081E+03  0.00000000000E+00 0.  1.
</event>
<event>
 7    1  0.6992302E-006  0.1218554E+03  0.7561462E-02  0.1240067E+00
          1   -1    0    0  501    0  0.00000000000E+00  0.00000000000E+00  0.31230043989E+03  0.31230043989E+03  0.00000000000E+00 0. -1.
         -1   -1    0    0    0  501 -0.00000000000E+00 -0.00000000000E+00 -0.10614527605E+03  0.10614527605E+03  0.00000000000E+00 0.  1.
         23    2    1    2    0    0 -0.74118536060E+02 -0.14006844878E+02 -0.37928416669E+02  0.14816198923E+03  0.12175245858E+03 0.  0.
          5    1    3    3  502    0  0.26615276460E+02 -0.44410337006E+01  0.17774268681E+02  0.32580557830E+02  0.41800000000E+01 0. -1.
         -5    1    3    3    0  502 -0.10073381252E+03 -0.95658111769E+01 -0.55702685350E+02  0.11558143140E+03  0.41800000000E+01 0.  1.
        -11    1    1    2    0    0 -0.12656629235E+02  0.24647526103E+02  0.44936441055E+02  0.52791803732E+02  0.00000000000E+00 0.  1.
         11    1    1    2    0    0  0.86775165295E+02 -0.10640681225E+02  0.19914713946E+03  0.21749192298E+03  0.00000000000E+00 0. -1.
</event>
<event>
 7    1  0.6992302E-006  0.1148526E+03  0.7561462E-02  0.1251839E+00
          1   -1    0    0  501    0  0.00000000000E+00  0.00000000000E+00  0.69030777831E+03  0.69030777831E+03  0.00000000000E+00 0. -1.
         -1   -1    0    0    0  501 -0.00000000000E+00 -0.00000000000E+00 -0.25251094941E+02  0.25251094941E+02  0.00000000000E+00 0.  1.
         23    2    1    2    0    0 -0.51975080458E+02  0.54896751899E+02  0.35883506679E+03  0.38745977609E+03  0.12508961016E+03 0.  0.
          5    1    3    3  502    0  0.22117435351E+02  0.50282686972E+02  0.69297965022E+02  0.88528017666E+02  0.41800000000E+01 0. -1.
         -5    1    3    3    0  502 -0.74092515809E+02  0.46140649276E+01  0.28953710177E+03  0.29893175842E+03  0.41800000000E+01 0. -1.
        -11    1    1    2    0    0  0.16400951340E+02 -0.61872265866E+02  0.26751903644E+03  0.27507017895E+03  0.00000000000E+00 0.  1.
         11    1    1    2    0    0  0.35574129119E+02  0.69755139667E+01  0.38702580143E+02  0.53028918218E+02  0.00000000000E+00 0. -1.
</event>
<event>
 7    1  0.6992302E-006  0.1117245E+03  0.7561462E-02  0.1257409E+00
         -4   -1    0    0    0  501 -0.00000000000E+00  0.00000000000E+00  0.13740746186E+03  0.13740746186E+03  0.00000000000E+00 0.  1.
          4   -1    0    0  501    0  0.00000000000E+00 -0.00000000000E+00 -0.10555419498E+03  0.10555419498E+03  0.00000000000E+00 0. -1.
         23    2    1    2    0    0  0.11104167310E+02  0.41181221095E+02  0.37924377393E+02  0.13749618231E+03  0.12509095190E+03 0.  0.
          5    1    3    3  502    0  0.57667949319E+02 -0.72224493081E+01 -0.36706821205E+01  0.58384094238E+02  0.41800000000E+01 0. -1.
         -5    1    3    3    0  502 -0.46563782010E+02  0.48403670403E+02  0.41595059514E+02  0.79112088075E+02  0.41800000000E+01 0. -1.
        -11    1    1    2    0    0 -0.12678736104E+02 -0.68933002462E+02 -0.21959200704E+02  0.73448728193E+02  0.00000000000E+00 0. -1.
         11    1    1    2    0    0  0.15745687947E+01  0.27751781366E+02  0.15888090190E+02  0.32016746333E+02  0.00000000000E+00 0.  1.
</event>
<event>
 7    1  0.6992302E-006  0.7862355E+02  0.7561462E-02  0.1333004E+00
         -2   -1    0    0    0  501 -0.00000000000E+00  0.00000000000E+00  0.32876449971E+02  0.32876449971E+02  0.00000000000E+00 0.  1.
          2   -1    0    0  501    0  0.00000000000E+00 -0.00000000000E+00 -0.42274238653E+03  0.42274238653E+03  0.00000000000E+00 0. -1.
         23    2    1    2    0    0 -0.41956791116E+01 -0.13458648713E+02 -0.13737956296E+03  0.18633085917E+03  0.12508919142E+03 0.  0.
          5    1    3    3  502    0 -0.30673372353E+02 -0.19171017668E+02 -0.15127960249E+03  0.15560004569E+03  0.41800000000E+01 0. -1.
         -5    1    3    3    0  502  0.26477693242E+02  0.57123689549E+01  0.13900039521E+02  0.30730813480E+02  0.41800000000E+01 0. -1.
        -11    1    1    2    0    0  0.47625399573E+02 -0.10535476558E+01 -0.11986607193E+03  0.12898513033E+03  0.00000000000E+00 0. -1.
         11    1    1    2    0    0 -0.43429720462E+02  0.14512196369E+02 -0.13262030166E+03  0.14030284700E+03  0.00000000000E+00 0.  1.
</event>
<event>
 7    1  0.6992302E-006  0.1180820E+03  0.7561462E-02  0.1246295E+00
         -3   -1    0    0    0  501 -0.00000000000E+00  0.00000000000E+00  0.38467910530E+03  0.38467910530E+03  0.00000000000E+00 0.  1.
          3   -1    0    0  501    0  0.00000000000E+00 -0.00000000000E+00 -0.40341018237E+02  0.40341018237E+02  0.00000000000E+00 0. -1.
         23    2    1    2    0    0 -0.64041068178E+01 -0.63451131290E+02  0.19487987099E+03  0.24019084535E+03  0.12508564836E+03 0.  0.
          5    1    3    3  502    0  0.48600334061E+02 -0.67875078197E+02  0.13386720448E+03  0.15781926228E+03  0.41800000000E+01 0. -1.
         -5    1    3    3    0  502 -0.55004440878E+02  0.44239469075E+01  0.61012666517E+02  0.82371583074E+02  0.41800000000E+01 0. -1.
        -11    1    1    2    0    0  0.11110298260E+01 -0.16788148053E+02  0.20967236762E+01  0.16955015556E+02  0.00000000000E+00 0. -1.
         11    1    1    2    0    0  0.52930769918E+01  0.80239279343E+02  0.14736149239E+03  0.16787426263E+03  0.00000000000E+00 0.  1.
</event>
<event>
 7    1  0.6992302E-006  0.1023044E+03  0.7561462E-02  0.1275524E+00
         -1   -1    0    0    0  501 -0.00000000000E+00  0.00000000000E+00  0.24374024070E+03  0.24374024070E+03  0.00000000000E+00 0.  1.
          1   -1    0    0  501    0  0.00000000000E+00 -0.00000000000E+00 -0.58767715870E+02  0.58767715870E+02  0.00000000000E+00 0. -1.
         23    2    1    2    0    0  0.52224856336E+02 -0.23523847031E+01  0.11913936502E+03  0.18047162897E+03  0.12507138454E+03 0.  0.
          5    1    3    3  502    0 -0.28799999211E+02  0.29633862704E+01 -0.72972792394E+01  0.30148703074E+02  0.41800000000E+01 0.  1.
         -5    1    3    3    0  502  0.81024855548E+02 -0.53157709735E+01  0.12643664426E+03  0.15032292589E+03  0.41800000000E+01 0.  1.
        -11    1    1    2    0    0 -0.71335082435E+02  0.12485282449E+02  0.69175680634E+02  0.10014914405E+03  0.00000000000E+00 0.  1.
         11    1    1    2    0    0  0.19110226098E+02 -0.10132897746E+02 -0.33425208214E+01  0.21887183549E+02  0.00000000000E+00 0. -1.
</event>
<event>
 7    1  0.6992302E-006  0.1448504E+03  0.7561462E-02  0.1206947E+00
         -2   -1    0    0    0  501 -0.00000000000E+00  0.00000000000E+00  0.28975176134E+03  0.28975176134E+03  0.00000000000E+00 0.  1.
          2   -1    0    0  501    0  0.00000000000E+00 -0.00000000000E+00 -0.88828484971E+02  0.88828484971E+02  0.00000000000E+00 0. -1.
         23    2    1    2    0    0  0.11220632127E+03 -0.25189256162E+02  0.76669817359E+02  0.18641467067E+03  0.12508961342E+03 0.  0.
          5    1    3    3  502    0 -0.15449430559E+02  0.95451662441E+01 -0.16223597741E+02  0.24707744270E+02  0.41800000000E+01 0. -1.
         -5    1    3    3    0  502  0.12765575183E+03 -0.34734422407E+02  0.92893415101E+02  0.16170692640E+03  0.41800000000E+01 0. -1.
        -11    1    1    2    0    0 -0.39259468083E+02 -0.28172493499E+02  0.75045770421E+02  0.89257284757E+02  0.00000000000E+00 0.  1.
         11    1    1    2    0    0 -0.72946853190E+02  0.53361749662E+02  0.49207688592E+02  0.10290829089E+03  0.00000000000E+00 0. -1.
</event>
<event>
 7    1  0.6992302E-006  0.8987592E+02  0.7561462E-02  0.1303152E+00
          2   -1    0    0  501    0  0.00000000000E+00  0.00000000000E+00  0.14488449765E+03  0.14488449765E+03  0.00000000000E+00 0. -1.
         -2   -1    0    0    0  501 -0.00000000000E+00 -0.00000000000E+00 -0.98070232535E+02  0.98070232535E+02  0.00000000000E+00 0.  1.
         23    2    1    2    0    0  0.27763633215E+02  0.33719909573E+02  0.13032666876E+02  0.13313527820E+03  0.12508916925E+03 0.  0.
          5    1    3    3  502    0 -0.28034061801E+02  0.21878068985E+02 -0.41014650196E+02  0.54444765169E+02  0.41800000000E+01 0.  1.
         -5    1    3    3    0  502  0.55797695016E+02  0.11841840587E+02  0.54047317072E+02  0.78690513026E+02  0.41800000000E+01 0.  1.
        -11    1    1    2    0    0  0.16365639292E+02  0.14158181719E+02  0.38891128726E+02  0.44506270935E+02  0.00000000000E+00 0. -1.
         11    1    1    2    0    0 -0.44129272507E+02 -0.47878091291E+02 -0.51095304865E+01  0.65313181055E+02  0.00000000000E+00 0.  1.
</event>
<event>
 7    1  0.6992302E-006  0.1595223E+03  0.7561462E-02  0.1189237E+00
         -1   -1    0    0    0  501 -0.00000000000E+00  0.00000000000E+00  0.25226933514E+03  0.25226933514E+03  0.00000000000E+00 0.  1.
          1   -1    0    0  501    0  0.00000000000E+00 -0.00000000000E+00 -0.21510918332E+03  0.21510918332E+03  0.00000000000E+00 0. -1.
         23    2    1    2    0    0 -0.13472950125E+03  0.65189744081E+02  0.16434406910E+03  0.25059630040E+03  0.11570562424E+03 0.  0.
          5    1    3    3  502    0 -0.10494382136E+02 -0.13945437915E+02  0.77502862435E+02  0.79553588107E+02  0.41800000000E+01 0. -1.
         -5    1    3    3    0  502 -0.12423511912E+03  0.79135181996E+02  0.86841206670E+02  0.17104271229E+03  0.41800000000E+01 0.  1.
        -11    1    1    2    0    0  0.21918489283E+02 -0.26699811126E+02  0.91039736665E+01  0.35723695541E+02  0.00000000000E+00 0.  1.
         11    1    1    2    0    0  0.11281101197E+03 -0.38489932955E+02 -0.13628789095E+03  0.18105852253E+03  0.00000000000E+00 0. -1.
</event>
<event>
 7    1  0.6992302E-006  0.1958850E+03  0.7561462E-02  0.1153258E+00
         -2   -1    0    0    0  501 -0.00000000000E+00  0.00000000000E+00  0.35336643578E+02  0.35336643578E+02  0.00000000000E+00 0.  1.
          2   -1    0    0  501    0  0.00000000000E+00 -0.00000000000E+00 -0.13680416803E+04  0.13680416803E+04  0.00000000000E+00 0. -1.
         23    2    1    2    0    0  0.60291952190E+02 -0.16835107910E+03 -0.47747084855E+03  0.52497883700E+03  0.12508861959E+03 0.  0.
          5    1    3    3  502    0  0.88632290284E+02 -0.11044872897E+03 -0.39859151200E+03  0.42302159573E+03  0.41800000000E+01 0. -1.
         -5    1    3    3    0  502 -0.28340338094E+02 -0.57902350127E+02 -0.78879336549E+02  0.10195724127E+03  0.41800000000E+01 0. -1.
        -11    1    1    2    0    0 -0.17207002256E+02  0.11789527030E+03 -0.69224670016E+03  0.70242499212E+03  0.00000000000E+00 0. -1.
         11    1    1    2    0    0 -0.43084949934E+02  0.50455808800E+02 -0.16298748796E+03  0.17597449470E+03  0.00000000000E+00 0.  1.
</event>
<event>
 7    1  0.6992302E-006  0.1101519E+03  0.7561462E-02  0.1260289E+00
          1   -1    0    0  501    0  0.00000000000E+00  0.00000000000E+00  0.22613596936E+02  0.22613596936E+02  0.00000000000E+00 0. -1.
         -1   -1    0    0    0  501 -0.00000000000E+00 -0.00000000000E+00 -0.90262924557E+03  0.90262924557E+03  0.00000000000E+00 0.  1.
         23    2    1    2    0    0 -0.20615872719E+02 -0.27994113824E+02 -0.76121760952E+03  0.77221029102E+03  0.12509116631E+03 0.  0.
          5    1    3    3  502    0 -0.47204745624E+01 -0.76485137767E+02 -0.51871351338E+03  0.52436002951E+03  0.41800000000E+01 0. -1.
         -5    1    3    3    0  502 -0.15895398157E+02  0.48491023944E+02 -0.24250409614E+03  0.24785026151E+03  0.41800000000E+01 0. -1.
        -11    1    1    2    0    0 -0.84068011866E+01 -0.28029751421E+02 -0.60145735572E+02  0.66886850564E+02  0.00000000000E+00 0.  1.
         11    1    1    2    0    0  0.29022673905E+02  0.56023865244E+02 -0.58652303540E+02  0.86145700926E+02  0.00000000000E+00 0. -1.
</event>
<event>
 7    1  0.6992302E-006  0.1033510E+03  0.7561462E-02  0.1273403E+00
         -3   -1    0    0    0  501 -0.00000000000E+00  0.00000000000E+00  0.74972276776E+02  0.74972276776E+02  0.00000000000E+00 0.  1.
          3   -1    0    0  501    0  0.00000000000E+00 -0.00000000000E+00 -0.16455723341E+03  0.16455723341E+03  0.00000000000E+00 0. -1.
         23    2    1    2    0    0 -0.81716668922E+01 -0.19530326715E+02 -0.36007513346E+02  0.13183383022E+03  0.12504162496E+03 0.  0.
          5    1    3    3  502    0  0.52426766545E+02 -0.73209060313E+01  0.10794483565E+02  0.54186297077E+02  0.41800000000E+01 0.  1.
         -5    1    3    3    0  502 -0.60598433437E+02 -0.12209420684E+02 -0.46801996911E+02  0.77647533144E+02  0.41800000000E+01 0.  1.
        -11    1    1    2    0    0 -0.27717492344E+02  0.41248053091E+02 -0.39388629423E+02  0.63412344173E+02  0.00000000000E+00 0.  1.
         11    1    1    2    0    0  0.35889159236E+02 -0.21717726376E+02 -0.14188813861E+02  0.44283335787E+02  0.00000000000E+00 0. -1.
</event>
<event>
 7    1  0.6992302E-006  0.2050646E+03  0.7561462E-02  0.1145535E+00
         -2   -1    0    0    0  501 -0.00000000000E+00  0.00000000000E+00  0.97367747650E+02  0.97367747650E+02  0.00000000000E+00 0.  1.
          2   -1    0    0  501    0  0.00000000000E+00 -0.00000000000E+00 -0.51699980181E+03  0.51699980181E+03  0.00000000000E+00 0. -1.
         23    2    1    2    0    0 -0.76486891909E+02  0.17011481660E+03 -0.13479987904E+03  0.26193098370E+03  0.12509011700E+03 0.  0.
          5    1    3    3  502    0 -0.83615385901E+02  0.18449621636E+03 -0.10590176379E+03  0.22861111650E+03  0.41800000000E+01 0. -1.
         -5    1    3    3    0  502  0.71284939917E+01 -0.14381399762E+02 -0.28898115241E+02  0.33319867200E+02  0.41800000000E+01 0. -1.
        -11    1    1    2    0    0  0.78993784521E+02 -0.14021815272E+03 -0.27867633038E+03  0.32180995240E+03  0.00000000000E+00 0. -1.
         11    1    1    2    0    0 -0.25068926121E+01 -0.29896663879E+02 -0.61558447386E+01  0.30626613363E+02  0.00000000000E+00 0.  1.
</event>
<event>
 7    1  0.6992302E-006  0.2134322E+03  0.7561462E-02  0.1138877E+00
          1   -1    0    0  501    0  0.00000000000E+00  0.00000000000E+00  0.65953086450E+03  0.65953086450E+03  0.00000000000E+00 0. -1.
         -1   -1    0    0    0  501 -0.00000000000E+00 -0.00000000000E+00 -0.81025398626E+02  0.81025398626E+02  0.00000000000E+00 0.  1.
         23    2    1    2    0    0 -0.18427226950E+03 -0.88678336827E+02  0.28180999427E+03  0.36998066077E+03  0.12509476305E+03 0.  0.
          5    1    3    3  502    0 -0.48328001791E+02  0.14943872450E+02  0.13635768215E+03  0.14549847065E+03  0.41800000000E+01 0.  1.
         -5    1    3    3    0  502 -0.13594426770E+03 -0.10362220928E+03  0.14545231213E+03  0.22448219012E+03  0.41800000000E+01 0.  1.
        -11    1    1    2    0    0  0.14905223821E+03  0.64552083207E+02  0.28198455272E+03  0.32542100291E+03  0.00000000000E+00 0. -1.
         11    1    1    2    0    0  0.35220031282E+02  0.24126253621E+02  0.14710918885E+02  0.45154599453E+02  0.00000000000E+00 0.  1.
</event>
<event>
 7    1  0.6992302E-006  0.8781549E+02  0.7561462E-02  0.1308230E+00
          1   -1    0    0  501    0  0.00000000000E+00  0.00000000000E+00  0.14462596206E+02  0.14462596206E+02  0.00000000000E+00 0. -1.
         -1   -1    0    0    0  501 -0.00000000000E+00 -0.00000000000E+00 -0.13354158687E+04  0.13354158687E+04  0.00000000000E+00 0.  1.
         23    2    1    2    0    0 -0.69587638562E+01  0.32062056221E+00 -0.11556478002E+04  0.11624189141E+04  0.12508943345E+03 0.  0.
          5    1    3    3  502    0 -0.30238055265E+02 -0.47525746146E+02 -0.86972181594E+03  0.87155409818E+03  0.41800000000E+01 0. -1.
         -5    1    3    3    0  502  0.23279291409E+02  0.47846366709E+02 -0.28592598430E+03  0.29086481588E+03  0.41800000000E+01 0. -1.
        -11    1    1    2    0    0  0.18481157166E+02 -0.29269429902E+02 -0.14763722930E+03  0.15164103723E+03  0.00000000000E+00 0.  1.
         11    1    1    2    0    0 -0.11522393310E+02  0.28948809340E+02 -0.17668242979E+02  0.35818513645E+02  0.00000000000E+00 0. -1.
</event>
<event>
 7    1  0.6992302E-006  0.9873793E+02  0.7561462E-02  0.1282973E+00
          1   -1    0    0  501    0  0.00000000000E+00  0.00000000000E+00  0.19109145549E+03  0.19109145549E+03  0.00000000000E+00 0. -1.
         -1   -1    0    0    0  501 -0.00000000000E+00 -0.00000000000E+00 -0.68663791766E+02  0.68663791766E+02  0.00000000000E+00 0.  1.
         23    2    1    2    0    0  0.16094409946E+02  0.33840730077E+02  0.52544728139E+02  0.14075742098E+03  0.12508987993E+03 0.  0.
          5    1    3    3  502    0 -0.46300711244E+02  0.14970732613E+02 -0.10521674303E+02  0.49960551706E+02  0.41800000000E+01 0. -1.
         -5    1    3    3    0  502  0.62395121190E+02  0.18869997464E+02  0.63066402442E+02  0.90796869272E+02  0.41800000000E+01 0. -1.
        -11    1    1    2    0    0 -0.31706704865E+02  0.12753516959E+02  0.59735495764E+02  0.68820758369E+02  0.00000000000E+00 0. -1.
         11    1    1    2    0    0  0.15612294919E+02 -0.46594247036E+02  0.10147439824E+02  0.50177067914E+02  0.00000000000E+00 0.  1.
</event>
<event>
 7    1  0.6992302E-006  0.8562943E+02  0.7561462E-02  0.1313795E+00
          1   -1    0    0  501    0  0.00000000000E+00  0.00000000000E+00  0.24037735793E+03  0.24037735793E+03  0.00000000000E+00 0. -1.
         -1   -1    0    0    0  501 -0.00000000000E+00 -0.00000000000E+00 -0.83581476502E+02  0.83581476502E+02  0.00000000000E+00 0.  1.
         23    2    1    2    0    0 -0.60544632754E+02 -0.71440881444E+01  0.83823798921E+01  0.13940922524E+03  0.12509187519E+03 0.  0.
          5    1    3    3  502    0 -0.32460808153E+02 -0.40946565073E+02 -0.45737721487E+02  0.69568217054E+02  0.41800000000E+01 0. -1.
         -5    1    3    3    0  502 -0.28083824601E+02  0.33802476928E+02  0.54120101379E+02  0.69841008183E+02  0.41800000000E+01 0. -1.
        -11    1    1    2    0    0  0.41355394739E+02 -0.16253138706E+02  0.13728266905E+02  0.46506972639E+02  0.00000000000E+00 0.  1.
         11    1    1    2    0    0  0.19189238015E+02  0.23397226851E+02  0.13468523463E+03  0.13804263656E+03  0.00000000000E+00 0. -1.
</event>
<event>
 7    1  0.6992302E-006  0.1170739E+03  0.7561462E-02  0.1248004E+00
          1   -1    0    0  501    0  0.00000000000E+00  0.00000000000E+00  0.18405824032E+02  0.18405824032E+02  0.00000000000E+00 0. -1.
         -1   -1    0    0    0  501 -0.00000000000E+00 -0.00000000000E+00 -0.10147256002E+04  0.10147256002E+04  0.00000000000E+00 0.  1.
         23    2    1    2    0    0 -0.29560750428E+02  0.51517146022E+02 -0.77042947647E+03  0.78277543726E+03  0.12509177698E+03 0.  0.
          5    1    3    3  502    0 -0.74148861382E+02  0.40268113212E+02 -0.61036731078E+03  0.61618609287E+03  0.41800000000E+01 0. -1.
         -5    1    3    3    0  502  0.44588110954E+02  0.11249032810E+02 -0.16006216569E+03  0.16658934439E+03  0.41800000000E+01 0. -1.
        -11    1    1    2    0    0 -0.30078560558E+02 -0.18744898815E+02 -0.11414578786E+03  0.11952134505E+03  0.00000000000E+00 0. -1.
         11    1    1    2    0    0  0.59639310986E+02 -0.32772247207E+02 -0.11174451189E+03  0.13083464197E+03  0.00000000000E+00 0.  1.
</event>
<event>
 7    1  0.6992302E-006  0.1052488E+03  0.7561462E-02  0.1269630E+00
          1   -1    0    0  501    0  0.00000000000E+00  0.00000000000E+00  0.13094836073E+03  0.13094836073E+03  0.00000000000E+00 0. -1.
         -1   -1    0    0    0  501 -0.00000000000E+00 -0.00000000000E+00 -0.11209413848E+03  0.11209413848E+03  0.00000000000E+00 0.  1.
         23    2    1    2    0    0 -0.49962306985E+02 -0.12405474217E+02 -0.19517904730E+02  0.13666754709E+03  0.12508773685E+03 0.  0.
          5    1    3    3  502    0 -0.24597288172E+02 -0.66294144360E+02 -0.28379222294E+02  0.76307226524E+02  0.41800000000E+01 0.  1.
         -5    1    3    3    0  502 -0.25365018813E+02  0.53888670143E+02  0.88613175638E+01  0.60360320561E+02  0.41800000000E+01 0.  1.
        -11    1    1    2    0    0  0.26903418385E+02 -0.24534957441E+02  0.49480797302E+02  0.61433763999E+02  0.00000000000E+00 0. -1.
         11    1    1    2    0    0  0.23058888600E+02  0.36940431657E+02 -0.11108670319E+02  0.44941188132E+02  0.00000000000E+00 0.  1.
</event>
<event>
 7    1  0.6992302E-006  0.1268984E+03  0.7561462E-02  0.1232132E+00
          2   -1    0    0  501    0  0.00000000000E+00  0.00000000000E+00  0.39387382294E+02  0.39387382294E+02  0.00000000000E+00 0. -1.
         -2   -1    0    0    0  501 -0.00000000000E+00 -0.00000000000E+00 -0.49893656093E+03  0.49893656093E+03  0.00000000000E+00 0.  1.
         23    2    1    2    0    0 -0.61290387103E+02  0.30032887071E+02 -0.35903122343E+03  0.38627493703E+03  0.12508565753E+03 0.  0.
          5    1    3    3  502    0  0.22282001725E+02 -0.29530794214E+02 -0.66165896100E+02  0.75920706099E+02  0.41800000000E+01 0.  1.
         -5    1    3    3    0  502 -0.83572388828E+02  0.59563681285E+02 -0.29286532733E+03  0.31035423093E+03  0.41800000000E+01 0.  1.
        -11    1    1    2    0    0  0.84268832161E+01  0.31572985345E+02 -0.33278638519E+02  0.46640471117E+02  0.00000000000E+00 0.  1.
         11    1    1    2    0    0  0.52863503887E+02 -0.61605872416E+02 -0.67239316687E+02  0.10540853508E+03  0.00000000000E+00 0. -1.
</event>
<event>
 7    1  0.6992302E-006  0.1018179E+03  0.7561462E-02  0.1276519E+00
          2   -1    0    0  501    0  0.00000000000E+00  0.00000000000E+00  0.12583571584E+03  0.12583571584E+03  0.00000000000E+00 0. -1.
         -2   -1    0    0    0  501 -0.00000000000E+00 -0.00000000000E+00 -0.16189445920E+03  0.16189445920E+03  0.00000000000E+00 0.  1.
         23    2    1    2    0    0 -0.51090286285E+02  0.63859405993E+02 -0.64769354965E+02  0.16288487113E+03  0.12509264892E+03 0.  0.
          5    1    3    3  502    0 -0.13661753869E+02  0.28794212393E+02 -0.96985855295E+02  0.10217376725E+03  0.41800000000E+01 0.  1.
         -5    1    3    3    0  502 -0.37428532416E+02  0.35065193600E+02  0.32216500329E+02  0.60711103881E+02  0.41800000000E+01 0.  1.
        -11    1    1    2    0    0  0.24191530359E+02 -0.83367091547E+02  0.11934807443E+02  0.87622723781E+02  0.00000000000E+00 0.  1.
         11    1    1    2    0    0  0.26898755926E+02  0.19507685554E+02  0.16775804160E+02  0.37222580126E+02  0.00000000000E+00 0. -1.
</event>
<event>
 7    1  0.6992302E-006  0.1080889E+03  0.7561462E-02  0.1264150E+00
          1   -1    0    0  501    0  0.00000000000E+00  0.00000000000E+00  0.11654482807E+03  0.11654482807E+03  0.00000000000E+00 0. -1.
         -1   -1    0    0    0  501 -0.00000000000E+00 -0.00000000000E+00 -0.11460298014E+03  0.11460298014E+03  0.00000000000E+00 0.  1.
         23    2    1    2    0    0 -0.32211502521E+02  0.43188722668E+02  0.36784894173E+01  0.13624788772E+03  0.12508840459E+03 0.  0.
          5    1    3    3  502    0 -0.73552775040E+02  0.14447354910E+02 -0.23772194387E+02  0.78748500976E+02  0.41800000000E+01 0. -1.
         -5    1    3    3    0  502  0.41341272519E+02  0.28741367758E+02  0.27450683804E+02  0.57499386740E+02  0.41800000000E+01 0. -1.
        -11    1    1    2    0    0  0.53993015637E+02 -0.17192063072E+02  0.12650559772E+02  0.58059016809E+02  0.00000000000E+00 0. -1.
         11    1    1    2    0    0 -0.21781513117E+02 -0.25996659596E+02 -0.14387201262E+02  0.36840903680E+02  0.00000000000E+00 0.  1.
</event>
<event>
 7    1  0.6992302E-006  0.1624524E+03  0.7561462E-02  0.1185956E+00
         -1   -1    0    0    0  501 -0.00000000000E+00  0.00000000000E+00  0.81187671871E+02  0.81187671871E+02  0.00000000000E+00 0.  1.
          1   -1    0    0  501    0  0.00000000000E+00 -0.00000000000E+00 -0.70832293392E+03  0.70832293392E+03  0.00000000000E+00 0. -1.
         23    2    1    2    0    0 -0.29759802127E+01  0.14879064044E+03 -0.71177592277E+02  0.20703287958E+03  0.12509537340E+03 0.  0.
          5    1    3    3  502    0  0.10580326658E+02  0.87599673868E+02 -0.10376187882E+03  0.13627048862E+03  0.41800000000E+01 0. -1.
         -5    1    3    3    0  502 -0.13556306871E+02  0.61190966568E+02  0.32584286539E+02  0.70762390963E+02  0.41800000000E+01 0. -1.
        -11    1    1    2    0    0 -0.42560186268E+02 -0.88490608614E+02 -0.31518319466E+03  0.33012483013E+03  0.00000000000E+00 0.  1.
         11    1    1    2    0    0  0.45536166481E+02 -0.60300031823E+02 -0.24077447511E+03  0.25235289608E+03  0.00000000000E+00 0. -1.
</event>
<event>
 7    1  0.6992302E-006  0.6601136E+02  0.7561462E-02  0.1374207E+00
          1   -1    0    0  501    0  0.00000000000E+00  0.00000000000E+00  0.18432839313E+03  0.18432839313E+03  0.00000000000E+00 0. -1.
         -1   -1    0    0    0  501 -0.00000000000E+00 -0.00000000000E+00 -0.78511345603E+02  0.78511345603E+02  0.00000000000E+00 0.  1.
         23    2    1    2    0    0  0.98768149554E+01  0.17632369509E+02  0.83580121010E+01  0.12699151187E+03  0.12509410775E+03 0.  0.
          5    1    3    3  502    0 -0.98187119042E+01 -0.16073547610E+02 -0.51731679718E+02  0.55212363857E+02  0.41800000000E+01 0.  1.
         -5    1    3    3    0  502  0.19695526860E+02  0.33705917119E+02  0.60089691819E+02  0.71779148017E+02  0.41800000000E+01 0.  1.
        -11    1    1    2    0    0 -0.24612654042E+02 -0.39831768146E+02  0.14962030017E+02  0.49155008238E+02  0.00000000000E+00 0.  1.
         11    1    1    2    0    0  0.14735839086E+02  0.22199398638E+02  0.82497005412E+02  0.86693218624E+02  0.00000000000E+00 0. -1.
</event>
<event>
 7    1  0.6992302E-006  0.1022226E+03  0.7561462E-02  0.1275690E+00
          2   -1    0    0  501    0  0.00000000000E+00  0.00000000000E+00  0.21248256923E+03  0.21248256923E+03  0.00000000000E+00 0.  1.
         -2   -1    0    0    0  501 -0.00000000000E+00 -0.00000000000E+00 -0.85996795671E+02  0.85996795671E+02  0.00000000000E+00 0. -1.
         23    2    1    2    0    0 -0.57729236267E+02 -0.58418733972E+02  0.56680851981E+02  0.16001871104E+03  0.12509138940E+03 0.  0.
          5    1    3    3  502    0 -0.45822871707E+02 -0.80894844270E+01  0.87842429219E+02  0.99493417375E+02  0.41800000000E+01 0. -1.
         -5    1    3    3    0  502 -0.11906364560E+02 -0.50329249545E+02 -0.31161577238E+02  0.60525293662E+02  0.41800000000E+01 0. -1.
        -11    1    1    2    0    0  0.68168535541E+02  0.28028183837E+02  0.15434432319E+02  0.75304382528E+02  0.00000000000E+00 0.  1.
         11    1    1    2    0    0 -0.10439299274E+02  0.30390550136E+02  0.54370489263E+02  0.63156271340E+02  0.00000000000E+00 0. -1.
</event>
<event>
 7    1  0.6992302E-006  0.1515369E+03  0.7561462E-02  0.1198597E+00
          1   -1    0    0  501    0  0.00000000000E+00  0.00000000000E+00  0.67602188963E+03  0.67602188963E+03  0.00000000000E+00 0. -1.
         -1   -1    0    0    0  501 -0.00000000000E+00 -0.00000000000E+00 -0.60794484769E+02  0.60794484769E+02  0.00000000000E+00 0.  1.
         23    2    1    2    0    0  0.10068064863E+03 -0.87181646897E+02  0.12587735649E+03  0.22185817840E+03  0.12505482749E+03 0.  0.
          5    1    3    3  502    0 -0.18158672087E+02 -0.34538685994E+02  0.70139898515E+02  0.80372482641E+02  0.41800000000E+01 0.  1.
         -5    1    3    3    0  502  0.11883932072E+03 -0.52642960902E+02  0.55737457974E+02  0.14148569576E+03  0.41800000000E+01 0.  1.
        -11    1    1    2    0    0 -0.75485767717E+02  0.72292508101E+02  0.46583308503E+03  0.47741467401E+03  0.00000000000E+00 0. -1.
         11    1    1    2    0    0 -0.25194880917E+02  0.14889138796E+02  0.23516963347E+02  0.37543521992E+02  0.00000000000E+00 0.  1.
</event>
<event>
 7    1  0.6992302E-006  0.9352244E+02  0.7561462E-02  0.1294539E+00
          1   -1    0    0  501    0  0.00000000000E+00  0.00000000000E+00  0.25596888573E+03  0.25596888573E+03  0.00000000000E+00 0. -1.
         -1   -1    0    0    0  501 -0.00000000000E+00 -0.00000000000E+00 -0.45215535917E+02  0.45215535917E+02  0.00000000000E+00 0.  1.
         23    2    1    2    0    0 -0.21014582407E+02  0.17535759585E+02  0.84175031704E+02  0.14333150009E+03  0.11273583023E+03 0.  0.
          5    1    3    3  502    0 -0.33943246675E+02  0.50693153312E+02  0.88143953256E+02  0.10727892935E+03  0.41800000000E+01 0. -1.
         -5    1    3    3    0  502  0.12928664269E+02 -0.33157393726E+02 -0.39689215523E+01  0.36052570738E+02  0.41800000000E+01 0.  1.
        -11    1    1    2    0    0  0.54454564723E+02 -0.64711331388E+01  0.52930565330E+02  0.76215614735E+02  0.00000000000E+00 0.  1.
         11    1    1    2    0    0 -0.33439982317E+02 -0.11064626447E+02  0.73647752781E+02  0.81637306824E+02  0.00000000000E+00 0. -1.
</event>
<event>
 7    1  0.6992302E-006  0.1093690E+03  0.7561462E-02  0.1261743E+00
         -2   -1    0    0    0  501 -0.00000000000E+00  0.00000000000E+00  0.89240110866E+02  0.89240110866E+02  0.00000000000E+00 0.  1.
          2   -1    0    0  501    0  0.00000000000E+00 -0.00000000000E+00 -0.16605321536E+03  0.16605321536E+03  0.00000000000E+00 0. -1.
         23    2    1    2    0    0  0.29033023124E+02  0.47359057800E+02 -0.36012582296E+02  0.14155374569E+03  0.12511898357E+03 0.  0.
          5    1    3    3  502    0 -0.32282038890E+02  0.40843077057E+02 -0.56024059784E+02  0.76592784601E+02  0.41800000000E+01 0.  1.
         -5    1    3    3    0  502  0.61315062014E+02  0.65159807432E+01  0.20011477488E+02  0.64960961092E+02  0.41800000000E+01 0.  1.
        -11    1    1    2    0    0 -0.58146203113E+02 -0.12832220168E+02 -0.13808600109E+02  0.61125479530E+02  0.00000000000E+00 0.  1.
         11    1    1    2    0    0  0.29113179989E+02 -0.34526837632E+02 -0.26991922085E+02  0.52614100997E+02  0.00000000000E+00 0. -1.
</event>
<event>
 7    1  0.6992302E-006  0.1284712E+03  0.7561462E-02  0.1229742E+00
         -2   -1    0    0    0  501 -0.00000000000E+00  0.00000000000E+00  0.72620605470E+02  0.72620605470E+02  0.00000000000E+00 0.  1.
          2   -1    0    0  501    0  0.00000000000E+00 -0.00000000000E+00 -0.51020404325E+03  0.51020404325E+03  0.00000000000E+00 0. -1.
         23    2    1    2    0    0 -0.86925785220E+02 -0.69673328122E+02 -0.59249262098E+02  0.17767678163E+03  0.12509236141E+03 0.  0.
          5    1    3    3  502    0  0.15756051150E+02 -0.31084952816E+02 -0.58121837148E+02  0.67898069139E+02  0.41800000000E+01 0. -1.
         -5    1    3    3    0  502 -0.10268183637E+03 -0.38588375306E+02 -0.11274249499E+01  0.10977871249E+03  0.41800000000E+01 0. -1.
        -11    1    1    2    0    0  0.55317538341E+02  0.36648297498E+02 -0.33715178668E+03  0.34361963712E+03  0.00000000000E+00 0. -1.
         11    1    1    2    0    0  0.31608246879E+02  0.33025030624E+02 -0.41182389003E+02  0.61528229964E+02  0.00000000000E+00 0.  1.
</event>
<event>
 7    1  0.6992302E-006  0.9404184E+02  0.7561462E-02  0.1293349E+00
         -3   -1    0    0    0  501 -0.00000000000E+00  0.00000000000E+00  0.27729375087E+03  0.27729375087E+03  0.00000000000E+00 0.  1.
          3   -1    0    0  501    0  0.00000000000E+00 -0.00000000000E+00 -0.48567979239E+02  0.48567979239E+02  0.00000000000E+00 0. -1.
         23    2    1    2    0    0  0.33171564672E+02  0.32444819910E+02  0.15344518246E+03  0.20333820479E+03  0.12509189608E+03 0.  0.
          5    1    3    3  502    0  0.63712540333E+02  0.66855229147E+01  0.25232027855E+02  0.68979066694E+02  0.41800000000E+01 0. -1.
         -5    1    3    3    0  502 -0.30540975661E+02  0.25759296995E+02  0.12821315460E+03  0.13435913809E+03  0.41800000000E+01 0. -1.
        -11    1    1    2    0    0  0.13193689191E+01 -0.46463629569E+02  0.10264894805E+02  0.47602286420E+02  0.00000000000E+00 0. -1.
         11    1    1    2    0    0 -0.34490933591E+02  0.14018809660E+02  0.65015694373E+02  0.74921238905E+02  0.00000000000E+00 0.  1.
</event>
<event>
 7    1  0.6992302E-006  0.1381979E+03  0.7561462E-02  0.1215775E+00
         -1   -1    0    0    0  501 -0.00000000000E+00  0.00000000000E+00  0.41166842302E+03  0.41166842302E+03  0.00000000000E+00 0.  1.
          1   -1    0    0  501    0  0.00000000000E+00 -0.00000000000E+00 -0.55615640974E+02  0.55615640974E+02  0.00000000000E+00 0. -1.
         23    2    1    2    0    0 -0.10300313187E+03 -0.31508992040E+00  0.22187581294E+03  0.27474678535E+03  0.12508866950E+03 0.  0.
          5    1    3    3  502    0 -0.21507270262E+02 -0.55627585994E+02  0.11320652783E+03  0.12802414359E+03  0.41800000000E+01 0. -1.
         -5    1    3    3    0  502 -0.81495861604E+02  0.55312496074E+02  0.10866928510E+03  0.14672264176E+03  0.41800000000E+01 0. -1.
        -11    1    1    2    0    0  0.81284916959E+02 -0.24646435803E+02  0.13493298061E+03  0.15944150582E+03  0.00000000000E+00 0.  1.
         11    1    1    2    0    0  0.21718214907E+02  0.24961525723E+02 -0.75601150018E+00  0.33095772820E+02  0.00000000000E+00 0. -1.
</event>
<event>
 7    1  0.6992302E-006  0.1441985E+03  0.7561462E-02  0.1207789E+00
          3   -1    0    0  501    0  0.00000000000E+00  0.00000000000E+00  0.23033603177E+03  0.23033603177E+03  0.00000000000E+00 0. -1.
         -3   -1    0    0    0  501 -0.00000000000E+00 -0.00000000000E+00 -0.11112637781E+03  0.11112637781E+03  0.00000000000E+00 0.  1.
         23    2    1    2    0    0 -0.21094424788E+02 -0.97867030500E+02 -0.84651780447E+00  0.16022236859E+03  0.12509020900E+03 0.  0.
          5    1    3    3  502    0 -0.45048382007E+02  0.87647513844E+01  0.17559705121E+02  0.49315243406E+02  0.41800000000E+01 0.  1.
         -5    1    3    3    0  502  0.23953957219E+02 -0.10663178188E+03 -0.18406222925E+02  0.11090712518E+03  0.41800000000E+01 0.  1.
        -11    1    1    2    0    0 -0.29936678283E+02  0.10422856030E+02  0.14116481039E+02  0.34700369902E+02  0.00000000000E+00 0.  1.
         11    1    1    2    0    0  0.51031103071E+02  0.87444174470E+02  0.10593969073E+03  0.14653967109E+03  0.00000000000E+00 0. -1.
</event>
<event>
 7    1  0.7652015E-006  0.1098921E+03  0.7561462E-02  0.1260770E+00
          1   -1    0    0  501    0  0.00000000000E+00  0.00000000000E+00  0.76151120162E+02  0.76151120162E+02  0.00000000000E+00 0. -1.
         -1   -1    0    0    0  501 -0.00000000000E+00 -0.00000000000E+00 -0.23049431421E+03  0.23049431421E+03  0.00000000000E+00 0.  1.
         23    2    1    2    0    0  0.31043021279E+02  0.63411958739E+02 -0.11515938085E+03  0.18410284970E+03  0.12508969018E+03 0.  0.
          5    1    3    3  502    0  0.66938609404E+02  0.68512531031E+02 -0.11205629667E+03  0.14747484653E+03  0.41800000000E+01 0.  1.
         -5    1    3    3    0  502 -0.35895588126E+02 -0.51005722924E+01 -0.31030841819E+01  0.36628003168E+02  0.41800000000E+01 0.  1.
        -11    1    1    2    0    0 -0.19961287152E+02  0.29083089222E+01  0.23253845890E+02  0.30783966513E+02  0.00000000000E+00 0. -1.
         11    1    1    2    0    0 -0.11081734127E+02 -0.66320267661E+02 -0.62437659089E+02  0.91758618159E+02  0.00000000000E+00 0.  1.
</event>
<event>
 7    1  0.6992302E-006  0.2218667E+03  0.7561462E-02  0.1132499E+00
          1   -1    0    0  501    0  0.00000000000E+00  0.00000000000E+00  0.48357379963E+03  0.48357379963E+03  0.00000000000E+00 0. -1.
         -1   -1    0    0    0  501 -0.00000000000E+00 -0.00000000000E+00 -0.10896270957E+03  0.10896270957E+03  0.00000000000E+00 0.  1.
         23    2    1    2    0    0  0.47051207406E+02 -0.19335594615E+03  0.16043356778E+03  0.28458796773E+03  0.12510413133E+03 0.  0.
          5    1    3    3  502    0  0.11670107017E+02 -0.19043744128E+03  0.15968109347E+03  0.24883354768E+03  0.41800000000E+01 0. -1.
         -5    1    3    3    0  502  0.35381100389E+02 -0.29185048727E+01  0.75247430828E+00  0.35754420049E+02  0.41800000000E+01 0. -1.
        -11    1    1    2    0    0 -0.55068568708E+02  0.52570374350E+02  0.10455925380E+03  0.12933997477E+03  0.00000000000E+00 0. -1.
         11    1    1    2    0    0  0.80173613017E+01  0.14078557180E+03  0.10961826848E+03  0.17860856669E+03  0.00000000000E+00 0.  1.
</event>
<event>
 7    1  0.6992302E-006  0.8985109E+02  0.7561462E-02  0.1303213E+00
          2   -1    0    0  501    0  0.00000000000E+00  0.00000000000E+00  0.49240631626E+02  0.49240631626E+02  0.00000000000E+00 0. -1.
         -2   -1    0    0    0  501 -0.00000000000E+00 -0.00000000000E+00 -0.26190737945E+03  0.26190737945E+03  0.00000000000E+00 0.  1.
         23    2    1    2    0    0 -0.21084025828E+01 -0.29758392987E+02 -0.13663622207E+03  0.18763440577E+03  0.12508879139E+03 0.  0.
          5    1    3    3  502    0 -0.35871735625E+02  0.18455701464E+02 -0.19673050291E+01  0.40604642867E+02  0.41800000000E+01 0. -1.
         -5    1    3    3    0  502  0.33763333042E+02 -0.48214094451E+02 -0.13466891704E+03  0.14702976290E+03  0.41800000000E+01 0. -1.
        -11    1    1    2    0    0 -0.36086299615E+02  0.16781229976E+02 -0.72896974440E+02  0.83052992612E+02  0.00000000000E+00 0.  1.
         11    1    1    2    0    0  0.38194702198E+02  0.12977163011E+02 -0.31335513124E+01  0.40460612694E+02  0.00000000000E+00 0. -1.
</event>
<event>
 7    1  0.6992302E-006  0.7198003E+02  0.7561462E-02  0.1353486E+00
          1   -1    0    0  501    0  0.00000000000E+00  0.00000000000E+00  0.90931650665E+02  0.90931650665E+02  0.00000000000E+00 0. -1.
         -1   -1    0    0    0  501 -0.00000000000E+00 -0.00000000000E+00 -0.13862831170E+03  0.13862831170E+03  0.00000000000E+00 0.  1.
         23    2    1    2    0    0 -0.18261811553E+02 -0.26462015634E+02 -0.34524260674E+02  0.13369183907E+03  0.12509137151E+03 0.  0.
          5    1    3    3  502    0  0.26542154047E+02 -0.33940142698E+01  0.37150825805E+02  0.45974574846E+02  0.41800000000E+01 0.  1.
         -5    1    3    3    0  502 -0.44803965600E+02 -0.23068001365E+02 -0.71675086479E+02  0.87717264220E+02  0.41800000000E+01 0.  1.
        -11    1    1    2    0    0  0.31001818315E+02 -0.58756604665E+01 -0.40722645624E+02  0.51516696239E+02  0.00000000000E+00 0.  1.
         11    1    1    2    0    0 -0.12740006762E+02  0.32337676101E+02  0.27550245265E+02  0.44351427058E+02  0.00000000000E+00 0. -1.
</event>
<event>
 7    1  0.6992302E-006  0.8836241E+02  0.7561462E-02  0.1306867E+00
          1   -1    0    0  501    0  0.00000000000E+00  0.00000000000E+00  0.13691315153E+03  0.13691315153E+03  0.00000000000E+00 0. -1.
         -1   -1    0    0    0  501 -0.00000000000E+00 -0.00000000000E+00 -0.17211405779E+03  0.17211405779E+03  0.00000000000E+00 0.  1.
         23    2    1    2    0    0  0.66074120283E+02 -0.30933944270E+02 -0.95666659238E+02  0.17356240818E+03  0.12509636911E+03 0.  0.
          5    1    3    3  502    0  0.74803687492E+02 -0.41625242710E+02 -0.95398129277E+01  0.86236494152E+02  0.41800000000E+01 0.  1.
         -5    1    3    3    0  502 -0.87295672080E+01  0.10691298440E+02 -0.86126846311E+02  0.87325914031E+02  0.41800000000E+01 0.  1.
        -11    1    1    2    0    0 -0.47100751692E+02  0.96429675122E+01 -0.18494551319E+02  0.51512290386E+02  0.00000000000E+00 0.  1.
         11    1    1    2    0    0 -0.18973368592E+02  0.21290976758E+02  0.78960304293E+02  0.83952510749E+02  0.00000000000E+00 0. -1.
</event>
<event>
 7    1  0.6992302E-006  0.1323798E+03  0.7561462E-02  0.1223967E+00
         -3   -1    0    0    0  501 -0.00000000000E+00  0.00000000000E+00  0.11328621621E+03  0.11328621621E+03  0.00000000000E+00 0.  1.
          3   -1    0    0  501    0  0.00000000000E+00 -0.00000000000E+00 -0.15885777975E+03  0.15885777975E+03  0.00000000000E+00 0. -1.
         23    2    1    2    0    0 -0.36976029641E+02  0.68617689035E+02 -0.14254061809E+02  0.14801773839E+03  0.12502183243E+03 0.  0.
          5    1    3    3  502    0 -0.63505197678E+02 -0.93833583893E+01 -0.12321892499E+02  0.65500068561E+02  0.41800000000E+01 0.  1.
         -5    1    3    3    0  502  0.26529168037E+02  0.78001047425E+02 -0.19321693100E+01  0.82517669831E+02  0.41800000000E+01 0.  1.
        -11    1    1    2    0    0 -0.15601914192E+02 -0.63177305158E+02 -0.28923298069E+02  0.71213403125E+02  0.00000000000E+00 0. -1.
         11    1    1    2    0    0  0.52577943832E+02 -0.54403838778E+01 -0.23942036565E+01  0.52912854445E+02  0.00000000000E+00 0.  1.
</event>
<event>
 7    1  0.6992302E-006  0.1014002E+03  0.7561462E-02  0.1277379E+00
         -2   -1    0    0    0  501 -0.00000000000E+00  0.00000000000E+00  0.65979206687E+02  0.65979206687E+02  0.00000000000E+00 0.  1.
          2   -1    0    0  501    0  0.00000000000E+00 -0.00000000000E+00 -0.26268560674E+03  0.26268560674E+03  0.00000000000E+00 0. -1.
         23    2    1    2    0    0 -0.42580052770E+02  0.51881034159E+02 -0.69990478245E+02  0.15827664732E+03  0.12509247557E+03 0.  0.
          5    1    3    3  502    0 -0.23629903865E+01  0.83820282898E+02 -0.65630639400E+02  0.10656583306E+03  0.41800000000E+01 0.  1.
         -5    1    3    3    0  502 -0.40217062383E+02 -0.31939248739E+02 -0.43598388449E+01  0.51710814261E+02  0.41800000000E+01 0.  1.
        -11    1    1    2    0    0  0.21248506352E+02 -0.21833638103E+02 -0.12987779232E+03  0.13340332721E+03  0.00000000000E+00 0. -1.
         11    1    1    2    0    0  0.21331546417E+02 -0.30047396056E+02  0.31618705096E+01  0.36984838886E+02  0.00000000000E+00 0.  1.
</event>
<event>
 7    1  0.6992302E-006  0.9854726E+02  0.7561462E-02  0.1283381E+00
          1   -1    0    0  501    0  0.00000000000E+00  0.00000000000E+00  0.41947616367E+03  0.41947616367E+03  0.00000000000E+00 0. -1.
         -1   -1    0    0    0  501 -0.00000000000E+00 -0.00000000000E+00 -0.33903157590E+02  0.33903157590E+02  0.00000000000E+00 0.  1.
         23    2    1    2    0    0 -0.25501481841E+02  0.42248600295E+02  0.20841489569E+03  0.24802820842E+03  0.12508378642E+03 0.  0.
          5    1    3    3  502    0 -0.14031371828E+02  0.74557705993E+02  0.63404281191E+02  0.98961134753E+02  0.41800000000E+01 0.  1.
         -5    1    3    3    0  502 -0.11470110014E+02 -0.32309105698E+02  0.14501061450E+03  0.14906707367E+03  0.41800000000E+01 0.  1.
        -11    1    1    2    0    0  0.25927547289E+02  0.14578859938E+02  0.14578998924E+02  0.33125942630E+02  0.00000000000E+00 0.  1.
         11    1    1    2    0    0 -0.42606544767E+00 -0.56827460233E+02  0.16257911147E+03  0.17222517021E+03  0.00000000000E+00 0. -1.
</event>
<event>
 7    1  0.6992302E-006  0.1129275E+03  0.7561462E-02  0.1255243E+00
          1   -1    0    0  501    0  0.00000000000E+00  0.00000000000E+00  0.23593097596E+03  0.23593097596E+03  0.00000000000E+00 0. -1.
         -1   -1    0    0    0  501 -0.00000000000E+00 -0.00000000000E+00 -0.55247197847E+02  0.55247197847E+02  0.00000000000E+00 0.  1.
         23    2    1    2    0    0 -0.30572103484E+02 -0.15287873384E+01  0.82151336240E+02  0.15275430015E+03  0.12509213990E+03 0.  0.
          5    1    3    3  502    0  0.30954317365E+02  0.42621996937E+02  0.36664106515E+02  0.64315888340E+02  0.41800000000E+01 0.  1.
         -5    1    3    3    0  502 -0.61526420849E+02 -0.44150784275E+02  0.45487229726E+02  0.88438411806E+02  0.41800000000E+01 0.  1.
        -11    1    1    2    0    0  0.44806072306E+02  0.37535737895E+02  0.56983698964E+02  0.81631229823E+02  0.00000000000E+00 0.  1.
         11    1    1    2    0    0 -0.14233968823E+02 -0.36006950556E+02  0.41548742906E+02  0.56792643836E+02  0.00000000000E+00 0. -1.
</event>
<event>
 7    1  0.6992302E-006  0.1178103E+03  0.7561462E-02  0.1246754E+00
          2   -1    0    0  501    0  0.00000000000E+00  0.00000000000E+00  0.38402307828E+03  0.38402307828E+03  0.00000000000E+00 0. -1.
         -2   -1    0    0    0  501 -0.00000000000E+00 -0.00000000000E+00 -0.63260626309E+02  0.63260626309E+02  0.00000000000E+00 0.  1.
         23    2    1    2    0    0  0.56722867070E+02 -0.63747761726E+02  0.71788360239E+02  0.16757922049E+03  0.12509182907E+03 0.  0.
          5    1    3    3  502    0  0.37239134486E+02  0.13027439545E+02 -0.21503311106E+02  0.45125736636E+02  0.41800000000E+01 0. -1.
         -5    1    3    3    0  502  0.19483732583E+02 -0.76775201271E+02  0.93291671345E+02  0.12245348385E+03  0.41800000000E+01 0. -1.
        -11    1    1    2    0    0 -0.86567573802E+01 -0.19030590618E+02  0.11948980037E+02  0.24080717421E+02  0.00000000000E+00 0. -1.
         11    1    1    2    0    0 -0.48066109689E+02  0.82778352343E+02  0.23702511170E+03  0.25562376668E+03  0.00000000000E+00 0.  1.
</event>
<event>
 7    1  0.6992302E-006  0.1814305E+03  0.7561462E-02  0.1166426E+00
          2   -1    0    0  501    0  0.00000000000E+00  0.00000000000E+00  0.12003545300E+04  0.12003545300E+04  0.00000000000E+00 0. -1.
         -2   -1    0    0    0  501 -0.00000000000E+00 -0.00000000000E+00 -0.33507700305E+02  0.33507700305E+02  0.00000000000E+00 0.  1.
         23    2    1    2    0    0  0.13211838280E+03 -0.89164735557E+02  0.77661443022E+03  0.80260902565E+03  0.12508260347E+03 0.  0.
          5    1    3    3  502    0  0.65163503685E+02 -0.95018065408E+02  0.63997574562E+03  0.65027774246E+03  0.41800000000E+01 0. -1.
         -5    1    3    3    0  502  0.66954879111E+02  0.58533298513E+01  0.13663868460E+03  0.15233128318E+03  0.41800000000E+01 0. -1.
        -11    1    1    2    0    0 -0.10671885915E+03  0.22741190050E+02  0.27483660034E+03  0.29570463897E+03  0.00000000000E+00 0. -1.
         11    1    1    2    0    0 -0.25399523649E+02  0.66423545507E+02  0.11539579911E+03  0.13554856565E+03  0.00000000000E+00 0.  1.
</event>
<event>
 7    1  0.6992302E-006  0.1295666E+03  0.7561462E-02  0.1228100E+00
         -1   -1    0    0    0  501 -0.00000000000E+00  0.00000000000E+00  0.10791061864E+04  0.10791061864E+04  0.00000000000E+00 0.  1.
          1   -1    0    0  501    0  0.00000000000E+00 -0.00000000000E+00 -0.32493253836E+02  0.32493253836E+02  0.00000000000E+00 0. -1.
         23    2    1    2    0    0  0.73968017512E+02  0.39984288591E+01  0.94133299803E+03  0.95249305644E+03  0.12509178364E+03 0.  0.
          5    1    3    3  502    0 -0.23860280674E+02  0.31067263016E+02  0.17035850159E+03  0.17485416577E+03  0.41800000000E+01 0. -1.
         -5    1    3    3    0  502  0.97828298185E+02 -0.27068834157E+02  0.77097449644E+03  0.77763889066E+03  0.41800000000E+01 0. -1.
        -11    1    1    2    0    0 -0.92771924549E+02 -0.18254825599E+02  0.74807378285E+02  0.12056538677E+03  0.00000000000E+00 0. -1.
         11    1    1    2    0    0  0.18803907037E+02  0.14256396740E+02  0.30472556291E+02  0.38540997065E+02  0.00000000000E+00 0.  1.
</event>
<event>
 7    1  0.8899412E-006  0.2099280E+03  0.7561462E-02  0.1141623E+00
         -1   -1    0    0    0  501 -0.00000000000E+00  0.00000000000E+00  0.38705292744E+02  0.38705292744E+02  0.00000000000E+00 0.  1.
          1   -1    0    0  501    0  0.00000000000E+00 -0.00000000000E+00 -0.13789638040E+04  0.13789638040E+04  0.00000000000E+00 0. -1.
         23    2    1    2    0    0 -0.12584067543E+03  0.13061603339E+03 -0.40940405470E+03  0.46492529675E+03  0.12508967896E+03 0.  0.
          5    1    3    3  502    0 -0.98310431651E+02  0.16573658404E+02 -0.22761185131E+03  0.24852415251E+03  0.41800000000E+01 0.  1.
         -5    1    3    3    0  502 -0.27530243776E+02  0.11404237498E+03 -0.18179220339E+03  0.21640114424E+03  0.41800000000E+01 0.  1.
        -11    1    1    2    0    0  0.68925866972E+02 -0.10448044348E+02 -0.29319879633E+03  0.30137264464E+03  0.00000000000E+00 0.  1.
         11    1    1    2    0    0  0.56914808454E+02 -0.12016798904E+03 -0.63765566026E+03  0.65137115539E+03  0.00000000000E+00 0. -1.
</event>
<event>
 7    1  0.6992302E-006  0.1083050E+03  0.7561462E-02  0.1263741E+00
          3   -1    0    0  501    0  0.00000000000E+00  0.00000000000E+00  0.63511041189E+02  0.63511041189E+02  0.00000000000E+00 0. -1.
         -3   -1    0    0    0  501 -0.00000000000E+00 -0.00000000000E+00 -0.27343280336E+03  0.27343280336E+03  0.00000000000E+00 0.  1.
         23    2    1    2    0    0 -0.69228370392E+02  0.27399899519E+02 -0.11551228433E+03  0.18583396453E+03  0.12509137772E+03 0.  0.
          5    1    3    3  502    0 -0.62244650708E+01 -0.36698273171E+02  0.23775231027E+01  0.37531749696E+02  0.41800000000E+01 0. -1.
         -5    1    3    3    0  502 -0.63003905321E+02  0.64098172689E+02 -0.11788980743E+03  0.14830221483E+03  0.41800000000E+01 0. -1.
        -11    1    1    2    0    0  0.24116880054E+02 -0.35924225490E+02 -0.95864645895E+02  0.10517701371E+03  0.00000000000E+00 0.  1.
         11    1    1    2    0    0  0.45111490338E+02  0.85243259717E+01  0.14551680476E+01  0.45932866314E+02  0.00000000000E+00 0. -1.
</event>
<event>
 7    1  0.6992302E-006  0.8280090E+02  0.7561462E-02  0.1321286E+00
          1   -1    0    0  501    0  0.00000000000E+00  0.00000000000E+00  0.83510934530E+02  0.83510934530E+02  0.00000000000E+00 0. -1.
         -1   -1    0    0    0  501 -0.00000000000E+00 -0.00000000000E+00 -0.21070923650E+03  0.21070923650E+03  0.00000000000E+00 0.  1.
         23    2    1    2    0    0  0.20912108116E+02 -0.39959487041E+02 -0.13989370530E+03  0.19300854771E+03  0.12509186159E+03 0.  0.
          5    1    3    3  502    0 -0.31471624287E+02 -0.23690962084E+02  0.31632830316E+01  0.39739194497E+02  0.41800000000E+01 0. -1.
         -5    1    3    3    0  502  0.52383732403E+02 -0.16268524956E+02 -0.14305698833E+03  0.15326935321E+03  0.41800000000E+01 0. -1.
        -11    1    1    2    0    0  0.11957818902E+02  0.35923095899E+02  0.42315682945E+02  0.56780941124E+02  0.00000000000E+00 0. -1.
         11    1    1    2    0    0 -0.32869927018E+02  0.40363911418E+01 -0.29620279616E+02  0.44430682193E+02  0.00000000000E+00 0.  1.
</event>
<event>
 7    1  0.6992302E-006  0.1074866E+03  0.7561462E-02  0.1265296E+00
         -2   -1    0    0    0  501 -0.00000000000E+00  0.00000000000E+00  0.13571825550E+02  0.13571825550E+02  0.00000000000E+00 0.  1.
          2   -1    0    0  501    0  0.00000000000E+00 -0.00000000000E+00 -0.97524253449E+03  0.97524253449E+03  0.00000000000E+00 0. -1.
         23    2    1    2    0    0  0.31078536594E+02 -0.16854639985E+02 -0.46588041250E+03  0.48366900348E+03  0.12506475062E+03 0.  0.
          5    1    3    3  502    0  0.44268930591E+02 -0.59321600015E+02 -0.37673595032E+03  0.38396124688E+03  0.41800000000E+01 0. -1.
         -5    1    3    3    0  502 -0.13190393997E+02  0.42466960030E+02 -0.89144462184E+02  0.99707756600E+02  0.41800000000E+01 0. -1.
        -11    1    1    2    0    0 -0.61766585674E+02  0.20926057931E+02 -0.36126640762E+03  0.36710547297E+03  0.00000000000E+00 0.  1.
         11    1    1    2    0    0  0.30688049080E+02 -0.40714179460E+01 -0.13452388882E+03  0.13803988359E+03  0.00000000000E+00 0. -1.
</event>
<event>
 6    1  0.6992302E-006  0.1785468E+03  0.7561462E-02  0.1169217E+00
          3   -1    0    0  501    0  0.00000000000E+00  0.00000000000E+00  0.15471595539E+03  0.15471595539E+03  0.00000000000E+00 0. -1.
         -3   -1    0    0    0  501 -0.00000000000E+00 -0.00000000000E+00 -0.49391707072E+03  0.49391707072E+03  0.00000000000E+00 0.  1.
          5    1    1    2  502    0  0.23070420364E+02  0.75990079369E+02  0.75671606142E+02  0.10977431774E+03  0.41800000000E+01 0. -1.
         -5    1    1    2    0  502  0.11920226076E+03 -0.14781224990E+02 -0.30677249555E+03  0.32947609930E+03  0.41800000000E+01 0.  1.
        -11    1    1    2    0    0 -0.13676462305E+03 -0.51348760824E+02 -0.12280129669E+03  0.19084395674E+03  0.00000000000E+00 0.  1.
         11    1    1    2    0    0 -0.55080580728E+01 -0.98600935552E+01  0.14701070762E+02  0.18538652329E+02  0.00000000000E+00 0. -1.
</event>
<event>
 6    1  0.6992302E-006  0.1328838E+03  0.7561462E-02  0.1223238E+00
         -2   -1    0    0    0  501 -0.00000000000E+00  0.00000000000E+00  0.16114920767E+04  0.16114920767E+04  0.00000000000E+00 0.  1.
          2   -1    0    0  501    0  0.00000000000E+00 -0.00000000000E+00 -0.21349797413E+02  0.21349797413E+02  0.00000000000E+00 0. -1.
          5    1    1    2  502    0  0.17730553736E+02 -0.52660727895E+02  0.56100590152E+02  0.79071318527E+02  0.41800000000E+01 0. -1.
         -5    1    1    2    0  502 -0.59187663013E+02 -0.44169302790E+02  0.96076985916E+03  0.96361314926E+03  0.41800000000E+01 0.  1.
        -11    1    1    2    0    0 -0.78826945871E+01 -0.13264507314E+02  0.31009009348E+02  0.34635858427E+02  0.00000000000E+00 0. -1.
         11    1    1    2    0    0  0.49339803864E+02  0.11009453800E+03  0.54226282059E+03  0.55552154786E+03  0.00000000000E+00 0.  1.
</event>
<event>
 7    1  0.6992302E-006  0.3132669E+03  0.7561462E-02  0.1078790E+00
         -1   -1    0    0    0  501 -0.00000000000E+00  0.00000000000E+00  0.34849198670E+03  0.34849198670E+03  0.00000000000E+00 0.  1.
          1   -1    0    0  501    0  0.00000000000E+00 -0.00000000000E+00 -0.62476619792E+03  0.62476619792E+03  0.00000000000E+00 0. -1.
         23    2    1    2    0    0 -0.16372245403E+03  0.25855984564E+03  0.21206403205E+03  0.39032091340E+03  0.11713678337E+03 0.  0.
          5    1    3    3  502    0 -0.89245563910E+02  0.73050491921E+02  0.28457657465E+02  0.11886318066E+03  0.41800000000E+01 0. -1.
         -5    1    3    3    0  502 -0.74476890125E+02  0.18550935372E+03  0.18360637458E+03  0.27145773275E+03  0.41800000000E+01 0.  1.
        -11    1    1    2    0    0  0.10520568570E+03 -0.11347352946E+03 -0.18142621019E+03  0.23845324056E+03  0.00000000000E+00 0. -1.
         11    1    1    2    0    0  0.58516768332E+02 -0.14508631619E+03 -0.30691203308E+03  0.34448403064E+03  0.00000000000E+00 0.  1.
</event>
<event>
 7    1  0.6992302E-006  0.8318942E+02  0.7561462E-02  0.1320236E+00
          2   -1    0    0  501    0  0.00000000000E+00  0.00000000000E+00  0.35842479613E+02  0.35842479613E+02  0.00000000000E+00 0.  1.
         -2   -1    0    0    0  501 -0.00000000000E+00 -0.00000000000E+00 -0.40104853840E+03  0.40104853840E+03  0.00000000000E+00 0. -1.
         23    2    1    2    0    0  0.32580930187E+02  0.53167932107E+02 -0.22849831723E+03  0.26785770507E+03  0.12509165908E+03 0.  0.
          5    1    3    3  502    0  0.48189858087E+02  0.66639500724E+02 -0.70313212267E+02  0.10827975664E+03  0.41800000000E+01 0. -1.
         -5    1    3    3    0  502 -0.15608927900E+02 -0.13471568616E+02 -0.15818510497E+03  0.15957794843E+03  0.41800000000E+01 0. -1.
        -11    1    1    2    0    0 -0.81396212425E+01 -0.21532210082E+02  0.34582856805E+01  0.23277655484E+02  0.00000000000E+00 0.  1.
         11    1    1    2    0    0 -0.24441308945E+02 -0.31635722025E+02 -0.14016602723E+03  0.14575565746E+03  0.00000000000E+00 0. -1.
</event>
<event>
 7    1  0.6992302E-006  0.1052245E+03  0.7561462E-02  0.1269678E+00
          1   -1    0    0  501    0  0.00000000000E+00  0.00000000000E+00  0.50232338645E+03  0.50232338645E+03  0.00000000000E+00 0. -1.
         -1   -1    0    0    0  501 -0.00000000000E+00 -0.00000000000E+00 -0.25277891877E+02  0.25277891877E+02  0.00000000000E+00 0.  1.
         23    2    1    2    0    0  0.20410712221E+02  0.16746850667E+02  0.21506410629E+03  0.24908557474E+03  0.12285763936E+03 0.  0.
          5    1    3    3  502    0  0.17978057166E+02 -0.49688437873E+02  0.13438999476E+03  0.14446554776E+03  0.41800000000E+01 0. -1.
         -5    1    3    3    0  502  0.24326550547E+01  0.66435288540E+02  0.80674111527E+02  0.10462002698E+03  0.41800000000E+01 0.  1.
        -11    1    1    2    0    0 -0.51656848731E+02 -0.26555098158E+02  0.12753994310E+03  0.14014292827E+03  0.00000000000E+00 0. -1.
         11    1    1    2    0    0  0.31246136510E+02  0.98082474909E+01  0.13444144518E+03  0.13837277531E+03  0.00000000000E+00 0.  1.
</event>
<event>
 7    1  0.6992302E-006  0.1091736E+03  0.7561462E-02  0.1262108E+00
         -2   -1    0    0    0  501 -0.00000000000E+00  0.00000000000E+00  0.44701179130E+02  0.44701179130E+02  0.00000000000E+00 0. -1.
          2   -1    0    0  501    0  0.00000000000E+00 -0.00000000000E+00 -0.33089213141E+03  0.33089213141E+03  0.00000000000E+00 0.  1.
         23    2    1    2    0    0  0.49766812598E+02  0.12367096883E+01 -0.12777336029E+03  0.18561034708E+03  0.12508758634E+03 0.  0.
          5    1    3    3  502    0  0.48805270348E+02  0.47632917317E+02 -0.24977259295E+02  0.72747406192E+02  0.41800000000E+01 0.  1.
         -5    1    3    3    0  502  0.96154225069E+00 -0.46396207629E+02 -0.10279610100E+03  0.11286294089E+03  0.41800000000E+01 0.  1.
        -11    1    1    2    0    0 -0.73257264279E+02 -0.16916696603E+02 -0.12820827776E+03  0.14862760134E+03  0.00000000000E+00 0.  1.
         11    1    1    2    0    0  0.23490451681E+02  0.15679986914E+02 -0.30209314221E+02  0.41355362113E+02  0.00000000000E+00 0. -1.
</event>
<event>
 6    1  0.6992302E-006  0.2972936E+03  0.7561462E-02  0.1086601E+00
          2   -1    0    0  501    0  0.00000000000E+00  0.00000000000E+00  0.13706007160E+04  0.13706007160E+04  0.00000000000E+00 0. -1.
         -2   -1    0    0    0  501 -0.00000000000E+00 -0.00000000000E+00 -0.70899311485E+02  0.70899311485E+02  0.00000000000E+00 0.  1.
          5    1    1    2  502    0 -0.10559360393E+02 -0.16701620137E+03  0.25122904736E+03  0.30189305764E+03  0.41800000000E+01 0. -1.
         -5    1    1    2    0  502  0.95546186302E+02  0.26437352978E+03  0.76576196686E+03  0.81573972520E+03  0.41800000000E+01 0.  1.
        -11    1    1    2    0    0 -0.15633074888E+02 -0.69614346655E+02  0.20036912917E+03  0.21269306104E+03  0.00000000000E+00 0.  1.
         11    1    1    2    0    0 -0.69353751020E+02 -0.27742981759E+02  0.82341261100E+02  0.11117418359E+03  0.00000000000E+00 0. -1.
</event>
<event>
 7    1  0.6992302E-006  0.4682601E+02  0.7561462E-02  0.1463254E+00
          2   -1    0    0  501    0  0.00000000000E+00  0.00000000000E+00  0.81458725986E+02  0.81458725986E+02  0.00000000000E+00 0.  1.
         -2   -1    0    0    0  501 -0.00000000000E+00 -0.00000000000E+00 -0.16677118602E+03  0.16677118602E+03  0.00000000000E+00 0. -1.
         23    2    1    2    0    0  0.93391884888E+01  0.42233797882E+02 -0.75950097583E+02  0.15259144900E+03  0.12507925032E+03 0.  0.
          5    1    3    3  502    0  0.81449567754E+01  0.27290980477E+02 -0.11077156513E+03  0.11445064429E+03  0.41800000000E+01 0.  1.
         -5    1    3    3    0  502  0.11942317134E+01  0.14942817405E+02  0.34821467551E+02  0.38140804708E+02  0.41800000000E+01 0.  1.
        -11    1    1    2    0    0 -0.13180659948E+02 -0.92624308797E+01 -0.44484794234E+02  0.47311936554E+02  0.00000000000E+00 0. -1.
         11    1    1    2    0    0  0.38414714597E+01 -0.32971367002E+02  0.35122431781E+02  0.48326526455E+02  0.00000000000E+00 0.  1.
</event>
<event>
 7    1  0.6992302E-006  0.1405257E+03  0.7561462E-02  0.1212623E+00
         -3   -1    0    0    0  501 -0.00000000000E+00  0.00000000000E+00  0.45703632466E+03  0.45703632466E+03  0.00000000000E+00 0.  1.
          3   -1    0    0  501    0  0.00000000000E+00 -0.00000000000E+00 -0.70309077728E+02  0.70309077728E+02  0.00000000000E+00 0. -1.
         23    2    1    2    0    0  0.80561568785E+02  0.65748844741E+02  0.34680288309E+03  0.38305811243E+03  0.12509276888E+03 0.  0.
          5    1    3    3  502    0 -0.48384558965E+01  0.74828600374E+02  0.18852622246E+03  0.20293432199E+03  0.41800000000E+01 0.  1.
         -5    1    3    3    0  502  0.85400024681E+02 -0.90797556325E+01  0.15827666064E+03  0.18012379043E+03  0.41800000000E+01 0.  1.
        -11    1    1    2    0    0 -0.65187193605E+02 -0.14932108221E+02  0.57671356493E+02  0.88308116421E+02  0.00000000000E+00 0.  1.
         11    1    1    2    0    0 -0.15374375179E+02 -0.50816736520E+02 -0.17746992649E+02  0.55979173545E+02  0.00000000000E+00 0. -1.
</event>
<event>
 7    1  0.6992302E-006  0.1183428E+03  0.7561462E-02  0.1245856E+00
          2   -1    0    0  501    0  0.00000000000E+00  0.00000000000E+00  0.13665587360E+03  0.13665587360E+03  0.00000000000E+00 0. -1.
         -2   -1    0    0    0  501 -0.00000000000E+00 -0.00000000000E+00 -0.11638971593E+03  0.11638971593E+03  0.00000000000E+00 0.  1.
         23    2    1    2    0    0 -0.16168594020E+02 -0.53131500397E+02 -0.23049741066E+02  0.13879633214E+03  0.12509496986E+03 0.  0.
          5    1    3    3  502    0 -0.45747398936E+02 -0.79511582666E+02  0.17721811312E+01  0.91845137669E+02  0.41800000000E+01 0.  1.
         -5    1    3    3    0  502  0.29578804915E+02  0.26380082269E+02 -0.24821922198E+02  0.46951194472E+02  0.41800000000E+01 0.  1.
        -11    1    1    2    0    0 -0.18957192780E+02 -0.17703615794E+02  0.51123676432E+01  0.26437274315E+02  0.00000000000E+00 0. -1.
         11    1    1    2    0    0  0.35125786800E+02  0.70835116191E+02  0.38203531094E+02  0.87811983078E+02  0.00000000000E+00 0.  1.
</event>
<event>
 7    1  0.6992302E-006  0.9701153E+02  0.7561462E-02  0.1286709E+00
         -2   -1    0    0    0  501 -0.00000000000E+00  0.00000000000E+00  0.39506555950E+02  0.39506555950E+02  0.00000000000E+00 0. -1.
          2   -1    0    0  501    0  0.00000000000E+00 -0.00000000000E+00 -0.31436392315E+03  0.31436392315E+03  0.00000000000E+00 0.  1.
         23    2    1    2    0    0 -0.21946430853E+01  0.18979549903E+02 -0.12429288104E+03  0.17737527541E+03  0.12509287860E+03 0.  0.
          5    1    3    3  502    0 -0.36692793041E+01  0.69404787398E+02 -0.43702822935E+02  0.82206430751E+02  0.41800000000E+01 0.  1.
         -5    1    3    3    0  502  0.14746362188E+01 -0.50425237495E+02 -0.80590058102E+02  0.95168844657E+02  0.41800000000E+01 0.  1.
        -11    1    1    2    0    0 -0.95115204766E+01  0.25797004513E+02 -0.11468537730E+03  0.11793511026E+03  0.00000000000E+00 0.  1.
         11    1    1    2    0    0  0.11706163562E+02 -0.44776554415E+02 -0.35879108855E+02  0.58560093433E+02  0.00000000000E+00 0. -1.
</event>
<event>
 7    1  0.6992302E-006  0.1124646E+03  0.7561462E-02  0.1256073E+00
         -4   -1    0    0    0  501 -0.00000000000E+00  0.00000000000E+00  0.39593040230E+02  0.39593040230E+02  0.00000000000E+00 0.  1.
          4   -1    0    0  501    0  0.00000000000E+00 -0.00000000000E+00 -0.35822033869E+03  0.35822033869E+03  0.00000000000E+00 0. -1.
         23    2    1    2    0    0  0.30267064999E+02  0.31371242864E+02 -0.17413104132E+03  0.21879177047E+03  0.12509184294E+03 0.  0.
          5    1    3    3  502    0 -0.33906025622E+02 -0.18074743194E+02 -0.17555273972E+02  0.42449675608E+02  0.41800000000E+01 0.  1.
         -5    1    3    3    0  502  0.64173090621E+02  0.49445986058E+02 -0.15657576735E+03  0.17634209486E+03  0.41800000000E+01 0.  1.
        -11    1    1    2    0    0  0.27810795341E+02  0.14302569515E+02 -0.51434025000E+02  0.60195205456E+02  0.00000000000E+00 0.  1.
         11    1    1    2    0    0 -0.58077860340E+02 -0.45673812379E+02 -0.93062232138E+02  0.11882640300E+03  0.00000000000E+00 0. -1.
</event>
<event>
 7    1  0.6992302E-006  0.9419855E+02  0.7561462E-02  0.1292991E+00
          2   -1    0    0  501    0  0.00000000000E+00  0.00000000000E+00  0.10395449222E+03  0.10395449222E+03  0.00000000000E+00 0. -1.
         -2   -1    0    0    0  501 -0.00000000000E+00 -0.00000000000E+00 -0.22597601349E+03  0.22597601349E+03  0.00000000000E+00 0.  1.
         23    2    1    2    0    0  0.45539573402E+02  0.17155244373E+02 -0.16633277821E+03  0.21373669021E+03  0.12509446223E+03 0.  0.
          5    1    3    3  502    0  0.47610758467E+02 -0.17651831185E+02 -0.17089049283E+03  0.17832387503E+03  0.41800000000E+01 0.  1.
         -5    1    3    3    0  502 -0.20711850643E+01  0.34807075559E+02  0.45577146222E+01  0.35412815182E+02  0.41800000000E+01 0.  1.
        -11    1    1    2    0    0  0.13703551174E+02 -0.37313765021E+02  0.41209907007E+00  0.39752662809E+02  0.00000000000E+00 0.  1.
         11    1    1    2    0    0 -0.59243124576E+02  0.20158520647E+02  0.43899157868E+02  0.76441152698E+02  0.00000000000E+00 0. -1.
</event>
<event>
 7    1  0.6992302E-006  0.1244541E+03  0.7561462E-02  0.1235925E+00
         -1   -1    0    0    0  501 -0.00000000000E+00  0.00000000000E+00  0.11999093285E+04  0.11999093285E+04  0.00000000000E+00 0.  1.
          1   -1    0    0  501    0  0.00000000000E+00 -0.00000000000E+00 -0.26097491563E+02  0.26097491563E+02  0.00000000000E+00 0. -1.
         23    2    1    2    0    0  0.93610878992E+02  0.16469853400E+02  0.93943155362E+03  0.95247751145E+03  0.12509002015E+03 0.  0.
          5    1    3    3  502    0  0.42092870603E+02  0.53607294876E+02  0.73982262493E+03  0.74296738864E+03  0.41800000000E+01 0. -1.
         -5    1    3    3    0  502  0.51518008389E+02 -0.37137441477E+02  0.19960892869E+03  0.20951012281E+03  0.41800000000E+01 0. -1.
        -11    1    1    2    0    0 -0.33115124290E+02  0.26798112760E+02  0.20874141530E+02  0.47439225214E+02  0.00000000000E+00 0.  1.
         11    1    1    2    0    0 -0.60495754702E+02 -0.43267966160E+02  0.21350614183E+03  0.22609008345E+03  0.00000000000E+00 0. -1.
</event>
<event>
 7    1  0.6992302E-006  0.1321993E+03  0.7561462E-02  0.1224228E+00
         -1   -1    0    0    0  501 -0.00000000000E+00  0.00000000000E+00  0.20974346872E+02  0.20974346872E+02  0.00000000000E+00 0.  1.
          1   -1    0    0  501    0  0.00000000000E+00 -0.00000000000E+00 -0.93760737416E+03  0.93760737416E+03  0.00000000000E+00 0. -1.
         23    2    1    2    0    0 -0.64380362706E+02 -0.45014135193E+02 -0.35305731285E+03  0.38271157247E+03  0.12509027971E+03 0.  0.
          5    1    3    3  502    0  0.10148607745E+02  0.35904281790E+02 -0.95254948772E+02  0.10238695891E+03  0.41800000000E+01 0.  1.
         -5    1    3    3    0  502 -0.74528970451E+02 -0.80918416982E+02 -0.25780236408E+03  0.28032461356E+03  0.41800000000E+01 0.  1.
        -11    1    1    2    0    0 -0.68394637532E+01  0.45027822513E+02 -0.26747007129E+03  0.27131996259E+03  0.00000000000E+00 0. -1.
         11    1    1    2    0    0  0.71219826459E+02 -0.13687320757E-01 -0.29610564315E+03  0.30455018597E+03  0.00000000000E+00 0.  1.
</event>
<event>
 7    1  0.6992302E-006  0.1153376E+03  0.7561462E-02  0.1250993E+00
         -1   -1    0    0    0  501 -0.00000000000E+00  0.00000000000E+00  0.16256910491E+03  0.16256910491E+03  0.00000000000E+00 0.  1.
          1   -1    0    0  501    0  0.00000000000E+00 -0.00000000000E+00 -0.11156983744E+03  0.11156983744E+03  0.00000000000E+00 0. -1.
         23    2    1    2    0    0  0.55524638448E+02 -0.37864485404E+01  0.84259240619E+02  0.16075729583E+03  0.12508383535E+03 0.  0.
          5    1    3    3  502    0  0.88161551046E+02 -0.17688230231E+02  0.28281351208E+02  0.94353801183E+02  0.41800000000E+01 0. -1.
         -5    1    3    3    0  502 -0.32636912598E+02  0.13901781691E+02  0.55977889411E+02  0.66403494645E+02  0.41800000000E+01 0. -1.
        -11    1    1    2    0    0 -0.67490670824E+02  0.31703782719E+02 -0.10231139575E+02  0.75264843745E+02  0.00000000000E+00 0.  1.
         11    1    1    2    0    0  0.11966032376E+02 -0.27917334178E+02 -0.23028833576E+02  0.38116802782E+02  0.00000000000E+00 0. -1.
</event>
<event>
 7    1  0.6992302E-006  0.1182130E+03  0.7561462E-02  0.1246075E+00
          2   -1    0    0  501    0  0.00000000000E+00  0.00000000000E+00  0.74853460018E+02  0.74853460018E+02  0.00000000000E+00 0. -1.
         -2   -1    0    0    0  501 -0.00000000000E+00 -0.00000000000E+00 -0.20688590656E+03  0.20688590656E+03  0.00000000000E+00 0.  1.
         23    2    1    2    0    0  0.19695671468E+02  0.43706347296E+02 -0.11664995987E+03  0.17762834886E+03  0.12508578221E+03 0.  0.
          5    1    3    3  502    0  0.69419704765E+02  0.47009787939E+02 -0.73878991492E+02  0.11182393910E+03  0.41800000000E+01 0.  1.
         -5    1    3    3    0  502 -0.49724033297E+02 -0.33034406431E+01 -0.42770968383E+02  0.65804409760E+02  0.41800000000E+01 0.  1.
        -11    1    1    2    0    0 -0.53762157635E+02 -0.10258661537E+02 -0.31272893073E+01  0.54821434390E+02  0.00000000000E+00 0.  1.
         11    1    1    2    0    0  0.34066486167E+02 -0.33447685759E+02 -0.12255197359E+02  0.49289583329E+02  0.00000000000E+00 0. -1.
</event>
<event>
 7    1  0.6992302E-006  0.1150910E+03  0.7561462E-02  0.1251422E+00
         -1   -1    0    0    0  501 -0.00000000000E+00  0.00000000000E+00  0.37395950784E+02  0.37395950784E+02  0.00000000000E+00 0.  1.
          1   -1    0    0  501    0  0.00000000000E+00 -0.00000000000E+00 -0.45492144431E+03  0.45492144431E+03  0.00000000000E+00 0. -1.
         23    2    1    2    0    0 -0.49009898305E+02 -0.52246049159E+02 -0.21703000244E+03  0.26053908419E+03  0.12508785972E+03 0.  0.
          5    1    3    3  502    0  0.25653070315E+02 -0.33026505091E+02 -0.15759370130E+03  0.16310143207E+03  0.41800000000E+01 0. -1.
         -5    1    3    3    0  502 -0.74662968619E+02 -0.19219544068E+02 -0.59436301140E+02  0.97437652119E+02  0.41800000000E+01 0. -1.
        -11    1    1    2    0    0  0.49112291642E+02 -0.88031529308E+01 -0.56509219398E+02  0.75384378811E+02  0.00000000000E+00 0.  1.
         11    1    1    2    0    0 -0.10239333721E+00  0.61049202090E+02 -0.14398627169E+03  0.15639393210E+03  0.00000000000E+00 0. -1.
</event>
<event>
 7    1  0.6992302E-006  0.1970163E+03  0.7561462E-02  0.1152281E+00
         -1   -1    0    0    0  501 -0.00000000000E+00  0.00000000000E+00  0.25912077799E+03  0.25912077799E+03  0.00000000000E+00 0.  1.
          1   -1    0    0  501    0  0.00000000000E+00 -0.00000000000E+00 -0.20464584125E+03  0.20464584125E+03  0.00000000000E+00 0. -1.
         23    2    1    2    0    0 -0.95918575886E+02 -0.16354637413E+03  0.10178944422E+03  0.24891083698E+03  0.12509086345E+03 0.  0.
          5    1    3    3  502    0 -0.16345095037E+02  0.14609418310E+01  0.58123406297E+02  0.60540063119E+02  0.41800000000E+01 0.  1.
         -5    1    3    3    0  502 -0.79573480849E+02 -0.16500731596E+03  0.43666037921E+02  0.18837077386E+03  0.41800000000E+01 0.  1.
        -11    1    1    2    0    0  0.47980204277E+02  0.44167025646E+02 -0.55943918747E+02  0.85921756277E+02  0.00000000000E+00 0. -1.
         11    1    1    2    0    0  0.47938371609E+02  0.11937934849E+03  0.86294112635E+01  0.12893402598E+03  0.00000000000E+00 0.  1.
</event>
<event>
 7    1  0.6992302E-006  0.1245705E+03  0.7561462E-02  0.1235742E+00
         -1   -1    0    0    0  501 -0.00000000000E+00  0.00000000000E+00  0.14118360028E+03  0.14118360028E+03  0.00000000000E+00 0.  1.
          1   -1    0    0  501    0  0.00000000000E+00 -0.00000000000E+00 -0.14793396209E+03  0.14793396209E+03  0.00000000000E+00 0. -1.
         23    2    1    2    0    0  0.16196809781E+02  0.83686559975E+02  0.52449758008E+02  0.15088868092E+03  0.11291873160E+03 0.  0.
          5    1    3    3  502    0  0.41008670068E+02 -0.11345683194E+02  0.21291106053E+02  0.47762109929E+02  0.41800000000E+01 0. -1.
         -5    1    3    3    0  502 -0.24811860287E+02  0.95032243168E+02  0.31158651955E+02  0.10312657099E+03  0.41800000000E+01 0.  1.
        -11    1    1    2    0    0  0.26071681979E+02 -0.34043356625E+02 -0.59114207475E+02  0.73028571511E+02  0.00000000000E+00 0.  1.
         11    1    1    2    0    0 -0.42268491761E+02 -0.49643203350E+02 -0.85912345460E-01  0.65200309934E+02  0.00000000000E+00 0. -1.
</event>
<event>
 7    1  0.6992302E-006  0.1139954E+03  0.7561462E-02  0.1253345E+00
         -2   -1    0    0    0  501 -0.00000000000E+00  0.00000000000E+00  0.46667406996E+02  0.46667406996E+02  0.00000000000E+00 0.  1.
          2   -1    0    0  501    0  0.00000000000E+00 -0.00000000000E+00 -0.45764820686E+03  0.45764820686E+03  0.00000000000E+00 0. -1.
         23    2    1    2    0    0 -0.17439844537E+02 -0.70195543964E+02 -0.11094975052E+03  0.18217885954E+03  0.12509087557E+03 0.  0.
          5    1    3    3  502    0  0.29664303943E+02 -0.75582440509E+02 -0.26987551607E+02  0.85664908705E+02  0.41800000000E+01 0. -1.
         -5    1    3    3    0  502 -0.47104148480E+02  0.53868965452E+01 -0.83962198915E+02  0.96513950831E+02  0.41800000000E+01 0. -1.
        -11    1    1    2    0    0  0.47679532912E+01  0.81783009293E+02 -0.29182490913E+03  0.30310554527E+03  0.00000000000E+00 0. -1.
         11    1    1    2    0    0  0.12671891246E+02 -0.11587465329E+02 -0.82061402108E+01  0.19031209043E+02  0.00000000000E+00 0.  1.
</event>
<event>
 6    1  0.6992302E-006  0.1481026E+03  0.7561462E-02  0.1202824E+00
         -1   -1    0    0    0  501 -0.00000000000E+00  0.00000000000E+00  0.25318846739E+03  0.25318846739E+03  0.00000000000E+00 0.  1.
          1   -1    0    0  501    0  0.00000000000E+00 -0.00000000000E+00 -0.15173374810E+03  0.15173374810E+03  0.00000000000E+00 0. -1.
          5    1    1    2  502    0 -0.19686777976E+02 -0.71303654581E+02  0.33268615112E+02  0.81216091602E+02  0.41800000000E+01 0. -1.
         -5    1    1    2    0  502  0.69403770449E+01  0.11745941335E+03  0.14970503244E+03  0.19045721765E+03  0.41800000000E+01 0.  1.
        -11    1    1    2    0    0 -0.40383133629E+02 -0.22385202357E+02 -0.26936838042E+02  0.53455476894E+02  0.00000000000E+00 0.  1.
         11    1    1    2    0    0  0.53129534561E+02 -0.23770556409E+02 -0.54582090220E+02  0.79793429350E+02  0.00000000000E+00 0. -1.
</event>
<event>
 7    1  0.7022076E-006  0.2057114E+03  0.7561462E-02  0.1145008E+00
          1   -1    0    0  501    0  0.00000000000E+00  0.00000000000E+00  0.16568861383E+04  0.16568861383E+04  0.00000000000E+00 0. -1.
         -1   -1    0    0    0  501 -0.00000000000E+00 -0.00000000000E+00 -0.31745255118E+02  0.31745255118E+02  0.00000000000E+00 0.  1.
         23    2    1    2    0    0  0.77670991226E+02 -0.16214188149E+03  0.50217859270E+03  0.54786270195E+03  0.12508968230E+03 0.  0.
          5    1    3    3  502    0 -0.15290326425E+02  0.72131261686E+01  0.12504158336E+02  0.21439441388E+02  0.41800000000E+01 0. -1.
         -5    1    3    3    0  502  0.92961317651E+02 -0.16935500766E+03  0.48967443436E+03  0.52642326057E+03  0.41800000000E+01 0. -1.
        -11    1    1    2    0    0  0.14610440971E+02  0.65643942954E+02  0.37663332365E+03  0.38259018900E+03  0.00000000000E+00 0.  1.
         11    1    1    2    0    0 -0.92281432197E+02  0.96497938534E+02  0.74632896685E+03  0.75817850248E+03  0.00000000000E+00 0. -1.
</event>
<event>
 7    1  0.6992302E-006  0.9751873E+02  0.7561462E-02  0.1285602E+00
          1   -1    0    0  501    0  0.00000000000E+00  0.00000000000E+00  0.12960267454E+03  0.12960267454E+03  0.00000000000E+00 0. -1.
         -1   -1    0    0    0  501 -0.00000000000E+00 -0.00000000000E+00 -0.19022126953E+03  0.19022126953E+03  0.00000000000E+00 0.  1.
         23    2    1    2    0    0  0.27963148670E+02 -0.15390086208E+02 -0.14343226029E+03  0.19297534044E+03  0.12509147169E+03 0.  0.
          5    1    3    3  502    0 -0.30422394502E+02 -0.25060616470E+02 -0.20955987939E+01  0.39691567358E+02  0.41800000000E+01 0.  1.
         -5    1    3    3    0  502  0.58385543172E+02  0.96705302622E+01 -0.14133666150E+03  0.15328377308E+03  0.41800000000E+01 0.  1.
        -11    1    1    2    0    0 -0.60950612489E+02  0.16230627480E+02  0.53378926376E+02  0.82630020042E+02  0.00000000000E+00 0.  1.
         11    1    1    2    0    0  0.32987463819E+02 -0.84054127294E+00  0.29434738930E+02  0.44218583590E+02  0.00000000000E+00 0. -1.
</event>
<event>
 7    1  0.6992302E-006  0.1688892E+03  0.7561462E-02  0.1179011E+00
          1   -1    0    0  501    0  0.00000000000E+00  0.00000000000E+00  0.15906571510E+03  0.15906571510E+03  0.00000000000E+00 0. -1.
         -1   -1    0    0    0  501 -0.00000000000E+00 -0.00000000000E+00 -0.24247180784E+03  0.24247180784E+03  0.00000000000E+00 0.  1.
         23    2    1    2    0    0 -0.13522986899E+03 -0.27400893737E+02 -0.13614160928E+03  0.23069982109E+03  0.12509973313E+03 0.  0.
          5    1    3    3  502    0 -0.20002107109E+02  0.42373622576E+02 -0.14705245968E+02  0.49288181525E+02  0.41800000000E+01 0. -1.
         -5    1    3    3    0  502 -0.11522776188E+03 -0.69774516313E+02 -0.12143636332E+03  0.18141163957E+03  0.41800000000E+01 0. -1.
        -11    1    1    2    0    0 -0.33929629735E+01 -0.11496412096E+02  0.19794181520E+02  0.23140641972E+02  0.00000000000E+00 0. -1.
         11    1    1    2    0    0  0.13862283197E+03  0.38897305833E+02  0.32941335027E+02  0.14769705988E+03  0.00000000000E+00 0.  1.
</event>
<event>
 7    1  0.6992302E-006  0.8564133E+02  0.7561462E-02  0.1313764E+00
         -2   -1    0    0    0  501 -0.00000000000E+00  0.00000000000E+00  0.50618509123E+02  0.50618509123E+02  0.00000000000E+00 0. -1.
          2   -1    0    0  501    0  0.00000000000E+00 -0.00000000000E+00 -0.39084957338E+03  0.39084957338E+03  0.00000000000E+00 0.  1.
         23    2    1    2    0    0  0.35226286433E+02  0.24880404061E+02 -0.63168912682E+02  0.14662105515E+03  0.12508995372E+03 0.  0.
          5    1    3    3  502    0 -0.13782907323E+02  0.16661213114E+02 -0.88139637983E+02  0.90849506000E+02  0.41800000000E+01 0. -1.
         -5    1    3    3    0  502  0.49009193755E+02  0.82191909464E+01  0.24970725301E+02  0.55771549149E+02  0.41800000000E+01 0. -1.
        -11    1    1    2    0    0 -0.16955881249E+01 -0.54574643747E+02 -0.12691205607E+03  0.13815909935E+03  0.00000000000E+00 0.  1.
         11    1    1    2    0    0 -0.33530698308E+02  0.29694239686E+02 -0.15015009550E+03  0.15668792800E+03  0.00000000000E+00 0. -1.
</event>
<event>
 7    1  0.6992302E-006  0.1154393E+03  0.7561462E-02  0.1250816E+00
          1   -1    0    0  501    0  0.00000000000E+00  0.00000000000E+00  0.68748697905E+02  0.68748697905E+02  0.00000000000E+00 0. -1.
         -1   -1    0    0    0  501 -0.00000000000E+00 -0.00000000000E+00 -0.24129009024E+03  0.24129009024E+03  0.00000000000E+00 0.  1.
         23    2    1    2    0    0 -0.53040374603E+02  0.62741035687E+01 -0.14916967030E+03  0.20187240794E+03  0.12509289682E+03 0.  0.
          5    1    3    3  502    0 -0.85424049498E+02  0.26383031425E+02 -0.13287147668E+03  0.16020497588E+03  0.41800000000E+01 0.  1.
         -5    1    3    3    0  502  0.32383674896E+02 -0.20108927856E+02 -0.16298193614E+02  0.41667432058E+02  0.41800000000E+01 0.  1.
        -11    1    1    2    0    0  0.71311785005E+02 -0.26219023646E+02 -0.64317083189E+01  0.76250736084E+02  0.00000000000E+00 0. -1.
         11    1    1    2    0    0 -0.18271410402E+02  0.19944920077E+02 -0.16940013714E+02  0.31915644120E+02  0.00000000000E+00 0.  1.
</event>
<event>
 7    1  0.6992302E-006  0.2054753E+03  0.7561462E-02  0.1145200E+00
          2   -1    0    0  501    0  0.00000000000E+00  0.00000000000E+00  0.70812142799E+03  0.70812142799E+03  0.00000000000E+00 0. -1.
         -2   -1    0    0    0  501 -0.00000000000E+00 -0.00000000000E+00 -0.71456289641E+02  0.71456289641E+02  0.00000000000E+00 0.  1.
         23    2    1    2    0    0  0.13758141868E+03  0.12568654749E+03  0.21972352021E+03  0.31409523175E+03  0.12510649179E+03 0.  0.
          5    1    3    3  502    0 -0.73963335883E+01 -0.18178600463E+02  0.22354661459E+02  0.30039483256E+02  0.41800000000E+01 0. -1.
         -5    1    3    3    0  502  0.14497775227E+03  0.14386514795E+03  0.19736885875E+03  0.28405574849E+03  0.41800000000E+01 0. -1.
        -11    1    1    2    0    0 -0.91279955169E+02 -0.89453477289E+02  0.36605965272E+03  0.38772880234E+03  0.00000000000E+00 0. -1.
         11    1    1    2    0    0 -0.46301463510E+02 -0.36233070201E+02  0.50881965424E+02  0.77753683544E+02  0.00000000000E+00 0.  1.
</event>
<event>
 7    1  0.7254637E-006  0.1105525E+03  0.7561462E-02  0.1259550E+00
          1   -1    0    0  501    0  0.00000000000E+00  0.00000000000E+00  0.57209890039E+02  0.57209890039E+02  0.00000000000E+00 0. -1.
         -1   -1    0    0    0  501 -0.00000000000E+00 -0.00000000000E+00 -0.35005684297E+03  0.35005684297E+03  0.00000000000E+00 0.  1.
         23    2    1    2    0    0 -0.66677792206E+02 -0.50407313685E+02 -0.20758023195E+03  0.25636593646E+03  0.12508843046E+03 0.  0.
          5    1    3    3  502    0 -0.24215715984E+02 -0.48107629034E+02 -0.20668430889E+03  0.21362729417E+03  0.41800000000E+01 0. -1.
         -5    1    3    3    0  502 -0.42462076222E+02 -0.22996846509E+01 -0.89592305356E+00  0.42738642289E+02  0.41800000000E+01 0. -1.
        -11    1    1    2    0    0  0.13699156754E+02  0.67353393427E+02 -0.43481636109E+02  0.81331415705E+02  0.00000000000E+00 0.  1.
         11    1    1    2    0    0  0.52978635452E+02 -0.16946079742E+02 -0.41785084876E+02  0.69569380844E+02  0.00000000000E+00 0. -1.
</event>
<event>
 7    1  0.6992302E-006  0.1069420E+03  0.7561462E-02  0.1266340E+00
         -1   -1    0    0    0  501 -0.00000000000E+00  0.00000000000E+00  0.11400037960E+02  0.11400037960E+02  0.00000000000E+00 0.  1.
          1   -1    0    0  501    0  0.00000000000E+00 -0.00000000000E+00 -0.10882477261E+04  0.10882477261E+04  0.00000000000E+00 0. -1.
         23    2    1    2    0    0 -0.46233504583E+01 -0.27035493874E+02 -0.64755124231E+03  0.66009238868E+03  0.12508819638E+03 0.  0.
          5    1    3    3  502    0  0.26312041851E+02 -0.65119019498E+02 -0.25728564941E+03  0.26673242780E+03  0.41800000000E+01 0. -1.
         -5    1    3    3    0  502 -0.30935392309E+02  0.38083525624E+02 -0.39026559291E+03  0.39335996089E+03  0.41800000000E+01 0. -1.
        -11    1    1    2    0    0  0.23728101378E+02  0.55295437995E+02 -0.26282085013E+03  0.26962085884E+03  0.00000000000E+00 0. -1.
         11    1    1    2    0    0 -0.19104750920E+02 -0.28259944121E+02 -0.16647559572E+03  0.16993451657E+03  0.00000000000E+00 0.  1.
</event>
<event>
 6    1  0.6992302E-006  0.1642392E+03  0.7561462E-02  0.1183992E+00
         -1   -1    0    0    0  501 -0.00000000000E+00  0.00000000000E+00  0.72143609119E+02  0.72143609119E+02  0.00000000000E+00 0.  1.
          1   -1    0    0  501    0  0.00000000000E+00 -0.00000000000E+00 -0.58210154705E+03  0.58210154705E+03  0.00000000000E+00 0. -1.
          5    1    1    2  502    0  0.10401889404E+02  0.11969168947E+02 -0.11150325819E+03  0.11270274751E+03  0.41800000000E+01 0. -1.
         -5    1    1    2    0  502 -0.14521837639E+03  0.16659907375E+02 -0.48252148219E+02  0.15398594599E+03  0.41800000000E+01 0.  1.
        -11    1    1    2    0    0  0.89155452049E+02  0.27679363723E+02 -0.18869579617E+03  0.21052540298E+03  0.00000000000E+00 0. -1.
         11    1    1    2    0    0  0.45661034939E+02 -0.56308440045E+02 -0.16150673535E+03  0.17703105969E+03  0.00000000000E+00 0.  1.
</event>
<event>
 6    1  0.6992302E-006  0.2090681E+03  0.7561462E-02  0.1142306E+00
         -2   -1    0    0    0  501 -0.00000000000E+00  0.00000000000E+00  0.87299441813E+02  0.87299441813E+02  0.00000000000E+00 0.  1.
          2   -1    0    0  501    0  0.00000000000E+00 -0.00000000000E+00 -0.12229683196E+04  0.12229683196E+04  0.00000000000E+00 0. -1.
          5    1    1    2  502    0  0.95586265356E+02 -0.14947238294E+03 -0.93341588679E+03  0.95013757819E+03  0.41800000000E+01 0. -1.
         -5    1    1    2    0  502 -0.87974878791E+02  0.13518915344E+03 -0.28559869809E+02  0.16385611087E+03  0.41800000000E+01 0.  1.
        -11    1    1    2    0    0 -0.17051699614E+02  0.44502248819E+02 -0.14805334500E+03  0.15553457357E+03  0.00000000000E+00 0.  1.
         11    1    1    2    0    0  0.94403130495E+01 -0.30219019319E+02 -0.25639776223E+02  0.40739498816E+02  0.00000000000E+00 0. -1.
</event>
<event>
 7    1  0.6992302E-006  0.1339204E+03  0.7561462E-02  0.1221752E+00
         -1   -1    0    0    0  501 -0.00000000000E+00  0.00000000000E+00  0.31854922286E+03  0.31854922286E+03  0.00000000000E+00 0.  1.
          1   -1    0    0  501    0  0.00000000000E+00 -0.00000000000E+00 -0.83349953891E+02  0.83349953891E+02  0.00000000000E+00 0. -1.
         23    2    1    2    0    0  0.58274947041E+02  0.86161137362E+02  0.20283413325E+03  0.26001325193E+03  0.12508195123E+03 0.  0.
          5    1    3    3  502    0  0.89960729946E+02  0.25208741836E+02  0.12506589254E+03  0.15616453975E+03  0.41800000000E+01 0.  1.
         -5    1    3    3    0  502 -0.31685782905E+02  0.60952395527E+02  0.77768240707E+02  0.10384871218E+03  0.41800000000E+01 0.  1.
        -11    1    1    2    0    0 -0.26721625543E+02 -0.24596534546E+02 -0.31243302782E+02  0.47908023880E+02  0.00000000000E+00 0. -1.
         11    1    1    2    0    0 -0.31553321498E+02 -0.61564602816E+02  0.63608438507E+02  0.93977900949E+02  0.00000000000E+00 0.  1.
</event>
<event>
 7    1  0.6992302E-006  0.8906701E+02  0.7561462E-02  0.1305127E+00
         -2   -1    0    0    0  501 -0.00000000000E+00  0.00000000000E+00  0.50379566521E+02  0.50379566521E+02  0.00000000000E+00 0. -1.
          2   -1    0    0  501    0  0.00000000000E+00 -0.00000000000E+00 -0.33347596939E+03  0.33347596939E+03  0.00000000000E+00 0.  1.
         23    2    1    2    0    0 -0.43696754556E+02 -0.37194929327E+02 -0.10437603165E+03  0.17272765157E+03  0.12509043331E+03 0.  0.
          5    1    3    3  502    0 -0.31327136116E+01 -0.21429163348E+02 -0.12317697420E+03  0.12513617507E+03  0.41800000000E+01 0. -1.
         -5    1    3    3    0  502 -0.40564040944E+02 -0.15765765979E+02  0.18800942552E+02  0.47591476500E+02  0.41800000000E+01 0. -1.
        -11    1    1    2    0    0 -0.95933529788E+01 -0.27158704445E+02 -0.43266663584E+02  0.51977224110E+02  0.00000000000E+00 0.  1.
         11    1    1    2    0    0  0.53290107535E+02  0.64353633772E+02 -0.13545370763E+03  0.15915066023E+03  0.00000000000E+00 0. -1.
</event>
<event>
 7    1  0.6992302E-006  0.6592646E+02  0.7561462E-02  0.1374520E+00
         -1   -1    0    0    0  501 -0.00000000000E+00  0.00000000000E+00  0.16032703848E+03  0.16032703848E+03  0.00000000000E+00 0.  1.
          1   -1    0    0  501    0  0.00000000000E+00 -0.00000000000E+00 -0.98010122521E+02  0.98010122521E+02  0.00000000000E+00 0. -1.
         23    2    1    2    0    0  0.42943418956E+02 -0.66316447933E+01  0.80448022683E+02  0.15494797183E+03  0.12509545826E+03 0.  0.
          5    1    3    3  502    0  0.13579565374E+02 -0.29363927377E+02 -0.26265402093E+02  0.41880646770E+02  0.41800000000E+01 0. -1.
         -5    1    3    3    0  502  0.29363853582E+02  0.22732282584E+02  0.10671342478E+03  0.11306732506E+03  0.41800000000E+01 0. -1.
        -11    1    1    2    0    0 -0.10026939626E+01 -0.14751548358E+02 -0.46248452647E+02  0.48554432819E+02  0.00000000000E+00 0. -1.
         11    1    1    2    0    0 -0.41940724993E+02  0.21383193152E+02  0.28117345920E+02  0.54834756349E+02  0.00000000000E+00 0.  1.
</event>
<event>
 7    1  0.6992302E-006  0.1056550E+03  0.7561462E-02  0.1268834E+00
         -2   -1    0    0    0  501 -0.00000000000E+00  0.00000000000E+00  0.15122083879E+04  0.15122083879E+04  0.00000000000E+00 0.  1.
          2   -1    0    0  501    0  0.00000000000E+00 -0.00000000000E+00 -0.32843793473E+02  0.32843793473E+02  0.00000000000E+00 0. -1.
         23    2    1    2    0    0  0.83403686019E+02  0.20114179594E+02  0.13682856190E+04  0.13769644990E+04  0.12831578671E+03 0.  0.
          5    1    3    3  502    0  0.16411806958E+02  0.34364541752E+02  0.10423138838E+03  0.11104919568E+03  0.41800000000E+01 0. -1.
         -5    1    3    3    0  502  0.66991879061E+02 -0.14250362157E+02  0.12640542307E+04  0.12659153033E+04  0.41800000000E+01 0.  1.
        -11    1    1    2    0    0 -0.43526146370E+01  0.16642310911E+02 -0.92232555957E+01  0.19518714364E+02  0.00000000000E+00 0.  1.
         11    1    1    2    0    0 -0.79051071382E+02 -0.36756490505E+02  0.12030223097E+03  0.14856896801E+03  0.00000000000E+00 0. -1.
</event>
<event>
 7    1  0.6992302E-006  0.1715778E+03  0.7561462E-02  0.1176212E+00
          2   -1    0    0  501    0  0.00000000000E+00  0.00000000000E+00  0.15035786743E+03  0.15035786743E+03  0.00000000000E+00 0. -1.
         -2   -1    0    0    0  501 -0.00000000000E+00 -0.00000000000E+00 -0.20799412517E+03  0.20799412517E+03  0.00000000000E+00 0.  1.
         23    2    1    2    0    0  0.25192057458E+02  0.13555967499E+03 -0.60527095048E+02  0.19575725256E+03  0.12508520077E+03 0.  0.
          5    1    3    3  502    0  0.73171186679E+02  0.59568640333E+02 -0.44378739420E+02  0.10435224187E+03  0.41800000000E+01 0. -1.
         -5    1    3    3    0  502 -0.47979129222E+02  0.75991034660E+02 -0.16148355629E+02  0.91405010689E+02  0.41800000000E+01 0. -1.
        -11    1    1    2    0    0  0.14947775094E+02  0.23313277598E+01  0.11072147569E+02  0.18747360379E+02  0.00000000000E+00 0. -1.
         11    1    1    2    0    0 -0.40139832551E+02 -0.13789100275E+03 -0.81813102656E+01  0.14384737966E+03  0.00000000000E+00 0.  1.
</event>
<event>
 7    1  0.6992302E-006  0.9671177E+02  0.7561462E-02  0.1287367E+00
         -2   -1    0    0    0  501 -0.00000000000E+00  0.00000000000E+00  0.31048482840E+03  0.31048482840E+03  0.00000000000E+00 0.  1.
          2   -1    0    0  501    0  0.00000000000E+00 -0.00000000000E+00 -0.41761129716E+02  0.41761129716E+02  0.00000000000E+00 0. -1.
         23    2    1    2    0    0  0.31585768021E+02 -0.12680760842E+02  0.16660245189E+03  0.21109899096E+03  0.12509174462E+03 0.  0.
          5    1    3    3  502    0 -0.24911962592E+02 -0.47373449323E+02  0.36202796941E+02  0.64753104074E+02  0.41800000000E+01 0.  1.
         -5    1    3    3    0  502  0.56497730613E+02  0.34692688481E+02  0.13039965495E+03  0.14634588689E+03  0.41800000000E+01 0.  1.
        -11    1    1    2    0    0 -0.51262695855E+02  0.15198121214E+02  0.10795432612E+03  0.12046984437E+03  0.00000000000E+00 0.  1.
         11    1    1    2    0    0  0.19676927834E+02 -0.25173603723E+01 -0.58330793239E+01  0.20677122784E+02  0.00000000000E+00 0. -1.
</event>
<event>
 7    1  0.6992302E-006  0.2410635E+03  0.7561462E-02  0.1119086E+00
          1   -1    0    0  501    0  0.00000000000E+00  0.00000000000E+00  0.97719217004E+03  0.97719217004E+03  0.00000000000E+00 0. -1.
         -1   -1    0    0    0  501 -0.00000000000E+00 -0.00000000000E+00 -0.94073615377E+02  0.94073615377E+02  0.00000000000E+00 0.  1.
         23    2    1    2    0    0  0.23128315155E+03 -0.28461997150E+02  0.16667094047E+03  0.31262594967E+03  0.12511514911E+03 0.  0.
          5    1    3    3  502    0  0.85368032295E+02 -0.19392241927E+01  0.13674906834E+03  0.16127380947E+03  0.41800000000E+01 0.  1.
         -5    1    3    3    0  502  0.14591511925E+03 -0.26522772958E+02  0.29921872137E+02  0.15135214021E+03  0.41800000000E+01 0.  1.
        -11    1    1    2    0    0 -0.69269999376E+02  0.49157810832E+02  0.21086821543E+03  0.22733285609E+03  0.00000000000E+00 0.  1.
         11    1    1    2    0    0 -0.16201315217E+03 -0.20695813681E+02  0.50557939877E+03  0.53130697966E+03  0.00000000000E+00 0. -1.
</event>
<event>
 7    1  0.6992302E-006  0.1130159E+03  0.7561462E-02  0.1255085E+00
          2   -1    0    0  501    0  0.00000000000E+00  0.00000000000E+00  0.36558136978E+03  0.36558136978E+03  0.00000000000E+00 0.  1.
         -2   -1    0    0    0  501 -0.00000000000E+00 -0.00000000000E+00 -0.47555726277E+02  0.47555726277E+02  0.00000000000E+00 0. -1.
         23    2    1    2    0    0 -0.41583642867E+02  0.60718037046E+02  0.17411543032E+03  0.22667195485E+03  0.12509241650E+03 0.  0.
          5    1    3    3  502    0 -0.56650715832E+00 -0.22101496321E+02 -0.67733992992E+01  0.23497838370E+02  0.41800000000E+01 0.  1.
         -5    1    3    3    0  502 -0.41017135709E+02  0.82819533367E+02  0.18088882961E+03  0.20317411648E+03  0.41800000000E+01 0.  1.
        -11    1    1    2    0    0 -0.22515654507E+02  0.30139033462E+00  0.61672899759E+02  0.65655099563E+02  0.00000000000E+00 0.  1.
         11    1    1    2    0    0  0.64099297374E+02 -0.61019427381E+02  0.82237313430E+02  0.12081004164E+03  0.00000000000E+00 0. -1.
</event>
<event>
 7    1  0.1425218E-005  0.1289100E+03  0.7561462E-02  0.1229082E+00
          1   -1    0    0  501    0  0.00000000000E+00  0.00000000000E+00  0.98505497915E+02  0.98505497915E+02  0.00000000000E+00 0. -1.
         -1   -1    0    0    0  501 -0.00000000000E+00 -0.00000000000E+00 -0.26149653176E+03  0.26149653176E+03  0.00000000000E+00 0.  1.
         23    2    1    2    0    0  0.99432682363E+02 -0.56267787659E+02 -0.11912705390E+03  0.20710306150E+03  0.12508997107E+03 0.  0.
          5    1    3    3  502    0  0.34322748212E+02 -0.26658919799E+02  0.21955478541E+02  0.48869873007E+02  0.41800000000E+01 0.  1.
         -5    1    3    3    0  502  0.65109934150E+02 -0.29608867859E+02 -0.14108253244E+03  0.15823318849E+03  0.41800000000E+01 0.  1.
        -11    1    1    2    0    0 -0.78839799931E+02 -0.38810080902E+01 -0.41729703079E+02  0.89286865754E+02  0.00000000000E+00 0.  1.
         11    1    1    2    0    0 -0.20592882431E+02  0.60148795749E+02 -0.21342768673E+01  0.63612102423E+02  0.00000000000E+00 0. -1.
</event>
<event>
 7    1  0.6992302E-006  0.1183737E+03  0.7561462E-02  0.1245804E+00
          3   -1    0    0  501    0  0.00000000000E+00  0.00000000000E+00  0.60672140156E+02  0.60672140156E+02  0.00000000000E+00 0. -1.
         -3   -1    0    0    0  501 -0.00000000000E+00 -0.00000000000E+00 -0.28857091344E+03  0.28857091344E+03  0.00000000000E+00 0.  1.
         23    2    1    2    0    0  0.64058386111E+02  0.31859598038E+02 -0.12521178157E+03  0.19090485805E+03  0.12509262074E+03 0.  0.
          5    1    3    3  502    0 -0.18605834781E+02 -0.27916825416E+02 -0.62575129050E+02  0.71124154862E+02  0.41800000000E+01 0. -1.
         -5    1    3    3    0  502  0.82664220892E+02  0.59776423454E+02 -0.62636652516E+02  0.11978070318E+03  0.41800000000E+01 0. -1.
        -11    1    1    2    0    0 -0.48805788910E+02 -0.54742790610E+02 -0.10778389911E+03  0.13036927192E+03  0.00000000000E+00 0.  1.
         11    1    1    2    0    0 -0.15252597201E+02  0.22883192572E+02  0.50969073944E+01  0.27968923623E+02  0.00000000000E+00 0. -1.
</event>
<event>
 7    1  0.6992302E-006  0.1750403E+03  0.7561462E-02  0.1172691E+00
          1   -1    0    0  501    0  0.00000000000E+00  0.00000000000E+00  0.90330560297E+03  0.90330560297E+03  0.00000000000E+00 0. -1.
         -1   -1    0    0    0  501 -0.00000000000E+00 -0.00000000000E+00 -0.39448651325E+02  0.39448651325E+02  0.00000000000E+00 0.  1.
         23    2    1    2    0    0 -0.94263090589E+02 -0.11695360654E+03  0.36709246891E+03  0.41589389634E+03  0.12508867237E+03 0.  0.
          5    1    3    3  502    0 -0.11006718572E+03 -0.13280442733E+03  0.31851616382E+03  0.36224552490E+03  0.41800000000E+01 0. -1.
         -5    1    3    3    0  502  0.15804095130E+02  0.15850820796E+02  0.48576305085E+02  0.53648371443E+02  0.41800000000E+01 0. -1.
        -11    1    1    2    0    0  0.17207035762E+02  0.33956059017E+01  0.81504203658E+01  0.19340154376E+02  0.00000000000E+00 0.  1.
         11    1    1    2    0    0  0.77056054827E+02  0.11355800064E+03  0.48861406237E+03  0.50752020358E+03  0.00000000000E+00 0. -1.
</event>
<event>
 7    1  0.6992302E-006  0.1148983E+03  0.7561462E-02  0.1251759E+00
          1   -1    0    0  501    0  0.00000000000E+00  0.00000000000E+00  0.99769423294E+02  0.99769423294E+02  0.00000000000E+00 0. -1.
         -1   -1    0    0    0  501 -0.00000000000E+00 -0.00000000000E+00 -0.18438411667E+03  0.18438411667E+03  0.00000000000E+00 0.  1.
         23    2    1    2    0    0 -0.35089927594E+02 -0.75545327593E+02 -0.66800663403E+02  0.16446620110E+03  0.12509357751E+03 0.  0.
          5    1    3    3  502    0 -0.42895110533E+02  0.51179210001E+00  0.21018545880E+02  0.47953144940E+02  0.41800000000E+01 0. -1.
         -5    1    3    3    0  502  0.78051829386E+01 -0.76057119693E+02 -0.87819209282E+02  0.11651305616E+03  0.41800000000E+01 0. -1.
        -11    1    1    2    0    0  0.29541437407E+02 -0.45043198889E+01  0.14460997553E+02  0.33197979937E+02  0.00000000000E+00 0. -1.
         11    1    1    2    0    0  0.55484901876E+01  0.80049647481E+02 -0.32275027522E+02  0.86489358922E+02  0.00000000000E+00 0.  1.
</event>
<event>
 7    1  0.6992302E-006  0.9431986E+02  0.7561462E-02  0.1292715E+00
          1   -1    0    0  501    0  0.00000000000E+00  0.00000000000E+00  0.11004744400E+03  0.11004744400E+03  0.00000000000E+00 0. -1.
         -1   -1    0    0    0  501 -0.00000000000E+00 -0.00000000000E+00 -0.16271897074E+03  0.16271897074E+03  0.00000000000E+00 0.  1.
         23    2    1    2    0    0  0.67442218466E+02 -0.16305677886E+02 -0.69512053014E+02  0.15904224045E+03  0.12509268872E+03 0.  0.
          5    1    3    3  502    0  0.11864545981E+02 -0.16104143616E+02  0.35039338736E+02  0.40562772982E+02  0.41800000000E+01 0.  1.
         -5    1    3    3    0  502  0.55577672485E+02 -0.20153427058E+00 -0.10455139175E+03  0.11847946747E+03  0.41800000000E+01 0.  1.
        -11    1    1    2    0    0  0.68007145107E+01  0.35207713688E+02  0.55277986430E+01  0.36282080685E+02  0.00000000000E+00 0. -1.
         11    1    1    2    0    0 -0.74242932977E+02 -0.18902035802E+02  0.11312727630E+02  0.77442093598E+02  0.00000000000E+00 0.  1.
</event>
<event>
 7    1  0.9032658E-006  0.9394372E+02  0.7561462E-02  0.1293573E+00
          3   -1    0    0  501    0  0.00000000000E+00  0.00000000000E+00  0.23010529873E+03  0.23010529873E+03  0.00000000000E+00 0. -1.
         -3   -1    0    0    0  501 -0.00000000000E+00 -0.00000000000E+00 -0.90374864034E+02  0.90374864034E+02  0.00000000000E+00 0.  1.
         23    2    1    2    0    0  0.66241856869E+02  0.58356256418E+02  0.37875712261E+02  0.15771824359E+03  0.12508812301E+03 0.  0.
          5    1    3    3  502    0  0.40868929867E+02  0.55403596225E+02 -0.37157993464E+02  0.78345496242E+02  0.41800000000E+01 0. -1.
         -5    1    3    3    0  502  0.25372927002E+02  0.29526601930E+01  0.75033705725E+02  0.79372747349E+02  0.41800000000E+01 0. -1.
        -11    1    1    2    0    0 -0.24711515728E+02 -0.41311511499E+02  0.10723928634E+03  0.11754813706E+03  0.00000000000E+00 0. -1.
         11    1    1    2    0    0 -0.41530341141E+02 -0.17044744918E+02 -0.53845639037E+01  0.45213782114E+02  0.00000000000E+00 0.  1.
</event>
<event>
 7    1  0.6992302E-006  0.9790345E+02  0.7561462E-02  0.1284768E+00
         -1   -1    0    0    0  501 -0.00000000000E+00  0.00000000000E+00  0.18487902290E+03  0.18487902290E+03  0.00000000000E+00 0.  1.
          1   -1    0    0  501    0  0.00000000000E+00 -0.00000000000E+00 -0.95175474955E+02  0.95175474955E+02  0.00000000000E+00 0. -1.
         23    2    1    2    0    0 -0.75309175941E+02 -0.30026670652E+01  0.47284448838E+02  0.15350443565E+03  0.12508918687E+03 0.  0.
          5    1    3    3  502    0 -0.16713732228E+02  0.55558791089E+01 -0.42314317995E+02  0.46023804113E+02  0.41800000000E+01 0.  1.
         -5    1    3    3    0  502 -0.58595443713E+02 -0.85585461741E+01  0.89598766834E+02  0.10748063153E+03  0.41800000000E+01 0.  1.
        -11    1    1    2    0    0  0.81616054499E+02  0.32742538273E+02  0.24614519329E+02  0.91318830075E+02  0.00000000000E+00 0.  1.
         11    1    1    2    0    0 -0.63068785572E+01 -0.29739871208E+02  0.17804579777E+02  0.35231232133E+02  0.00000000000E+00 0. -1.
</event>
<event>
 6    1  0.6992302E-006  0.1403627E+03  0.7561462E-02  0.1212842E+00
          2   -1    0    0  501    0  0.00000000000E+00  0.00000000000E+00  0.37788959667E+03  0.37788959667E+03  0.00000000000E+00 0. -1.
         -2   -1    0    0    0  501 -0.00000000000E+00 -0.00000000000E+00 -0.12638224500E+03  0.12638224500E+03  0.00000000000E+00 0.  1.
          5    1    1    2  502    0 -0.14254126582E+02  0.91370813459E+02  0.18365333509E+03  0.20566435172E+03  0.41800000000E+01 0. -1.
         -5    1    1    2    0  502  0.60425687806E+02 -0.59521663079E+02 -0.78723970033E+02  0.11579735740E+03  0.41800000000E+01 0.  1.
        -11    1    1    2    0    0 -0.51768188443E+02  0.16675559986E+02  0.10666493408E+03  0.11973064686E+03  0.00000000000E+00 0. -1.
         11    1    1    2    0    0  0.55966272193E+01 -0.48524710366E+02  0.39913052535E+02  0.63079485691E+02  0.00000000000E+00 0.  1.
</event>
<event>
 7    1  0.6992302E-006  0.1201906E+03  0.7561462E-02  0.1242783E+00
          2   -1    0    0  501    0  0.00000000000E+00  0.00000000000E+00  0.72631348917E+02  0.72631348917E+02  0.00000000000E+00 0. -1.
         -2   -1    0    0    0  501 -0.00000000000E+00 -0.00000000000E+00 -0.24277827979E+03  0.24277827979E+03  0.00000000000E+00 0.  1.
         23    2    1    2    0    0 -0.61161766673E+02  0.43306967702E+02 -0.11164472435E+03  0.18365208368E+03  0.12508912107E+03 0.  0.
          5    1    3    3  502    0 -0.90758253732E+02  0.13817644850E+02 -0.10754828220E+03  0.14146410616E+03  0.41800000000E+01 0. -1.
         -5    1    3    3    0  502  0.29596487059E+02  0.29489322852E+02 -0.40964421532E+01  0.42187977515E+02  0.41800000000E+01 0. -1.
        -11    1    1    2    0    0 -0.45001192447E+01 -0.40523390188E+02  0.41183811931E+01  0.40979962045E+02  0.00000000000E+00 0. -1.
         11    1    1    2    0    0  0.65661885917E+02 -0.27835775137E+01 -0.62620587718E+02  0.90777582983E+02  0.00000000000E+00 0.  1.
</event>
<event>
 7    1  0.6992302E-006  0.2153982E+03  0.7561462E-02  0.1137361E+00
          2   -1    0    0  501    0  0.00000000000E+00  0.00000000000E+00  0.95300216894E+03  0.95300216894E+03  0.00000000000E+00 0. -1.
         -2   -1    0    0    0  501 -0.00000000000E+00 -0.00000000000E+00 -0.51611258165E+02  0.51611258165E+02  0.00000000000E+00 0.  1.
         23    2    1    2    0    0 -0.16617516319E+03  0.87391907642E+02  0.36640136144E+03  0.43029063339E+03  0.12509412911E+03 0.  0.
          5    1    3    3  502    0 -0.15308554318E+03  0.11582033698E+03  0.33253881899E+03  0.38399097975E+03  0.41800000000E+01 0.  1.
         -5    1    3    3    0  502 -0.13089620007E+02 -0.28428429342E+02  0.33862542449E+02  0.46299653647E+02  0.41800000000E+01 0.  1.
        -11    1    1    2    0    0  0.40977538235E+02 -0.69587433679E+02  0.17406455753E+03  0.19188548604E+03  0.00000000000E+00 0.  1.
         11    1    1    2    0    0  0.12519762495E+03 -0.17804473963E+02  0.36092499181E+03  0.38243730767E+03  0.00000000000E+00 0. -1.
</event>
<event>
 7    1  0.6992302E-006  0.1385159E+03  0.7561462E-02  0.1215340E+00
          2   -1    0    0  501    0  0.00000000000E+00  0.00000000000E+00  0.29489393161E+03  0.29489393161E+03  0.00000000000E+00 0. -1.
         -2   -1    0    0    0  501 -0.00000000000E+00 -0.00000000000E+00 -0.73222704844E+02  0.73222704844E+02  0.00000000000E+00 0.  1.
         23    2    1    2    0    0 -0.90581829118E+02 -0.71510237784E+01  0.70757896625E+02  0.16999869484E+03  0.12504667690E+03 0.  0.
          5    1    3    3  502    0 -0.15788800576E+02 -0.56993866357E+02  0.69507731385E+01  0.59693991936E+02  0.41800000000E+01 0.  1.
         -5    1    3    3    0  502 -0.74793028542E+02  0.49842842579E+02  0.63807123487E+02  0.11030470290E+03  0.41800000000E+01 0.  1.
        -11    1    1    2    0    0  0.92262614843E+02 -0.24986238967E+02  0.10430155131E+03  0.14147620239E+03  0.00000000000E+00 0. -1.
         11    1    1    2    0    0 -0.16807857246E+01  0.32137262745E+02  0.46611778834E+02  0.56641739234E+02  0.00000000000E+00 0.  1.
</event>
<event>
 7    1  0.6992302E-006  0.1229097E+03  0.7561462E-02  0.1238373E+00
          2   -1    0    0  501    0  0.00000000000E+00  0.00000000000E+00  0.69777728582E+02  0.69777728582E+02  0.00000000000E+00 0. -1.
         -2   -1    0    0    0  501 -0.00000000000E+00 -0.00000000000E+00 -0.32851776364E+03  0.32851776364E+03  0.00000000000E+00 0.  1.
         23    2    1    2    0    0 -0.87778742526E+02 -0.50069112606E+02 -0.19042597727E+03  0.24924412034E+03  0.12509418464E+03 0.  0.
          5    1    3    3  502    0 -0.53868120777E+02  0.26895716614E+02 -0.28529956502E+02  0.66757657435E+02  0.41800000000E+01 0. -1.
         -5    1    3    3    0  502 -0.33910621750E+02 -0.76964829220E+02 -0.16189602077E+03  0.18248646291E+03  0.41800000000E+01 0. -1.
        -11    1    1    2    0    0  0.27676502777E+02  0.19260465098E+02 -0.73953551974E+02  0.81277808603E+02  0.00000000000E+00 0.  1.
         11    1    1    2    0    0  0.60102239750E+02  0.30808647509E+02  0.56394941867E+01  0.67773563274E+02  0.00000000000E+00 0. -1.
</event>
<event>
 7    1  0.6992302E-006  0.9705191E+02  0.7561462E-02  0.1286620E+00
          1   -1    0    0  501    0  0.00000000000E+00  0.00000000000E+00  0.21942411115E+02  0.21942411115E+02  0.00000000000E+00 0.  1.
         -1   -1    0    0    0  501 -0.00000000000E+00 -0.00000000000E+00 -0.61896762015E+03  0.61896762015E+03  0.00000000000E+00 0. -1.
         23    2    1    2    0    0 -0.21739414505E+02 -0.40231678911E+02 -0.36930799662E+03  0.39249612446E+03  0.12479431564E+03 0.  0.
          5    1    3    3  502    0  0.45906826937E+02 -0.17770564275E+02 -0.76175580686E+02  0.90793288337E+02  0.41800000000E+01 0.  1.
         -5    1    3    3    0  502 -0.67646241442E+02 -0.22461114636E+02 -0.29313241593E+03  0.30170283612E+03  0.41800000000E+01 0.  1.
        -11    1    1    2    0    0 -0.30145597183E+01 -0.13663490313E+02 -0.95552583029E+00  0.14024677089E+02  0.00000000000E+00 0.  1.
         11    1    1    2    0    0  0.24753974223E+02  0.53895169224E+02 -0.22676168659E+03  0.23438922972E+03  0.00000000000E+00 0. -1.
</event>
<event>
 7    1  0.6992302E-006  0.1577252E+03  0.7561462E-02  0.1191289E+00
         -1   -1    0    0    0  501 -0.00000000000E+00  0.00000000000E+00  0.24889782091E+03  0.24889782091E+03  0.00000000000E+00 0.  1.
          1   -1    0    0  501    0  0.00000000000E+00 -0.00000000000E+00 -0.13552800931E+03  0.13552800931E+03  0.00000000000E+00 0. -1.
         23    2    1    2    0    0 -0.60392650822E+02  0.94873634613E+02  0.15189405096E+03  0.22664915631E+03  0.12509899488E+03 0.  0.
          5    1    3    3  502    0  0.33512256706E+02  0.36882008409E+01  0.14798395674E+02  0.37055891428E+02  0.41800000000E+01 0.  1.
         -5    1    3    3    0  502 -0.93904907528E+02  0.91185433772E+02  0.13709565529E+03  0.18959326488E+03  0.41800000000E+01 0.  1.
        -11    1    1    2    0    0  0.58263353685E+02 -0.27062444095E+01 -0.12641164705E+01  0.58339867431E+02  0.00000000000E+00 0. -1.
         11    1    1    2    0    0  0.21292971369E+01 -0.92167390204E+02 -0.37260122892E+02  0.99436806471E+02  0.00000000000E+00 0.  1.
</event>
<event>
 7    1  0.6992302E-006  0.1030935E+03  0.7561462E-02  0.1273922E+00
         -1   -1    0    0    0  501 -0.00000000000E+00  0.00000000000E+00  0.34533430703E+03  0.34533430703E+03  0.00000000000E+00 0.  1.
          1   -1    0    0  501    0  0.00000000000E+00 -0.00000000000E+00 -0.36849278935E+02  0.36849278935E+02  0.00000000000E+00 0. -1.
         23    2    1    2    0    0  0.20191202732E+02 -0.24387441313E+02  0.17104935867E+03  0.21425778717E+03  0.12508430878E+03 0.  0.
          5    1    3    3  502    0  0.60422665743E+02  0.24642510479E+02  0.82962757171E+02  0.10563353320E+03  0.41800000000E+01 0.  1.
         -5    1    3    3    0  502 -0.40231463011E+02 -0.49029951792E+02  0.88086601496E+02  0.10862425398E+03  0.41800000000E+01 0.  1.
        -11    1    1    2    0    0 -0.14005899470E+01  0.47460632635E+02  0.12829102393E+03  0.13679568752E+03  0.00000000000E+00 0.  1.
         11    1    1    2    0    0 -0.18790612785E+02 -0.23073191322E+02  0.91446454951E+01  0.31130111273E+02  0.00000000000E+00 0. -1.
</event>
<event>
 6    1  0.6992302E-006  0.1522826E+03  0.7561462E-02  0.1197696E+00
          1   -1    0    0  501    0  0.00000000000E+00  0.00000000000E+00  0.35303965796E+03  0.35303965796E+03  0.00000000000E+00 0. -1.
         -1   -1    0    0    0  501 -0.00000000000E+00 -0.00000000000E+00 -0.85686212727E+02  0.85686212727E+02  0.00000000000E+00 0.  1.
          5    1    1    2  502    0 -0.54766600055E+02  0.76535629753E+02  0.26386086621E+02  0.97830368856E+02  0.41800000000E+01 0. -1.
         -5    1    1    2    0  502  0.33855899436E+02 -0.11034690087E+03  0.51406834568E+02  0.12642308135E+03  0.41800000000E+01 0.  1.
        -11    1    1    2    0    0  0.83645490658E+01 -0.29322681239E+02  0.31661001835E+02  0.43956846489E+02  0.00000000000E+00 0.  1.
         11    1    1    2    0    0  0.12546151553E+02  0.63133952356E+02  0.15789952221E+03  0.17051557399E+03  0.00000000000E+00 0. -1.
</event>
<event>
 7    1  0.6992302E-006  0.1090501E+03  0.7561462E-02  0.1262339E+00
          2   -1    0    0  501    0  0.00000000000E+00  0.00000000000E+00  0.19921700370E+03  0.19921700370E+03  0.00000000000E+00 0. -1.
         -2   -1    0    0    0  501 -0.00000000000E+00 -0.00000000000E+00 -0.74237352402E+02  0.74237352402E+02  0.00000000000E+00 0.  1.
         23    2    1    2    0    0 -0.17285581743E+02 -0.35269574508E+02  0.32583414745E+02  0.13509925385E+03  0.12508954894E+03 0.  0.
          5    1    3    3  502    0  0.46754074291E+02  0.66994448252E+01  0.34097912937E+02  0.58403476698E+02  0.41800000000E+01 0.  1.
         -5    1    3    3    0  502 -0.64039656034E+02 -0.41969019333E+02 -0.15144981920E+01  0.76695777155E+02  0.41800000000E+01 0.  1.
        -11    1    1    2    0    0  0.32544352639E+02 -0.18962236254E+02  0.10770952463E+02  0.39175435025E+02  0.00000000000E+00 0.  1.
         11    1    1    2    0    0 -0.15258770897E+02  0.54231810762E+02  0.81625284095E+02  0.99179667227E+02  0.00000000000E+00 0. -1.
</event>
<event>
 7    1  0.6992302E-006  0.1436370E+03  0.7561462E-02  0.1208517E+00
          1   -1    0    0  501    0  0.00000000000E+00  0.00000000000E+00  0.86940388112E+03  0.86940388112E+03  0.00000000000E+00 0. -1.
         -1   -1    0    0    0  501 -0.00000000000E+00 -0.00000000000E+00 -0.24974752862E+02  0.24974752862E+02  0.00000000000E+00 0.  1.
         23    2    1    2    0    0 -0.79055514916E+02  0.57047245641E+02  0.39616889288E+03  0.42673217128E+03  0.12508553731E+03 0.  0.
          5    1    3    3  502    0 -0.11327915902E+02 -0.36544654756E+02  0.14859145323E+03  0.15349503523E+03  0.41800000000E+01 0. -1.
         -5    1    3    3    0  502 -0.67727599014E+02  0.93591900397E+02  0.24757743965E+03  0.27323713605E+03  0.41800000000E+01 0. -1.
        -11    1    1    2    0    0 -0.10971266459E+02  0.14504167266E+02  0.66500342171E+02  0.68942258918E+02  0.00000000000E+00 0.  1.
         11    1    1    2    0    0  0.90026781376E+02 -0.71551412907E+02  0.38175989320E+03  0.39870420378E+03  0.00000000000E+00 0. -1.
</event>
<event>
 7    1  0.6992302E-006  0.1623206E+03  0.7561462E-02  0.1186101E+00
          1   -1    0    0  501    0  0.00000000000E+00  0.00000000000E+00  0.44686347997E+03  0.44686347997E+03  0.00000000000E+00 0. -1.
         -1   -1    0    0    0  501 -0.00000000000E+00 -0.00000000000E+00 -0.98431417718E+02  0.98431417718E+02  0.00000000000E+00 0.  1.
         23    2    1    2    0    0  0.14095079081E+03 -0.59282883336E+02  0.60584236403E+02  0.20663809027E+03  0.12508902815E+03 0.  0.
          5    1    3    3  502    0  0.93280124929E+02 -0.29422636107E+02  0.98339794835E+02  0.13876260617E+03  0.41800000000E+01 0.  1.
         -5    1    3    3    0  502  0.47670665880E+02 -0.29860247230E+02 -0.37755558432E+02  0.67875484105E+02  0.41800000000E+01 0.  1.
        -11    1    1    2    0    0 -0.10989595970E+03  0.77496217471E+01  0.13407294146E+03  0.17353020552E+03  0.00000000000E+00 0.  1.
         11    1    1    2    0    0 -0.31054831108E+02  0.51533261589E+02  0.15377488439E+03  0.16512660190E+03  0.00000000000E+00 0. -1.
</event>
<event>
 7    1  0.6992302E-006  0.1170542E+03  0.7561462E-02  0.1248037E+00
         -3   -1    0    0    0  501 -0.00000000000E+00  0.00000000000E+00  0.51397955570E+02  0.51397955570E+02  0.00000000000E+00 0.  1.
          3   -1    0    0  501    0  0.00000000000E+00 -0.00000000000E+00 -0.42615700800E+03  0.42615700800E+03  0.00000000000E+00 0. -1.
         23    2    1    2    0    0 -0.69014224553E+02 -0.63865055646E+02 -0.17577765552E+03  0.23534399932E+03  0.12508918942E+03 0.  0.
          5    1    3    3  502    0 -0.16071947851E+02 -0.60750758633E+02 -0.17064821939E+03  0.18189900869E+03  0.41800000000E+01 0. -1.
         -5    1    3    3    0  502 -0.52942276702E+02 -0.31142970131E+01 -0.51294361362E+01  0.53444990629E+02  0.41800000000E+01 0. -1.
        -11    1    1    2    0    0  0.83979239346E+02  0.56780385741E+02 -0.10193099883E+03  0.14375831582E+03  0.00000000000E+00 0.  1.
         11    1    1    2    0    0 -0.14965014793E+02  0.70846699044E+01 -0.97050398086E+02  0.98452648436E+02  0.00000000000E+00 0. -1.
</event>
<event>
 7    1  0.6992302E-006  0.1164578E+03  0.7561462E-02  0.1249058E+00
         -2   -1    0    0    0  501 -0.00000000000E+00  0.00000000000E+00  0.17386453348E+02  0.17386453348E+02  0.00000000000E+00 0.  1.
          2   -1    0    0  501    0  0.00000000000E+00 -0.00000000000E+00 -0.95220054060E+03  0.95220054060E+03  0.00000000000E+00 0. -1.
         23    2    1    2    0    0  0.70902166592E+02  0.40926784937E+01 -0.51084526866E+03  0.53071224305E+03  0.12509488066E+03 0.  0.
          5    1    3    3  502    0  0.60229025257E+02  0.47036957933E+02 -0.16340265252E+03  0.18043810613E+03  0.41800000000E+01 0.  1.
         -5    1    3    3    0  502  0.10673141335E+02 -0.42944279439E+02 -0.34744261614E+03  0.35027413692E+03  0.41800000000E+01 0.  1.
        -11    1    1    2    0    0 -0.34125344714E+02  0.41260017982E+02 -0.23828390239E+03  0.24422560548E+03  0.00000000000E+00 0. -1.
         11    1    1    2    0    0 -0.36776821878E+02 -0.45352696476E+02 -0.18568491621E+03  0.19464914542E+03  0.00000000000E+00 0.  1.
</event>
<event>
 7    1  0.6992302E-006  0.2590567E+03  0.7561462E-02  0.1107711E+00
         -2   -1    0    0    0  501 -0.00000000000E+00  0.00000000000E+00  0.17687513709E+03  0.17687513709E+03  0.00000000000E+00 0.  1.
          2   -1    0    0  501    0  0.00000000000E+00 -0.00000000000E+00 -0.56512863101E+03  0.56512863101E+03  0.00000000000E+00 0. -1.
         23    2    1    2    0    0  0.11794841536E+03  0.22166563253E+03 -0.12428354492E+02  0.28080491800E+03  0.12509778833E+03 0.  0.
          5    1    3    3  502    0  0.25717645063E+02  0.14407150016E+03  0.36119664023E+02  0.15079819944E+03  0.41800000000E+01 0.  1.
         -5    1    3    3    0  502  0.92230770299E+02  0.77594132373E+02 -0.48548018515E+02  0.13000671856E+03  0.41800000000E+01 0.  1.
        -11    1    1    2    0    0 -0.79289887118E+02 -0.14673839979E+03 -0.16713633934E+03  0.23612200258E+03  0.00000000000E+00 0. -1.
         11    1    1    2    0    0 -0.38658528245E+02 -0.74927232738E+02 -0.20868880008E+03  0.22507684753E+03  0.00000000000E+00 0.  1.
</event>
<event>
 7    1  0.6992302E-006  0.1109026E+03  0.7561462E-02  0.1258907E+00
         -1   -1    0    0    0  501 -0.00000000000E+00  0.00000000000E+00  0.19164093371E+03  0.19164093371E+03  0.00000000000E+00 0.  1.
          1   -1    0    0  501    0  0.00000000000E+00 -0.00000000000E+00 -0.95441392307E+02  0.95441392307E+02  0.00000000000E+00 0. -1.
         23    2    1    2    0    0  0.65763020383E+02 -0.26005583719E+02  0.93393381066E+02  0.17137849552E+03  0.12508876794E+03 0.  0.
          5    1    3    3  502    0 -0.18746959576E+02 -0.14967325061E+02 -0.18557261694E+02  0.30615578949E+02  0.41800000000E+01 0.  1.
         -5    1    3    3    0  502  0.84509979959E+02 -0.11038258658E+02  0.11195064276E+03  0.14076291657E+03  0.41800000000E+01 0.  1.
        -11    1    1    2    0    0  0.15343488106E+02  0.26950975911E+02  0.13624836485E+02  0.33873498477E+02  0.00000000000E+00 0.  1.
         11    1    1    2    0    0 -0.81106508489E+02 -0.94539219225E+00 -0.10818676144E+02  0.81830332024E+02  0.00000000000E+00 0. -1.
</event>
<event>
 7    1  0.6992302E-006  0.1225409E+03  0.7561462E-02  0.1238963E+00
          1   -1    0    0  501    0  0.00000000000E+00  0.00000000000E+00  0.13490473462E+03  0.13490473462E+03  0.00000000000E+00 0. -1.
         -1   -1    0    0    0  501 -0.00000000000E+00 -0.00000000000E+00 -0.18752481037E+03  0.18752481037E+03  0.00000000000E+00 0.  1.
         23    2    1    2    0    0  0.85090931727E+02 -0.70311869656E+02 -0.62824776659E+02  0.17826363148E+03  0.12508694604E+03 0.  0.
          5    1    3    3  502    0  0.57079867301E+02 -0.17666239754E+02 -0.93524996758E+02  0.11106126551E+03  0.41800000000E+01 0. -1.
         -5    1    3    3    0  502  0.28011064426E+02 -0.52645629901E+02  0.30700220100E+02  0.67202365971E+02  0.41800000000E+01 0. -1.
        -11    1    1    2    0    0 -0.46489177844E+02  0.73178199895E+02  0.39843469359E+02  0.95413807423E+02  0.00000000000E+00 0. -1.
         11    1    1    2    0    0 -0.38601753883E+02 -0.28663302394E+01 -0.29638768459E+02  0.48752106084E+02  0.00000000000E+00 0.  1.
</event>
<event>
 7    1  0.6992302E-006  0.1548377E+03  0.7561462E-02  0.1194651E+00
         -1   -1    0    0    0  501 -0.00000000000E+00  0.00000000000E+00  0.94157419638E+02  0.94157419638E+02  0.00000000000E+00 0.  1.
          1   -1    0    0  501    0  0.00000000000E+00 -0.00000000000E+00 -0.31573651264E+03  0.31573651264E+03  0.00000000000E+00 0. -1.
         23    2    1    2    0    0 -0.35021924404E+02  0.12191854790E+03 -0.61032553345E+02  0.18831621135E+03  0.12508938954E+03 0.  0.
          5    1    3    3  502    0  0.23674029645E+02  0.27539766366E+01  0.21081939321E+02  0.32093062061E+02  0.41800000000E+01 0. -1.
         -5    1    3    3    0  502 -0.58695954049E+02  0.11916457126E+03 -0.82114492665E+02  0.15622314928E+03  0.41800000000E+01 0. -1.
        -11    1    1    2    0    0  0.59756419245E+02 -0.10985699771E+03 -0.13511552870E+03  0.18410756552E+03  0.00000000000E+00 0. -1.
         11    1    1    2    0    0 -0.24734494840E+02 -0.12061550192E+02 -0.25431010950E+02  0.37470155404E+02  0.00000000000E+00 0.  1.
</event>
<event>
 7    1  0.6992302E-006  0.2042514E+03  0.7561462E-02  0.1146201E+00
         -3   -1    0    0    0  501 -0.00000000000E+00  0.00000000000E+00  0.92127353246E+02  0.92127353246E+02  0.00000000000E+00 0.  1.
          3   -1    0    0  501    0  0.00000000000E+00 -0.00000000000E+00 -0.49877316651E+03  0.49877316651E+03  0.00000000000E+00 0. -1.
         23    2    1    2    0    0  0.71772164753E+02 -0.16886937691E+03 -0.18456375150E+03  0.28875480757E+03  0.12508976950E+03 0.  0.
          5    1    3    3  502    0  0.29712354940E+02  0.67126995396E+00  0.55727190850E+01  0.30525435909E+02  0.41800000000E+01 0.  1.
         -5    1    3    3    0  502  0.42059809813E+02 -0.16954064686E+03 -0.19013647059E+03  0.25822937166E+03  0.41800000000E+01 0.  1.
        -11    1    1    2    0    0  0.64315946636E+01  0.98035117304E+02 -0.12281256881E+03  0.15727420860E+03  0.00000000000E+00 0. -1.
         11    1    1    2    0    0 -0.78203759417E+02  0.70834259602E+02 -0.99269492956E+02  0.14487150359E+03  0.00000000000E+00 0.  1.
</event>
<event>
 6    1  0.6992302E-006  0.1522759E+03  0.7561462E-02  0.1197704E+00
          1   -1    0    0  501    0  0.00000000000E+00  0.00000000000E+00  0.52925732988E+03  0.52925732988E+03  0.00000000000E+00 0. -1.
         -1   -1    0    0    0  501 -0.00000000000E+00 -0.00000000000E+00 -0.99776549845E+02  0.99776549845E+02  0.00000000000E+00 0.  1.
          5    1    1    2  502    0  0.10914044914E+03  0.59466453517E+02  0.71034534548E+02  0.14321757654E+03  0.41800000000E+01 0. -1.
         -5    1    1    2    0  502  0.23152532556E+02 -0.39996594148E+02 -0.28137355996E+02  0.54267398220E+02  0.41800000000E+01 0.  1.
        -11    1    1    2    0    0 -0.39007370731E+02 -0.77533398769E+01  0.68583785967E+01  0.40357485149E+02  0.00000000000E+00 0.  1.
         11    1    1    2    0    0 -0.93285610960E+02 -0.11716519492E+02  0.37972522289E+03  0.39119141982E+03  0.00000000000E+00 0. -1.
</event>
<event>
 6    1  0.6992302E-006  0.1611974E+03  0.7561462E-02  0.1187352E+00
          1   -1    0    0  501    0  0.00000000000E+00  0.00000000000E+00  0.15792974316E+03  0.15792974316E+03  0.00000000000E+00 0. -1.
         -1   -1    0    0    0  501 -0.00000000000E+00 -0.00000000000E+00 -0.33333336732E+03  0.33333336732E+03  0.00000000000E+00 0.  1.
          5    1    1    2  502    0 -0.17898506392E+02 -0.53400887532E+01  0.25210102460E+02  0.31652720973E+02  0.41800000000E+01 0. -1.
         -5    1    1    2    0  502 -0.41116510567E+01  0.14326981041E+03 -0.24775502259E+03  0.28625717086E+03  0.41800000000E+01 0.  1.
        -11    1    1    2    0    0  0.48346588491E+02 -0.56917631777E+02 -0.25702368415E+01  0.74723594287E+02  0.00000000000E+00 0. -1.
         11    1    1    2    0    0 -0.26336431042E+02 -0.81012089879E+02  0.49711532814E+02  0.98629624360E+02  0.00000000000E+00 0.  1.
</event>
<event>
 7    1  0.6992302E-006  0.9063082E+02  0.7561462E-02  0.1301331E+00
         -1   -1    0    0    0  501 -0.00000000000E+00  0.00000000000E+00  0.64111427665E+02  0.64111427665E+02  0.00000000000E+00 0.  1.
          1   -1    0    0  501    0  0.00000000000E+00 -0.00000000000E+00 -0.23936412554E+03  0.23936412554E+03  0.00000000000E+00 0. -1.
         23    2    1    2    0    0  0.12729640436E+02  0.10306234077E+02 -0.25677237373E+02  0.12874574175E+03  0.12509149969E+03 0.  0.
          5    1    3    3  502    0  0.43078116921E+02  0.53547944809E+02  0.21593369378E+01  0.68885714678E+02  0.41800000000E+01 0.  1.
         -5    1    3    3    0  502 -0.30348476485E+02 -0.43241710732E+02 -0.27836574310E+02  0.59860027074E+02  0.41800000000E+01 0.  1.
        -11    1    1    2    0    0  0.14768700176E+02 -0.24395980770E+02 -0.13926821428E+03  0.14215805953E+03  0.00000000000E+00 0. -1.
         11    1    1    2    0    0 -0.27498340612E+02  0.14089746693E+02 -0.10307246224E+02  0.32571751918E+02  0.00000000000E+00 0.  1.
</event>
<event>
 7    1  0.6992302E-006  0.9675786E+02  0.7561462E-02  0.1287265E+00
          2   -1    0    0  501    0  0.00000000000E+00  0.00000000000E+00  0.21550554689E+03  0.21550554689E+03  0.00000000000E+00 0. -1.
         -2   -1    0    0    0  501 -0.00000000000E+00 -0.00000000000E+00 -0.66209948816E+02  0.66209948816E+02  0.00000000000E+00 0.  1.
         23    2    1    2    0    0 -0.14091195904E+02 -0.18892413338E+01  0.26918871603E+02  0.12874342306E+03  0.12509241503E+03 0.  0.
          5    1    3    3  502    0  0.54302354783E+02 -0.13434966033E+01  0.25631609496E+02  0.60207993850E+02  0.41800000000E+01 0.  1.
         -5    1    3    3    0  502 -0.68393550687E+02 -0.54574473055E+00  0.12872621071E+01  0.68535429207E+02  0.41800000000E+01 0.  1.
        -11    1    1    2    0    0  0.19955105843E+02 -0.31130070284E+02  0.14021886202E+02  0.39546185881E+02  0.00000000000E+00 0.  1.
         11    1    1    2    0    0 -0.58639099389E+01  0.33019311618E+02  0.10835484027E+03  0.11342588677E+03  0.00000000000E+00 0. -1.
</event>
<event>
 7    1  0.6992302E-006  0.1149613E+03  0.7561462E-02  0.1251649E+00
          1   -1    0    0  501    0  0.00000000000E+00  0.00000000000E+00  0.32450451522E+03  0.32450451522E+03  0.00000000000E+00 0. -1.
         -1   -1    0    0    0  501 -0.00000000000E+00 -0.00000000000E+00 -0.48197575899E+02  0.48197575899E+02  0.00000000000E+00 0.  1.
         23    2    1    2    0    0 -0.36654598814E+02  0.40396363940E+02  0.11156132867E+03  0.17626100049E+03  0.12508630783E+03 0.  0.
          5    1    3    3  502    0 -0.72240456416E+02  0.83026551789E+00  0.29029299673E+02  0.77971440435E+02  0.41800000000E+01 0. -1.
         -5    1    3    3    0  502  0.35585857602E+02  0.39566098422E+02  0.82532029001E+02  0.98289560059E+02  0.41800000000E+01 0. -1.
        -11    1    1    2    0    0 -0.30955860877E+01 -0.59844840997E+02  0.71970213883E+02  0.93652011903E+02  0.00000000000E+00 0.  1.
         11    1    1    2    0    0  0.39750184901E+02  0.19448477057E+02  0.92775396767E+02  0.10278907872E+03  0.00000000000E+00 0. -1.
</event>
<event>
 7    1  0.6992302E-006  0.8714661E+02  0.7561462E-02  0.1309913E+00
         -1   -1    0    0    0  501 -0.00000000000E+00  0.00000000000E+00  0.20379286408E+03  0.20379286408E+03  0.00000000000E+00 0.  1.
          1   -1    0    0  501    0  0.00000000000E+00 -0.00000000000E+00 -0.69420588432E+02  0.69420588432E+02  0.00000000000E+00 0. -1.
         23    2    1    2    0    0  0.37825813984E+02  0.63325901234E+01  0.10912370270E+03  0.17036124568E+03  0.12507628727E+03 0.  0.
          5    1    3    3  502    0  0.79179184135E+02  0.21849340737E+02  0.49325615664E+02  0.95902167084E+02  0.41800000000E+01 0. -1.
         -5    1    3    3    0  502 -0.41353370151E+02 -0.15516750613E+02  0.59798087037E+02  0.74459078598E+02  0.41800000000E+01 0. -1.
        -11    1    1    2    0    0 -0.31641476603E+02  0.75105557212E+01  0.58149696363E+02  0.66625660793E+02  0.00000000000E+00 0.  1.
         11    1    1    2    0    0 -0.61843373805E+01 -0.13843145845E+02 -0.32901123416E+02  0.36226546037E+02  0.00000000000E+00 0. -1.
</event>
<event>
 7    1  0.6992302E-006  0.8476486E+02  0.7561462E-02  0.1316049E+00
          1   -1    0    0  501    0  0.00000000000E+00  0.00000000000E+00  0.25375714036E+02  0.25375714036E+02  0.00000000000E+00 0. -1.
         -1   -1    0    0    0  501 -0.00000000000E+00 -0.00000000000E+00 -0.49350887385E+03  0.49350887385E+03  0.00000000000E+00 0.  1.
         23    2    1    2    0    0  0.14366117821E+02  0.96699354627E+00 -0.36180186924E+03  0.38308764404E+03  0.12509288552E+03 0.  0.
          5    1    3    3  502    0  0.17899313318E+02 -0.59405849620E+02 -0.14076179719E+03  0.15388565994E+03  0.41800000000E+01 0. -1.
         -5    1    3    3    0  502 -0.35331954970E+01  0.60372843166E+02 -0.22104007205E+03  0.22920198410E+03  0.41800000000E+01 0. -1.
        -11    1    1    2    0    0  0.61446400790E+01 -0.18654760362E+02 -0.10691747959E+03  0.10870650453E+03  0.00000000000E+00 0.  1.
         11    1    1    2    0    0 -0.20510757900E+02  0.17687766816E+02  0.58618902265E+00  0.27090439312E+02  0.00000000000E+00 0. -1.
</event>
<event>
 7    1  0.6992302E-006  0.1103294E+03  0.7561462E-02  0.1259961E+00
          1   -1    0    0  501    0  0.00000000000E+00  0.00000000000E+00  0.12041903890E+02  0.12041903890E+02  0.00000000000E+00 0. -1.
         -1   -1    0    0    0  501 -0.00000000000E+00 -0.00000000000E+00 -0.12857835877E+04  0.12857835877E+04  0.00000000000E+00 0.  1.
         23    2    1    2    0    0  0.36044076932E+02 -0.12338831775E+02 -0.96316166412E+03  0.97199748667E+03  0.12508917067E+03 0.  0.
          5    1    3    3  502    0 -0.42761745113E+02  0.63987023235E+01 -0.20769308837E+03  0.21218718527E+03  0.41800000000E+01 0.  1.
         -5    1    3    3    0  502  0.78805822045E+02 -0.18737534098E+02 -0.75546857575E+03  0.75981030141E+03  0.41800000000E+01 0.  1.
        -11    1    1    2    0    0  0.24925353847E+02  0.23348789626E+02 -0.14681779042E+03  0.15073786129E+03  0.00000000000E+00 0.  1.
         11    1    1    2    0    0 -0.60969430779E+02 -0.11009957851E+02 -0.16376222931E+03  0.17509014367E+03  0.00000000000E+00 0. -1.
</event>
<event>
 7    1  0.6992302E-006  0.1437689E+03  0.7561462E-02  0.1208346E+00
         -3   -1    0    0    0  501 -0.00000000000E+00  0.00000000000E+00  0.99843130339E+02  0.99843130339E+02  0.00000000000E+00 0.  1.
          3   -1    0    0  501    0  0.00000000000E+00 -0.00000000000E+00 -0.26486600508E+03  0.26486600508E+03  0.00000000000E+00 0. -1.
         23    2    1    2    0    0 -0.62367188923E+02 -0.10362265522E+03 -0.89398960781E+02  0.19561788363E+03  0.12508741455E+03 0.  0.
          5    1    3    3  502    0 -0.63962448916E+02 -0.12209133308E+03 -0.10311251991E+03  0.17218348541E+03  0.41800000000E+01 0. -1.
         -5    1    3    3    0  502  0.15952599934E+01  0.18468677858E+02  0.13713559126E+02  0.23434398225E+02  0.41800000000E+01 0. -1.
        -11    1    1    2    0    0 -0.75435246039E+01  0.21527736405E+02  0.15777633580E+02  0.27735931921E+02  0.00000000000E+00 0.  1.
         11    1    1    2    0    0  0.69910713527E+02  0.82094918820E+02 -0.91401547540E+02  0.14135531987E+03  0.00000000000E+00 0. -1.
</event>
<event>
 7    1  0.6992302E-006  0.1289856E+03  0.7561462E-02  0.1228969E+00
         -4   -1    0    0    0  501 -0.00000000000E+00  0.00000000000E+00  0.10152102542E+03  0.10152102542E+03  0.00000000000E+00 0. -1.
          4   -1    0    0  501    0  0.00000000000E+00 -0.00000000000E+00 -0.30998454473E+03  0.30998454473E+03  0.00000000000E+00 0.  1.
         23    2    1    2    0    0  0.10282400613E+03  0.40777921923E+02 -0.12659456155E+02  0.16747356355E+03  0.12510602505E+03 0.  0.
          5    1    3    3  502    0  0.40630398361E+02  0.40765946300E+02 -0.64393495529E+02  0.86467833991E+02  0.41800000000E+01 0.  1.
         -5    1    3    3    0  502  0.62193607771E+02  0.11975623288E-01  0.51734039374E+02  0.81005729556E+02  0.41800000000E+01 0.  1.
        -11    1    1    2    0    0 -0.11663131972E+03 -0.30038047347E+02 -0.19115502200E+03  0.22593227185E+03  0.00000000000E+00 0.  1.
         11    1    1    2    0    0  0.13807313588E+02 -0.10739874576E+02 -0.46490411580E+01  0.18099734753E+02  0.00000000000E+00 0. -1.
</event>
<event>
 7    1  0.6992302E-006  0.2043264E+03  0.7561462E-02  0.1146139E+00
          2   -1    0    0  501    0  0.00000000000E+00  0.00000000000E+00  0.81774135664E+03  0.81774135664E+03  0.00000000000E+00 0.  1.
         -2   -1    0    0    0  501 -0.00000000000E+00 -0.00000000000E+00 -0.57415478886E+02  0.57415478886E+02  0.00000000000E+00 0. -1.
         23    2    1    2    0    0  0.15935445070E+03  0.94655876347E+02  0.34548892835E+03  0.41153846317E+03  0.12509089165E+03 0.  0.
          5    1    3    3  502    0  0.12006461885E+03 -0.22143715833E+00  0.20229257190E+03  0.23527711061E+03  0.41800000000E+01 0.  1.
         -5    1    3    3    0  502  0.39289831851E+02  0.94877313505E+02  0.14319635645E+03  0.17626135256E+03  0.41800000000E+01 0.  1.
        -11    1    1    2    0    0 -0.13841542258E+03 -0.77266589901E+02  0.40458767007E+03  0.43453439208E+03  0.00000000000E+00 0.  1.
         11    1    1    2    0    0 -0.20939028122E+02 -0.17389286446E+02  0.10249279333E+02  0.29083980275E+02  0.00000000000E+00 0. -1.
</event>
<event>
 7    1  0.6992302E-006  0.1197954E+03  0.7561462E-02  0.1243435E+00
          2   -1    0    0  501    0  0.00000000000E+00  0.00000000000E+00  0.71344991729E+03  0.71344991729E+03  0.00000000000E+00 0. -1.
         -2   -1    0    0    0  501 -0.00000000000E+00 -0.00000000000E+00 -0.26444273138E+02  0.26444273138E+02  0.00000000000E+00 0.  1.
         23    2    1    2    0    0  0.78751019720E+02 -0.48705854871E+01  0.30188783095E+03  0.33616942447E+03  0.12509266070E+03 0.  0.
          5    1    3    3  502    0  0.84209258079E+02 -0.50303690971E+02  0.23816060914E+03  0.25760358813E+03  0.41800000000E+01 0.  1.
         -5    1    3    3    0  502 -0.54582383592E+01  0.45433105484E+02  0.63727221806E+02  0.78565836335E+02  0.41800000000E+01 0.  1.
        -11    1    1    2    0    0 -0.75706956832E+02  0.21384585000E+02  0.37691276352E+03  0.38503516085E+03  0.00000000000E+00 0. -1.
         11    1    1    2    0    0 -0.30440628874E+01 -0.16513999513E+02  0.82050496842E+01  0.18689605108E+02  0.00000000000E+00 0.  1.
</event>
<event>
 7    1  0.6992302E-006  0.1155582E+03  0.7561462E-02  0.1250610E+00
          2   -1    0    0  501    0  0.00000000000E+00  0.00000000000E+00  0.12222553784E+03  0.12222553784E+03  0.00000000000E+00 0. -1.
         -2   -1    0    0    0  501 -0.00000000000E+00 -0.00000000000E+00 -0.18325500511E+03  0.18325500511E+03  0.00000000000E+00 0.  1.
         23    2    1    2    0    0 -0.25442994416E+02  0.10020645660E+03 -0.43946328531E+02  0.16813191084E+03  0.12509348401E+03 0.  0.
          5    1    3    3  502    0  0.22036096507E+02  0.32506586125E+02  0.35706962089E+02  0.53242156534E+02  0.41800000000E+01 0.  1.
         -5    1    3    3    0  502 -0.47479090923E+02  0.67699870473E+02 -0.79653290620E+02  0.11488975430E+03  0.41800000000E+01 0.  1.
        -11    1    1    2    0    0  0.25005570682E+02 -0.31959403876E+02  0.33319543460E+02  0.52505942879E+02  0.00000000000E+00 0. -1.
         11    1    1    2    0    0  0.43742373478E+00 -0.68247052723E+02 -0.50402682189E+02  0.84842689235E+02  0.00000000000E+00 0.  1.
</event>
<event>
 7    1  0.6992302E-006  0.9518883E+02  0.7561462E-02  0.1290751E+00
          2   -1    0    0  501    0  0.00000000000E+00  0.00000000000E+00  0.48584983234E+03  0.48584983234E+03  0.00000000000E+00 0. -1.
         -2   -1    0    0    0  501 -0.00000000000E+00 -0.00000000000E+00 -0.27281159735E+02  0.27281159735E+02  0.00000000000E+00 0.  1.
         23    2    1    2    0    0  0.13740104583E+02 -0.21631835157E+02  0.20538604070E+03  0.24184527656E+03  0.12509590447E+03 0.  0.
          5    1    3    3  502    0 -0.46017380937E+02  0.95056484469E+01  0.35511162719E+02  0.59046352795E+02  0.41800000000E+01 0.  1.
         -5    1    3    3    0  502  0.59757485520E+02 -0.31137483604E+02  0.16987487798E+03  0.18279892376E+03  0.41800000000E+01 0.  1.
        -11    1    1    2    0    0 -0.71712032340E+01 -0.26325783368E+02  0.21885661993E+02  0.34977924847E+02  0.00000000000E+00 0.  1.
         11    1    1    2    0    0 -0.65689013490E+01  0.47957618525E+02  0.23129696992E+03  0.23630779067E+03  0.00000000000E+00 0. -1.
</event>
<event>
 7    1  0.6992302E-006  0.9978302E+02  0.7561462E-02  0.1280753E+00
         -4   -1    0    0    0  501 -0.00000000000E+00  0.00000000000E+00  0.94623099898E+02  0.94623099898E+02  0.00000000000E+00 0.  1.
          4   -1    0    0  501    0  0.00000000000E+00 -0.00000000000E+00 -0.14810261559E+03  0.14810261559E+03  0.00000000000E+00 0. -1.
         23    2    1    2    0    0 -0.16468801678E+02 -0.42165828522E+02 -0.15352651197E+02  0.13390499628E+03  0.12508263511E+03 0.  0.
          5    1    3    3  502    0  0.10653435346E+02 -0.78505686082E+02  0.12809186266E+02  0.80362840198E+02  0.41800000000E+01 0. -1.
         -5    1    3    3    0  502 -0.27122237024E+02  0.36339857560E+02 -0.28161837463E+02  0.53542156082E+02  0.41800000000E+01 0. -1.
        -11    1    1    2    0    0  0.33908852733E+02  0.58543582313E+01  0.18700932131E+02  0.39163869402E+02  0.00000000000E+00 0.  1.
         11    1    1    2    0    0 -0.17440051055E+02  0.36311470291E+02 -0.56827796621E+02  0.69656849802E+02  0.00000000000E+00 0. -1.
</event>
<event>
 7    1  0.6992302E-006  0.1000101E+03  0.7561462E-02  0.1280275E+00
          1   -1    0    0  501    0  0.00000000000E+00  0.00000000000E+00  0.10008471514E+03  0.10008471514E+03  0.00000000000E+00 0. -1.
         -1   -1    0    0    0  501 -0.00000000000E+00 -0.00000000000E+00 -0.13517403737E+03  0.13517403737E+03  0.00000000000E+00 0.  1.
         23    2    1    2    0    0 -0.73733972587E+01 -0.40962254275E+02 -0.97583973754E+01  0.13219484901E+03  0.12509188033E+03 0.  0.
          5    1    3    3  502    0  0.18987104059E+01  0.30755278135E+02  0.35179270008E+02  0.46952589627E+02  0.41800000000E+01 0. -1.
         -5    1    3    3    0  502 -0.92721076646E+01 -0.71717532409E+02 -0.44937667384E+02  0.85242259386E+02  0.41800000000E+01 0. -1.
        -11    1    1    2    0    0 -0.32898998659E+02 -0.72309156054E+01  0.36756381352E+01  0.33884223009E+02  0.00000000000E+00 0. -1.
         11    1    1    2    0    0  0.40272395917E+02  0.48193169880E+02 -0.29006562983E+02  0.69179680486E+02  0.00000000000E+00 0.  1.
</event>
<event>
 7    1  0.6992302E-006  0.1888548E+03  0.7561462E-02  0.1159498E+00
          2   -1    0    0  501    0  0.00000000000E+00  0.00000000000E+00  0.19007009811E+03  0.19007009811E+03  0.00000000000E+00 0. -1.
         -2   -1    0    0    0  501 -0.00000000000E+00 -0.00000000000E+00 -0.21841532644E+03  0.21841532644E+03  0.00000000000E+00 0.  1.
         23    2    1    2    0    0  0.63198291789E+02 -0.16326268688E+03 -0.69582694058E+01  0.21527926793E+03  0.12509203282E+03 0.  0.
          5    1    3    3  502    0 -0.11398430728E+02  0.21336385003E+00  0.29479894750E+02  0.31882696587E+02  0.41800000000E+01 0.  1.
         -5    1    3    3    0  502  0.74596722517E+02 -0.16347605073E+03 -0.36438164156E+02  0.18339657134E+03  0.41800000000E+01 0.  1.
        -11    1    1    2    0    0  0.11992768312E+02  0.36739041408E+02 -0.24918528355E+02  0.45983874464E+02  0.00000000000E+00 0.  1.
         11    1    1    2    0    0 -0.75191060102E+02  0.12652364547E+03  0.35315694252E+01  0.14722228216E+03  0.00000000000E+00 0. -1.
</event>
<event>
 7    1  0.6992302E-006  0.1397098E+03  0.7561462E-02  0.1213720E+00
          1   -1    0    0  501    0  0.00000000000E+00  0.00000000000E+00  0.10585368852E+03  0.10585368852E+03  0.00000000000E+00 0. -1.
         -1   -1    0    0    0  501 -0.00000000000E+00 -0.00000000000E+00 -0.27582257427E+03  0.27582257427E+03  0.00000000000E+00 0.  1.
         23    2    1    2    0    0 -0.94335425490E+02  0.71732455750E+02 -0.15414838001E+03  0.23120380334E+03  0.12509499554E+03 0.  0.
          5    1    3    3  502    0 -0.25318967813E+02  0.86332785278E+02 -0.43761921215E+02  0.10013479961E+03  0.41800000000E+01 0.  1.
         -5    1    3    3    0  502 -0.69016457677E+02 -0.14600329529E+02 -0.11038645879E+03  0.13106900372E+03  0.41800000000E+01 0.  1.
        -11    1    1    2    0    0  0.28415234475E+02 -0.25390765550E+02 -0.50065718173E+02  0.62918142547E+02  0.00000000000E+00 0.  1.
         11    1    1    2    0    0  0.65920191015E+02 -0.46341690200E+02  0.34245212434E+02  0.87554316905E+02  0.00000000000E+00 0. -1.
</event>
<event>
 7    1  0.6992302E-006  0.9792637E+02  0.7561462E-02  0.1284718E+00
          1   -1    0    0  501    0  0.00000000000E+00  0.00000000000E+00  0.44618827569E+03  0.44618827569E+03  0.00000000000E+00 0. -1.
         -1   -1    0    0    0  501 -0.00000000000E+00 -0.00000000000E+00 -0.31307810307E+02  0.31307810307E+02  0.00000000000E+00 0.  1.
         23    2    1    2    0    0  0.40632172137E+01  0.43213874183E+02  0.19725878302E+03  0.23757141825E+03  0.12508078444E+03 0.  0.
          5    1    3    3  502    0 -0.21864678130E+02  0.70651054793E+02  0.18225743087E+03  0.19673555653E+03  0.41800000000E+01 0. -1.
         -5    1    3    3    0  502  0.25927895344E+02 -0.27437180610E+02  0.15001352147E+02  0.40835861728E+02  0.41800000000E+01 0. -1.
        -11    1    1    2    0    0 -0.75603192897E+01  0.19537023407E+02  0.10412366304E+02  0.23393825754E+02  0.00000000000E+00 0.  1.
         11    1    1    2    0    0  0.34971020760E+01 -0.62750897590E+02  0.20720931606E+03  0.21653084199E+03  0.00000000000E+00 0. -1.
</event>
<event>
 7    1  0.6992302E-006  0.9818874E+02  0.7561462E-02  0.1284152E+00
         -2   -1    0    0    0  501 -0.00000000000E+00  0.00000000000E+00  0.10082563925E+03  0.10082563925E+03  0.00000000000E+00 0. -1.
          2   -1    0    0  501    0  0.00000000000E+00 -0.00000000000E+00 -0.18403458754E+03  0.18403458754E+03  0.00000000000E+00 0.  1.
         23    2    1    2    0    0 -0.41162394508E+01  0.28706237458E+02  0.36296913096E+02  0.13343343737E+03  0.12508407097E+03 0.  0.
          5    1    3    3  502    0 -0.10541973799E+02 -0.36864510627E+02  0.52797923053E+02  0.65385154539E+02  0.41800000000E+01 0. -1.
         -5    1    3    3    0  502  0.64257343486E+01  0.65570748086E+02 -0.16501009957E+02  0.68048282830E+02  0.41800000000E+01 0. -1.
        -11    1    1    2    0    0 -0.15908668535E+02 -0.55843319869E+02 -0.86919614935E+02  0.10453029020E+03  0.00000000000E+00 0. -1.
         11    1    1    2    0    0  0.20024907986E+02  0.27137082410E+02 -0.32586246449E+02  0.46896499221E+02  0.00000000000E+00 0.  1.
</event>
<event>
 7    1  0.6992302E-006  0.1018068E+03  0.7561462E-02  0.1276542E+00
         -1   -1    0    0    0  501 -0.00000000000E+00  0.00000000000E+00  0.13898300934E+02  0.13898300934E+02  0.00000000000E+00 0.  1.
          1   -1    0    0  501    0  0.00000000000E+00 -0.00000000000E+00 -0.76854651640E+03  0.76854651640E+03  0.00000000000E+00 0. -1.
         23    2    1    2    0    0  0.19348532797E+02  0.12762098911E+01 -0.35451768531E+03  0.37169893459E+03  0.11000597414E+03 0.  0.
          5    1    3    3  502    0  0.27581632091E+02  0.52421314850E+02 -0.17435356103E+03  0.18418842885E+03  0.41800000000E+01 0. -1.
         -5    1    3    3    0  502 -0.82330992944E+01 -0.51145104958E+02 -0.18016412428E+03  0.18751050574E+03  0.41800000000E+01 0.  1.
        -11    1    1    2    0    0 -0.81608649122E+01 -0.45713299392E+02 -0.17970510968E+03  0.18560773664E+03  0.00000000000E+00 0.  1.
         11    1    1    2    0    0 -0.11187667884E+02  0.44437089501E+02 -0.22042542048E+03  0.22513814610E+03  0.00000000000E+00 0. -1.
</event>
<event>
 7    1  0.6992302E-006  0.1785458E+03  0.7561462E-02  0.1169218E+00
         -3   -1    0    0    0  501 -0.00000000000E+00  0.00000000000E+00  0.42891293671E+02  0.42891293671E+02  0.00000000000E+00 0.  1.
          3   -1    0    0  501    0  0.00000000000E+00 -0.00000000000E+00 -0.93299779772E+03  0.93299779772E+03  0.00000000000E+00 0. -1.
         23    2    1    2    0    0  0.72342171649E+02 -0.14395925120E+03 -0.35426502962E+03  0.40878937138E+03  0.12508950050E+03 0.  0.
          5    1    3    3  502    0  0.66547359155E+02 -0.15295906633E+03 -0.35936730178E+03  0.39621630073E+03  0.41800000000E+01 0. -1.
         -5    1    3    3    0  502  0.57948124940E+01  0.89998151281E+01  0.51022721587E+01  0.12573070642E+02  0.41800000000E+01 0. -1.
        -11    1    1    2    0    0 -0.15000703619E+02  0.11218465264E+03 -0.25986029757E+03  0.28343922038E+03  0.00000000000E+00 0.  1.
         11    1    1    2    0    0 -0.57341468030E+02  0.31774598553E+02 -0.27598117687E+03  0.28366049964E+03  0.00000000000E+00 0. -1.
</event>
<event>
 7    1  0.6992302E-006  0.6799670E+02  0.7561462E-02  0.1367041E+00
         -4   -1    0    0    0  501 -0.00000000000E+00  0.00000000000E+00  0.16312877807E+04  0.16312877807E+04  0.00000000000E+00 0.  1.
          4   -1    0    0  501    0  0.00000000000E+00 -0.00000000000E+00 -0.15835489054E+02  0.15835489054E+02  0.00000000000E+00 0. -1.
         23    2    1    2    0    0 -0.32706785858E+02  0.73136701023E+01  0.16011949448E+04  0.16054321238E+04  0.11164152144E+03 0.  0.
          5    1    3    3  502    0 -0.20820780775E+02  0.51724663038E+02  0.47305083208E+03  0.47634389658E+03  0.41800000000E+01 0. -1.
         -5    1    3    3    0  502 -0.11886005083E+02 -0.44410992936E+02  0.11281441128E+04  0.11290882273E+04  0.41800000000E+01 0.  1.
        -11    1    1    2    0    0  0.17038584953E+02 -0.11466157644E+01  0.17601258296E+02  0.24524118711E+02  0.00000000000E+00 0.  1.
         11    1    1    2    0    0  0.15668200905E+02 -0.61670543379E+01 -0.33439114827E+01  0.17167027198E+02  0.00000000000E+00 0. -1.
</event>
<event>
 7    1  0.6992302E-006  0.1283192E+03  0.7561462E-02  0.1229971E+00
          1   -1    0    0  501    0  0.00000000000E+00  0.00000000000E+00  0.93845336357E+02  0.93845336357E+02  0.00000000000E+00 0. -1.
         -1   -1    0    0    0  501 -0.00000000000E+00 -0.00000000000E+00 -0.24617379756E+03  0.24617379756E+03  0.00000000000E+00 0.  1.
         23    2    1    2    0    0  0.75113343527E+02 -0.40962976398E+02 -0.15401314644E+03  0.21607231161E+03  0.12508882746E+03 0.  0.
          5    1    3    3  502    0  0.10651255879E+03 -0.48008411672E+02 -0.13450314820E+03  0.17820859139E+03  0.41800000000E+01 0. -1.
         -5    1    3    3    0  502 -0.31399215259E+02  0.70454352734E+01 -0.19509998242E+02  0.37863720214E+02  0.41800000000E+01 0. -1.
        -11    1    1    2    0    0  0.11488703291E+02  0.20465322252E-01 -0.22398724738E+02  0.25173271381E+02  0.00000000000E+00 0.  1.
         11    1    1    2    0    0 -0.86602046818E+02  0.40942511076E+02  0.24083409979E+02  0.98773550926E+02  0.00000000000E+00 0. -1.
</event>
<event>
 6    1  0.6992302E-006  0.1058733E+03  0.7561462E-02  0.1268409E+00
          2   -1    0    0  501    0  0.00000000000E+00  0.00000000000E+00  0.42672549573E+03  0.42672549573E+03  0.00000000000E+00 0. -1.
         -2   -1    0    0    0  501 -0.00000000000E+00 -0.00000000000E+00 -0.37219950326E+02  0.37219950326E+02  0.00000000000E+00 0.  1.
          5    1    1    2  502    0 -0.12400883639E+02  0.97590335953E+02  0.20777394278E+03  0.22992420335E+03  0.41800000000E+01 0. -1.
         -5    1    1    2    0  502  0.91297700042E+01 -0.83479423679E+02  0.47401798949E+02  0.96522379901E+02  0.41800000000E+01 0.  1.
        -11    1    1    2    0    0 -0.10675872184E+02 -0.10082732408E+02  0.74458484691E+02  0.75892698478E+02  0.00000000000E+00 0.  1.
         11    1    1    2    0    0  0.13946985820E+02 -0.40281798655E+01  0.59871318983E+02  0.61606164328E+02  0.00000000000E+00 0. -1.
</event>
<event>
 6    1  0.6992302E-006  0.2421696E+03  0.7561462E-02  0.1118356E+00
          2   -1    0    0  501    0  0.00000000000E+00  0.00000000000E+00  0.11510533533E+04  0.11510533533E+04  0.00000000000E+00 0. -1.
         -2   -1    0    0    0  501 -0.00000000000E+00 -0.00000000000E+00 -0.61263474209E+02  0.61263474209E+02  0.00000000000E+00 0.  1.
          5    1    1    2  502    0 -0.39934374537E+02 -0.63272137097E+02  0.11893484905E+03  0.14057413817E+03  0.41800000000E+01 0. -1.
         -5    1    1    2    0  502  0.11683853729E+03 -0.14554687949E+03  0.25174175555E+03  0.31341110672E+03  0.41800000000E+01 0.  1.
        -11    1    1    2    0    0 -0.27806665186E+02  0.63402114338E+02  0.10835681245E+03  0.12858552615E+03  0.00000000000E+00 0.  1.
         11    1    1    2    0    0 -0.49097497571E+02  0.14541690225E+03  0.61075646203E+03  0.62974605647E+03  0.00000000000E+00 0. -1.
</event>
<event>
 7    1  0.6992302E-006  0.1047675E+03  0.7561462E-02  0.1270578E+00
          2   -1    0    0  501    0  0.00000000000E+00  0.00000000000E+00  0.61978123235E+03  0.61978123235E+03  0.00000000000E+00 0. -1.
         -2   -1    0    0    0  501 -0.00000000000E+00 -0.00000000000E+00 -0.26652090478E+02  0.26652090478E+02  0.00000000000E+00 0.  1.
         23    2    1    2    0    0  0.35557097832E+01 -0.60032559944E+02  0.22848156464E+03  0.26733507618E+03  0.12509063216E+03 0.  0.
          5    1    3    3  502    0 -0.29660855630E+02 -0.66885305037E+02  0.57995217097E+02  0.93457626723E+02  0.41800000000E+01 0.  1.
         -5    1    3    3    0  502  0.33216565414E+02  0.68527450922E+01  0.17048634754E+03  0.17387744946E+03  0.41800000000E+01 0.  1.
        -11    1    1    2    0    0  0.39467996930E+02  0.26703736077E+02  0.20365020110E+03  0.20915118147E+03  0.00000000000E+00 0.  1.
         11    1    1    2    0    0 -0.43023706713E+02  0.33328823867E+02  0.16099737613E+03  0.16994706518E+03  0.00000000000E+00 0. -1.
</event>
<event>
 7    1  0.6992302E-006  0.1132419E+03  0.7561462E-02  0.1254682E+00
         -2   -1    0    0    0  501 -0.00000000000E+00  0.00000000000E+00  0.43487919434E+02  0.43487919434E+02  0.00000000000E+00 0.  1.
          2   -1    0    0  501    0  0.00000000000E+00 -0.00000000000E+00 -0.34155005380E+03  0.34155005380E+03  0.00000000000E+00 0. -1.
         23    2    1    2    0    0  0.25221249496E+02 -0.26173921272E+02 -0.10536673063E+03  0.16755173104E+03  0.12510095551E+03 0.  0.
          5    1    3    3  502    0  0.75607162331E+02 -0.22313948490E+02 -0.56036609167E+02  0.96808725123E+02  0.41800000000E+01 0. -1.
         -5    1    3    3    0  502 -0.50385912835E+02 -0.38599727819E+01 -0.49330121466E+02  0.70743005916E+02  0.41800000000E+01 0. -1.
        -11    1    1    2    0    0  0.33436220869E+02  0.16849150275E+02 -0.46593407645E+02  0.59773073929E+02  0.00000000000E+00 0.  1.
         11    1    1    2    0    0 -0.58657470365E+02  0.93247709973E+01 -0.14610199609E+03  0.15771316827E+03  0.00000000000E+00 0. -1.
</event>
<event>
 7    1  0.6992302E-006  0.1224037E+03  0.7561462E-02  0.1239184E+00
         -2   -1    0    0    0  501 -0.00000000000E+00  0.00000000000E+00  0.21477846053E+02  0.21477846053E+02  0.00000000000E+00 0.  1.
          2   -1    0    0  501    0  0.00000000000E+00 -0.00000000000E+00 -0.86516186506E+03  0.86516186506E+03  0.00000000000E+00 0. -1.
         23    2    1    2    0    0 -0.48138072957E+02  0.57348164222E+02 -0.34890950500E+03  0.37814229708E+03  0.12509063974E+03 0.  0.
          5    1    3    3  502    0 -0.82308333361E+02  0.57009501890E+02 -0.18244086220E+03  0.20815111253E+03  0.41800000000E+01 0.  1.
         -5    1    3    3    0  502  0.34170260404E+02  0.33866233125E+00 -0.16646864280E+03  0.16999118455E+03  0.41800000000E+01 0.  1.
        -11    1    1    2    0    0  0.14815288572E+02  0.20613554903E+02 -0.54347126026E+02  0.59983510471E+02  0.00000000000E+00 0.  1.
         11    1    1    2    0    0  0.33322784385E+02 -0.77961719124E+02 -0.44042738797E+03  0.44851390356E+03  0.00000000000E+00 0. -1.
</event>
<event>
 7    1  0.6992302E-006  0.1437783E+03  0.7561462E-02  0.1208334E+00
          2   -1    0    0  501    0  0.00000000000E+00  0.00000000000E+00  0.57701018206E+03  0.57701018206E+03  0.00000000000E+00 0. -1.
         -2   -1    0    0    0  501 -0.00000000000E+00 -0.00000000000E+00 -0.42075288521E+02  0.42075288521E+02  0.00000000000E+00 0.  1.
         23    2    1    2    0    0  0.85563950326E+02  0.69298895528E+02  0.25845781997E+03  0.30751728209E+03  0.12507160973E+03 0.  0.
          5    1    3    3  502    0  0.35197342895E+01  0.82485016726E+02  0.14352794187E+03  0.16563184782E+03  0.41800000000E+01 0. -1.
         -5    1    3    3    0  502  0.82044216036E+02 -0.13186121198E+02  0.11492987810E+03  0.14188543427E+03  0.41800000000E+01 0. -1.
        -11    1    1    2    0    0 -0.69104739179E+02 -0.23450491341E+02  0.23961148971E+03  0.25047765673E+03  0.00000000000E+00 0. -1.
         11    1    1    2    0    0 -0.16459211147E+02 -0.45848404187E+02  0.36865583859E+02  0.61090531765E+02  0.00000000000E+00 0.  1.
</event>
<event>
 7    1  0.6992302E-006  0.1747285E+03  0.7561462E-02  0.1173005E+00
         -1   -1    0    0    0  501 -0.00000000000E+00  0.00000000000E+00  0.60549909776E+03  0.60549909776E+03  0.00000000000E+00 0.  1.
          1   -1    0    0  501    0  0.00000000000E+00 -0.00000000000E+00 -0.58617285433E+02  0.58617285433E+02  0.00000000000E+00 0. -1.
         23    2    1    2    0    0 -0.64317727407E+02 -0.12448689292E+03  0.39951482858E+03  0.44146837347E+03  0.12509384457E+03 0.  0.
          5    1    3    3  502    0  0.23827810513E+02 -0.80760359070E+02  0.23575764655E+03  0.25037799516E+03  0.41800000000E+01 0. -1.
         -5    1    3    3    0  502 -0.88145537919E+02 -0.43726533846E+02  0.16375718203E+03  0.19109037831E+03  0.41800000000E+01 0. -1.
        -11    1    1    2    0    0  0.29432025723E+02  0.12824546247E+03  0.12100669548E+03  0.17876174964E+03  0.00000000000E+00 0.  1.
         11    1    1    2    0    0  0.34885701684E+02 -0.37585695545E+01  0.26360288268E+02  0.43886260090E+02  0.00000000000E+00 0. -1.
</event>
<event>
 6    1  0.6992302E-006  0.1082670E+03  0.7561462E-02  0.1263813E+00
          1   -1    0    0  501    0  0.00000000000E+00  0.00000000000E+00  0.23073689419E+03  0.23073689419E+03  0.00000000000E+00 0. -1.
         -1   -1    0    0    0  501 -0.00000000000E+00 -0.00000000000E+00 -0.87927559694E+02  0.87927559694E+02  0.00000000000E+00 0.  1.
          5    1    1    2  502    0 -0.10551251858E+02 -0.74293465514E+02 -0.30173958866E+02  0.80986345315E+02  0.41800000000E+01 0. -1.
         -5    1    1    2    0  502 -0.28122005525E+02  0.20064765156E+02  0.56999571129E+02  0.66782224464E+02  0.41800000000E+01 0.  1.
        -11    1    1    2    0    0  0.65137997400E+02  0.35758498648E+02  0.31963325214E+02  0.80890562426E+02  0.00000000000E+00 0.  1.
         11    1    1    2    0    0 -0.26464740018E+02  0.18470201710E+02  0.84020397021E+02  0.90005321681E+02  0.00000000000E+00 0. -1.
</event>
<event>
 7    1  0.6992302E-006  0.1077934E+03  0.7561462E-02  0.1264712E+00
          1   -1    0    0  501    0  0.00000000000E+00  0.00000000000E+00  0.88209390738E+02  0.88209390738E+02  0.00000000000E+00 0. -1.
         -1   -1    0    0    0  501 -0.00000000000E+00 -0.00000000000E+00 -0.16662943969E+03  0.16662943969E+03  0.00000000000E+00 0.  1.
         23    2    1    2    0    0 -0.48052091373E+02  0.48864609696E+01 -0.19706614418E+02  0.13553288197E+03  0.12509168821E+03 0.  0.
          5    1    3    3  502    0  0.31682366352E+01 -0.53090230420E+02  0.65065438122E+01  0.53744002473E+02  0.41800000000E+01 0.  1.
         -5    1    3    3    0  502 -0.51220328008E+02  0.57976691389E+02 -0.26213158230E+02  0.81788879502E+02  0.41800000000E+01 0.  1.
        -11    1    1    2    0    0 -0.10152700201E+02 -0.21886819838E+02 -0.53204606283E+02  0.58419520143E+02  0.00000000000E+00 0.  1.
         11    1    1    2    0    0  0.58204791575E+02  0.17000358868E+02 -0.55088282516E+01  0.60886428312E+02  0.00000000000E+00 0. -1.
</event>
<event>
 7    1  0.6992302E-006  0.7163869E+02  0.7561462E-02  0.1354608E+00
          1   -1    0    0  501    0  0.00000000000E+00  0.00000000000E+00  0.12003812610E+03  0.12003812610E+03  0.00000000000E+00 0. -1.
         -1   -1    0    0    0  501 -0.00000000000E+00 -0.00000000000E+00 -0.99046764111E+02  0.99046764111E+02  0.00000000000E+00 0.  1.
         23    2    1    2    0    0 -0.22752997710E+02  0.79422692786E+01  0.11966393707E+02  0.12795327155E+03  0.12509223228E+03 0.  0.
          5    1    3    3  502    0 -0.37382938857E+02 -0.49725142015E+01  0.62783120128E+02  0.73358043786E+02  0.41800000000E+01 0.  1.
         -5    1    3    3    0  502  0.14629941147E+02  0.12914783480E+02 -0.50816726421E+02  0.54595227763E+02  0.41800000000E+01 0.  1.
        -11    1    1    2    0    0  0.40106375555E+02 -0.35001062454E+02  0.20438231926E+02  0.57020321441E+02  0.00000000000E+00 0. -1.
         11    1    1    2    0    0 -0.17353377845E+02  0.27058793175E+02 -0.11413263648E+02  0.34111297217E+02  0.00000000000E+00 0.  1.
</event>
<event>
 7    1  0.6992302E-006  0.1140670E+03  0.7561462E-02  0.1253219E+00
         -1   -1    0    0    0  501 -0.00000000000E+00  0.00000000000E+00  0.54782518148E+02  0.54782518148E+02  0.00000000000E+00 0.  1.
          1   -1    0    0  501    0  0.00000000000E+00 -0.00000000000E+00 -0.26793693272E+03  0.26793693272E+03  0.00000000000E+00 0. -1.
         23    2    1    2    0    0 -0.10090852088E+02 -0.24433045273E+02 -0.74141155161E+02  0.14779676987E+03  0.12509266685E+03 0.  0.
          5    1    3    3  502    0 -0.44896846497E+02 -0.60186862119E+02 -0.58688808119E+02  0.95394097278E+02  0.41800000000E+01 0. -1.
         -5    1    3    3    0  502  0.34805994409E+02  0.35753816846E+02 -0.15452347042E+02  0.52402672593E+02  0.41800000000E+01 0. -1.
        -11    1    1    2    0    0  0.31037652169E+02  0.56553237608E+02 -0.65073185922E+02  0.91630366485E+02  0.00000000000E+00 0. -1.
         11    1    1    2    0    0 -0.20946800081E+02 -0.32120192334E+02 -0.73940073487E+02  0.83292314511E+02  0.00000000000E+00 0.  1.
</event>
<event>
 7    1  0.8835071E-006  0.2301597E+03  0.7561462E-02  0.1126527E+00
         -1   -1    0    0    0  501 -0.00000000000E+00  0.00000000000E+00  0.48816130481E+02  0.48816130481E+02  0.00000000000E+00 0.  1.
          1   -1    0    0  501    0  0.00000000000E+00 -0.00000000000E+00 -0.11296068296E+04  0.11296068296E+04  0.00000000000E+00 0. -1.
         23    2    1    2    0    0  0.12057959572E+02  0.20326706498E+03 -0.44752282702E+03  0.50733347328E+03  0.12509068037E+03 0.  0.
          5    1    3    3  502    0 -0.42640413236E+02  0.19927301300E+02 -0.77995190487E+02  0.91192238251E+02  0.41800000000E+01 0.  1.
         -5    1    3    3    0  502  0.54698372808E+02  0.18333976368E+03 -0.36952763653E+03  0.41614123503E+03  0.41800000000E+01 0.  1.
        -11    1    1    2    0    0 -0.31010199992E+02 -0.18812300821E+02 -0.89225907077E+02  0.96316133952E+02  0.00000000000E+00 0. -1.
         11    1    1    2    0    0  0.18952240420E+02 -0.18445476416E+03 -0.54404196504E+03  0.57477335286E+03  0.00000000000E+00 0.  1.
</event>
<event>
 7    1  0.6992302E-006  0.1039216E+03  0.7561462E-02  0.1272259E+00
         -1   -1    0    0    0  501 -0.00000000000E+00  0.00000000000E+00  0.18137482868E+03  0.18137482868E+03  0.00000000000E+00 0.  1.
          1   -1    0    0  501    0  0.00000000000E+00 -0.00000000000E+00 -0.10136797875E+03  0.10136797875E+03  0.00000000000E+00 0. -1.
         23    2    1    2    0    0  0.55012062904E+02 -0.58013165909E+02  0.31503897014E+02  0.15175900747E+03  0.12508575594E+03 0.  0.
          5    1    3    3  502    0  0.40879343560E+02 -0.74399927892E+02 -0.27050234668E+02  0.89194493080E+02  0.41800000000E+01 0. -1.
         -5    1    3    3    0  502  0.14132719343E+02  0.16386761982E+02  0.58554131681E+02  0.62564514393E+02  0.41800000000E+01 0. -1.
        -11    1    1    2    0    0  0.12057204143E+02 -0.11324226444E+00  0.40054833104E+02  0.41830355611E+02  0.00000000000E+00 0.  1.
         11    1    1    2    0    0 -0.67069267047E+02  0.58126408174E+02  0.84481198094E+01  0.89153444340E+02  0.00000000000E+00 0. -1.
</event>
<event>
 7    1  0.6992302E-006  0.1302808E+03  0.7561462E-02  0.1227040E+00
         -2   -1    0    0    0  501 -0.00000000000E+00  0.00000000000E+00  0.74075431021E+02  0.74075431021E+02  0.00000000000E+00 0. -1.
          2   -1    0    0  501    0  0.00000000000E+00 -0.00000000000E+00 -0.23427892447E+03  0.23427892447E+03  0.00000000000E+00 0.  1.
         23    2    1    2    0    0 -0.22571957307E+02  0.68737445937E+02 -0.69392920285E+02  0.16030308619E+03  0.12508945730E+03 0.  0.
          5    1    3    3  502    0 -0.74256953929E+02  0.41228985195E+02 -0.49105454616E+02  0.98197466872E+02  0.41800000000E+01 0. -1.
         -5    1    3    3    0  502  0.51684996622E+02  0.27508460742E+02 -0.20287465669E+02  0.62105619323E+02  0.41800000000E+01 0. -1.
        -11    1    1    2    0    0 -0.31142227901E+02 -0.20694661746E+01 -0.27069792661E+02  0.41314582457E+02  0.00000000000E+00 0. -1.
         11    1    1    2    0    0  0.53714185208E+02 -0.66667979762E+02 -0.63740780501E+02  0.10673668684E+03  0.00000000000E+00 0.  1.
</event>
<event>
 7    1  0.6992302E-006  0.1532781E+03  0.7561462E-02  0.1196502E+00
         -2   -1    0    0    0  501 -0.00000000000E+00  0.00000000000E+00  0.68291990820E+02  0.68291990820E+02  0.00000000000E+00 0. -1.
          2   -1    0    0  501    0  0.00000000000E+00 -0.00000000000E+00 -0.73293339462E+03  0.73293339462E+03  0.00000000000E+00 0.  1.
         23    2    1    2    0    0  0.11362766412E+03 -0.22351677179E+02 -0.62437691894E+02  0.18153792469E+03  0.12508680667E+03 0.  0.
          5    1    3    3  502    0  0.10035047722E+03 -0.68038256177E+02 -0.55013619947E+02  0.13320432936E+03  0.41800000000E+01 0. -1.
         -5    1    3    3    0  502  0.13277186904E+02  0.45686578998E+02 -0.74240719470E+01  0.48333595324E+02  0.41800000000E+01 0. -1.
        -11    1    1    2    0    0 -0.67944491983E+02 -0.24328149240E+02 -0.20932151783E+03  0.22141321248E+03  0.00000000000E+00 0.  1.
         11    1    1    2    0    0 -0.45683172139E+02  0.46679826419E+02 -0.39288219407E+03  0.39827424827E+03  0.00000000000E+00 0. -1.
</event>
<event>
 6    1  0.6992302E-006  0.8292878E+02  0.7561462E-02  0.1320940E+00
         -2   -1    0    0    0  501 -0.00000000000E+00  0.00000000000E+00  0.86008635998E+02  0.86008635998E+02  0.00000000000E+00 0.  1.
          2   -1    0    0  501    0  0.00000000000E+00 -0.00000000000E+00 -0.56590212186E+03  0.56590212186E+03  0.00000000000E+00 0. -1.
          5    1    1    2  502    0  0.35390030481E+02 -0.33985618119E+02 -0.37496800384E+03  0.37818772164E+03  0.41800000000E+01 0. -1.
         -5    1    1    2    0  502 -0.12665054758E+02 -0.16070107256E+02  0.67693926999E+02  0.70842022217E+02  0.41800000000E+01 0.  1.
        -11    1    1    2    0    0 -0.44869117371E+02  0.56982900883E+02 -0.16173477395E+03  0.17725243522E+03  0.00000000000E+00 0.  1.
         11    1    1    2    0    0  0.22144141648E+02 -0.69271755081E+01 -0.10884635077E+02  0.25628578786E+02  0.00000000000E+00 0. -1.
</event>
<event>
 7    1  0.6992302E-006  0.1003780E+03  0.7561462E-02  0.1279503E+00
         -1   -1    0    0    0  501 -0.00000000000E+00  0.00000000000E+00  0.84014072316E+03  0.84014072316E+03  0.00000000000E+00 0.  1.
          1   -1    0    0  501    0  0.00000000000E+00 -0.00000000000E+00 -0.17462825242E+02  0.17462825242E+02  0.00000000000E+00 0. -1.
         23    2    1    2    0    0  0.40650135234E+02  0.21294159708E+02  0.55976148823E+03  0.57540058083E+03  0.12508808889E+03 0.  0.
          5    1    3    3  502    0  0.42403720943E+02  0.51988755283E+02  0.52297088375E+03  0.52727310180E+03  0.41800000000E+01 0. -1.
         -5    1    3    3    0  502 -0.17535857092E+01 -0.30694595575E+02  0.36790604480E+02  0.48127479036E+02  0.41800000000E+01 0. -1.
        -11    1    1    2    0    0 -0.10553160227E+02  0.36149811280E+02  0.93561394507E+02  0.10085590012E+03  0.00000000000E+00 0.  1.
         11    1    1    2    0    0 -0.30096975007E+02 -0.57443970988E+02  0.16935501518E+03  0.18134706745E+03  0.00000000000E+00 0. -1.
</event>
<event>
 7    1  0.6992302E-006  0.1007727E+03  0.7561462E-02  0.1278679E+00
         -1   -1    0    0    0  501 -0.00000000000E+00  0.00000000000E+00  0.46570819766E+02  0.46570819766E+02  0.00000000000E+00 0.  1.
          1   -1    0    0  501    0  0.00000000000E+00 -0.00000000000E+00 -0.29154765886E+03  0.29154765886E+03  0.00000000000E+00 0. -1.
         23    2    1    2    0    0 -0.20532002292E+02  0.28497481724E+01 -0.10526937616E+03  0.16479740049E+03  0.12508739931E+03 0.  0.
          5    1    3    3  502    0 -0.43429888142E+02  0.53102323203E+02 -0.41286377936E+02  0.80175116568E+02  0.41800000000E+01 0. -1.
         -5    1    3    3    0  502  0.22897885850E+02 -0.50252575031E+02 -0.63982998226E+02  0.84622283918E+02  0.41800000000E+01 0. -1.
        -11    1    1    2    0    0  0.33271090423E+02 -0.31664975393E+02 -0.13353913792E+03  0.14121734129E+03  0.00000000000E+00 0. -1.
         11    1    1    2    0    0 -0.12739088132E+02  0.28815227221E+02 -0.61683250108E+01  0.32103736849E+02  0.00000000000E+00 0.  1.
</event>
<event>
 6    1  0.6992302E-006  0.1123303E+03  0.7561462E-02  0.1256314E+00
         -2   -1    0    0    0  501 -0.00000000000E+00  0.00000000000E+00  0.58164800572E+03  0.58164800572E+03  0.00000000000E+00 0.  1.
          2   -1    0    0  501    0  0.00000000000E+00 -0.00000000000E+00 -0.30027248485E+02  0.30027248485E+02  0.00000000000E+00 0. -1.
          5    1    1    2  502    0  0.39585280804E+02  0.20905387170E+02  0.29441192379E+02  0.53742775121E+02  0.41800000000E+01 0. -1.
         -5    1    1    2    0  502 -0.45783683310E+02 -0.70855466837E+02  0.31657607929E+03  0.32765001025E+03  0.41800000000E+01 0.  1.
        -11    1    1    2    0    0 -0.15128148580E+02 -0.18292956670E+02  0.99814047390E+02  0.10259793955E+03  0.00000000000E+00 0.  1.
         11    1    1    2    0    0  0.21326551086E+02  0.68243036337E+02  0.10578943818E+03  0.12768452929E+03  0.00000000000E+00 0. -1.
</event>
<event>
 6    1  0.6992302E-006  0.1236370E+03  0.7561462E-02  0.1237215E+00
          2   -1    0    0  501    0  0.00000000000E+00  0.00000000000E+00  0.15875988358E+04  0.15875988358E+04  0.00000000000E+00 0.  1.
         -2   -1    0    0    0  501 -0.00000000000E+00 -0.00000000000E+00 -0.18263054426E+02  0.18263054426E+02  0.00000000000E+00 0. -1.
          5    1    1    2  502    0 -0.80734172428E+02  0.41941051418E+02  0.97623535933E+03  0.98047437886E+03  0.41800000000E+01 0.  1.
         -5    1    1    2    0  502 -0.34086005170E+02 -0.19170070203E+01  0.21534576513E+02  0.40580057294E+02  0.41800000000E+01 0. -1.
        -11    1    1    2    0    0  0.13056627993E+02 -0.22070514362E+01  0.36219052224E+02  0.38563795905E+02  0.00000000000E+00 0.  1.
         11    1    1    2    0    0  0.10176354961E+03 -0.37816992962E+02  0.53534679334E+03  0.54624365821E+03  0.00000000000E+00 0. -1.
</event>
<event>
 7    1  0.6992302E-006  0.4065804E+03  0.7561462E-02  0.1041525E+00
          2   -1    0    0  501    0  0.00000000000E+00  0.00000000000E+00  0.16821420303E+04  0.16821420303E+04  0.00000000000E+00 0.  1.
         -2   -1    0    0    0  501 -0.00000000000E+00 -0.00000000000E+00 -0.18256695975E+03  0.18256695975E+03  0.00000000000E+00 0. -1.
         23    2    1    2    0    0  0.21894329640E+03 -0.33176930357E+03  0.13108495130E+03  0.43684892472E+03  0.12508669291E+03 0.  0.
          5    1    3    3  502    0  0.18700382496E+03 -0.19466095641E+03  0.50705624421E+02  0.27468500369E+03  0.41800000000E+01 0. -1.
         -5    1    3    3    0  502  0.31939471435E+02 -0.13710834716E+03  0.80379326884E+02  0.16216392104E+03  0.41800000000E+01 0. -1.
        -11    1    1    2    0    0 -0.38877796095E+02  0.11012244454E+03  0.30186142909E+03  0.32366457667E+03  0.00000000000E+00 0. -1.
         11    1    1    2    0    0 -0.18006550030E+03  0.22164685903E+03  0.10666286902E+04  0.11041954887E+04  0.00000000000E+00 0.  1.
</event>
<event>
 7    1  0.6992302E-006  0.1041572E+03  0.7561462E-02  0.1271789E+00
         -1   -1    0    0    0  501 -0.00000000000E+00  0.00000000000E+00  0.28967045182E+02  0.28967045182E+02  0.00000000000E+00 0.  1.
          1   -1    0    0  501    0  0.00000000000E+00 -0.00000000000E+00 -0.46617521724E+03  0.46617521724E+03  0.00000000000E+00 0. -1.
         23    2    1    2    0    0 -0.28762874100E+02  0.21373056478E+02 -0.19600987351E+03  0.23526742606E+03  0.12508709279E+03 0.  0.
          5    1    3    3  502    0 -0.72138820526E+01 -0.44651002622E+02 -0.13600385130E+03  0.14338853545E+03  0.41800000000E+01 0.  1.
         -5    1    3    3    0  502 -0.21548992047E+02  0.66024059101E+02 -0.60006022208E+02  0.91878890610E+02  0.41800000000E+01 0.  1.
        -11    1    1    2    0    0 -0.23110750870E+02 -0.32870580841E+02 -0.71070051762E+02  0.81642722566E+02  0.00000000000E+00 0. -1.
         11    1    1    2    0    0  0.51873624970E+02  0.11497524362E+02 -0.17012824678E+03  0.17823211379E+03  0.00000000000E+00 0.  1.
</event>
<event>
 7    1  0.6992302E-006  0.1797424E+03  0.7561462E-02  0.1168053E+00
          3   -1    0    0  501    0  0.00000000000E+00  0.00000000000E+00  0.10882252231E+03  0.10882252231E+03  0.00000000000E+00 0. -1.
         -3   -1    0    0    0  501 -0.00000000000E+00 -0.00000000000E+00 -0.42392839855E+03  0.42392839855E+03  0.00000000000E+00 0.  1.
         23    2    1    2    0    0  0.15416595622E+03 -0.10347679701E+02 -0.29057195510E+03  0.35207132308E+03  0.12509172198E+03 0.  0.
          5    1    3    3  502    0  0.16915669140E+01 -0.27428861962E+02 -0.11751065417E+03  0.12075359254E+03  0.41800000000E+01 0. -1.
         -5    1    3    3    0  502  0.15247438930E+03  0.17081182261E+02 -0.17306130093E+03  0.23131773054E+03  0.41800000000E+01 0. -1.
        -11    1    1    2    0    0 -0.29256411364E+02  0.40254168146E+02 -0.14579542446E+02  0.51854592053E+02  0.00000000000E+00 0.  1.
         11    1    1    2    0    0 -0.12490954485E+03 -0.29906488446E+02 -0.99543786965E+01  0.12882500573E+03  0.00000000000E+00 0. -1.
</event>
<event>
 7    1  0.6992302E-006  0.1002514E+03  0.7561462E-02  0.1279768E+00
         -2   -1    0    0    0  501 -0.00000000000E+00  0.00000000000E+00  0.49891688566E+03  0.49891688566E+03  0.00000000000E+00 0.  1.
          2   -1    0    0  501    0  0.00000000000E+00 -0.00000000000E+00 -0.23951847146E+02  0.23951847146E+02  0.00000000000E+00 0. -1.
         23    2    1    2    0    0  0.17361163851E+02  0.17804919080E+02  0.30866149066E+03  0.33153933753E+03  0.11843982169E+03 0.  0.
          5    1    3    3  502    0  0.54770657227E+02  0.43761701462E+02  0.23075638745E+03  0.24120716025E+03  0.41800000000E+01 0. -1.
         -5    1    3    3    0  502 -0.37409493376E+02 -0.25956782381E+02  0.77905103213E+02  0.90332177284E+02  0.41800000000E+01 0.  1.
        -11    1    1    2    0    0 -0.49843766072E+02 -0.71020794806E+01  0.13812801484E+03  0.14701764871E+03  0.00000000000E+00 0.  1.
         11    1    1    2    0    0  0.32482602221E+02 -0.10702839599E+02  0.28175533010E+02  0.44311746557E+02  0.00000000000E+00 0. -1.
</event>
<event>
 7    1  0.6992302E-006  0.7002371E+02  0.7561462E-02  0.1360012E+00
          2   -1    0    0  501    0  0.00000000000E+00  0.00000000000E+00  0.22746343096E+03  0.22746343096E+03  0.00000000000E+00 0. -1.
         -2   -1    0    0    0  501 -0.00000000000E+00 -0.00000000000E+00 -0.13036462146E+03  0.13036462146E+03  0.00000000000E+00 0.  1.
         23    2    1    2    0    0  0.30762661119E+02 -0.15091413813E+02 -0.80760347676E+02  0.15278381064E+03  0.12508623804E+03 0.  0.
          5    1    3    3  502    0  0.36419348224E+02 -0.17394043068E+02  0.24410704261E+02  0.47352682520E+02  0.41800000000E+01 0. -1.
         -5    1    3    3    0  502 -0.56566871055E+01  0.23026292550E+01 -0.10517105194E+03  0.10543112812E+03  0.41800000000E+01 0. -1.
        -11    1    1    2    0    0 -0.50051415811E+02 -0.18478826203E+02  0.56728388624E+02  0.77876320653E+02  0.00000000000E+00 0.  1.
         11    1    1    2    0    0  0.19288754692E+02  0.33570240017E+02  0.12113076856E+03  0.12716792113E+03  0.00000000000E+00 0. -1.
</event>
<event>
 7    1  0.6992302E-006  0.8067116E+02  0.7561462E-02  0.1327158E+00
         -2   -1    0    0    0  501 -0.00000000000E+00  0.00000000000E+00  0.22782987092E+03  0.22782987092E+03  0.00000000000E+00 0.  1.
          2   -1    0    0  501    0  0.00000000000E+00 -0.00000000000E+00 -0.15862613052E+03  0.15862613052E+03  0.00000000000E+00 0. -1.
         23    2    1    2    0    0 -0.14204878282E+02  0.16222273049E+02  0.19911898251E+03  0.23607589989E+03  0.12497407973E+03 0.  0.
          5    1    3    3  502    0  0.46772116395E+02  0.37542613175E+01  0.30075440116E+02  0.55890337701E+02  0.41800000000E+01 0. -1.
         -5    1    3    3    0  502 -0.60976994677E+02  0.12468011731E+02  0.16904354239E+03  0.18018556219E+03  0.41800000000E+01 0.  1.
        -11    1    1    2    0    0 -0.13791990649E+02 -0.19265415163E+02 -0.11704095944E+03  0.11941508034E+03  0.00000000000E+00 0. -1.
         11    1    1    2    0    0  0.27996868931E+02  0.30431421142E+01 -0.12874282670E+02  0.30965021203E+02  0.00000000000E+00 0.  1.
</event>
<event>
 7    1  0.6992302E-006  0.1103396E+03  0.7561462E-02  0.1259942E+00
         -1   -1    0    0    0  501 -0.00000000000E+00  0.00000000000E+00  0.41074351395E+03  0.41074351395E+03  0.00000000000E+00 0.  1.
          1   -1    0    0  501    0  0.00000000000E+00 -0.00000000000E+00 -0.54431673756E+02  0.54431673756E+02  0.00000000000E+00 0. -1.
         23    2    1    2    0    0  0.75793442293E+02  0.28683132035E+02  0.29062917052E+03  0.32662092985E+03  0.12509416094E+03 0.  0.
          5    1    3    3  502    0  0.82096369101E+02  0.34638838600E+02  0.93388378279E+02  0.12914536212E+03  0.41800000000E+01 0. -1.
         -5    1    3    3    0  502 -0.63029268088E+01 -0.59557065655E+01  0.19724079224E+03  0.19747556773E+03  0.41800000000E+01 0. -1.
        -11    1    1    2    0    0 -0.75508288230E+01  0.30560334881E+02  0.19976785290E+02  0.37282985858E+02  0.00000000000E+00 0. -1.
         11    1    1    2    0    0 -0.68242613470E+02 -0.59243466915E+02  0.45705884388E+02  0.10127127200E+03  0.00000000000E+00 0.  1.
</event>
<event>
 7    1  0.6992302E-006  0.2239136E+03  0.7561462E-02  0.1130998E+00
          1   -1    0    0  501    0  0.00000000000E+00  0.00000000000E+00  0.84991749107E+03  0.84991749107E+03  0.00000000000E+00 0. -1.
         -1   -1    0    0    0  501 -0.00000000000E+00 -0.00000000000E+00 -0.95878310719E+02  0.95878310719E+02  0.00000000000E+00 0.  1.
         23    2    1    2    0    0 -0.20520417406E+03 -0.79990136322E+02  0.14649602463E+03  0.29264448769E+03  0.12518999954E+03 0.  0.
          5    1    3    3  502    0 -0.79798787820E+02 -0.50713763469E+02  0.13279950016E+03  0.16307333316E+03  0.41800000000E+01 0. -1.
         -5    1    3    3    0  502 -0.12540538624E+03 -0.29276372854E+02  0.13696524461E+02  0.12957115453E+03  0.41800000000E+01 0. -1.
        -11    1    1    2    0    0  0.15011061245E+03  0.37390254395E+02  0.29675810531E+03  0.33465893109E+03  0.00000000000E+00 0.  1.
         11    1    1    2    0    0  0.55093561611E+02  0.42599881928E+02  0.31078505042E+03  0.31849238301E+03  0.00000000000E+00 0. -1.
</event>
<event>
 7    1  0.6992302E-006  0.1131076E+03  0.7561462E-02  0.1254921E+00
         -1   -1    0    0    0  501 -0.00000000000E+00  0.00000000000E+00  0.23697802326E+02  0.23697802326E+02  0.00000000000E+00 0.  1.
          1   -1    0    0  501    0  0.00000000000E+00 -0.00000000000E+00 -0.66548955402E+03  0.66548955402E+03  0.00000000000E+00 0. -1.
         23    2    1    2    0    0 -0.56190964970E+02 -0.32086981446E+02 -0.36928367260E+03  0.39522421272E+03  0.12507896924E+03 0.  0.
          5    1    3    3  502    0  0.10022269954E+02  0.40329761159E+02 -0.91263259277E+02  0.10036628131E+03  0.41800000000E+01 0.  1.
         -5    1    3    3    0  502 -0.66213234924E+02 -0.72416742605E+02 -0.27802041333E+03  0.29485793141E+03  0.41800000000E+01 0.  1.
        -11    1    1    2    0    0 -0.11204913229E+02 -0.82087136690E+00  0.90342985316E-01  0.11235304719E+02  0.00000000000E+00 0.  1.
         11    1    1    2    0    0  0.67395878200E+02  0.32907852813E+02 -0.27259842207E+03  0.28272783890E+03  0.00000000000E+00 0. -1.
</event>
<event>
 7    1  0.6992302E-006  0.1241679E+03  0.7561462E-02  0.1236375E+00
         -1   -1    0    0    0  501 -0.00000000000E+00  0.00000000000E+00  0.67423653815E+02  0.67423653815E+02  0.00000000000E+00 0.  1.
          1   -1    0    0  501    0  0.00000000000E+00 -0.00000000000E+00 -0.36683357995E+03  0.36683357995E+03  0.00000000000E+00 0. -1.
         23    2    1    2    0    0  0.68304651746E+02 -0.74265488526E+02 -0.88044922914E+02  0.18324993233E+03  0.12509093098E+03 0.  0.
          5    1    3    3  502    0  0.92135373437E+02 -0.76853314527E+02 -0.35256366976E+02  0.12512331040E+03  0.41800000000E+01 0. -1.
         -5    1    3    3    0  502 -0.23830721691E+02  0.25878260003E+01 -0.52788555938E+02  0.58126621936E+02  0.41800000000E+01 0. -1.
        -11    1    1    2    0    0 -0.65086574947E+02  0.57404140079E+02 -0.21637114817E+03  0.23312651350E+03  0.00000000000E+00 0. -1.
         11    1    1    2    0    0 -0.32180767994E+01  0.16861348447E+02  0.50061449514E+01  0.17880787931E+02  0.00000000000E+00 0.  1.
</event>
<event>
 7    1  0.6992302E-006  0.1825772E+03  0.7561462E-02  0.1165332E+00
          1   -1    0    0  501    0  0.00000000000E+00  0.00000000000E+00  0.10072568002E+03  0.10072568002E+03  0.00000000000E+00 0. -1.
         -1   -1    0    0    0  501 -0.00000000000E+00 -0.00000000000E+00 -0.43755085688E+03  0.43755085688E+03  0.00000000000E+00 0.  1.
         23    2    1    2    0    0  0.15687670507E+03 -0.85728380227E+02 -0.19415066803E+03  0.29206631970E+03  0.12509435415E+03 0.  0.
          5    1    3    3  502    0  0.55701981644E+02 -0.27775086051E+02  0.35740506954E+01  0.62485297491E+02  0.41800000000E+01 0.  1.
         -5    1    3    3    0  502  0.10117472343E+03 -0.57953294176E+02 -0.19772471872E+03  0.22958102221E+03  0.41800000000E+01 0.  1.
        -11    1    1    2    0    0 -0.21453116977E+02 -0.63075917664E+01 -0.57390528840E+02  0.61592976405E+02  0.00000000000E+00 0.  1.
         11    1    1    2    0    0 -0.13542358809E+03  0.92035971993E+02 -0.85283979997E+02  0.18461724079E+03  0.00000000000E+00 0. -1.
</event>
<event>
 7    1  0.6992302E-006  0.1037126E+03  0.7561462E-02  0.1272677E+00
          1   -1    0    0  501    0  0.00000000000E+00  0.00000000000E+00  0.52732350727E+02  0.52732350727E+02  0.00000000000E+00 0. -1.
         -1   -1    0    0    0  501 -0.00000000000E+00 -0.00000000000E+00 -0.24956297041E+03  0.24956297041E+03  0.00000000000E+00 0.  1.
         23    2    1    2    0    0  0.90384535184E+01 -0.89803702978E+01 -0.16043559804E+03  0.20383456943E+03  0.12508640967E+03 0.  0.
          5    1    3    3  502    0  0.54563358204E+02  0.23831532792E+02 -0.12160904057E+03  0.13546709255E+03  0.41800000000E+01 0. -1.
         -5    1    3    3    0  502 -0.45524904685E+02 -0.32811903090E+02 -0.38826557467E+02  0.68367476885E+02  0.41800000000E+01 0. -1.
        -11    1    1    2    0    0 -0.38698566836E+02  0.34873084010E+02 -0.19658687609E+02  0.55679215710E+02  0.00000000000E+00 0. -1.
         11    1    1    2    0    0  0.29660113317E+02 -0.25892713712E+02 -0.16736334036E+02  0.42781535998E+02  0.00000000000E+00 0.  1.
</event>
<event>
 7    1  0.6992302E-006  0.9892146E+02  0.7561462E-02  0.1282580E+00
          2   -1    0    0  501    0  0.00000000000E+00  0.00000000000E+00  0.28998929062E+03  0.28998929062E+03  0.00000000000E+00 0. -1.
         -2   -1    0    0    0  501 -0.00000000000E+00 -0.00000000000E+00 -0.42533077151E+02  0.42533077151E+02  0.00000000000E+00 0.  1.
         23    2    1    2    0    0  0.58095931537E+02  0.19820684326E+02  0.12334246079E+03  0.18608781726E+03  0.12508923339E+03 0.  0.
          5    1    3    3  502    0  0.82241608199E+02 -0.83835713496E+01  0.34438298253E+02  0.89651743844E+02  0.41800000000E+01 0. -1.
         -5    1    3    3    0  502 -0.24145676663E+02  0.28204255676E+02  0.88904162537E+02  0.96436073417E+02  0.41800000000E+01 0. -1.
        -11    1    1    2    0    0 -0.33519644954E+02  0.13641569105E+02  0.57140037529E+02  0.67636106440E+02  0.00000000000E+00 0. -1.
         11    1    1    2    0    0 -0.24576286583E+02 -0.33462253431E+02  0.66973715152E+02  0.78798444072E+02  0.00000000000E+00 0.  1.
</event>
<event>
 7    1  0.6992302E-006  0.9082579E+02  0.7561462E-02  0.1300864E+00
         -2   -1    0    0    0  501 -0.00000000000E+00  0.00000000000E+00  0.15964082273E+03  0.15964082273E+03  0.00000000000E+00 0.  1.
          2   -1    0    0  501    0  0.00000000000E+00 -0.00000000000E+00 -0.85192347243E+02  0.85192347243E+02  0.00000000000E+00 0. -1.
         23    2    1    2    0    0 -0.48513234122E+02 -0.13319986499E+02  0.51731992437E+02  0.14441074262E+03  0.12508919864E+03 0.  0.
          5    1    3    3  502    0  0.53644025187E-01 -0.37604207422E+02  0.75916007694E+02  0.84822119271E+02  0.41800000000E+01 0.  1.
         -5    1    3    3    0  502 -0.48566878147E+02  0.24284220922E+02 -0.24184015256E+02  0.59588623349E+02  0.41800000000E+01 0.  1.
        -11    1    1    2    0    0  0.32317848340E+02 -0.29386700265E+02  0.31573487531E+02  0.53897185350E+02  0.00000000000E+00 0. -1.
         11    1    1    2    0    0  0.16195385782E+02  0.42706686764E+02 -0.88570044818E+01  0.46525242002E+02  0.00000000000E+00 0.  1.
</event>
<event>
 7    1  0.6992302E-006  0.1052650E+03  0.7561462E-02  0.1269598E+00
          1   -1    0    0  501    0  0.00000000000E+00  0.00000000000E+00  0.31785189076E+03  0.31785189076E+03  0.00000000000E+00 0. -1.
         -1   -1    0    0    0  501 -0.00000000000E+00 -0.00000000000E+00 -0.41985354376E+02  0.41985354376E+02  0.00000000000E+00 0.  1.
         23    2    1    2    0    0 -0.21033078295E+02 -0.32697860368E+02  0.16081695121E+03  0.20741523069E+03  0.12508975045E+03 0.  0.
          5    1    3    3  502    0 -0.17314648863E+02  0.39337896206E+02  0.16885756789E+02  0.46366672573E+02  0.41800000000E+01 0.  1.
         -5    1    3    3    0  502 -0.37184294327E+01 -0.72035756574E+02  0.14393119442E+03  0.16104855812E+03  0.41800000000E+01 0.  1.
        -11    1    1    2    0    0  0.54513830668E+02  0.28005549814E+02  0.95188388718E+02  0.11321173924E+03  0.00000000000E+00 0. -1.
         11    1    1    2    0    0 -0.33480752372E+02  0.46923105534E+01  0.19861196456E+02  0.39210275214E+02  0.00000000000E+00 0.  1.
</event>
<event>
 7    1  0.6992302E-006  0.9524828E+02  0.7561462E-02  0.1290618E+00
         -1   -1    0    0    0  501 -0.00000000000E+00  0.00000000000E+00  0.98717332501E+02  0.98717332501E+02  0.00000000000E+00 0.  1.
          1   -1    0    0  501    0  0.00000000000E+00 -0.00000000000E+00 -0.14337157742E+03  0.14337157742E+03  0.00000000000E+00 0. -1.
         23    2    1    2    0    0  0.38598493547E+02  0.19557751010E+02 -0.62620318371E+01  0.13250861564E+03  0.12508785251E+03 0.  0.
          5    1    3    3  502    0  0.24157246138E+02 -0.31086808774E+02 -0.50103457681E+02  0.63857584454E+02  0.41800000000E+01 0.  1.
         -5    1    3    3    0  502  0.14441247409E+02  0.50644559784E+02  0.43841425844E+02  0.68651031183E+02  0.41800000000E+01 0.  1.
        -11    1    1    2    0    0  0.26181797507E+02 -0.20558632239E+02  0.18008272349E+01  0.33337469294E+02  0.00000000000E+00 0.  1.
         11    1    1    2    0    0 -0.64780291054E+02  0.10008812294E+01 -0.40193040312E+02  0.76242824985E+02  0.00000000000E+00 0. -1.
</event>
<event>
 7    1  0.6992302E-006  0.2636048E+03  0.7561462E-02  0.1104997E+00
         -2   -1    0    0    0  501 -0.00000000000E+00  0.00000000000E+00  0.99505590721E+03  0.99505590721E+03  0.00000000000E+00 0.  1.
          2   -1    0    0  501    0  0.00000000000E+00 -0.00000000000E+00 -0.70418526847E+02  0.70418526847E+02  0.00000000000E+00 0. -1.
         23    2    1    2    0    0  0.10487947827E+03 -0.21704196093E+03  0.49179422911E+03  0.56179757028E+03  0.12509207975E+03 0.  0.
          5    1    3    3  502    0  0.88496573575E+02 -0.48827686446E+02  0.21187976067E+03  0.23478988880E+03  0.41800000000E+01 0.  1.
         -5    1    3    3    0  502  0.16382904699E+02 -0.16821427448E+03  0.27991446844E+03  0.32700768148E+03  0.41800000000E+01 0.  1.
        -11    1    1    2    0    0  0.46957120382E+01  0.86182320926E+02  0.12983817841E+03  0.15590828947E+03  0.00000000000E+00 0. -1.
         11    1    1    2    0    0 -0.10957519031E+03  0.13085964000E+03  0.30300497284E+03  0.34776857431E+03  0.00000000000E+00 0.  1.
</event>
<event>
 6    1  0.6992302E-006  0.1052099E+03  0.7561462E-02  0.1269707E+00
          1   -1    0    0  501    0  0.00000000000E+00  0.00000000000E+00  0.89523385602E+02  0.89523385602E+02  0.00000000000E+00 0. -1.
         -1   -1    0    0    0  501 -0.00000000000E+00 -0.00000000000E+00 -0.12714092935E+03  0.12714092935E+03  0.00000000000E+00 0.  1.
          5    1    1    2  502    0 -0.70676164300E+02  0.31506493487E+02 -0.24469123721E+02  0.81264935536E+02  0.41800000000E+01 0. -1.
         -5    1    1    2    0  502  0.62420771904E+02 -0.32386289188E+02 -0.17226240931E+02  0.72521998518E+02  0.41800000000E+01 0.  1.
        -11    1    1    2    0    0 -0.12544561823E+02 -0.25777548906E+02  0.47497024713E+01  0.29058694611E+02  0.00000000000E+00 0. -1.
         11    1    1    2    0    0  0.20799954219E+02  0.26657344607E+02 -0.67188156339E+00  0.33818686282E+02  0.00000000000E+00 0.  1.
</event>
<event>
 7    1  0.6992302E-006  0.9599961E+02  0.7561462E-02  0.1288940E+00
          1   -1    0    0  501    0  0.00000000000E+00  0.00000000000E+00  0.11934579501E+04  0.11934579501E+04  0.00000000000E+00 0. -1.
         -1   -1    0    0    0  501 -0.00000000000E+00 -0.00000000000E+00 -0.11890659140E+02  0.11890659140E+02  0.00000000000E+00 0.  1.
         23    2    1    2    0    0 -0.42031566971E+02 -0.23361584820E+02  0.61721815936E+03  0.63159911680E+03  0.12508705706E+03 0.  0.
          5    1    3    3  502    0  0.16053723227E+02  0.11981458814E+02  0.45753795945E+03  0.45799534290E+03  0.41800000000E+01 0. -1.
         -5    1    3    3    0  502 -0.58085290197E+02 -0.35343043634E+02  0.15968019991E+03  0.17360377390E+03  0.41800000000E+01 0. -1.
        -11    1    1    2    0    0 -0.24149828873E+02 -0.13492818995E+02  0.15589945296E+03  0.15833480298E+03  0.00000000000E+00 0. -1.
         11    1    1    2    0    0  0.66181395843E+02  0.36854403815E+02  0.40844967863E+03  0.41541468945E+03  0.00000000000E+00 0.  1.
</event>
<event>
 7    1  0.6992302E-006  0.1696499E+03  0.7561462E-02  0.1178213E+00
          3   -1    0    0  501    0  0.00000000000E+00  0.00000000000E+00  0.70216933450E+03  0.70216933450E+03  0.00000000000E+00 0. -1.
         -3   -1    0    0    0  501 -0.00000000000E+00 -0.00000000000E+00 -0.50927060729E+02  0.50927060729E+02  0.00000000000E+00 0.  1.
         23    2    1    2    0    0  0.53146271235E+02 -0.12730843263E+03  0.20332537787E+03  0.27571864780E+03  0.12509036852E+03 0.  0.
          5    1    3    3  502    0  0.65638118960E+02 -0.23607639249E+02  0.13141451208E+03  0.14883860278E+03  0.41800000000E+01 0. -1.
         -5    1    3    3    0  502 -0.12491847725E+02 -0.10370079338E+03  0.71910865786E+02  0.12688004502E+03  0.41800000000E+01 0. -1.
        -11    1    1    2    0    0 -0.35759957564E+02 -0.63610193693E+00  0.87338795058E+02  0.94378198292E+02  0.00000000000E+00 0. -1.
         11    1    1    2    0    0 -0.17386313670E+02  0.12794453457E+03  0.36057810085E+03  0.38299954914E+03  0.00000000000E+00 0.  1.
</event>
<event>
 7    1  0.6992302E-006  0.1000710E+03  0.7561462E-02  0.1280147E+00
          3   -1    0    0  501    0  0.00000000000E+00  0.00000000000E+00  0.68035222626E+02  0.68035222626E+02  0.00000000000E+00 0. -1.
         -3   -1    0    0    0  501 -0.00000000000E+00 -0.00000000000E+00 -0.27064179666E+03  0.27064179666E+03  0.00000000000E+00 0.  1.
         23    2    1    2    0    0 -0.75915422850E+02 -0.26092601209E+02 -0.12807138037E+03  0.19619550069E+03  0.12508565368E+03 0.  0.
          5    1    3    3  502    0 -0.26271557945E+02 -0.19270963472E+02  0.20921899487E+02  0.38945642480E+02  0.41800000000E+01 0.  1.
         -5    1    3    3    0  502 -0.49643864904E+02 -0.68216377367E+01 -0.14899327986E+03  0.15724985821E+03  0.41800000000E+01 0.  1.
        -11    1    1    2    0    0  0.80644660082E+02  0.48501706242E+02 -0.42892797915E+02  0.10342035013E+03  0.00000000000E+00 0. -1.
         11    1    1    2    0    0 -0.47292372324E+01 -0.22409105033E+02 -0.31642395745E+02  0.39061168463E+02  0.00000000000E+00 0.  1.
</event>
<event>
 7    1  0.6992302E-006  0.1403078E+03  0.7561462E-02  0.1212915E+00
          2   -1    0    0  501    0  0.00000000000E+00  0.00000000000E+00  0.22274319213E+03  0.22274319213E+03  0.00000000000E+00 0. -1.
         -2   -1    0    0    0  501 -0.00000000000E+00 -0.00000000000E+00 -0.11458141196E+03  0.11458141196E+03  0.00000000000E+00 0.  1.
         23    2    1    2    0    0  0.78466442899E+02 -0.87211623006E+02  0.38938937326E+02  0.17585878377E+03  0.12508885299E+03 0.  0.
          5    1    3    3  502    0  0.62789749232E+02  0.10837541009E+02  0.41999403697E+02  0.76429230106E+02  0.41800000000E+01 0. -1.
         -5    1    3    3    0  502  0.15676693668E+02 -0.98049164014E+02 -0.30604663713E+01  0.99429553668E+02  0.41800000000E+01 0. -1.
        -11    1    1    2    0    0 -0.37919283599E+02  0.39278979286E+02 -0.14811003377E+02  0.56569215156E+02  0.00000000000E+00 0.  1.
         11    1    1    2    0    0 -0.40547159301E+02  0.47932643720E+02  0.84033846223E+02  0.10489660515E+03  0.00000000000E+00 0. -1.
</event>
<event>
 7    1  0.6992302E-006  0.1614560E+03  0.7561462E-02  0.1187063E+00
          2   -1    0    0  501    0  0.00000000000E+00  0.00000000000E+00  0.42910883280E+03  0.42910883280E+03  0.00000000000E+00 0. -1.
         -2   -1    0    0    0  501 -0.00000000000E+00 -0.00000000000E+00 -0.11532689165E+03  0.11532689165E+03  0.00000000000E+00 0.  1.
         23    2    1    2    0    0 -0.12597793396E+03  0.61283364706E+02 -0.15862703587E+01  0.18781982181E+03  0.12509068141E+03 0.  0.
          5    1    3    3  502    0 -0.10253428749E+03  0.80093291681E+02  0.40141612951E+02  0.13622421581E+03  0.41800000000E+01 0.  1.
         -5    1    3    3    0  502 -0.23443646472E+02 -0.18809926975E+02 -0.41727883310E+02  0.51595605997E+02  0.41800000000E+01 0.  1.
        -11    1    1    2    0    0  0.22206370531E+02 -0.53971526813E+02  0.15329820215E+03  0.16403166579E+03  0.00000000000E+00 0. -1.
         11    1    1    2    0    0  0.10377156343E+03 -0.73118378931E+01  0.16207000936E+03  0.19258423685E+03  0.00000000000E+00 0.  1.
</event>
<event>
 7    1  0.6992302E-006  0.9287311E+02  0.7561462E-02  0.1296040E+00
         -2   -1    0    0    0  501 -0.00000000000E+00  0.00000000000E+00  0.15444508470E+03  0.15444508470E+03  0.00000000000E+00 0.  1.
          2   -1    0    0  501    0  0.00000000000E+00 -0.00000000000E+00 -0.78997435373E+02  0.78997435373E+02  0.00000000000E+00 0. -1.
         23    2    1    2    0    0 -0.16732381347E+02 -0.13064777814E+02  0.51750230141E+02  0.13702489865E+03  0.12508827093E+03 0.  0.
          5    1    3    3  502    0 -0.30768332654E+02  0.35882535579E+02  0.68436060598E+02  0.83277928913E+02  0.41800000000E+01 0. -1.
         -5    1    3    3    0  502  0.14035951307E+02 -0.48947313393E+02 -0.16685830457E+02  0.53746969734E+02  0.41800000000E+01 0. -1.
        -11    1    1    2    0    0  0.46640051879E+02  0.27340140416E+02 -0.25795056027E+01  0.54124223472E+02  0.00000000000E+00 0.  1.
         11    1    1    2    0    0 -0.29907670531E+02 -0.14275362602E+02  0.26276924785E+02  0.42293397951E+02  0.00000000000E+00 0. -1.
</event>
<event>
 7    1  0.6992302E-006  0.1406508E+03  0.7561462E-02  0.1212456E+00
         -2   -1    0    0    0  501 -0.00000000000E+00  0.00000000000E+00  0.28193190235E+02  0.28193190235E+02  0.00000000000E+00 0.  1.
          2   -1    0    0  501    0  0.00000000000E+00 -0.00000000000E+00 -0.92559249517E+03  0.92559249517E+03  0.00000000000E+00 0. -1.
         23    2    1    2    0    0 -0.91124492044E+02 -0.76020432523E+02 -0.51212634193E+03  0.54037281841E+03  0.12508642441E+03 0.  0.
          5    1    3    3  502    0 -0.45932781913E+02 -0.78678837630E+02 -0.15106402070E+03  0.17645960074E+03  0.41800000000E+01 0.  1.
         -5    1    3    3    0  502 -0.45191710131E+02  0.26584051063E+01 -0.36106232123E+03  0.36391321767E+03  0.41800000000E+01 0.  1.
        -11    1    1    2    0    0  0.10446494700E+03  0.50923524802E+02 -0.34554516826E+03  0.36456493775E+03  0.00000000000E+00 0. -1.
         11    1    1    2    0    0 -0.13340454958E+02  0.25096907721E+02 -0.39727794750E+02  0.48847929244E+02  0.00000000000E+00 0.  1.
</event>
<event>
 7    1  0.6992302E-006  0.1017920E+03  0.7561462E-02  0.1276572E+00
         -2   -1    0    0    0  501 -0.00000000000E+00  0.00000000000E+00  0.28968182107E+02  0.28968182107E+02  0.00000000000E+00 0.  1.
          2   -1    0    0  501    0  0.00000000000E+00 -0.00000000000E+00 -0.52136720991E+03  0.52136720991E+03  0.00000000000E+00 0. -1.
         23    2    1    2    0    0 -0.42320584148E+02  0.66827862626E+01 -0.18718653283E+03  0.22917456727E+03  0.12508594140E+03 0.  0.
          5    1    3    3  502    0 -0.77919994280E+02 -0.27309906926E+02 -0.11187678909E+03  0.13910875193E+03  0.41800000000E+01 0.  1.
         -5    1    3    3    0  502  0.35599410132E+02  0.33992693189E+02 -0.75309743736E+02  0.90065815344E+02  0.41800000000E+01 0.  1.
        -11    1    1    2    0    0  0.51153464716E+02 -0.20503396223E+02 -0.29832301902E+03  0.30337054882E+03  0.00000000000E+00 0. -1.
         11    1    1    2    0    0 -0.88328805679E+01  0.13820609960E+02 -0.68894759517E+01  0.17790275930E+02  0.00000000000E+00 0.  1.
</event>
<event>
 7    1  0.6992302E-006  0.8354284E+02  0.7561462E-02  0.1319288E+00
         -1   -1    0    0    0  501 -0.00000000000E+00  0.00000000000E+00  0.13344520759E+03  0.13344520759E+03  0.00000000000E+00 0.  1.
          1   -1    0    0  501    0  0.00000000000E+00 -0.00000000000E+00 -0.84721288686E+02  0.84721288686E+02  0.00000000000E+00 0. -1.
         23    2    1    2    0    0  0.17915731941E+02 -0.34525655529E+01  0.21704732934E+02  0.12826269067E+03  0.12508928302E+03 0.  0.
          5    1    3    3  502    0 -0.35746270476E+02  0.13227630490E+02 -0.32357945908E+02  0.50172453844E+02  0.41800000000E+01 0.  1.
         -5    1    3    3    0  502  0.53662002417E+02 -0.16680196043E+02  0.54062678842E+02  0.78090236823E+02  0.41800000000E+01 0.  1.
        -11    1    1    2    0    0  0.24121487542E+02  0.15488209980E+02 -0.12211345351E+02  0.31158430078E+02  0.00000000000E+00 0. -1.
         11    1    1    2    0    0 -0.42037219484E+02 -0.12035644427E+02  0.39230531322E+02  0.58745375533E+02  0.00000000000E+00 0.  1.
</event>
<event>
 7    1  0.6992302E-006  0.1101898E+03  0.7561462E-02  0.1260219E+00
         -1   -1    0    0    0  501 -0.00000000000E+00  0.00000000000E+00  0.20430015425E+03  0.20430015425E+03  0.00000000000E+00 0.  1.
          1   -1    0    0  501    0  0.00000000000E+00 -0.00000000000E+00 -0.80438732488E+02  0.80438732488E+02  0.00000000000E+00 0. -1.
         23    2    1    2    0    0  0.22297318487E+02  0.28305899475E+02  0.13365315460E+03  0.18657019730E+03  0.12508748311E+03 0.  0.
          5    1    3    3  502    0  0.72615157165E+02  0.28939585423E+01  0.85717418715E+02  0.11245569935E+03  0.41800000000E+01 0.  1.
         -5    1    3    3    0  502 -0.50317838678E+02  0.25411940933E+02  0.47935735889E+02  0.74114497950E+02  0.41800000000E+01 0.  1.
        -11    1    1    2    0    0 -0.53447463053E+02 -0.84249494514E+01  0.11786276431E+02  0.55376234904E+02  0.00000000000E+00 0.  1.
         11    1    1    2    0    0  0.31150144566E+02 -0.19880950024E+02 -0.21578009274E+02  0.42792454528E+02  0.00000000000E+00 0. -1.
</event>
<event>
 7    1  0.6992302E-006  0.1831416E+03  0.7561462E-02  0.1164797E+00
         -1   -1    0    0    0  501 -0.00000000000E+00  0.00000000000E+00  0.31740385996E+02  0.31740385996E+02  0.00000000000E+00 0.  1.
          1   -1    0    0  501    0  0.00000000000E+00 -0.00000000000E+00 -0.12241682178E+04  0.12241682178E+04  0.00000000000E+00 0. -1.
         23    2    1    2    0    0  0.94776914932E+01  0.16043981773E+03 -0.52381001499E+03  0.56201023081E+03  0.12509119067E+03 0.  0.
          5    1    3    3  502    0 -0.42677187607E+02  0.11499156040E+03 -0.41700777932E+03  0.43469226094E+03  0.41800000000E+01 0.  1.
         -5    1    3    3    0  502  0.52154879101E+02  0.45448257336E+02 -0.10680223567E+03  0.12731796987E+03  0.41800000000E+01 0.  1.
        -11    1    1    2    0    0 -0.28965881642E+02 -0.27666657585E+02 -0.72172864403E+02  0.82543252888E+02  0.00000000000E+00 0.  1.
         11    1    1    2    0    0  0.19488190148E+02 -0.13277316015E+03 -0.59644495243E+03  0.61135512011E+03  0.00000000000E+00 0. -1.
</event>
<event>
 7    1  0.6992302E-006  0.1631489E+03  0.7561462E-02  0.1185187E+00
         -2   -1    0    0    0  501 -0.00000000000E+00  0.00000000000E+00  0.56967766651E+02  0.56967766651E+02  0.00000000000E+00 0.  1.
          2   -1    0    0  501    0  0.00000000000E+00 -0.00000000000E+00 -0.67674983896E+03  0.67674983896E+03  0.00000000000E+00 0. -1.
         23    2    1    2    0    0 -0.25243366393E+02  0.12575559557E+03 -0.13581080836E+03  0.22481840613E+03  0.12508813974E+03 0.  0.
          5    1    3    3  502    0  0.21636227858E+01 -0.21412830184E+02 -0.43997267102E+02  0.49157120262E+02  0.41800000000E+01 0. -1.
         -5    1    3    3    0  502 -0.27406989179E+02  0.14716842575E+03 -0.91813541257E+02  0.17566128587E+03  0.41800000000E+01 0. -1.
        -11    1    1    2    0    0 -0.13484005985E+02 -0.11306032080E+03 -0.39410463607E+03  0.41022301097E+03  0.00000000000E+00 0. -1.
         11    1    1    2    0    0  0.38727372378E+02 -0.12695274770E+02 -0.89866627882E+02  0.98676188515E+02  0.00000000000E+00 0.  1.
</event>
<event>
 7    1  0.6992302E-006  0.1039770E+03  0.7561462E-02  0.1272148E+00
         -2   -1    0    0    0  501 -0.00000000000E+00  0.00000000000E+00  0.73091770354E+02  0.73091770354E+02  0.00000000000E+00 0.  1.
          2   -1    0    0  501    0  0.00000000000E+00 -0.00000000000E+00 -0.19619740722E+03  0.19619740722E+03  0.00000000000E+00 0. -1.
         23    2    1    2    0    0 -0.38837529947E+02  0.15025859397E+02 -0.43311136400E+02  0.13877187669E+03  0.12509056335E+03 0.  0.
          5    1    3    3  502    0 -0.65534854377E+02  0.42397712346E+02 -0.58277397162E+02  0.97499284974E+02  0.41800000000E+01 0. -1.
         -5    1    3    3    0  502  0.26697324430E+02 -0.27371852949E+02  0.14966260763E+02  0.41272591714E+02  0.41800000000E+01 0. -1.
        -11    1    1    2    0    0  0.63061874370E+02 -0.46950805713E+00 -0.80483135789E+02  0.10224752116E+03  0.00000000000E+00 0.  1.
         11    1    1    2    0    0 -0.24224344423E+02 -0.14556351340E+02  0.68863532632E+00  0.28269779724E+02  0.00000000000E+00 0. -1.
</event>
<event>
 7    1  0.6992302E-006  0.1761346E+03  0.7561462E-02  0.1171597E+00
          2   -1    0    0  501    0  0.00000000000E+00  0.00000000000E+00  0.14528753845E+04  0.14528753845E+04  0.00000000000E+00 0. -1.
         -2   -1    0    0    0  501 -0.00000000000E+00 -0.00000000000E+00 -0.24433495994E+02  0.24433495994E+02  0.00000000000E+00 0.  1.
         23    2    1    2    0    0 -0.14781719431E+03  0.36838199483E+02  0.74332765451E+03  0.76901879416E+03  0.12508768095E+03 0.  0.
          5    1    3    3  502    0 -0.23864798668E+02 -0.29845252368E+02  0.59458313336E+02  0.70802762157E+02  0.41800000000E+01 0. -1.
         -5    1    3    3    0  502 -0.12395239565E+03  0.66683451851E+02  0.68386934118E+03  0.69821603200E+03  0.41800000000E+01 0. -1.
        -11    1    1    2    0    0  0.23048211865E+02 -0.42250511089E+02  0.11513289066E+03  0.12478745237E+03  0.00000000000E+00 0.  1.
         11    1    1    2    0    0  0.12476898245E+03  0.54123116062E+01  0.56998134329E+03  0.58350263392E+03  0.00000000000E+00 0. -1.
</event>
<event>
 7    1  0.6992302E-006  0.1016116E+03  0.7561462E-02  0.1276943E+00
         -1   -1    0    0    0  501 -0.00000000000E+00  0.00000000000E+00  0.52940434962E+02  0.52940434962E+02  0.00000000000E+00 0.  1.
          1   -1    0    0  501    0  0.00000000000E+00 -0.00000000000E+00 -0.25312016783E+03  0.25312016783E+03  0.00000000000E+00 0. -1.
         23    2    1    2    0    0  0.33052122770E+02 -0.23573960187E+02 -0.12621040817E+03  0.18227594161E+03  0.12508907763E+03 0.  0.
          5    1    3    3  502    0  0.24171440500E+02 -0.61642816134E+02 -0.20418351706E+02  0.69415249068E+02  0.41800000000E+01 0.  1.
         -5    1    3    3    0  502  0.88806822702E+01  0.38068855947E+02 -0.10579205647E+03  0.11286069255E+03  0.41800000000E+01 0.  1.
        -11    1    1    2    0    0 -0.49445928533E+02  0.47497635452E+02 -0.61900277061E+02  0.92371908729E+02  0.00000000000E+00 0. -1.
         11    1    1    2    0    0  0.16393805763E+02 -0.23923675265E+02 -0.12069047633E+02  0.31412752447E+02  0.00000000000E+00 0.  1.
</event>
<event>
 7    1  0.6992302E-006  0.8531657E+02  0.7561462E-02  0.1314607E+00
         -2   -1    0    0    0  501 -0.00000000000E+00  0.00000000000E+00  0.26815282688E+02  0.26815282688E+02  0.00000000000E+00 0. -1.
          2   -1    0    0  501    0  0.00000000000E+00 -0.00000000000E+00 -0.47695164096E+03  0.47695164096E+03  0.00000000000E+00 0.  1.
         23    2    1    2    0    0  0.14337684842E+02  0.28057186947E+02 -0.22538705640E+03  0.25969327751E+03  0.12509395765E+03 0.  0.
          5    1    3    3  502    0 -0.14301088865E+02 -0.21908029783E+02  0.54416644616E+00  0.26500026959E+02  0.41800000000E+01 0.  1.
         -5    1    3    3    0  502  0.28638773707E+02  0.49965216731E+02 -0.22593122285E+03  0.23319325055E+03  0.41800000000E+01 0.  1.
        -11    1    1    2    0    0  0.12116765260E+02 -0.50358690413E+02 -0.18117036502E+03  0.18842907117E+03  0.00000000000E+00 0.  1.
         11    1    1    2    0    0 -0.26454450103E+02  0.22301503465E+02 -0.43578936851E+02  0.55644574975E+02  0.00000000000E+00 0. -1.
</event>
<event>
 7    1  0.6992302E-006  0.9180581E+02  0.7561462E-02  0.1298537E+00
         -1   -1    0    0    0  501 -0.00000000000E+00  0.00000000000E+00  0.11396186808E+03  0.11396186808E+03  0.00000000000E+00 0.  1.
          1   -1    0    0  501    0  0.00000000000E+00 -0.00000000000E+00 -0.11184648373E+03  0.11184648373E+03  0.00000000000E+00 0. -1.
         23    2    1    2    0    0  0.45973449826E+01 -0.60176038962E+01  0.31611807284E+02  0.12924767610E+03  0.12509319838E+03 0.  0.
          5    1    3    3  502    0 -0.29262401591E+02  0.30361211310E+02  0.58774533042E+02  0.72456948827E+02  0.41800000000E+01 0.  1.
         -5    1    3    3    0  502  0.33859746574E+02 -0.36378815206E+02 -0.27162725758E+02  0.56790727275E+02  0.41800000000E+01 0.  1.
        -11    1    1    2    0    0  0.28322634400E+02 -0.30889299930E+02 -0.18947307893E+02  0.45992618385E+02  0.00000000000E+00 0.  1.
         11    1    1    2    0    0 -0.32919979383E+02  0.36906903826E+02 -0.10549115041E+02  0.50568057316E+02  0.00000000000E+00 0. -1.
</event>
<event>
 7    1  0.6992302E-006  0.1603994E+03  0.7561462E-02  0.1188247E+00
          2   -1    0    0  501    0  0.00000000000E+00  0.00000000000E+00  0.63460836681E+03  0.63460836681E+03  0.00000000000E+00 0. -1.
         -2   -1    0    0    0  501 -0.00000000000E+00 -0.00000000000E+00 -0.42636443692E+02  0.42636443692E+02  0.00000000000E+00 0.  1.
         23    2    1    2    0    0 -0.10939966104E+03  0.48488075242E+02  0.32694953037E+03  0.36995247128E+03  0.12509778703E+03 0.  0.
          5    1    3    3  502    0 -0.28013283466E+01 -0.36351591027E+02  0.63986435166E+02  0.73763282844E+02  0.41800000000E+01 0. -1.
         -5    1    3    3    0  502 -0.10659833269E+03  0.84839666270E+02  0.26296309521E+03  0.29618918844E+03  0.41800000000E+01 0. -1.
        -11    1    1    2    0    0  0.11791591326E+03 -0.21969038838E+02  0.16849563972E+03  0.20682742050E+03  0.00000000000E+00 0.  1.
         11    1    1    2    0    0 -0.85162522221E+01 -0.26519036405E+02  0.96526753021E+02  0.10046491872E+03  0.00000000000E+00 0. -1.
</event>
<event>
 7    1  0.6992302E-006  0.8940236E+02  0.7561462E-02  0.1304305E+00
         -2   -1    0    0    0  501 -0.00000000000E+00  0.00000000000E+00  0.56075036733E+02  0.56075036733E+02  0.00000000000E+00 0.  1.
          2   -1    0    0  501    0  0.00000000000E+00 -0.00000000000E+00 -0.24191608818E+03  0.24191608818E+03  0.00000000000E+00 0. -1.
         23    2    1    2    0    0  0.26462110706E+01 -0.20495610377E+02 -0.59045961367E+02  0.13986366416E+03  0.12509335122E+03 0.  0.
          5    1    3    3  502    0 -0.18078529182E+02 -0.70218389470E+02 -0.30726482505E+02  0.78860919119E+02  0.41800000000E+01 0.  1.
         -5    1    3    3    0  502  0.20724740253E+02  0.49722779093E+02 -0.28319478862E+02  0.61002745039E+02  0.41800000000E+01 0.  1.
        -11    1    1    2    0    0  0.56254196807E+01  0.34999284078E+02 -0.13496255143E+03  0.13954026487E+03  0.00000000000E+00 0. -1.
         11    1    1    2    0    0 -0.82716307513E+01 -0.14503673701E+02  0.81674613443E+01  0.18587195887E+02  0.00000000000E+00 0.  1.
</event>
<event>
 7    1  0.6992302E-006  0.1243746E+03  0.7561462E-02  0.1236050E+00
          2   -1    0    0  501    0  0.00000000000E+00  0.00000000000E+00  0.39714209348E+03  0.39714209348E+03  0.00000000000E+00 0. -1.
         -2   -1    0    0    0  501 -0.00000000000E+00 -0.00000000000E+00 -0.68950462164E+02  0.68950462164E+02  0.00000000000E+00 0.  1.
         23    2    1    2    0    0  0.72601947531E+02 -0.17241060350E+02  0.35078254861E+02  0.14981609300E+03  0.12508429481E+03 0.  0.
          5    1    3    3  502    0 -0.19461623386E+02 -0.30982900118E+02  0.42629488479E+02  0.56333298967E+02  0.41800000000E+01 0. -1.
         -5    1    3    3    0  502  0.92063570917E+02  0.13741839768E+02 -0.75512336178E+01  0.93482794028E+02  0.41800000000E+01 0. -1.
        -11    1    1    2    0    0 -0.60877538586E+02 -0.31548948514E+02  0.16417037612E+03  0.17791380849E+03  0.00000000000E+00 0.  1.
         11    1    1    2    0    0 -0.11724408945E+02  0.48790008864E+02  0.12894300033E+03  0.13836265415E+03  0.00000000000E+00 0. -1.
</event>
<event>
 7    1  0.6992302E-006  0.9793248E+02  0.7561462E-02  0.1284705E+00
          3   -1    0    0  501    0  0.00000000000E+00  0.00000000000E+00  0.13450331342E+03  0.13450331342E+03  0.00000000000E+00 0. -1.
         -3   -1    0    0    0  501 -0.00000000000E+00 -0.00000000000E+00 -0.12431997997E+03  0.12431997997E+03  0.00000000000E+00 0.  1.
         23    2    1    2    0    0 -0.21882249538E+02 -0.56359819553E+01 -0.58465939097E+02  0.13991579587E+03  0.12509023447E+03 0.  0.
          5    1    3    3  502    0 -0.51630544208E+02  0.26671387339E+02  0.93551678904E+01  0.59009046459E+02  0.41800000000E+01 0.  1.
         -5    1    3    3    0  502  0.29748294670E+02 -0.32307369294E+02 -0.67821106988E+02  0.80906749406E+02  0.41800000000E+01 0.  1.
        -11    1    1    2    0    0 -0.26199918634E+02  0.29795177006E+02  0.13638731823E+02  0.41954777022E+02  0.00000000000E+00 0.  1.
         11    1    1    2    0    0  0.48082168173E+02 -0.24159195051E+02  0.55010540728E+02  0.76952720503E+02  0.00000000000E+00 0. -1.
</event>
<event>
 7    1  0.6992302E-006  0.1096715E+03  0.7561462E-02  0.1261180E+00
          1   -1    0    0  501    0  0.00000000000E+00  0.00000000000E+00  0.10834201805E+03  0.10834201805E+03  0.00000000000E+00 0. -1.
         -1   -1    0    0    0  501 -0.00000000000E+00 -0.00000000000E+00 -0.19558011934E+03  0.19558011934E+03  0.00000000000E+00 0.  1.
         23    2    1    2    0    0 -0.66312800592E+02  0.29283843047E+02 -0.11416707372E+03  0.18421835591E+03  0.12508937184E+03 0.  0.
          5    1    3    3  502    0 -0.30307148298E+02 -0.43186808961E+02 -0.12811649944E+02  0.54453966618E+02  0.41800000000E+01 0.  1.
         -5    1    3    3    0  502 -0.36005652295E+02  0.72470652008E+02 -0.10135542378E+03  0.12976438930E+03  0.41800000000E+01 0.  1.
        -11    1    1    2    0    0  0.11868728868E+02 -0.28571624134E+02 -0.28457236738E+02  0.42035922178E+02  0.00000000000E+00 0.  1.
         11    1    1    2    0    0  0.54444071724E+02 -0.71221891383E+00  0.55386209171E+02  0.77667859298E+02  0.00000000000E+00 0. -1.
</event>
<event>
 7    1  0.6992302E-006  0.1066856E+03  0.7561462E-02  0.1266834E+00
         -1   -1    0    0    0  501 -0.00000000000E+00  0.00000000000E+00  0.39189796680E+02  0.39189796680E+02  0.00000000000E+00 0.  1.
          1   -1    0    0  501    0  0.00000000000E+00 -0.00000000000E+00 -0.31407125425E+03  0.31407125425E+03  0.00000000000E+00 0. -1.
         23    2    1    2    0    0 -0.30224612912E+02 -0.83808172005E+00 -0.16986982572E+03  0.21311435608E+03  0.12509093280E+03 0.  0.
          5    1    3    3  502    0 -0.70302090372E+02  0.29738740995E+02 -0.11851035178E+03  0.14102819756E+03  0.41800000000E+01 0. -1.
         -5    1    3    3    0  502  0.40077477460E+02 -0.30576822715E+02 -0.51359473938E+02  0.72086158519E+02  0.41800000000E+01 0. -1.
        -11    1    1    2    0    0  0.57737309483E+02 -0.58315569315E+01 -0.92498074336E+02  0.10919476965E+03  0.00000000000E+00 0. -1.
         11    1    1    2    0    0 -0.27512696571E+02  0.66696386515E+01 -0.12513557516E+02  0.30951925208E+02  0.00000000000E+00 0.  1.
</event>
<event>
 7    1  0.6992302E-006  0.1482396E+03  0.7561462E-02  0.1202653E+00
          1   -1    0    0  501    0  0.00000000000E+00  0.00000000000E+00  0.45195068396E+02  0.45195068396E+02  0.00000000000E+00 0. -1.
         -1   -1    0    0    0  501 -0.00000000000E+00 -0.00000000000E+00 -0.62079143350E+03  0.62079143350E+03  0.00000000000E+00 0.  1.
         23    2    1    2    0    0  0.91110868788E+02  0.56494339940E+02 -0.44017174013E+03  0.46999065389E+03  0.12508898066E+03 0.  0.
          5    1    3    3  502    0 -0.22470867176E+02 -0.92897335389E+01 -0.14275569295E+03  0.14487201003E+03  0.41800000000E+01 0. -1.
         -5    1    3    3    0  502  0.11358173596E+03  0.65784073478E+02 -0.29741604717E+03  0.32511864386E+03  0.41800000000E+01 0. -1.
        -11    1    1    2    0    0  0.85262539892E+01 -0.38251514798E+02 -0.26839902201E+02  0.47500060438E+02  0.00000000000E+00 0. -1.
         11    1    1    2    0    0 -0.99637122777E+02 -0.18242825142E+02 -0.10858472277E+03  0.14849578756E+03  0.00000000000E+00 0.  1.
</event>
<event>
 7    1  0.6992302E-006  0.1017089E+03  0.7561462E-02  0.1276743E+00
         -1   -1    0    0    0  501 -0.00000000000E+00  0.00000000000E+00  0.16202807448E+03  0.16202807448E+03  0.00000000000E+00 0.  1.
          1   -1    0    0  501    0  0.00000000000E+00 -0.00000000000E+00 -0.84794696999E+02  0.84794696999E+02  0.00000000000E+00 0. -1.
         23    2    1    2    0    0  0.22080052059E+01  0.68156855236E+01  0.92302000618E+02  0.15562443198E+03  0.12509186885E+03 0.  0.
          5    1    3    3  502    0 -0.81009569442E+01 -0.55207727665E+02  0.19304621074E+02  0.59191718105E+02  0.41800000000E+01 0.  1.
         -5    1    3    3    0  502  0.10308962150E+02  0.62023413189E+02  0.72997379544E+02  0.96432713871E+02  0.41800000000E+01 0.  1.
        -11    1    1    2    0    0 -0.25166001378E+02  0.31172385746E+02  0.84819083127E+01  0.40951044273E+02  0.00000000000E+00 0.  1.
         11    1    1    2    0    0  0.22957996172E+02 -0.37988071270E+02 -0.23550531445E+02  0.50247295234E+02  0.00000000000E+00 0. -1.
</event>
<event>
 7    1  0.6992302E-006  0.1095805E+03  0.7561462E-02  0.1261349E+00
         -2   -1    0    0    0  501 -0.00000000000E+00  0.00000000000E+00  0.11864283621E+03  0.11864283621E+03  0.00000000000E+00 0.  1.
          2   -1    0    0  501    0  0.00000000000E+00 -0.00000000000E+00 -0.11476743181E+03  0.11476743181E+03  0.00000000000E+00 0. -1.
         23    2    1    2    0    0 -0.49106430552E+02  0.51902559787E+02  0.15295808714E+02  0.14486898136E+03  0.12509093797E+03 0.  0.
          5    1    3    3  502    0 -0.91123572213E+02  0.32035170906E+02  0.35395019330E+01  0.96745842607E+02  0.41800000000E+01 0. -1.
         -5    1    3    3    0  502  0.42017141661E+02  0.19867388881E+02  0.11756306781E+02  0.48123138753E+02  0.41800000000E+01 0. -1.
        -11    1    1    2    0    0  0.18574198635E+02 -0.37937752536E+02 -0.28417228323E+02  0.50909849616E+02  0.00000000000E+00 0. -1.
         11    1    1    2    0    0  0.30532231917E+02 -0.13964807252E+02  0.16996824014E+02  0.37631437044E+02  0.00000000000E+00 0.  1.
</event>
<event>
 7    1  0.6992302E-006  0.1167189E+03  0.7561462E-02  0.1248610E+00
         -2   -1    0    0    0  501 -0.00000000000E+00  0.00000000000E+00  0.96631340930E+02  0.96631340930E+02  0.00000000000E+00 0.  1.
          2   -1    0    0  501    0  0.00000000000E+00 -0.00000000000E+00 -0.19902412746E+03  0.19902412746E+03  0.00000000000E+00 0. -1.
         23    2    1    2    0    0  0.71635077049E+02 -0.38430818256E+02 -0.29832659484E+02  0.15213635033E+03  0.12508784699E+03 0.  0.
          5    1    3    3  502    0 -0.17425256923E+02  0.29562616750E+02  0.45240604183E+01  0.34864414674E+02  0.41800000000E+01 0. -1.
         -5    1    3    3    0  502  0.89060333971E+02 -0.67993435006E+02 -0.34356719902E+02  0.11727193566E+03  0.41800000000E+01 0. -1.
        -11    1    1    2    0    0 -0.11770573660E+02 -0.49936931449E+01  0.20800201974E+02  0.24415809994E+02  0.00000000000E+00 0.  1.
         11    1    1    2    0    0 -0.59864503389E+02  0.43424511401E+02 -0.93360329020E+02  0.11910330806E+03  0.00000000000E+00 0. -1.
</event>
<event>
 7    1  0.6992302E-006  0.1783723E+03  0.7561462E-02  0.1169388E+00
          1   -1    0    0  501    0  0.00000000000E+00  0.00000000000E+00  0.49988842273E+03  0.49988842273E+03  0.00000000000E+00 0. -1.
         -1   -1    0    0    0  501 -0.00000000000E+00 -0.00000000000E+00 -0.87893939784E+02  0.87893939784E+02  0.00000000000E+00 0.  1.
         23    2    1    2    0    0 -0.87446895862E+02  0.15425458335E+03  0.25996614233E+03  0.33863255056E+03  0.12509265791E+03 0.  0.
          5    1    3    3  502    0 -0.20779737266E+02  0.19316939507E+02 -0.92839308781E+01  0.30143082213E+02  0.41800000000E+01 0. -1.
         -5    1    3    3    0  502 -0.66667158596E+02  0.13493764385E+03  0.26925007321E+03  0.30848946835E+03  0.41800000000E+01 0. -1.
        -11    1    1    2    0    0  0.31665729846E+02 -0.63878051908E+02  0.11756335607E+03  0.13749278764E+03  0.00000000000E+00 0. -1.
         11    1    1    2    0    0  0.55781166016E+02 -0.90376531446E+02  0.34464984550E+02  0.11165702431E+03  0.00000000000E+00 0.  1.
</event>
<event>
 7    1  0.6992302E-006  0.1303220E+03  0.7561462E-02  0.1226979E+00
          4   -1    0    0  501    0  0.00000000000E+00  0.00000000000E+00  0.11069138523E+03  0.11069138523E+03  0.00000000000E+00 0. -1.
         -4   -1    0    0    0  501 -0.00000000000E+00 -0.00000000000E+00 -0.48799108321E+03  0.48799108321E+03  0.00000000000E+00 0.  1.
         23    2    1    2    0    0  0.76822137399E+02  0.44714763649E+00 -0.41569660676E+03  0.44085454340E+03  0.12508884374E+03 0.  0.
          5    1    3    3  502    0  0.83986728046E+02 -0.19726005134E+02 -0.40902483673E+03  0.41804506364E+03  0.41800000000E+01 0. -1.
         -5    1    3    3    0  502 -0.71645906464E+01  0.20173152771E+02 -0.66717700317E+01  0.22809479766E+02  0.41800000000E+01 0. -1.
        -11    1    1    2    0    0 -0.11261380684E+03 -0.15413809851E+02  0.22324135059E+02  0.11583532290E+03  0.00000000000E+00 0.  1.
         11    1    1    2    0    0  0.35791669443E+02  0.14966662215E+02  0.16072773726E+02  0.41992602141E+02  0.00000000000E+00 0. -1.
</event>
<event>
 7    1  0.1102984E-005  0.1180210E+03  0.7561462E-02  0.1246398E+00
         -1   -1    0    0    0  501 -0.00000000000E+00  0.00000000000E+00  0.84175550908E+02  0.84175550908E+02  0.00000000000E+00 0.  1.
          1   -1    0    0  501    0  0.00000000000E+00 -0.00000000000E+00 -0.23546463431E+03  0.23546463431E+03  0.00000000000E+00 0. -1.
         23    2    1    2    0    0  0.73094546038E+02 -0.49300718529E+02 -0.66474811361E+02  0.16685182244E+03  0.12508899471E+03 0.  0.
          5    1    3    3  502    0  0.15623802166E+02  0.35611151733E+02 -0.49099868490E+02  0.62773615537E+02  0.41800000000E+01 0.  1.
         -5    1    3    3    0  502  0.57470743872E+02 -0.84911870261E+02 -0.17374942871E+02  0.10407820690E+03  0.41800000000E+01 0.  1.
        -11    1    1    2    0    0 -0.40783978906E+02  0.46544373794E+02 -0.99511980808E+02  0.11718509287E+03  0.00000000000E+00 0. -1.
         11    1    1    2    0    0 -0.32310567132E+02  0.27563447345E+01  0.14697708770E+02  0.35603269902E+02  0.00000000000E+00 0.  1.
</event>
<event>
 7    1  0.6992302E-006  0.6875323E+02  0.7561462E-02  0.1364385E+00
         -2   -1    0    0    0  501 -0.00000000000E+00  0.00000000000E+00  0.17642947854E+03  0.17642947854E+03  0.00000000000E+00 0.  1.
          2   -1    0    0  501    0  0.00000000000E+00 -0.00000000000E+00 -0.28426286945E+02  0.28426286945E+02  0.00000000000E+00 0. -1.
         23    2    1    2    0    0 -0.10374993792E+02 -0.77601815968E+01  0.13041480096E+03  0.17581682627E+03  0.11719929682E+03 0.  0.
          5    1    3    3  502    0  0.36044946703E+02 -0.42922269402E+02  0.43313449304E+02  0.70958344711E+02  0.41800000000E+01 0. -1.
         -5    1    3    3    0  502 -0.46419940495E+02  0.35162087805E+02  0.87101351651E+02  0.10485848155E+03  0.41800000000E+01 0.  1.
        -11    1    1    2    0    0  0.99117622108E+01 -0.43315501096E+01  0.10159826219E+02  0.14840061499E+02  0.00000000000E+00 0.  1.
         11    1    1    2    0    0  0.46323158114E+00  0.12091731706E+02  0.74285644172E+01  0.14198877718E+02  0.00000000000E+00 0. -1.
</event>
<event>
 7    1  0.6992302E-006  0.1083830E+03  0.7561462E-02  0.1263594E+00
          2   -1    0    0  501    0  0.00000000000E+00  0.00000000000E+00  0.74431750622E+02  0.74431750622E+02  0.00000000000E+00 0. -1.
         -2   -1    0    0    0  501 -0.00000000000E+00 -0.00000000000E+00 -0.19390578621E+03  0.19390578621E+03  0.00000000000E+00 0.  1.
         23    2    1    2    0    0  0.21785755221E+02 -0.25427056594E+01 -0.11894967515E+03  0.17400577586E+03  0.12509156779E+03 0.  0.
          5    1    3    3  502    0  0.95450242965E+01  0.59294368941E+02 -0.37499364867E+02  0.70926754066E+02  0.41800000000E+01 0. -1.
         -5    1    3    3    0  502  0.12240730925E+02 -0.61837074601E+02 -0.81450310283E+02  0.10307902179E+03  0.41800000000E+01 0. -1.
        -11    1    1    2    0    0 -0.46698176775E+01 -0.43767392495E+02  0.63930333746E+01  0.44477665391E+02  0.00000000000E+00 0. -1.
         11    1    1    2    0    0 -0.17115937544E+02  0.46310098154E+02 -0.69173938138E+01  0.49854095581E+02  0.00000000000E+00 0.  1.
</event>
<event>
 7    1  0.6992302E-006  0.1052295E+03  0.7561462E-02  0.1269668E+00
          2   -1    0    0  501    0  0.00000000000E+00  0.00000000000E+00  0.46024285757E+03  0.46024285757E+03  0.00000000000E+00 0. -1.
         -2   -1    0    0    0  501 -0.00000000000E+00 -0.00000000000E+00 -0.24988094688E+02  0.24988094688E+02  0.00000000000E+00 0.  1.
         23    2    1    2    0    0  0.86352081927E+01 -0.40173772013E+01  0.27196520726E+03  0.29950491211E+03  0.12508961699E+03 0.  0.
          5    1    3    3  502    0  0.33623750871E+02  0.52556158188E+02  0.11834172785E+03  0.13384671583E+03  0.41800000000E+01 0.  1.
         -5    1    3    3    0  502 -0.24988542678E+02 -0.56573535389E+02  0.15362347940E+03  0.16565819628E+03  0.41800000000E+01 0.  1.
        -11    1    1    2    0    0 -0.46950156374E+02  0.71745010944E+01  0.11177546881E+03  0.12144770923E+03  0.00000000000E+00 0. -1.
         11    1    1    2    0    0  0.38314948181E+02 -0.31571238931E+01  0.51514086811E+02  0.64278330916E+02  0.00000000000E+00 0.  1.
</event>
<event>
 7    1  0.6992302E-006  0.1468399E+03  0.7561462E-02  0.1204411E+00
          2   -1    0    0  501    0  0.00000000000E+00  0.00000000000E+00  0.19814495051E+03  0.19814495051E+03  0.00000000000E+00 0. -1.
         -2   -1    0    0    0  501 -0.00000000000E+00 -0.00000000000E+00 -0.14268193606E+03  0.14268193606E+03  0.00000000000E+00 0.  1.
         23    2    1    2    0    0 -0.59272942240E+02  0.11063257280E+03 -0.16744592786E+02  0.16897656804E+03  0.11189214142E+03 0.  0.
          5    1    3    3  502    0  0.10455558197E+02  0.78826263384E+02  0.22537357185E+02  0.82754476406E+02  0.41800000000E+01 0. -1.
         -5    1    3    3    0  502 -0.69728500438E+02  0.31806309413E+02 -0.39281949971E+02  0.86222091631E+02  0.41800000000E+01 0.  1.
        -11    1    1    2    0    0 -0.90538985868E+01 -0.31376466101E+02 -0.14711305569E+02  0.35817289347E+02  0.00000000000E+00 0.  1.
         11    1    1    2    0    0  0.68326840827E+02 -0.79256106696E+02  0.86918912804E+02  0.13603302918E+03  0.00000000000E+00 0. -1.
</event>
<event>
 7    1  0.6992302E-006  0.7850810E+02  0.7561462E-02  0.1333339E+00
          3   -1    0    0  501    0  0.00000000000E+00  0.00000000000E+00  0.31480060777E+03  0.31480060777E+03  0.00000000000E+00 0. -1.
         -3   -1    0    0    0  501 -0.00000000000E+00 -0.00000000000E+00 -0.44307729469E+02  0.44307729469E+02  0.00000000000E+00 0.  1.
         23    2    1    2    0    0  0.67470529549E+01 -0.24331750113E+02  0.94584048427E+02  0.15884250816E+03  0.12508894194E+03 0.  0.
          5    1    3    3  502    0  0.10937523716E+01 -0.58508562197E+02  0.68696111935E+00  0.58671905204E+02  0.41800000000E+01 0. -1.
         -5    1    3    3    0  502  0.56533005833E+01  0.34176812085E+02  0.93897087307E+02  0.10017060296E+03  0.41800000000E+01 0. -1.
        -11    1    1    2    0    0  0.25183112118E+02  0.37340712948E+01  0.59944290194E+01  0.26154647841E+02  0.00000000000E+00 0.  1.
         11    1    1    2    0    0 -0.31930165073E+02  0.20597678818E+02  0.16991440086E+03  0.17411118124E+03  0.00000000000E+00 0. -1.
</event>
<event>
 7    1  0.6992302E-006  0.1344550E+03  0.7561462E-02  0.1220991E+00
         -2   -1    0    0    0  501 -0.00000000000E+00  0.00000000000E+00  0.83524997461E+03  0.83524997461E+03  0.00000000000E+00 0. -1.
          2   -1    0    0  501    0  0.00000000000E+00 -0.00000000000E+00 -0.41496238613E+02  0.41496238613E+02  0.00000000000E+00 0.  1.
         23    2    1    2    0    0  0.34895565064E+02 -0.87034062370E+02  0.70067780603E+03  0.71790720251E+03  0.12509490428E+03 0.  0.
          5    1    3    3  502    0  0.33611604410E+02  0.20900441050E+02  0.10065255594E+03  0.10823575105E+03  0.41800000000E+01 0.  1.
         -5    1    3    3    0  502  0.12839606541E+01 -0.10793450342E+03  0.60002525009E+03  0.60967145146E+03  0.41800000000E+01 0.  1.
        -11    1    1    2    0    0  0.87282977311E+01  0.75447378714E+02  0.30873668273E+02  0.81985812972E+02  0.00000000000E+00 0. -1.
         11    1    1    2    0    0 -0.43623862796E+02  0.11586683656E+02  0.62202261696E+02  0.76853197744E+02  0.00000000000E+00 0.  1.
</event>
<event>
 7    1  0.6992302E-006  0.1989036E+03  0.7561462E-02  0.1150667E+00
          1   -1    0    0  501    0  0.00000000000E+00  0.00000000000E+00  0.39547172553E+03  0.39547172553E+03  0.00000000000E+00 0. -1.
         -1   -1    0    0    0  501 -0.00000000000E+00 -0.00000000000E+00 -0.20469055586E+03  0.20469055586E+03  0.00000000000E+00 0.  1.
         23    2    1    2    0    0  0.16883357589E+03 -0.37071633135E+02 -0.11286459219E+03  0.24138145868E+03  0.12509000796E+03 0.  0.
          5    1    3    3  502    0  0.70880331882E+02 -0.73975897454E+02 -0.84452775488E+02  0.13283899480E+03  0.41800000000E+01 0. -1.
         -5    1    3    3    0  502  0.97953244009E+02  0.36904264318E+02 -0.28411816705E+02  0.10854246388E+03  0.41800000000E+01 0. -1.
        -11    1    1    2    0    0 -0.10241122776E+03 -0.18304038845E+02  0.17984578004E+03  0.20776814483E+03  0.00000000000E+00 0. -1.
         11    1    1    2    0    0 -0.66422348129E+02  0.55375671981E+02  0.12379998183E+03  0.15101267788E+03  0.00000000000E+00 0.  1.
</event>
<event>
 7    1  0.6992302E-006  0.6650205E+02  0.7561462E-02  0.1372409E+00
          3   -1    0    0  501    0  0.00000000000E+00  0.00000000000E+00  0.24416934200E+02  0.24416934200E+02  0.00000000000E+00 0. -1.
         -3   -1    0    0    0  501 -0.00000000000E+00 -0.00000000000E+00 -0.10828916421E+04  0.10828916421E+04  0.00000000000E+00 0.  1.
         23    2    1    2    0    0  0.41082675546E+02  0.15697204265E+02 -0.94652070339E+03  0.95576300765E+03  0.12508915380E+03 0.  0.
          5    1    3    3  502    0  0.56317802830E+01  0.18554758790E+02 -0.18730206681E+02  0.27281661702E+02  0.41800000000E+01 0. -1.
         -5    1    3    3    0  502  0.35450895263E+02 -0.28575545246E+01 -0.92779049671E+03  0.92848134595E+03  0.41800000000E+01 0. -1.
        -11    1    1    2    0    0 -0.14172268527E+02 -0.39165755886E+02 -0.90501921718E+01  0.42622946962E+02  0.00000000000E+00 0. -1.
         11    1    1    2    0    0 -0.26910407019E+02  0.23468551621E+02 -0.10290381230E+03  0.10892262165E+03  0.00000000000E+00 0.  1.
</event>
<event>
 7    1  0.6992302E-006  0.1251371E+03  0.7561462E-02  0.1234855E+00
          1   -1    0    0  501    0  0.00000000000E+00  0.00000000000E+00  0.20823100567E+02  0.20823100567E+02  0.00000000000E+00 0. -1.
         -1   -1    0    0    0  501 -0.00000000000E+00 -0.00000000000E+00 -0.93606914970E+03  0.93606914970E+03  0.00000000000E+00 0.  1.
         23    2    1    2    0    0 -0.82367183377E+02 -0.80077742974E+01 -0.59440753126E+03  0.61303863251E+03  0.12509026496E+03 0.  0.
          5    1    3    3  502    0 -0.85824063815E+02  0.37613410270E+02 -0.28002222317E+03  0.29531416564E+03  0.41800000000E+01 0. -1.
         -5    1    3    3    0  502  0.34568804380E+01 -0.45621184568E+02 -0.31438530809E+03  0.31772446687E+03  0.41800000000E+01 0. -1.
        -11    1    1    2    0    0  0.52718086389E+01 -0.25813493406E+02 -0.25184952298E+02  0.36447362461E+02  0.00000000000E+00 0. -1.
         11    1    1    2    0    0  0.77095374738E+02  0.33821267703E+02 -0.29565356558E+03  0.30740625529E+03  0.00000000000E+00 0.  1.
</event>
<event>
 7    1  0.6992302E-006  0.1017052E+03  0.7561462E-02  0.1276750E+00
         -2   -1    0    0    0  501 -0.00000000000E+00  0.00000000000E+00  0.59112934107E+02  0.59112934107E+02  0.00000000000E+00 0.  1.
          2   -1    0    0  501    0  0.00000000000E+00 -0.00000000000E+00 -0.51560814009E+03  0.51560814009E+03  0.00000000000E+00 0. -1.
         23    2    1    2    0    0 -0.75001168670E+02 -0.37368029340E+02 -0.64631029104E+02  0.16385763488E+03  0.12510239673E+03 0.  0.
          5    1    3    3  502    0 -0.18944483875E+02 -0.13623000174E+01  0.37269360633E+02  0.42038398788E+02  0.41800000000E+01 0.  1.
         -5    1    3    3    0  502 -0.56056684796E+02 -0.36005729322E+02 -0.10190038974E+03  0.12181923610E+03  0.41800000000E+01 0.  1.
        -11    1    1    2    0    0  0.78126141507E+02 -0.15722733896E+01 -0.31616493145E+03  0.32567841487E+03  0.00000000000E+00 0. -1.
         11    1    1    2    0    0 -0.31249728368E+01  0.38940302729E+02 -0.75699245433E+02  0.85185024453E+02  0.00000000000E+00 0.  1.
</event>
<event>
 7    1  0.6992302E-006  0.1473887E+03  0.7561462E-02  0.1203719E+00
         -1   -1    0    0    0  501 -0.00000000000E+00  0.00000000000E+00  0.80447542320E+02  0.80447542320E+02  0.00000000000E+00 0.  1.
          1   -1    0    0  501    0  0.00000000000E+00 -0.00000000000E+00 -0.39932497201E+03  0.39932497201E+03  0.00000000000E+00 0. -1.
         23    2    1    2    0    0 -0.10111486895E+03 -0.27068934870E+02 -0.39072489611E+02  0.16771272261E+03  0.12507579272E+03 0.  0.
          5    1    3    3  502    0 -0.99428829682E+02 -0.65902173316E+02 -0.11580189417E+02  0.11991981407E+03  0.41800000000E+01 0.  1.
         -5    1    3    3    0  502 -0.16860392642E+01  0.38833238446E+02 -0.27492300194E+02  0.47792908539E+02  0.41800000000E+01 0.  1.
        -11    1    1    2    0    0 -0.15649208391E+02 -0.25655019479E+01 -0.51995040884E+02  0.54359578733E+02  0.00000000000E+00 0. -1.
         11    1    1    2    0    0  0.11676407734E+03  0.29634436817E+02 -0.22780989919E+03  0.25770021298E+03  0.00000000000E+00 0.  1.
</event>
<event>
 7    1  0.6992302E-006  0.9929148E+02  0.7561462E-02  0.1281793E+00
         -1   -1    0    0    0  501 -0.00000000000E+00  0.00000000000E+00  0.11897072911E+03  0.11897072911E+03  0.00000000000E+00 0.  1.
          1   -1    0    0  501    0  0.00000000000E+00 -0.00000000000E+00 -0.12426611004E+03  0.12426611004E+03  0.00000000000E+00 0. -1.
         23    2    1    2    0    0  0.42064211246E+02  0.11287459071E+02  0.27494602679E+02  0.13527878042E+03  0.12509032999E+03 0.  0.
          5    1    3    3  502    0  0.64101585170E+02  0.27349787741E+02 -0.26473285126E+02  0.74668141373E+02  0.41800000000E+01 0. -1.
         -5    1    3    3    0  502 -0.22037373923E+02 -0.16062328669E+02  0.53967887806E+02  0.60610639049E+02  0.41800000000E+01 0. -1.
        -11    1    1    2    0    0 -0.26850954248E+02 -0.51556784704E+02 -0.28373585931E+02  0.64684899100E+02  0.00000000000E+00 0. -1.
         11    1    1    2    0    0 -0.15213256999E+02  0.40269325632E+02 -0.44163976750E+01  0.43273159624E+02  0.00000000000E+00 0.  1.
</event>
<event>
 7    1  0.6992302E-006  0.9592295E+02  0.7561462E-02  0.1289111E+00
         -2   -1    0    0    0  501 -0.00000000000E+00  0.00000000000E+00  0.45045352474E+02  0.45045352474E+02  0.00000000000E+00 0. -1.
          2   -1    0    0  501    0  0.00000000000E+00 -0.00000000000E+00 -0.34685004284E+03  0.34685004284E+03  0.00000000000E+00 0.  1.
         23    2    1    2    0    0 -0.22465945548E+02 -0.17798575590E+02 -0.83985268543E+02  0.15337256581E+03  0.12509240828E+03 0.  0.
          5    1    3    3  502    0 -0.57509566191E+02 -0.13183487097E+02 -0.98531716458E+02  0.11492226104E+03  0.41800000000E+01 0. -1.
         -5    1    3    3    0  502  0.35043620644E+02 -0.46150884928E+01  0.14546447915E+02  0.38450304765E+02  0.41800000000E+01 0. -1.
        -11    1    1    2    0    0  0.54417200145E+02  0.30891840999E+02 -0.14537037221E+03  0.15826586059E+03  0.00000000000E+00 0.  1.
         11    1    1    2    0    0 -0.31951254598E+02 -0.13093265408E+02 -0.72449049606E+02  0.80256968908E+02  0.00000000000E+00 0. -1.
</event>
<event>
 7    1  0.6992302E-006  0.1175432E+03  0.7561462E-02  0.1247206E+00
         -1   -1    0    0    0  501 -0.00000000000E+00  0.00000000000E+00  0.18004558219E+03  0.18004558219E+03  0.00000000000E+00 0.  1.
          1   -1    0    0  501    0  0.00000000000E+00 -0.00000000000E+00 -0.12006133026E+03  0.12006133026E+03  0.00000000000E+00 0. -1.
         23    2    1    2    0    0  0.85216675040E+02  0.48550701691E+02  0.41286421883E+02  0.16422707568E+03  0.12508761496E+03 0.  0.
          5    1    3    3  502    0  0.14693589937E+02  0.25063988910E+02 -0.42813179886E+02  0.51909015569E+02  0.41800000000E+01 0.  1.
         -5    1    3    3    0  502  0.70523085102E+02  0.23486712781E+02  0.84099601769E+02  0.11231806011E+03  0.41800000000E+01 0.  1.
        -11    1    1    2    0    0 -0.74097806108E+02  0.71904251915E+01 -0.42868002241E+01  0.74569187609E+02  0.00000000000E+00 0.  1.
         11    1    1    2    0    0 -0.11118868932E+02 -0.55741126882E+02  0.22984630273E+02  0.61310649166E+02  0.00000000000E+00 0. -1.
</event>
<event>
 7    1  0.6992302E-006  0.7547544E+02  0.7561462E-02  0.1342405E+00
          1   -1    0    0  501    0  0.00000000000E+00  0.00000000000E+00  0.30623360917E+03  0.30623360917E+03  0.00000000000E+00 0. -1.
         -1   -1    0    0    0  501 -0.00000000000E+00 -0.00000000000E+00 -0.58516995058E+02  0.58516995058E+02  0.00000000000E+00 0.  1.
         23    2    1    2    0    0  0.44132960293E+02 -0.83871273892E+01  0.41741040956E+02  0.13658269625E+03  0.12204284626E+03 0.  0.
          5    1    3    3  502    0  0.53559457035E+02 -0.45393960700E+01  0.80168024035E+02  0.96610589649E+02  0.41800000000E+01 0. -1.
         -5    1    3    3    0  502 -0.94264967420E+01 -0.38477313192E+01 -0.38426983080E+02  0.39972106596E+02  0.41800000000E+01 0.  1.
        -11    1    1    2    0    0  0.15586611211E+02  0.19832573043E+02  0.12145694083E+03  0.12404862708E+03  0.00000000000E+00 0.  1.
         11    1    1    2    0    0 -0.59719571504E+02 -0.11445445654E+02  0.84518632317E+02  0.10411928090E+03  0.00000000000E+00 0. -1.
</event>
<event>
 7    1  0.6992304E-006  0.1812792E+03  0.7561462E-02  0.1166571E+00
         -1   -1    0    0    0  501 -0.00000000000E+00  0.00000000000E+00  0.24104828745E+03  0.24104828745E+03  0.00000000000E+00 0.  1.
          1   -1    0    0  501    0  0.00000000000E+00 -0.00000000000E+00 -0.16687865055E+03  0.16687865055E+03  0.00000000000E+00 0. -1.
         23    2    1    2    0    0  0.15041802007E+03 -0.24978124263E+02  0.10979721783E+03  0.22572605012E+03  0.12508930091E+03 0.  0.
          5    1    3    3  502    0  0.32021336601E+02 -0.56852161154E+02  0.72212094836E+02  0.97414543402E+02  0.41800000000E+01 0.  1.
         -5    1    3    3    0  502  0.11839668347E+03  0.31874036891E+02  0.37585122999E+02  0.12831150671E+03  0.41800000000E+01 0.  1.
        -11    1    1    2    0    0 -0.57170062090E+02 -0.31699053722E+02 -0.32574911885E+02  0.73036777657E+02  0.00000000000E+00 0.  1.
         11    1    1    2    0    0 -0.93247957981E+02  0.56677177985E+02 -0.30526690524E+01  0.10916411022E+03  0.00000000000E+00 0. -1.
</event>
<event>
 7    1  0.6992302E-006  0.8323121E+02  0.7561462E-02  0.1320124E+00
         -1   -1    0    0    0  501 -0.00000000000E+00  0.00000000000E+00  0.31378086889E+02  0.31378086889E+02  0.00000000000E+00 0.  1.
          1   -1    0    0  501    0  0.00000000000E+00 -0.00000000000E+00 -0.34669736985E+03  0.34669736985E+03  0.00000000000E+00 0. -1.
         23    2    1    2    0    0  0.96433937468E+00  0.24060061903E+02 -0.11069567040E+03  0.16876164738E+03  0.12508855124E+03 0.  0.
          5    1    3    3  502    0 -0.80937786714E+01 -0.48542015290E+02 -0.67682626104E+02  0.83786912927E+02  0.41800000000E+01 0. -1.
         -5    1    3    3    0  502  0.90581180460E+01  0.72602077193E+02 -0.43013044296E+02  0.84974734450E+02  0.41800000000E+01 0. -1.
        -11    1    1    2    0    0 -0.97914484126E+01 -0.31032213907E+02 -0.16163022168E+03  0.16487328262E+03  0.00000000000E+00 0. -1.
         11    1    1    2    0    0  0.88271090379E+01  0.69721520037E+01 -0.42993390882E+02  0.44440526742E+02  0.00000000000E+00 0.  1.
</event>
<event>
 7    1  0.6992302E-006  0.1182187E+03  0.7561462E-02  0.1246065E+00
          1   -1    0    0  501    0  0.00000000000E+00  0.00000000000E+00  0.32664717610E+03  0.32664717610E+03  0.00000000000E+00 0. -1.
         -1   -1    0    0    0  501 -0.00000000000E+00 -0.00000000000E+00 -0.66637162131E+02  0.66637162131E+02  0.00000000000E+00 0.  1.
         23    2    1    2    0    0  0.28955542458E+02 -0.78532713848E+02  0.43447157618E+02  0.14530110057E+03  0.11053933118E+03 0.  0.
          5    1    3    3  502    0  0.61871914377E+02 -0.63437403519E+02  0.58065628270E+02  0.10602607010E+03  0.41800000000E+01 0. -1.
         -5    1    3    3    0  502 -0.32916371919E+02 -0.15095310330E+02 -0.14618470652E+02  0.39275030471E+02  0.41800000000E+01 0.  1.
        -11    1    1    2    0    0  0.13732754975E+02  0.65081211238E+02  0.17375044763E+03  0.18604668948E+03  0.00000000000E+00 0. -1.
         11    1    1    2    0    0 -0.42688297433E+02  0.13451502611E+02  0.42812408726E+02  0.61936548186E+02  0.00000000000E+00 0.  1.
</event>
<event>
 7    1  0.6992302E-006  0.1650392E+03  0.7561462E-02  0.1183122E+00
          2   -1    0    0  501    0  0.00000000000E+00  0.00000000000E+00  0.35990778125E+03  0.35990778125E+03  0.00000000000E+00 0.  1.
         -2   -1    0    0    0  501 -0.00000000000E+00 -0.00000000000E+00 -0.97013131092E+02  0.97013131092E+02  0.00000000000E+00 0. -1.
         23    2    1    2    0    0 -0.35789992292E+02  0.12645102995E+03  0.45249995888E+02  0.18682000787E+03  0.12483335568E+03 0.  0.
          5    1    3    3  502    0 -0.25976497181E+02 -0.20346804197E+02  0.15987672666E+01  0.33298638165E+02  0.41800000000E+01 0.  1.
         -5    1    3    3    0  502 -0.98134951109E+01  0.14679783415E+03  0.43651228622E+02  0.15352136971E+03  0.41800000000E+01 0.  1.
        -11    1    1    2    0    0 -0.16794674064E+02 -0.72012828346E+02  0.15543578584E+03  0.17212841730E+03  0.00000000000E+00 0.  1.
         11    1    1    2    0    0  0.52584666356E+02 -0.54438201608E+02  0.62208868429E+02  0.97972487165E+02  0.00000000000E+00 0. -1.
</event>
<event>
 7    1  0.6992302E-006  0.9953852E+02  0.7561462E-02  0.1281269E+00
         -2   -1    0    0    0  501 -0.00000000000E+00  0.00000000000E+00  0.28126388675E+02  0.28126388675E+02  0.00000000000E+00 0.  1.
          2   -1    0    0  501    0  0.00000000000E+00 -0.00000000000E+00 -0.43754013367E+03  0.43754013367E+03  0.00000000000E+00 0. -1.
         23    2    1    2    0    0 -0.18546233230E+02 -0.34084654761E+01 -0.18601982396E+03  0.22493514493E+03  0.12504744746E+03 0.  0.
          5    1    3    3  502    0 -0.54909390828E+02  0.32659795959E+02 -0.14723758511E+03  0.16055554286E+03  0.41800000000E+01 0. -1.
         -5    1    3    3    0  502  0.36363157598E+02 -0.36068261436E+02 -0.38782238850E+02  0.64379602078E+02  0.41800000000E+01 0. -1.
        -11    1    1    2    0    0  0.32553904593E+02  0.35791668542E+02 -0.16986068750E+03  0.17661668494E+03  0.00000000000E+00 0. -1.
         11    1    1    2    0    0 -0.14007671363E+02 -0.32383203066E+02 -0.53533233539E+02  0.64114692473E+02  0.00000000000E+00 0.  1.
</event>
<event>
 7    1  0.6992302E-006  0.1335978E+03  0.7561462E-02  0.1222213E+00
         -2   -1    0    0    0  501 -0.00000000000E+00  0.00000000000E+00  0.94932811479E+02  0.94932811479E+02  0.00000000000E+00 0. -1.
          2   -1    0    0  501    0  0.00000000000E+00 -0.00000000000E+00 -0.22570329353E+03  0.22570329353E+03  0.00000000000E+00 0.  1.
         23    2    1    2    0    0  0.49408683836E+02 -0.81966138930E+02 -0.74200512752E+02  0.17410717835E+03  0.12509167635E+03 0.  0.
          5    1    3    3  502    0 -0.17175205581E+02 -0.60592514488E+02  0.10717624494E+02  0.64021717983E+02  0.41800000000E+01 0.  1.
         -5    1    3    3    0  502  0.66583889416E+02 -0.21373624442E+02 -0.84918137246E+02  0.11008546037E+03  0.41800000000E+01 0.  1.
        -11    1    1    2    0    0  0.15157118932E+02  0.65718223484E+02 -0.18943004222E+02  0.70053269454E+02  0.00000000000E+00 0.  1.
         11    1    1    2    0    0 -0.64565802768E+02  0.16247915446E+02 -0.37626965077E+02  0.76475657201E+02  0.00000000000E+00 0. -1.
</event>
<event>
 7    1  0.6992302E-006  0.1107686E+03  0.7561462E-02  0.1259153E+00
         -1   -1    0    0    0  501 -0.00000000000E+00  0.00000000000E+00  0.36515467759E+03  0.36515467759E+03  0.00000000000E+00 0.  1.
          1   -1    0    0  501    0  0.00000000000E+00 -0.00000000000E+00 -0.60244497616E+02  0.60244497616E+02  0.00000000000E+00 0. -1.
         23    2    1    2    0    0 -0.42215283412E+02 -0.44972677199E+02  0.27853818965E+03  0.31150749188E+03  0.12509485423E+03 0.  0.
          5    1    3    3  502    0  0.26482079951E+01 -0.70579249486E+02  0.82256301086E+02  0.10849891673E+03  0.41800000000E+01 0.  1.
         -5    1    3    3    0  502 -0.44863491407E+02  0.25606572286E+02  0.19628188857E+03  0.20300857515E+03  0.41800000000E+01 0.  1.
        -11    1    1    2    0    0  0.60167140945E+02  0.52153179332E+02 -0.18924738663E+01  0.79646848157E+02  0.00000000000E+00 0. -1.
         11    1    1    2    0    0 -0.17951857534E+02 -0.71805021330E+01  0.28264464182E+02  0.34244835162E+02  0.00000000000E+00 0.  1.
</event>
<event>
 7    1  0.6992302E-006  0.1605998E+03  0.7561462E-02  0.1188021E+00
          2   -1    0    0  501    0  0.00000000000E+00  0.00000000000E+00  0.23875027946E+02  0.23875027946E+02  0.00000000000E+00 0. -1.
         -2   -1    0    0    0  501 -0.00000000000E+00 -0.00000000000E+00 -0.13696879278E+04  0.13696879278E+04  0.00000000000E+00 0.  1.
         23    2    1    2    0    0  0.38393696581E+01 -0.12244891169E+03 -0.10045620194E+04  0.10197066813E+04  0.12509351896E+03 0.  0.
          5    1    3    3  502    0 -0.53210267813E+02 -0.84571951676E+02 -0.45384150476E+03  0.46472930988E+03  0.41800000000E+01 0. -1.
         -5    1    3    3    0  502  0.57049637471E+02 -0.37876960013E+02 -0.55072051460E+03  0.55497737147E+03  0.41800000000E+01 0. -1.
        -11    1    1    2    0    0 -0.47423325477E+02  0.61611381122E+02 -0.18095179976E+03  0.19694793201E+03  0.00000000000E+00 0.  1.
         11    1    1    2    0    0  0.43583955819E+02  0.60837530567E+02 -0.16029908074E+03  0.17690834242E+03  0.00000000000E+00 0. -1.
</event>
<event>
 6    1  0.6992302E-006  0.2601066E+03  0.7561462E-02  0.1107079E+00
         -2   -1    0    0    0  501 -0.00000000000E+00  0.00000000000E+00  0.89791223348E+02  0.89791223348E+02  0.00000000000E+00 0.  1.
          2   -1    0    0  501    0  0.00000000000E+00 -0.00000000000E+00 -0.96084190059E+03  0.96084190059E+03  0.00000000000E+00 0. -1.
          5    1    1    2  502    0  0.94048852238E+02  0.18577658295E+03 -0.32388796063E+03  0.38507013494E+03  0.41800000000E+01 0. -1.
         -5    1    1    2    0  502  0.64117965385E+02 -0.11650317676E+03 -0.70683581013E+02  0.15065770709E+03  0.41800000000E+01 0.  1.
        -11    1    1    2    0    0 -0.12592639964E+03 -0.32620195560E+02 -0.23556673360E+03  0.26909704804E+03  0.00000000000E+00 0. -1.
         11    1    1    2    0    0 -0.32240417984E+02 -0.36653210636E+02 -0.24091240200E+03  0.24580823387E+03  0.00000000000E+00 0.  1.
</event>
<event>
 6    1  0.6992302E-006  0.1657801E+03  0.7561462E-02  0.1182321E+00
         -2   -1    0    0    0  501 -0.00000000000E+00  0.00000000000E+00  0.71180926789E+02  0.71180926789E+02  0.00000000000E+00 0.  1.
          2   -1    0    0  501    0  0.00000000000E+00 -0.00000000000E+00 -0.10539404558E+04  0.10539404558E+04  0.00000000000E+00 0. -1.
          5    1    1    2  502    0  0.10606411684E+03 -0.18562267816E+02 -0.74156791101E+03  0.74935611942E+03  0.41800000000E+01 0. -1.
         -5    1    1    2    0  502 -0.10041825244E+03  0.70692155784E+02 -0.12549920095E+02  0.12351590669E+03  0.41800000000E+01 0.  1.
        -11    1    1    2    0    0 -0.44788893252E+02 -0.15720739928E+02 -0.14859952695E+03  0.15599681417E+03  0.00000000000E+00 0.  1.
         11    1    1    2    0    0  0.39143028844E+02 -0.36409148040E+02 -0.80042170936E+02  0.96252542285E+02  0.00000000000E+00 0. -1.
</event>
<event>
 6    1  0.6992302E-006  0.1221880E+03  0.7561462E-02  0.1239530E+00
         -2   -1    0    0    0  501 -0.00000000000E+00  0.00000000000E+00  0.15548844450E+03  0.15548844450E+03  0.00000000000E+00 0.  1.
          2   -1    0    0  501    0  0.00000000000E+00 -0.00000000000E+00 -0.24511612776E+03  0.24511612776E+03  0.00000000000E+00 0. -1.
          5    1    1    2  502    0 -0.44621624044E+02  0.10390164149E+03 -0.66433368979E+02  0.13121549204E+03  0.41800000000E+01 0. -1.
         -5    1    1    2    0  502  0.12031645150E+02 -0.15327365987E+02  0.92857339293E+02  0.94971819471E+02  0.41800000000E+01 0.  1.
        -11    1    1    2    0    0 -0.10651596443E+02 -0.56391459855E+02 -0.10460303506E+03  0.11931155935E+03  0.00000000000E+00 0. -1.
         11    1    1    2    0    0  0.43241575337E+02 -0.32182815650E+02 -0.11448618517E+02  0.55105701399E+02  0.00000000000E+00 0.  1.
</event>
<event>
 7    1  0.6992302E-006  0.1350388E+03  0.7561462E-02  0.1220165E+00
         -3   -1    0    0    0  501 -0.00000000000E+00  0.00000000000E+00  0.12835201394E+03  0.12835201394E+03  0.00000000000E+00 0.  1.
          3   -1    0    0  501    0  0.00000000000E+00 -0.00000000000E+00 -0.17922617842E+03  0.17922617842E+03  0.00000000000E+00 0. -1.
         23    2    1    2    0    0  0.66068655518E+02  0.78920797200E+02 -0.27574560530E+01  0.16201414165E+03  0.12508964408E+03 0.  0.
          5    1    3    3  502    0 -0.20211137138E+02  0.12278675727E+02  0.38497998968E+02  0.45374268771E+02  0.41800000000E+01 0.  1.
         -5    1    3    3    0  502  0.86279792656E+02  0.66642121473E+02 -0.41255455021E+02  0.11663987287E+03  0.41800000000E+01 0.  1.
        -11    1    1    2    0    0 -0.13945509258E+02 -0.83483034880E+02 -0.35222977020E+02  0.91676346194E+02  0.00000000000E+00 0. -1.
         11    1    1    2    0    0 -0.52123146259E+02  0.45622376808E+01 -0.12893731407E+02  0.53887704518E+02  0.00000000000E+00 0.  1.
</event>
<event>
 7    1  0.6992302E-006  0.1084714E+03  0.7561462E-02  0.1263427E+00
          1   -1    0    0  501    0  0.00000000000E+00  0.00000000000E+00  0.48582420994E+03  0.48582420994E+03  0.00000000000E+00 0. -1.
         -1   -1    0    0    0  501 -0.00000000000E+00 -0.00000000000E+00 -0.28145170376E+02  0.28145170376E+02  0.00000000000E+00 0.  1.
         23    2    1    2    0    0  0.30097679493E+02  0.26796262161E+02  0.21143612145E+03  0.24894911177E+03  0.12508603767E+03 0.  0.
          5    1    3    3  502    0  0.74383951261E+02 -0.74018727139E+01  0.11069007925E+03  0.13363205442E+03  0.41800000000E+01 0.  1.
         -5    1    3    3    0  502 -0.44286271768E+02  0.34198134875E+02  0.10074604221E+03  0.11531705735E+03  0.41800000000E+01 0.  1.
        -11    1    1    2    0    0 -0.96530127635E+01  0.26862190118E+02  0.30528538526E+02  0.41794133295E+02  0.00000000000E+00 0. -1.
         11    1    1    2    0    0 -0.20444666730E+02 -0.53658452279E+02  0.21571437958E+03  0.22322613525E+03  0.00000000000E+00 0.  1.
</event>
<event>
 7    1  0.6992302E-006  0.8899239E+02  0.7561462E-02  0.1305310E+00
          4   -1    0    0  501    0  0.00000000000E+00  0.00000000000E+00  0.12872429146E+03  0.12872429146E+03  0.00000000000E+00 0.  1.
         -4   -1    0    0    0  501 -0.00000000000E+00 -0.00000000000E+00 -0.14025423748E+03  0.14025423748E+03  0.00000000000E+00 0. -1.
         23    2    1    2    0    0  0.48764486975E+02 -0.66201695382E+02 -0.27706415422E+02  0.15223420134E+03  0.12508783690E+03 0.  0.
          5    1    3    3  502    0  0.16982989900E+02 -0.16733793525E+02 -0.73632617789E+02  0.77509203287E+02  0.41800000000E+01 0.  1.
         -5    1    3    3    0  502  0.31781497075E+02 -0.49467901857E+02  0.45926202367E+02  0.74724998055E+02  0.41800000000E+01 0.  1.
        -11    1    1    2    0    0 -0.55026221447E+02  0.40352334595E+02 -0.20672819506E+02  0.71299098313E+02  0.00000000000E+00 0. -1.
         11    1    1    2    0    0  0.62617344715E+01  0.25849360787E+02  0.36849288904E+02  0.45445229281E+02  0.00000000000E+00 0.  1.
</event>
<event>
 7    1  0.6992302E-006  0.8817236E+02  0.7561462E-02  0.1307339E+00
          1   -1    0    0  501    0  0.00000000000E+00  0.00000000000E+00  0.12548415245E+03  0.12548415245E+03  0.00000000000E+00 0. -1.
         -1   -1    0    0    0  501 -0.00000000000E+00 -0.00000000000E+00 -0.12621434160E+03  0.12621434160E+03  0.00000000000E+00 0.  1.
         23    2    1    2    0    0 -0.56220921418E+02 -0.14821378644E+02 -0.24070273551E+02  0.14002733244E+03  0.12509120869E+03 0.  0.
          5    1    3    3  502    0  0.20863767170E+02 -0.25884664728E+01  0.35693932212E+02  0.41635635410E+02  0.41800000000E+01 0. -1.
         -5    1    3    3    0  502 -0.77084688588E+02 -0.12232912172E+02 -0.59764205763E+02  0.98391697035E+02  0.41800000000E+01 0. -1.
        -11    1    1    2    0    0 -0.84976554657E+01  0.80005843379E+01  0.42306290197E+02  0.43886691473E+02  0.00000000000E+00 0. -1.
         11    1    1    2    0    0  0.64718576883E+02  0.68207943064E+01 -0.18966205796E+02  0.67784470132E+02  0.00000000000E+00 0.  1.
</event>
<event>
 7    1  0.6992302E-006  0.1682374E+03  0.7561462E-02  0.1179698E+00
          1   -1    0    0  501    0  0.00000000000E+00  0.00000000000E+00  0.21560920840E+03  0.21560920840E+03  0.00000000000E+00 0. -1.
         -1   -1    0    0    0  501 -0.00000000000E+00 -0.00000000000E+00 -0.16023175998E+03  0.16023175998E+03  0.00000000000E+00 0.  1.
         23    2    1    2    0    0 -0.12492328896E+03 -0.82065700771E+02  0.74820652824E+01  0.19504950054E+03  0.12509084296E+03 0.  0.
          5    1    3    3  502    0 -0.57235662190E+02  0.14730637602E+02 -0.35753772919E+02  0.69200559163E+02  0.41800000000E+01 0. -1.
         -5    1    3    3    0  502 -0.67687626770E+02 -0.96796338373E+02  0.43235838202E+02  0.12584894137E+03  0.41800000000E+01 0. -1.
        -11    1    1    2    0    0  0.66636197386E+02  0.11682298597E+02  0.57654362669E+02  0.88886919383E+02  0.00000000000E+00 0.  1.
         11    1    1    2    0    0  0.58287091574E+02  0.70383402173E+02 -0.97589795273E+01  0.91904548457E+02  0.00000000000E+00 0. -1.
</event>
<event>
 7    1  0.6992302E-006  0.8294070E+02  0.7561462E-02  0.1320907E+00
          2   -1    0    0  501    0  0.00000000000E+00  0.00000000000E+00  0.12883191819E+03  0.12883191819E+03  0.00000000000E+00 0.  1.
         -2   -1    0    0    0  501 -0.00000000000E+00 -0.00000000000E+00 -0.12724377657E+03  0.12724377657E+03  0.00000000000E+00 0. -1.
         23    2    1    2    0    0 -0.30531731853E+02 -0.21330597796E+01 -0.61580540451E+02  0.14274241587E+03  0.12508596137E+03 0.  0.
          5    1    3    3  502    0 -0.71127138890E+01 -0.37157901319E+02  0.25568117739E+02  0.45853041055E+02  0.41800000000E+01 0.  1.
         -5    1    3    3    0  502 -0.23419017964E+02  0.35024841540E+02 -0.87148658190E+02  0.96889374812E+02  0.41800000000E+01 0.  1.
        -11    1    1    2    0    0  0.56950541416E+02 -0.73214087107E+01  0.63044335135E+02  0.85273415469E+02  0.00000000000E+00 0.  1.
         11    1    1    2    0    0 -0.26418809563E+02  0.94544684904E+01  0.12434692670E+00  0.28059863423E+02  0.00000000000E+00 0. -1.
</event>
<event>
 7    1  0.7733172E-006  0.2664420E+03  0.7561462E-02  0.1103333E+00
          1   -1    0    0  501    0  0.00000000000E+00  0.00000000000E+00  0.70804671967E+03  0.70804671967E+03  0.00000000000E+00 0. -1.
         -1   -1    0    0    0  501 -0.00000000000E+00 -0.00000000000E+00 -0.16082169871E+03  0.16082169871E+03  0.00000000000E+00 0.  1.
         23    2    1    2    0    0  0.25558066436E+03  0.32834841109E+02  0.36633795599E+02  0.28877248657E+03  0.12509161137E+03 0.  0.
          5    1    3    3  502    0  0.35104930491E+02 -0.16137101027E+02 -0.34482336176E+02  0.51954461623E+02  0.41800000000E+01 0. -1.
         -5    1    3    3    0  502  0.22047573387E+03  0.48971942137E+02  0.71116131775E+02  0.23681802495E+03  0.41800000000E+01 0. -1.
        -11    1    1    2    0    0 -0.17096697615E+03 -0.56863091153E+02  0.40064709341E+03  0.43929626852E+03  0.00000000000E+00 0. -1.
         11    1    1    2    0    0 -0.84613688208E+02  0.24028250044E+02  0.10994413196E+03  0.14079966329E+03  0.00000000000E+00 0.  1.
</event>
<event>
 7    1  0.6992302E-006  0.1210894E+03  0.7561462E-02  0.1241311E+00
          2   -1    0    0  501    0  0.00000000000E+00  0.00000000000E+00  0.23689800172E+03  0.23689800172E+03  0.00000000000E+00 0.  1.
         -2   -1    0    0    0  501 -0.00000000000E+00 -0.00000000000E+00 -0.82360016614E+02  0.82360016614E+02  0.00000000000E+00 0. -1.
         23    2    1    2    0    0  0.76392905519E+02  0.36149774759E+02  0.55904892851E+02  0.16098587560E+03  0.12509361642E+03 0.  0.
          5    1    3    3  502    0 -0.19961634695E+02  0.30810400036E+02 -0.16303970692E+02  0.40386129679E+02  0.41800000000E+01 0. -1.
         -5    1    3    3    0  502  0.96354540214E+02  0.53393747225E+01  0.72208863543E+02  0.12059974592E+03  0.41800000000E+01 0. -1.
        -11    1    1    2    0    0 -0.86736737753E+02 -0.19287946966E+02  0.10494386321E+03  0.13750818521E+03  0.00000000000E+00 0.  1.
         11    1    1    2    0    0  0.10343832234E+02 -0.16861827793E+02 -0.63107709578E+01  0.20763957520E+02  0.00000000000E+00 0. -1.
</event>
<event>
 7    1  0.6992302E-006  0.9964663E+02  0.7561462E-02  0.1281041E+00
          1   -1    0    0  501    0  0.00000000000E+00  0.00000000000E+00  0.22702118373E+03  0.22702118373E+03  0.00000000000E+00 0. -1.
         -1   -1    0    0    0  501 -0.00000000000E+00 -0.00000000000E+00 -0.58737982408E+02  0.58737982408E+02  0.00000000000E+00 0.  1.
         23    2    1    2    0    0 -0.24788797700E+02  0.18821428759E+02  0.65422012062E+02  0.14455228610E+03  0.12508634251E+03 0.  0.
          5    1    3    3  502    0  0.16904143946E+02  0.51734624390E+02 -0.65772387216E+01  0.54981396058E+02  0.41800000000E+01 0.  1.
         -5    1    3    3    0  502 -0.41692941646E+02 -0.32913195631E+02  0.71999250783E+02  0.89570890043E+02  0.41800000000E+01 0.  1.
        -11    1    1    2    0    0 -0.31732929877E+02 -0.14040520569E+02  0.17886247593E+02  0.39038864089E+02  0.00000000000E+00 0.  1.
         11    1    1    2    0    0  0.56521727577E+02 -0.47809081901E+01  0.84974941666E+02  0.10216801595E+03  0.00000000000E+00 0. -1.
</event>
<event>
 7    1  0.6992302E-006  0.9938259E+02  0.7561462E-02  0.1281600E+00
          1   -1    0    0  501    0  0.00000000000E+00  0.00000000000E+00  0.16736028674E+03  0.16736028674E+03  0.00000000000E+00 0. -1.
         -1   -1    0    0    0  501 -0.00000000000E+00 -0.00000000000E+00 -0.10965237831E+03  0.10965237831E+03  0.00000000000E+00 0.  1.
         23    2    1    2    0    0  0.22274109577E+02 -0.59282031598E+01 -0.51306426163E+02  0.13126236879E+03  0.11860092978E+03 0.  0.
          5    1    3    3  502    0 -0.36306327264E+02 -0.20291462837E+02  0.12232625522E+02  0.43554590925E+02  0.41800000000E+01 0. -1.
         -5    1    3    3    0  502  0.58580436841E+02  0.14363259677E+02 -0.63539051685E+02  0.87707777865E+02  0.41800000000E+01 0.  1.
        -11    1    1    2    0    0 -0.58015981692E+02  0.14389113670E+02  0.72427039456E+02  0.93907277504E+02  0.00000000000E+00 0. -1.
         11    1    1    2    0    0  0.35741872115E+02 -0.84609105106E+01  0.36587295133E+02  0.51843018759E+02  0.00000000000E+00 0.  1.
</event>
<event>
 7    1  0.6992302E-006  0.1129438E+03  0.7561462E-02  0.1255214E+00
         -2   -1    0    0    0  501 -0.00000000000E+00  0.00000000000E+00  0.20809559414E+03  0.20809559414E+03  0.00000000000E+00 0.  1.
          2   -1    0    0  501    0  0.00000000000E+00 -0.00000000000E+00 -0.61586329474E+02  0.61586329474E+02  0.00000000000E+00 0. -1.
         23    2    1    2    0    0 -0.23119471534E+02 -0.24255568756E+02  0.84820514755E+02  0.15480750348E+03  0.12509196949E+03 0.  0.
          5    1    3    3  502    0 -0.58448266195E+02  0.29049422478E+02  0.43953022136E+02  0.78799805345E+02  0.41800000000E+01 0.  1.
         -5    1    3    3    0  502  0.35328794661E+02 -0.53304991234E+02  0.40867492619E+02  0.76007698134E+02  0.41800000000E+01 0.  1.
        -11    1    1    2    0    0 -0.17271827489E+02  0.46979549764E+02  0.37879914698E+02  0.62771666047E+02  0.00000000000E+00 0. -1.
         11    1    1    2    0    0  0.40391299023E+02 -0.22723981007E+02  0.23808835218E+02  0.52102754092E+02  0.00000000000E+00 0.  1.
</event>
<event>
 7    1  0.6992302E-006  0.1252292E+03  0.7561462E-02  0.1234712E+00
          1   -1    0    0  501    0  0.00000000000E+00  0.00000000000E+00  0.56289542211E+03  0.56289542211E+03  0.00000000000E+00 0. -1.
         -1   -1    0    0    0  501 -0.00000000000E+00 -0.00000000000E+00 -0.29271241404E+02  0.29271241404E+02  0.00000000000E+00 0.  1.
         23    2    1    2    0    0  0.56895622920E+02 -0.37504124389E+02  0.28779302793E+03  0.32111844316E+03  0.12509418995E+03 0.  0.
          5    1    3    3  502    0  0.88120180233E+02  0.63051775509E+01  0.17474693380E+03  0.19585424351E+03  0.41800000000E+01 0.  1.
         -5    1    3    3    0  502 -0.31224557313E+02 -0.43809301940E+02  0.11304609413E+03  0.12526419965E+03  0.41800000000E+01 0.  1.
        -11    1    1    2    0    0  0.21496362640E+02  0.15905486581E+02  0.10573892140E+03  0.10906785782E+03  0.00000000000E+00 0. -1.
         11    1    1    2    0    0 -0.78391985560E+02  0.21598637808E+02  0.14009223137E+03  0.16198036253E+03  0.00000000000E+00 0.  1.
</event>
<event>
 7    1  0.6992302E-006  0.1067372E+03  0.7561462E-02  0.1266734E+00
         -1   -1    0    0    0  501 -0.00000000000E+00  0.00000000000E+00  0.13771010749E+03  0.13771010749E+03  0.00000000000E+00 0.  1.
          1   -1    0    0  501    0  0.00000000000E+00 -0.00000000000E+00 -0.11446275047E+03  0.11446275047E+03  0.00000000000E+00 0. -1.
         23    2    1    2    0    0 -0.59536431028E+02 -0.20918338430E+02  0.32331464654E+02  0.14379277913E+03  0.12509546842E+03 0.  0.
          5    1    3    3  502    0  0.22057471768E+02 -0.24875986767E+02  0.49922899176E+02  0.60125826735E+02  0.41800000000E+01 0. -1.
         -5    1    3    3    0  502 -0.81593902796E+02  0.39576483371E+01 -0.17591434522E+02  0.83666952391E+02  0.41800000000E+01 0. -1.
        -11    1    1    2    0    0  0.37817862042E+02  0.49486739848E+02  0.16351705117E+02  0.64393372101E+02  0.00000000000E+00 0.  1.
         11    1    1    2    0    0  0.21718568986E+02 -0.28568401419E+02 -0.25435812757E+02  0.43986706731E+02  0.00000000000E+00 0. -1.
</event>
<event>
 7    1  0.6992302E-006  0.1065074E+03  0.7561462E-02  0.1267178E+00
          2   -1    0    0  501    0  0.00000000000E+00  0.00000000000E+00  0.72555409410E+03  0.72555409410E+03  0.00000000000E+00 0. -1.
         -2   -1    0    0    0  501 -0.00000000000E+00 -0.00000000000E+00 -0.17865594723E+02  0.17865594723E+02  0.00000000000E+00 0.  1.
         23    2    1    2    0    0  0.20708857375E+02  0.21035651379E+02  0.36437085004E+03  0.38637425404E+03  0.12509033704E+03 0.  0.
          5    1    3    3  502    0  0.56240477867E+02 -0.24712457061E+02  0.11627362002E+03  0.13157022458E+03  0.41800000000E+01 0.  1.
         -5    1    3    3    0  502 -0.35531620492E+02  0.45748108440E+02  0.24809723002E+03  0.25480402945E+03  0.41800000000E+01 0.  1.
        -11    1    1    2    0    0  0.45703583046E+01 -0.52672265963E+02  0.13818697089E+03  0.14795571872E+03  0.00000000000E+00 0.  1.
         11    1    1    2    0    0 -0.25279215680E+02  0.31636614583E+02  0.20513067844E+03  0.20908971607E+03  0.00000000000E+00 0. -1.
</event>
<event>
 7    1  0.6992302E-006  0.1209091E+03  0.7561462E-02  0.1241605E+00
         -1   -1    0    0    0  501 -0.00000000000E+00  0.00000000000E+00  0.36700091510E+02  0.36700091510E+02  0.00000000000E+00 0.  1.
          1   -1    0    0  501    0  0.00000000000E+00 -0.00000000000E+00 -0.55746619876E+03  0.55746619876E+03  0.00000000000E+00 0. -1.
         23    2    1    2    0    0 -0.61612396154E+02 -0.23940924479E+02 -0.14865653794E+03  0.20521920737E+03  0.12508757563E+03 0.  0.
          5    1    3    3  502    0 -0.14408439321E+02 -0.64817064236E+02 -0.34284861043E+02  0.74845033480E+02  0.41800000000E+01 0. -1.
         -5    1    3    3    0  502 -0.47203956832E+02  0.40876139758E+02 -0.11437167690E+03  0.13037417389E+03  0.41800000000E+01 0. -1.
        -11    1    1    2    0    0  0.30108912942E+02  0.58591132333E+02 -0.23512681189E+03  0.24418043553E+03  0.00000000000E+00 0.  1.
         11    1    1    2    0    0  0.31503483212E+02 -0.34650207855E+02 -0.13698275742E+03  0.14476664737E+03  0.00000000000E+00 0. -1.
</event>
<event>
 7    1  0.6992302E-006  0.1152328E+03  0.7561462E-02  0.1251175E+00
          2   -1    0    0  501    0  0.00000000000E+00  0.00000000000E+00  0.54953373220E+03  0.54953373220E+03  0.00000000000E+00 0. -1.
         -2   -1    0    0    0  501 -0.00000000000E+00 -0.00000000000E+00 -0.52234704015E+02  0.52234704015E+02  0.00000000000E+00 0.  1.
         23    2    1    2    0    0 -0.44000709754E+02  0.54339621042E+02  0.73250119501E+02  0.16093969160E+03  0.12508855844E+03 0.  0.
          5    1    3    3  502    0  0.13501115002E+00  0.79294397703E+02  0.76103517182E+02  0.10998562389E+03  0.41800000000E+01 0. -1.
         -5    1    3    3    0  502 -0.44135720904E+02 -0.24954776661E+02 -0.28533976809E+01  0.50954067711E+02  0.41800000000E+01 0. -1.
        -11    1    1    2    0    0 -0.16746839365E+02 -0.30760347220E+02  0.49404705361E+02  0.60559726730E+02  0.00000000000E+00 0.  1.
         11    1    1    2    0    0  0.60747549119E+02 -0.23579273822E+02  0.37464420333E+03  0.38026901789E+03  0.00000000000E+00 0. -1.
</event>
<event>
 7    1  0.6992302E-006  0.1242759E+03  0.7561462E-02  0.1236205E+00
         -2   -1    0    0    0  501 -0.00000000000E+00  0.00000000000E+00  0.12243571845E+02  0.12243571845E+02  0.00000000000E+00 0.  1.
          2   -1    0    0  501    0  0.00000000000E+00 -0.00000000000E+00 -0.13581946800E+04  0.13581946800E+04  0.00000000000E+00 0. -1.
         23    2    1    2    0    0 -0.70673424692E+02 -0.29576216110E+01 -0.76507546439E+03  0.77845732137E+03  0.12510737189E+03 0.  0.
          5    1    3    3  502    0 -0.93283023169E+02  0.26493922559E+02 -0.65641368369E+03  0.66355108837E+03  0.41800000000E+01 0.  1.
         -5    1    3    3    0  502  0.22609598477E+02 -0.29451544170E+02 -0.10866178070E+03  0.11490623300E+03  0.41800000000E+01 0.  1.
        -11    1    1    2    0    0  0.87987549778E+02 -0.14913593813E+02 -0.45305255228E+03  0.46175842096E+03  0.00000000000E+00 0.  1.
         11    1    1    2    0    0 -0.17314125086E+02  0.17871215424E+02 -0.12782309146E+03  0.13022250949E+03  0.00000000000E+00 0. -1.
</event>
<event>
 7    1  0.6992302E-006  0.1130873E+03  0.7561462E-02  0.1254957E+00
         -2   -1    0    0    0  501 -0.00000000000E+00  0.00000000000E+00  0.11019138253E+03  0.11019138253E+03  0.00000000000E+00 0.  1.
          2   -1    0    0  501    0  0.00000000000E+00 -0.00000000000E+00 -0.16611725969E+03  0.16611725969E+03  0.00000000000E+00 0. -1.
         23    2    1    2    0    0 -0.77573118665E+02 -0.79227443162E+01 -0.16693670221E+02  0.14834512842E+03  0.12508892790E+03 0.  0.
          5    1    3    3  502    0 -0.28976567491E+02  0.57132492720E+02 -0.19169051831E+02  0.66997672617E+02  0.41800000000E+01 0.  1.
         -5    1    3    3    0  502 -0.48596551173E+02 -0.65055237036E+02  0.24753816101E+01  0.81347455804E+02  0.41800000000E+01 0.  1.
        -11    1    1    2    0    0  0.17193809704E+02  0.10653852974E+02 -0.60576592908E+02  0.63864350648E+02  0.00000000000E+00 0. -1.
         11    1    1    2    0    0  0.60379308960E+02 -0.27311086576E+01  0.21344385970E+02  0.64099163157E+02  0.00000000000E+00 0.  1.
</event>
<event>
 7    1  0.6992302E-006  0.2908050E+03  0.7561462E-02  0.1089930E+00
         -2   -1    0    0    0  501 -0.00000000000E+00  0.00000000000E+00  0.37157176526E+02  0.37157176526E+02  0.00000000000E+00 0.  1.
          2   -1    0    0  501    0  0.00000000000E+00 -0.00000000000E+00 -0.25690536827E+04  0.25690536827E+04  0.00000000000E+00 0. -1.
         23    2    1    2    0    0  0.25692958137E+03 -0.13101012562E+03 -0.12313503201E+04  0.12708486278E+04  0.12512458227E+03 0.  0.
          5    1    3    3  502    0  0.45512907933E+02 -0.28966820044E+01 -0.42461985300E+03  0.42708231937E+03  0.41800000000E+01 0. -1.
         -5    1    3    3    0  502  0.21141667343E+03 -0.12811344361E+03 -0.80673046713E+03  0.84376630843E+03  0.41800000000E+01 0. -1.
        -11    1    1    2    0    0 -0.46458310206E+02  0.28040431751E+02 -0.11873483696E+03  0.13054731674E+03  0.00000000000E+00 0.  1.
         11    1    1    2    0    0 -0.21047127116E+03  0.10296969386E+03 -0.11818113491E+04  0.12048149147E+04  0.00000000000E+00 0. -1.
</event>
<event>
 7    1  0.6992302E-006  0.1449879E+03  0.7561462E-02  0.1206771E+00
          1   -1    0    0  501    0  0.00000000000E+00  0.00000000000E+00  0.48678365926E+03  0.48678365926E+03  0.00000000000E+00 0. -1.
         -1   -1    0    0    0  501 -0.00000000000E+00 -0.00000000000E+00 -0.67163553305E+02  0.67163553305E+02  0.00000000000E+00 0.  1.
         23    2    1    2    0    0  0.85590771476E+02  0.96031482498E+02  0.12099084524E+03  0.21641215127E+03  0.12509040247E+03 0.  0.
          5    1    3    3  502    0  0.68912526935E+02  0.25827459887E+02 -0.20180794636E+01  0.73739671124E+02  0.41800000000E+01 0. -1.
         -5    1    3    3    0  502  0.16678244541E+02  0.70204022611E+02  0.12300892471E+03  0.14267248014E+03  0.41800000000E+01 0. -1.
        -11    1    1    2    0    0 -0.43776645350E+02 -0.92114518459E+02  0.13855643874E+03  0.17204466253E+03  0.00000000000E+00 0.  1.
         11    1    1    2    0    0 -0.41814126126E+02 -0.39169640390E+01  0.16007282197E+03  0.16549039877E+03  0.00000000000E+00 0. -1.
</event>
<event>
 6    1  0.6992302E-006  0.2346523E+03  0.7561462E-02  0.1123407E+00
          2   -1    0    0  501    0  0.00000000000E+00  0.00000000000E+00  0.24879920450E+03  0.24879920450E+03  0.00000000000E+00 0. -1.
         -2   -1    0    0    0  501 -0.00000000000E+00 -0.00000000000E+00 -0.28169236156E+03  0.28169236156E+03  0.00000000000E+00 0.  1.
          5    1    1    2  502    0  0.20250205535E+03  0.72094995957E+02  0.55682662958E+02  0.22208737518E+03  0.41800000000E+01 0. -1.
         -5    1    1    2    0  502 -0.15025936337E+03 -0.27146421353E+02 -0.11388656106E+03  0.19053195444E+03  0.41800000000E+01 0.  1.
        -11    1    1    2    0    0 -0.90591946741E+01 -0.56209119486E+02  0.41440693496E+02  0.70419210440E+02  0.00000000000E+00 0.  1.
         11    1    1    2    0    0 -0.43183497302E+02  0.11260544882E+02 -0.16129952454E+02  0.47453025999E+02  0.00000000000E+00 0. -1.
</event>
<event>
 7    1  0.6992302E-006  0.8122286E+02  0.7561462E-02  0.1325617E+00
         -2   -1    0    0    0  501 -0.00000000000E+00  0.00000000000E+00  0.44057564730E+02  0.44057564730E+02  0.00000000000E+00 0.  1.
          2   -1    0    0  501    0  0.00000000000E+00 -0.00000000000E+00 -0.32152719754E+03  0.32152719754E+03  0.00000000000E+00 0. -1.
         23    2    1    2    0    0  0.43622336113E+02 -0.21428983174E+02 -0.14854212239E+03  0.20018368284E+03  0.12508651096E+03 0.  0.
          5    1    3    3  502    0 -0.14926511142E+02  0.16555655777E+01  0.16980315709E+02  0.23050925228E+02  0.41800000000E+01 0.  1.
         -5    1    3    3    0  502  0.58548847255E+02 -0.23084548752E+02 -0.16552243810E+03  0.17713275761E+03  0.41800000000E+01 0.  1.
        -11    1    1    2    0    0 -0.49620665405E+02 -0.10981996514E+02 -0.25523255696E+02  0.56870477965E+02  0.00000000000E+00 0.  1.
         11    1    1    2    0    0  0.59983292917E+01  0.32410979689E+02 -0.10340425473E+03  0.10853060147E+03  0.00000000000E+00 0. -1.
</event>
<event>
 7    1  0.6992302E-006  0.2037040E+03  0.7561462E-02  0.1146651E+00
          2   -1    0    0  501    0  0.00000000000E+00  0.00000000000E+00  0.20847156069E+03  0.20847156069E+03  0.00000000000E+00 0. -1.
         -2   -1    0    0    0  501 -0.00000000000E+00 -0.00000000000E+00 -0.21584393453E+03  0.21584393453E+03  0.00000000000E+00 0.  1.
         23    2    1    2    0    0 -0.14960041107E+02 -0.18104563670E+03  0.69098353589E+01  0.22067251352E+03  0.12508911623E+03 0.  0.
          5    1    3    3  502    0 -0.19468549480E+02 -0.19128774267E+03 -0.17883925973E+02  0.19315106037E+03  0.41800000000E+01 0. -1.
         -5    1    3    3    0  502  0.45085083729E+01  0.10242105968E+02  0.24793761332E+02  0.27521453148E+02  0.41800000000E+01 0. -1.
        -11    1    1    2    0    0 -0.37946739699E+02  0.59376134876E+02 -0.51890448757E+01  0.70656964507E+02  0.00000000000E+00 0. -1.
         11    1    1    2    0    0  0.52906780805E+02  0.12166950183E+03 -0.90931643230E+01  0.13298601719E+03  0.00000000000E+00 0.  1.
</event>
<event>
 7    1  0.6992302E-006  0.1441210E+03  0.7561462E-02  0.1207889E+00
          1   -1    0    0  501    0  0.00000000000E+00  0.00000000000E+00  0.79511648867E+03  0.79511648867E+03  0.00000000000E+00 0. -1.
         -1   -1    0    0    0  501 -0.00000000000E+00 -0.00000000000E+00 -0.32887795878E+02  0.32887795878E+02  0.00000000000E+00 0.  1.
         23    2    1    2    0    0 -0.10576946560E+03  0.17947395136E+02  0.26796850220E+03  0.31458494472E+03  0.12508908997E+03 0.  0.
          5    1    3    3  502    0  0.20980032036E+02  0.26730158400E+02  0.33652273859E+02  0.48006364664E+02  0.41800000000E+01 0.  1.
         -5    1    3    3    0  502 -0.12674949764E+03 -0.87827632648E+01  0.23431622834E+03  0.26657858006E+03  0.41800000000E+01 0.  1.
        -11    1    1    2    0    0  0.35520826662E+02 -0.39769849326E+02  0.11075270674E+03  0.12292083669E+03  0.00000000000E+00 0.  1.
         11    1    1    2    0    0  0.70248638941E+02  0.21822454191E+02  0.38350748386E+03  0.39049850314E+03  0.00000000000E+00 0. -1.
</event>
<event>
 7    1  0.6992302E-006  0.1282436E+03  0.7561462E-02  0.1230085E+00
          1   -1    0    0  501    0  0.00000000000E+00  0.00000000000E+00  0.34658231606E+03  0.34658231606E+03  0.00000000000E+00 0.  1.
         -1   -1    0    0    0  501 -0.00000000000E+00 -0.00000000000E+00 -0.58363749967E+02  0.58363749967E+02  0.00000000000E+00 0. -1.
         23    2    1    2    0    0 -0.67182398984E+02 -0.35760798093E+02  0.11220838820E+03  0.18447203702E+03  0.12508757191E+03 0.  0.
          5    1    3    3  502    0 -0.13339815454E+02  0.45789432420E+02  0.28391028351E+02  0.55660988928E+02  0.41800000000E+01 0.  1.
         -5    1    3    3    0  502 -0.53842583530E+02 -0.81550230512E+02  0.83817359853E+02  0.12881104809E+03  0.41800000000E+01 0.  1.
        -11    1    1    2    0    0 -0.91446768912E+01 -0.16104257101E+02 -0.32998599874E+01  0.18811201135E+02  0.00000000000E+00 0. -1.
         11    1    1    2    0    0  0.76327075875E+02  0.51865055193E+02  0.17931003788E+03  0.20166282787E+03  0.00000000000E+00 0.  1.
</event>
<event>
 7    1  0.6992302E-006  0.1383554E+03  0.7561462E-02  0.1215559E+00
          2   -1    0    0  501    0  0.00000000000E+00  0.00000000000E+00  0.86289684913E+03  0.86289684913E+03  0.00000000000E+00 0. -1.
         -2   -1    0    0    0  501 -0.00000000000E+00 -0.00000000000E+00 -0.25604841074E+02  0.25604841074E+02  0.00000000000E+00 0.  1.
         23    2    1    2    0    0  0.10026705530E+03  0.77434212924E+01  0.48304548292E+03  0.50901190482E+03  0.12508692071E+03 0.  0.
          5    1    3    3  502    0 -0.40751068840E+01  0.33318594246E+02  0.25101067625E+03  0.25327962257E+03  0.41800000000E+01 0.  1.
         -5    1    3    3    0  502  0.10434216218E+03 -0.25575172953E+02  0.23203480667E+03  0.25573228225E+03  0.41800000000E+01 0.  1.
        -11    1    1    2    0    0 -0.70564773939E+01 -0.37009028321E+02  0.11694674203E+03  0.12286579069E+03  0.00000000000E+00 0.  1.
         11    1    1    2    0    0 -0.93210577903E+02  0.29265607028E+02  0.23729978311E+03  0.25662399469E+03  0.00000000000E+00 0. -1.
</event>
<event>
 7    1  0.6992302E-006  0.7520394E+02  0.7561462E-02  0.1343241E+00
         -2   -1    0    0    0  501 -0.00000000000E+00  0.00000000000E+00  0.84117840771E+02  0.84117840771E+02  0.00000000000E+00 0. -1.
          2   -1    0    0  501    0  0.00000000000E+00 -0.00000000000E+00 -0.21443438489E+03  0.21443438489E+03  0.00000000000E+00 0.  1.
         23    2    1    2    0    0 -0.35546473015E+02  0.21898900905E+01  0.87983834354E+01  0.13035981085E+03  0.12509165188E+03 0.  0.
          5    1    3    3  502    0 -0.12431092982E+02 -0.32825060031E+02 -0.48006490877E+02  0.59616375310E+02  0.41800000000E+01 0. -1.
         -5    1    3    3    0  502 -0.23115380033E+02  0.35014950121E+02  0.56804874313E+02  0.70743435538E+02  0.41800000000E+01 0. -1.
        -11    1    1    2    0    0 -0.15832876685E+02  0.11682211626E+02 -0.10058094102E+03  0.10248746142E+03  0.00000000000E+00 0.  1.
         11    1    1    2    0    0  0.51379349700E+02 -0.13872101716E+02 -0.38533986535E+02  0.65704953389E+02  0.00000000000E+00 0. -1.
</event>
<event>
 7    1  0.6992302E-006  0.1043059E+03  0.7561462E-02  0.1271493E+00
         -1   -1    0    0    0  501 -0.00000000000E+00  0.00000000000E+00  0.91212153912E+02  0.91212153912E+02  0.00000000000E+00 0.  1.
          1   -1    0    0  501    0  0.00000000000E+00 -0.00000000000E+00 -0.18515512481E+03  0.18515512481E+03  0.00000000000E+00 0. -1.
         23    2    1    2    0    0  0.27944205581E+02 -0.33625169616E+02  0.90264444756E+01  0.13281778557E+03  0.12509019469E+03 0.  0.
          5    1    3    3  502    0 -0.20446032534E+02 -0.52564384901E+02 -0.33331175362E+02  0.65646739884E+02  0.41800000000E+01 0.  1.
         -5    1    3    3    0  502  0.48390238114E+02  0.18939215285E+02  0.42357619838E+02  0.67171045687E+02  0.41800000000E+01 0.  1.
        -11    1    1    2    0    0 -0.11283537981E+02 -0.31102681462E+02 -0.31184336800E+02  0.45466008019E+02  0.00000000000E+00 0. -1.
         11    1    1    2    0    0 -0.16660667600E+02  0.64727851078E+02 -0.71785078576E+02  0.98083485135E+02  0.00000000000E+00 0.  1.
</event>
<event>
 7    1  0.6992302E-006  0.1159727E+03  0.7561462E-02  0.1249893E+00
         -4   -1    0    0    0  501 -0.00000000000E+00  0.00000000000E+00  0.18021177163E+02  0.18021177163E+02  0.00000000000E+00 0. -1.
          4   -1    0    0  501    0  0.00000000000E+00 -0.00000000000E+00 -0.94855709506E+03  0.94855709506E+03  0.00000000000E+00 0.  1.
         23    2    1    2    0    0 -0.21704502137E+02  0.72234450110E+02 -0.48134068846E+03  0.50301832692E+03  0.12509867167E+03 0.  0.
          5    1    3    3  502    0 -0.34454247007E+02 -0.84285638457E+01 -0.32147905939E+03  0.32345694281E+03  0.41800000000E+01 0.  1.
         -5    1    3    3    0  502  0.12749744870E+02  0.80663013956E+02 -0.15986162906E+03  0.17956138410E+03  0.41800000000E+01 0.  1.
        -11    1    1    2    0    0 -0.21529248453E+02  0.82832791999E+01 -0.85319113158E+02  0.88382534040E+02  0.00000000000E+00 0.  1.
         11    1    1    2    0    0  0.43233750590E+02 -0.80517729310E+02 -0.36387611629E+03  0.37517741127E+03  0.00000000000E+00 0. -1.
</event>
<event>
 7    1  0.6992302E-006  0.1000400E+03  0.7561462E-02  0.1280212E+00
          2   -1    0    0  501    0  0.00000000000E+00  0.00000000000E+00  0.13179751599E+03  0.13179751599E+03  0.00000000000E+00 0. -1.
         -2   -1    0    0    0  501 -0.00000000000E+00 -0.00000000000E+00 -0.11501721417E+03  0.11501721417E+03  0.00000000000E+00 0.  1.
         23    2    1    2    0    0 -0.11088239949E+02 -0.47640283442E+02 -0.29556246000E+02  0.13748297076E+03  0.12504179261E+03 0.  0.
          5    1    3    3  502    0 -0.44748741373E+02 -0.61618905008E+02  0.17069188626E+02  0.78154775345E+02  0.41800000000E+01 0.  1.
         -5    1    3    3    0  502  0.33660501424E+02  0.13978621566E+02 -0.46625434626E+02  0.59328195414E+02  0.41800000000E+01 0.  1.
        -11    1    1    2    0    0  0.41322963770E+02  0.19008867431E+02 -0.20041583394E+01  0.45529562115E+02  0.00000000000E+00 0.  1.
         11    1    1    2    0    0 -0.30234723821E+02  0.28631416012E+02  0.48340706153E+02  0.63802197288E+02  0.00000000000E+00 0. -1.
</event>
<event>
 7    1  0.6992302E-006  0.9621545E+02  0.7561462E-02  0.1288462E+00
         -3   -1    0    0    0  501 -0.00000000000E+00  0.00000000000E+00  0.52417227058E+02  0.52417227058E+02  0.00000000000E+00 0.  1.
          3   -1    0    0  501    0  0.00000000000E+00 -0.00000000000E+00 -0.40357808423E+03  0.40357808423E+03  0.00000000000E+00 0. -1.
         23    2    1    2    0    0 -0.33479486735E+02 -0.45718052337E+02 -0.67611387070E+02  0.15306870143E+03  0.12509081243E+03 0.  0.
          5    1    3    3  502    0  0.24594267501E+02 -0.48496539981E+02  0.10567342799E+02  0.55551179266E+02  0.41800000000E+01 0.  1.
         -5    1    3    3    0  502 -0.58073754236E+02  0.27784876438E+01 -0.78178729869E+02  0.97517522162E+02  0.41800000000E+01 0.  1.
        -11    1    1    2    0    0  0.25884769257E+02 -0.66197861574E+01 -0.18127245575E+02  0.32286837572E+02  0.00000000000E+00 0.  1.
         11    1    1    2    0    0  0.75947174778E+01  0.52337838495E+02 -0.26542222452E+03  0.27063977228E+03  0.00000000000E+00 0. -1.
</event>
<event>
 7    1  0.6992302E-006  0.1300705E+03  0.7561462E-02  0.1227351E+00
         -2   -1    0    0    0  501 -0.00000000000E+00  0.00000000000E+00  0.19673395633E+02  0.19673395633E+02  0.00000000000E+00 0.  1.
          2   -1    0    0  501    0  0.00000000000E+00 -0.00000000000E+00 -0.11194084815E+04  0.11194084815E+04  0.00000000000E+00 0. -1.
         23    2    1    2    0    0 -0.34541397021E+01 -0.10007013715E+03 -0.63718723549E+03  0.65702445834E+03  0.12509037676E+03 0.  0.
          5    1    3    3  502    0  0.37904971002E+02 -0.11062237424E+03 -0.44697389187E+03  0.46203596064E+03  0.41800000000E+01 0. -1.
         -5    1    3    3    0  502 -0.41359110704E+02  0.10552237092E+02 -0.19021334362E+03  0.19498849771E+03  0.41800000000E+01 0. -1.
        -11    1    1    2    0    0 -0.11136593135E+01  0.11445162728E+02 -0.44204258197E+00  0.11507709963E+02  0.00000000000E+00 0.  1.
         11    1    1    2    0    0  0.45677990156E+01  0.88624974424E+02 -0.46210580783E+03  0.47054970886E+03  0.00000000000E+00 0. -1.
</event>
<event>
 7    1  0.6992302E-006  0.1395133E+03  0.7561462E-02  0.1213985E+00
          2   -1    0    0  501    0  0.00000000000E+00  0.00000000000E+00  0.68229464741E+02  0.68229464741E+02  0.00000000000E+00 0. -1.
         -2   -1    0    0    0  501 -0.00000000000E+00 -0.00000000000E+00 -0.46720987085E+03  0.46720987085E+03  0.00000000000E+00 0.  1.
         23    2    1    2    0    0 -0.74881970394E+02  0.90600642375E+02 -0.32846164075E+03  0.37060815581E+03  0.12509024670E+03 0.  0.
          5    1    3    3  502    0 -0.38702409790E+02 -0.20730002128E+02 -0.41081879192E+02  0.60272736039E+02  0.41800000000E+01 0.  1.
         -5    1    3    3    0  502 -0.36179560604E+02  0.11133064450E+03 -0.28737976155E+03  0.31033541977E+03  0.41800000000E+01 0.  1.
        -11    1    1    2    0    0  0.66605941627E+02 -0.83992600971E+02 -0.14916637922E+02  0.10822945331E+03  0.00000000000E+00 0. -1.
         11    1    1    2    0    0  0.82760287668E+01 -0.66080414042E+01 -0.55602127437E+02  0.56601726466E+02  0.00000000000E+00 0.  1.
</event>
<event>
 7    1  0.6992302E-006  0.8182165E+02  0.7561462E-02  0.1323960E+00
         -1   -1    0    0    0  501 -0.00000000000E+00  0.00000000000E+00  0.70950833062E+02  0.70950833062E+02  0.00000000000E+00 0.  1.
          1   -1    0    0  501    0  0.00000000000E+00 -0.00000000000E+00 -0.20643470710E+03  0.20643470710E+03  0.00000000000E+00 0. -1.
         23    2    1    2    0    0 -0.16782906872E+02 -0.10037901346E+02 -0.19327142193E+02  0.12807917178E+03  0.12509320682E+03 0.  0.
          5    1    3    3  502    0 -0.32978958792E+02  0.39567234445E+02  0.26882632358E+02  0.58252262506E+02  0.41800000000E+01 0.  1.
         -5    1    3    3    0  502  0.16196051920E+02 -0.49605135790E+02 -0.46209774551E+02  0.69826909273E+02  0.41800000000E+01 0.  1.
        -11    1    1    2    0    0 -0.23051071678E+01  0.31103218421E+02 -0.11677939065E+03  0.12087245259E+03  0.00000000000E+00 0. -1.
         11    1    1    2    0    0  0.19088014040E+02 -0.21065317076E+02  0.62265879933E+00  0.28433915795E+02  0.00000000000E+00 0.  1.
</event>
<event>
 7    1  0.6992302E-006  0.1067965E+03  0.7561462E-02  0.1266620E+00
          1   -1    0    0  501    0  0.00000000000E+00  0.00000000000E+00  0.94051352818E+02  0.94051352818E+02  0.00000000000E+00 0. -1.
         -1   -1    0    0    0  501 -0.00000000000E+00 -0.00000000000E+00 -0.22799527021E+03  0.22799527021E+03  0.00000000000E+00 0.  1.
         23    2    1    2    0    0 -0.37748033499E+02  0.76223402225E+02 -0.12758766162E+03  0.19789385477E+03  0.12509374597E+03 0.  0.
          5    1    3    3  502    0 -0.91221080704E+00  0.80490232476E+02 -0.13740961363E+03  0.15930594455E+03  0.41800000000E+01 0.  1.
         -5    1    3    3    0  502 -0.36835822692E+02 -0.42668302518E+01  0.98219520104E+01  0.38587910219E+02  0.41800000000E+01 0.  1.
        -11    1    1    2    0    0  0.43878468025E+01 -0.57002209838E+02 -0.42583519980E+02  0.71287174863E+02  0.00000000000E+00 0.  1.
         11    1    1    2    0    0  0.33360186697E+02 -0.19221192386E+02  0.36227264204E+02  0.52865593394E+02  0.00000000000E+00 0. -1.
</event>
<event>
 7    1  0.6992302E-006  0.2215167E+03  0.7561462E-02  0.1132757E+00
          4   -1    0    0  501    0  0.00000000000E+00  0.00000000000E+00  0.66011011440E+02  0.66011011440E+02  0.00000000000E+00 0. -1.
         -4   -1    0    0    0  501 -0.00000000000E+00 -0.00000000000E+00 -0.10845936218E+04  0.10845936218E+04  0.00000000000E+00 0.  1.
         23    2    1    2    0    0 -0.40900479365E+02  0.21405144888E+03 -0.74569058590E+03  0.78688931453E+03  0.12509784747E+03 0.  0.
          5    1    3    3  502    0 -0.71564194209E+01  0.15380226559E+03 -0.65476369497E+03  0.67263609767E+03  0.41800000000E+01 0.  1.
         -5    1    3    3    0  502 -0.33744059944E+02  0.60249183287E+02 -0.90926890928E+02  0.11425321686E+03  0.41800000000E+01 0.  1.
        -11    1    1    2    0    0  0.14559328602E+02 -0.14802844760E+03 -0.24648012185E+03  0.28788338926E+03  0.00000000000E+00 0.  1.
         11    1    1    2    0    0  0.26341150763E+02 -0.66023001282E+02 -0.26411902590E+02  0.75831929425E+02  0.00000000000E+00 0. -1.
</event>
<event>
 7    1  0.1589697E-005  0.1381576E+03  0.7561462E-02  0.1215830E+00
          1   -1    0    0  501    0  0.00000000000E+00  0.00000000000E+00  0.56739827554E+03  0.56739827554E+03  0.00000000000E+00 0. -1.
         -1   -1    0    0    0  501 -0.00000000000E+00 -0.00000000000E+00 -0.49460037552E+02  0.49460037552E+02  0.00000000000E+00 0.  1.
         23    2    1    2    0    0  0.28458869631E+01 -0.12785931098E+03  0.27101345790E+03  0.32473331975E+03  0.12508929657E+03 0.  0.
          5    1    3    3  502    0  0.33788839826E+02 -0.83054206753E+02  0.62983170980E+02  0.10965417996E+03  0.41800000000E+01 0.  1.
         -5    1    3    3    0  502 -0.30942952863E+02 -0.44805104225E+02  0.20803028692E+03  0.21507913979E+03  0.41800000000E+01 0.  1.
        -11    1    1    2    0    0  0.14347058092E+02  0.42141352254E+02  0.16981414392E+03  0.17555220056E+03  0.00000000000E+00 0. -1.
         11    1    1    2    0    0 -0.17192945055E+02  0.85717958724E+02  0.77110636172E+02  0.11657279279E+03  0.00000000000E+00 0.  1.
</event>
<event>
 7    1  0.6992302E-006  0.1062223E+03  0.7561462E-02  0.1267730E+00
          2   -1    0    0  501    0  0.00000000000E+00  0.00000000000E+00  0.17914008374E+03  0.17914008374E+03  0.00000000000E+00 0.  1.
         -2   -1    0    0    0  501 -0.00000000000E+00 -0.00000000000E+00 -0.12053582346E+03  0.12053582346E+03  0.00000000000E+00 0. -1.
         23    2    1    2    0    0 -0.17727953945E+02  0.46882879034E+02 -0.52777036667E+02  0.14472682343E+03  0.12509257821E+03 0.  0.
          5    1    3    3  502    0 -0.52133646536E+02 -0.89732562313E+01  0.98072675927E+01  0.53963796440E+02  0.41800000000E+01 0. -1.
         -5    1    3    3    0  502  0.34405692591E+02  0.55856135265E+02 -0.62584304260E+02  0.90763026994E+02  0.41800000000E+01 0. -1.
        -11    1    1    2    0    0  0.43882701035E+02 -0.50875447070E+02  0.10944319618E+03  0.12842046470E+03  0.00000000000E+00 0.  1.
         11    1    1    2    0    0 -0.26154747090E+02  0.39925680359E+01  0.19381007639E+01  0.26528619064E+02  0.00000000000E+00 0. -1.
</event>
<event>
 7    1  0.6992302E-006  0.2303131E+03  0.7561462E-02  0.1126420E+00
         -2   -1    0    0    0  501 -0.00000000000E+00  0.00000000000E+00  0.12739203798E+03  0.12739203798E+03  0.00000000000E+00 0. -1.
          2   -1    0    0  501    0  0.00000000000E+00 -0.00000000000E+00 -0.45158658641E+03  0.45158658641E+03  0.00000000000E+00 0.  1.
         23    2    1    2    0    0  0.18556563952E+03  0.10721884922E+03 -0.11565725879E+03  0.27357903961E+03  0.12465312352E+03 0.  0.
          5    1    3    3  502    0  0.16454090276E+03  0.33020639522E+02 -0.97887989919E+02  0.19432859359E+03  0.41800000000E+01 0. -1.
         -5    1    3    3    0  502  0.21024736759E+02  0.74198209698E+02 -0.17769268869E+02  0.79250446019E+02  0.41800000000E+01 0. -1.
        -11    1    1    2    0    0 -0.11067643158E+02 -0.13468248041E+02  0.46703195490E+00  0.17438593671E+02  0.00000000000E+00 0. -1.
         11    1    1    2    0    0 -0.17449799636E+03 -0.93750601179E+02 -0.20900432160E+03  0.28796099111E+03  0.00000000000E+00 0.  1.
</event>
<event>
 7    1  0.6992302E-006  0.4676535E+02  0.7561462E-02  0.1463613E+00
         -1   -1    0    0    0  501 -0.00000000000E+00  0.00000000000E+00  0.68912432964E+02  0.68912432964E+02  0.00000000000E+00 0.  1.
          1   -1    0    0  501    0  0.00000000000E+00 -0.00000000000E+00 -0.16887497167E+03  0.16887497167E+03  0.00000000000E+00 0. -1.
         23    2    1    2    0    0  0.28358386122E+01 -0.39812879074E+01 -0.57165032320E+02  0.13761838478E+03  0.12508831391E+03 0.  0.
          5    1    3    3  502    0  0.85388123678E+01  0.92950976377E+01 -0.95508757281E+02  0.96429794535E+02  0.41800000000E+01 0. -1.
         -5    1    3    3    0  502 -0.57029737556E+01 -0.13276385545E+02  0.38343724960E+02  0.41188590248E+02  0.41800000000E+01 0. -1.
        -11    1    1    2    0    0  0.17520934316E+02 -0.24539460061E+02 -0.55282504467E+02  0.62970814983E+02  0.00000000000E+00 0. -1.
         11    1    1    2    0    0 -0.20356772928E+02  0.28520747969E+02  0.12484998078E+02  0.37198204873E+02  0.00000000000E+00 0.  1.
</event>
<event>
 7    1  0.6992302E-006  0.2019734E+03  0.7561462E-02  0.1148085E+00
          1   -1    0    0  501    0  0.00000000000E+00  0.00000000000E+00  0.76197679159E+03  0.76197679159E+03  0.00000000000E+00 0.  1.
         -1   -1    0    0    0  501 -0.00000000000E+00 -0.00000000000E+00 -0.85097082558E+02  0.85097082558E+02  0.00000000000E+00 0. -1.
         23    2    1    2    0    0  0.16441556170E+03  0.70014824073E+02  0.10756375809E+03  0.24321245119E+03  0.12509109415E+03 0.  0.
          5    1    3    3  502    0  0.78344635705E+02  0.97576636794E+02  0.80209855187E+02  0.14869490664E+03  0.41800000000E+01 0.  1.
         -5    1    3    3    0  502  0.86070925998E+02 -0.27561812721E+02  0.27353902904E+02  0.94517544544E+02  0.41800000000E+01 0.  1.
        -11    1    1    2    0    0 -0.10174136801E+03 -0.73474672536E+02  0.46921271042E+03  0.48570608508E+03  0.00000000000E+00 0.  1.
         11    1    1    2    0    0 -0.62674193693E+02  0.34598484636E+01  0.10010324053E+03  0.11815533789E+03  0.00000000000E+00 0. -1.
</event>
<event>
 7    1  0.6992302E-006  0.8820887E+02  0.7561462E-02  0.1307248E+00
          3   -1    0    0  501    0  0.00000000000E+00  0.00000000000E+00  0.53898990390E+03  0.53898990390E+03  0.00000000000E+00 0. -1.
         -3   -1    0    0    0  501 -0.00000000000E+00 -0.00000000000E+00 -0.29410486939E+02  0.29410486939E+02  0.00000000000E+00 0.  1.
         23    2    1    2    0    0  0.26042136878E+02 -0.52724199878E+02  0.22713197586E+03  0.26588266690E+03  0.12508646591E+03 0.  0.
          5    1    3    3  502    0  0.24826747275E+02  0.47728740917E+01  0.20091207782E+03  0.20253958409E+03  0.41800000000E+01 0. -1.
         -5    1    3    3    0  502  0.12153896032E+01 -0.57497073969E+02  0.26219898035E+02  0.63343082810E+02  0.41800000000E+01 0. -1.
        -11    1    1    2    0    0  0.59719939294E+01 -0.16129225167E+02  0.10460794163E+02  0.20130693741E+02  0.00000000000E+00 0.  1.
         11    1    1    2    0    0 -0.32014130808E+02  0.68853425044E+02  0.27198664694E+03  0.28238703020E+03  0.00000000000E+00 0. -1.
</event>
<event>
 7    1  0.6992302E-006  0.1339235E+03  0.7561462E-02  0.1221747E+00
          3   -1    0    0  501    0  0.00000000000E+00  0.00000000000E+00  0.73007725906E+02  0.73007725906E+02  0.00000000000E+00 0. -1.
         -3   -1    0    0    0  501 -0.00000000000E+00 -0.00000000000E+00 -0.28937985283E+03  0.28937985283E+03  0.00000000000E+00 0.  1.
         23    2    1    2    0    0 -0.70967364036E+02 -0.64851846029E+02 -0.12469569211E+03  0.20109450793E+03  0.12509139377E+03 0.  0.
          5    1    3    3  502    0  0.29357293641E+02 -0.40976064478E+01 -0.10889692512E+00  0.29935352463E+02  0.41800000000E+01 0.  1.
         -5    1    3    3    0  502 -0.10032465768E+03 -0.60754239582E+02 -0.12458679519E+03  0.17115915547E+03  0.41800000000E+01 0.  1.
        -11    1    1    2    0    0  0.83485120232E+02  0.39673053532E+02 -0.95511321528E+02  0.13291399105E+03  0.00000000000E+00 0.  1.
         11    1    1    2    0    0 -0.12517756196E+02  0.25178792497E+02  0.38348867151E+01  0.28379079758E+02  0.00000000000E+00 0. -1.
</event>
<event>
 7    1  0.6992302E-006  0.8939146E+02  0.7561462E-02  0.1304332E+00
          1   -1    0    0  501    0  0.00000000000E+00  0.00000000000E+00  0.19665172658E+03  0.19665172658E+03  0.00000000000E+00 0. -1.
         -1   -1    0    0    0  501 -0.00000000000E+00 -0.00000000000E+00 -0.72002708916E+02  0.72002708916E+02  0.00000000000E+00 0.  1.
         23    2    1    2    0    0 -0.43174975253E+02  0.23425713203E+02  0.86009967966E+02  0.15955685579E+03  0.12509129911E+03 0.  0.
          5    1    3    3  502    0 -0.83522455307E+02  0.16856606839E+02  0.81901294577E+02  0.11826005322E+03  0.41800000000E+01 0.  1.
         -5    1    3    3    0  502  0.40347480054E+02  0.65691063646E+01  0.41086733888E+01  0.41296802566E+02  0.41800000000E+01 0.  1.
        -11    1    1    2    0    0  0.22998488110E+02 -0.22104858226E+01  0.65444016648E+02  0.69402709010E+02  0.00000000000E+00 0. -1.
         11    1    1    2    0    0  0.20176487143E+02 -0.21215227381E+02 -0.26804966952E+02  0.39694870696E+02  0.00000000000E+00 0.  1.
</event>
<event>
 7    1  0.6992302E-006  0.1818737E+03  0.7561462E-02  0.1166002E+00
         -1   -1    0    0    0  501 -0.00000000000E+00  0.00000000000E+00  0.58280131572E+03  0.58280131572E+03  0.00000000000E+00 0.  1.
          1   -1    0    0  501    0  0.00000000000E+00 -0.00000000000E+00 -0.80234640857E+02  0.80234640857E+02  0.00000000000E+00 0. -1.
         23    2    1    2    0    0 -0.13214669008E+03  0.11576769108E+03  0.35470574854E+03  0.41512512958E+03  0.12509116342E+03 0.  0.
          5    1    3    3  502    0 -0.31453861541E+02  0.42679803018E+02  0.18007147111E+02  0.56148381442E+02  0.41800000000E+01 0. -1.
         -5    1    3    3    0  502 -0.10069282854E+03  0.73087888057E+02  0.33669860143E+03  0.35897674814E+03  0.41800000000E+01 0. -1.
        -11    1    1    2    0    0  0.59129515920E+02 -0.13904509631E+02  0.93046054868E+02  0.11111797050E+03  0.00000000000E+00 0.  1.
         11    1    1    2    0    0  0.73017174160E+02 -0.10186318144E+03  0.54814871454E+02  0.13679285650E+03  0.00000000000E+00 0. -1.
</event>
<event>
 7    1  0.6992302E-006  0.1194778E+03  0.7561462E-02  0.1243961E+00
         -1   -1    0    0    0  501 -0.00000000000E+00  0.00000000000E+00  0.69557234673E+03  0.69557234673E+03  0.00000000000E+00 0.  1.
          1   -1    0    0  501    0  0.00000000000E+00 -0.00000000000E+00 -0.21450540983E+02  0.21450540983E+02  0.00000000000E+00 0. -1.
         23    2    1    2    0    0  0.41607171419E+02 -0.36878928133E+02  0.37977810963E+03  0.40369573226E+03  0.12509044581E+03 0.  0.
          5    1    3    3  502    0  0.24196791078E+02  0.45213020990E+02  0.11703713168E+03  0.12784703578E+03  0.41800000000E+01 0. -1.
         -5    1    3    3    0  502  0.17410380342E+02 -0.82091949123E+02  0.26274097795E+03  0.27584869648E+03  0.41800000000E+01 0. -1.
        -11    1    1    2    0    0  0.45599650500E+01  0.54038068789E+02  0.11184192416E+03  0.12429610678E+03  0.00000000000E+00 0. -1.
         11    1    1    2    0    0 -0.46167136469E+02 -0.17159140656E+02  0.18250177195E+03  0.18903104868E+03  0.00000000000E+00 0.  1.
</event>
<event>
 7    1  0.6992302E-006  0.1471382E+03  0.7561462E-02  0.1204034E+00
          2   -1    0    0  501    0  0.00000000000E+00  0.00000000000E+00  0.33533295767E+03  0.33533295767E+03  0.00000000000E+00 0. -1.
         -2   -1    0    0    0  501 -0.00000000000E+00 -0.00000000000E+00 -0.74864513881E+02  0.74864513881E+02  0.00000000000E+00 0.  1.
         23    2    1    2    0    0 -0.84058791787E+02 -0.66191538945E+02  0.83867349537E+02  0.18473129512E+03  0.12507885022E+03 0.  0.
          5    1    3    3  502    0 -0.82081271794E+01  0.32735337659E+02 -0.73877179383E+00  0.34014612554E+02  0.41800000000E+01 0.  1.
         -5    1    3    3    0  502 -0.75850664607E+02 -0.98926876604E+02  0.84606121331E+02  0.15071668256E+03  0.41800000000E+01 0.  1.
        -11    1    1    2    0    0 -0.15027532893E+02  0.22945163965E+02  0.62640118673E+02  0.68381954941E+02  0.00000000000E+00 0.  1.
         11    1    1    2    0    0  0.99086324680E+02  0.43246374980E+02  0.11396097558E+03  0.15708422150E+03  0.00000000000E+00 0. -1.
</event>
<event>
 7    1  0.6992302E-006  0.6576932E+02  0.7561462E-02  0.1375101E+00
         -2   -1    0    0    0  501 -0.00000000000E+00  0.00000000000E+00  0.44169438175E+03  0.44169438175E+03  0.00000000000E+00 0.  1.
          2   -1    0    0  501    0  0.00000000000E+00 -0.00000000000E+00 -0.27622413447E+02  0.27622413447E+02  0.00000000000E+00 0. -1.
         23    2    1    2    0    0  0.85820403294E+01 -0.22791099876E+02  0.22171923071E+03  0.25573345961E+03  0.12508836656E+03 0.  0.
          5    1    3    3  502    0  0.28841247114E+02 -0.30505190528E+02  0.10648786634E+02  0.43511529978E+02  0.41800000000E+01 0. -1.
         -5    1    3    3    0  502 -0.20259206785E+02  0.77140906522E+01  0.21107044408E+03  0.21222192963E+03  0.41800000000E+01 0. -1.
        -11    1    1    2    0    0 -0.35932923622E+02  0.12327311853E+02  0.17597867185E+03  0.18003230422E+03  0.00000000000E+00 0.  1.
         11    1    1    2    0    0  0.27350883293E+02  0.10463788023E+02  0.16374065742E+02  0.33551031364E+02  0.00000000000E+00 0. -1.
</event>
<event>
 7    1  0.6992302E-006  0.1293691E+03  0.7561462E-02  0.1228395E+00
         -2   -1    0    0    0  501 -0.00000000000E+00  0.00000000000E+00  0.17670697895E+03  0.17670697895E+03  0.00000000000E+00 0.  1.
          2   -1    0    0  501    0  0.00000000000E+00 -0.00000000000E+00 -0.15578436574E+03  0.15578436574E+03  0.00000000000E+00 0. -1.
         23    2    1    2    0    0  0.47883005177E+02  0.94465749286E+02  0.79536845594E+02  0.18215845383E+03  0.12505611750E+03 0.  0.
          5    1    3    3  502    0  0.96500682842E+01 -0.25090736947E+02  0.43836404371E+02  0.51592360351E+02  0.41800000000E+01 0.  1.
         -5    1    3    3    0  502  0.38232936893E+02  0.11955648623E+03  0.35700441223E+02  0.13056609348E+03  0.41800000000E+01 0.  1.
        -11    1    1    2    0    0 -0.34880867512E+02 -0.66113655009E+02 -0.82290892575E+02  0.11117320405E+03  0.00000000000E+00 0. -1.
         11    1    1    2    0    0 -0.13002137665E+02 -0.28352094277E+02  0.23676660186E+02  0.39159686814E+02  0.00000000000E+00 0.  1.
</event>
<event>
 7    1  0.6992302E-006  0.1787745E+03  0.7561462E-02  0.1168994E+00
         -2   -1    0    0    0  501 -0.00000000000E+00  0.00000000000E+00  0.31531645609E+03  0.31531645609E+03  0.00000000000E+00 0.  1.
          2   -1    0    0  501    0  0.00000000000E+00 -0.00000000000E+00 -0.14152898546E+03  0.14152898546E+03  0.00000000000E+00 0. -1.
         23    2    1    2    0    0  0.16112539777E+03 -0.67179727771E+02  0.14029552098E+03  0.25651862783E+03  0.12507783011E+03 0.  0.
          5    1    3    3  502    0  0.93362301899E+01  0.73425659478E+01  0.73643862580E+02  0.74712578356E+02  0.41800000000E+01 0.  1.
         -5    1    3    3    0  502  0.15178916758E+03 -0.74522293719E+02  0.66651658402E+02  0.18180604947E+03  0.41800000000E+01 0.  1.
        -11    1    1    2    0    0 -0.12721683644E+03  0.61953636303E+02 -0.13500121004E+02  0.14214299065E+03  0.00000000000E+00 0. -1.
         11    1    1    2    0    0 -0.33908561335E+02  0.52260914677E+01  0.46992070650E+02  0.58183823076E+02  0.00000000000E+00 0.  1.
</event>
<event>
 7    1  0.6992302E-006  0.1522902E+03  0.7561462E-02  0.1197687E+00
          2   -1    0    0  501    0  0.00000000000E+00  0.00000000000E+00  0.20159944957E+03  0.20159944957E+03  0.00000000000E+00 0. -1.
         -2   -1    0    0    0  501 -0.00000000000E+00 -0.00000000000E+00 -0.20606492668E+03  0.20606492668E+03  0.00000000000E+00 0.  1.
         23    2    1    2    0    0 -0.85628438992E+02  0.99706870829E+02 -0.11181511248E+03  0.21312817921E+03  0.12508921512E+03 0.  0.
          5    1    3    3  502    0 -0.10883124703E+03  0.76193210398E+02 -0.11974179457E+03  0.17890001512E+03  0.41800000000E+01 0. -1.
         -5    1    3    3    0  502  0.23202808040E+02  0.23513660431E+02  0.79266820986E+01  0.34228164089E+02  0.41800000000E+01 0. -1.
        -11    1    1    2    0    0  0.28719482754E+02 -0.66595863077E+02  0.10630445024E+03  0.12868742677E+03  0.00000000000E+00 0. -1.
         11    1    1    2    0    0  0.56908956237E+02 -0.33111007751E+02  0.10451851298E+01  0.65848770272E+02  0.00000000000E+00 0.  1.
</event>
<event>
 7    1  0.6992302E-006  0.2214111E+03  0.7561462E-02  0.1132835E+00
         -3   -1    0    0    0  501 -0.00000000000E+00  0.00000000000E+00  0.86192111767E+02  0.86192111767E+02  0.00000000000E+00 0.  1.
          3   -1    0    0  501    0  0.00000000000E+00 -0.00000000000E+00 -0.62088758654E+03  0.62088758654E+03  0.00000000000E+00 0. -1.
         23    2    1    2    0    0  0.10091173596E+03 -0.17395464174E+03 -0.22198980504E+03  0.32458828830E+03  0.12503874409E+03 0.  0.
          5    1    3    3  502    0  0.10424454982E+03 -0.77489896604E+02 -0.79216043030E+02  0.15219810812E+03  0.41800000000E+01 0. -1.
         -5    1    3    3    0  502 -0.33328138631E+01 -0.96464745132E+02 -0.14277376201E+03  0.17239018018E+03  0.41800000000E+01 0. -1.
        -11    1    1    2    0    0 -0.74814163545E+01 -0.84651474037E+01 -0.40818118138E+01  0.12012139648E+02  0.00000000000E+00 0.  1.
         11    1    1    2    0    0 -0.93430319604E+02  0.18241978914E+03 -0.30862385791E+03  0.37047927036E+03  0.00000000000E+00 0. -1.
</event>
<event>
 7    1  0.6992302E-006  0.7762846E+02  0.7561462E-02  0.1335919E+00
          3   -1    0    0  501    0  0.00000000000E+00  0.00000000000E+00  0.11431471213E+03  0.11431471213E+03  0.00000000000E+00 0. -1.
         -3   -1    0    0    0  501 -0.00000000000E+00 -0.00000000000E+00 -0.12849492516E+03  0.12849492516E+03  0.00000000000E+00 0.  1.
         23    2    1    2    0    0  0.19671655063E+02 -0.20062152359E+02 -0.53028939325E+02  0.13873079680E+03  0.12507878159E+03 0.  0.
          5    1    3    3  502    0  0.21447055937E+02  0.25528344509E+02  0.29253713086E+02  0.44552493881E+02  0.41800000000E+01 0.  1.
         -5    1    3    3    0  502 -0.17754008740E+01 -0.45590496867E+02 -0.82282652411E+02  0.94178302918E+02  0.41800000000E+01 0.  1.
        -11    1    1    2    0    0 -0.24394631745E+02  0.44607630052E+02  0.54542919203E+02  0.74564527438E+02  0.00000000000E+00 0. -1.
         11    1    1    2    0    0  0.47229766825E+01 -0.24545477693E+02 -0.15694192909E+02  0.29514313053E+02  0.00000000000E+00 0.  1.
</event>
<event>
 7    1  0.6992302E-006  0.9684690E+02  0.7561462E-02  0.1287070E+00
          2   -1    0    0  501    0  0.00000000000E+00  0.00000000000E+00  0.43167956112E+03  0.43167956112E+03  0.00000000000E+00 0. -1.
         -2   -1    0    0    0  501 -0.00000000000E+00 -0.00000000000E+00 -0.37866387552E+02  0.37866387552E+02  0.00000000000E+00 0.  1.
         23    2    1    2    0    0  0.37792395980E+02  0.44497705963E+02  0.15671328283E+03  0.20884100808E+03  0.12508877892E+03 0.  0.
          5    1    3    3  502    0 -0.15867067133E+02  0.10949819399E+01  0.13553399337E+03  0.13652801384E+03  0.41800000000E+01 0.  1.
         -5    1    3    3    0  502  0.53659463113E+02  0.43402724023E+02  0.21179289465E+02  0.72312994244E+02  0.41800000000E+01 0.  1.
        -11    1    1    2    0    0 -0.67971595798E+02 -0.35094157108E+02  0.17623473423E+03  0.19212084543E+03  0.00000000000E+00 0.  1.
         11    1    1    2    0    0  0.30179199819E+02 -0.94035488554E+01  0.60865156506E+02  0.68584095163E+02  0.00000000000E+00 0. -1.
</event>
<event>
 7    1  0.6992302E-006  0.8735222E+02  0.7561462E-02  0.1309393E+00
          1   -1    0    0  501    0  0.00000000000E+00  0.00000000000E+00  0.20329130047E+03  0.20329130047E+03  0.00000000000E+00 0. -1.
         -1   -1    0    0    0  501 -0.00000000000E+00 -0.00000000000E+00 -0.84598308315E+02  0.84598308315E+02  0.00000000000E+00 0.  1.
         23    2    1    2    0    0 -0.34290355786E+02  0.97402023188E+01 -0.47294955858E+01  0.13015283393E+03  0.12508673795E+03 0.  0.
          5    1    3    3  502    0 -0.30046653679E+02  0.59775102987E+02 -0.30398604229E+02  0.73603069729E+02  0.41800000000E+01 0.  1.
         -5    1    3    3    0  502 -0.42437021064E+01 -0.50034900668E+02  0.25669108643E+02  0.56549764199E+02  0.41800000000E+01 0.  1.
        -11    1    1    2    0    0 -0.71352347892E+01  0.92754313506E+01 -0.10837768235E+02  0.15949997572E+02  0.00000000000E+00 0.  1.
         11    1    1    2    0    0  0.41425590575E+02 -0.19015633669E+02  0.13426025598E+03  0.14178677729E+03  0.00000000000E+00 0. -1.
</event>
<event>
 7    1  0.6992302E-006  0.9174829E+02  0.7561462E-02  0.1298672E+00
          4   -1    0    0  501    0  0.00000000000E+00  0.00000000000E+00  0.19627898048E+03  0.19627898048E+03  0.00000000000E+00 0. -1.
         -4   -1    0    0    0  501 -0.00000000000E+00 -0.00000000000E+00 -0.10015942899E+03  0.10015942899E+03  0.00000000000E+00 0.  1.
         23    2    1    2    0    0  0.36495999710E+02 -0.44327391361E+02 -0.18164264655E+02  0.13883356917E+03  0.12509174153E+03 0.  0.
          5    1    3    3  502    0 -0.26668315663E+01 -0.63724295963E+02  0.32573478336E+02  0.71738426088E+02  0.41800000000E+01 0.  1.
         -5    1    3    3    0  502  0.39162831276E+02  0.19396904602E+02 -0.50737742992E+02  0.67095143085E+02  0.41800000000E+01 0.  1.
        -11    1    1    2    0    0  0.94021163379E+01  0.23428959096E+02  0.10283671927E+03  0.10589006915E+03  0.00000000000E+00 0. -1.
         11    1    1    2    0    0 -0.45898116048E+02  0.20898432265E+02  0.11447096885E+02  0.51714771149E+02  0.00000000000E+00 0.  1.
</event>
<event>
 7    1  0.6992302E-006  0.1040240E+03  0.7561462E-02  0.1272055E+00
          1   -1    0    0  501    0  0.00000000000E+00  0.00000000000E+00  0.16901458592E+03  0.16901458592E+03  0.00000000000E+00 0. -1.
         -1   -1    0    0    0  501 -0.00000000000E+00 -0.00000000000E+00 -0.10115452013E+03  0.10115452013E+03  0.00000000000E+00 0.  1.
         23    2    1    2    0    0  0.18882495814E+02  0.36068996245E+02 -0.24793088471E+02  0.13386846026E+03  0.12509414966E+03 0.  0.
          5    1    3    3  502    0 -0.46312661864E+02 -0.81500163526E+01 -0.28049755518E+02  0.54913992753E+02  0.41800000000E+01 0. -1.
         -5    1    3    3    0  502  0.65195157678E+02  0.44219012598E+02  0.32566670469E+01  0.78954467511E+02  0.41800000000E+01 0. -1.
        -11    1    1    2    0    0 -0.27237832208E+02  0.14389640764E+02  0.38785689443E+00  0.30807656478E+02  0.00000000000E+00 0.  1.
         11    1    1    2    0    0  0.83553363935E+01 -0.50458637009E+02  0.92265297364E+02  0.10549298931E+03  0.00000000000E+00 0. -1.
</event>
<event>
 7    1  0.6992302E-006  0.8219309E+02  0.7561462E-02  0.1322940E+00
         -1   -1    0    0    0  501 -0.00000000000E+00  0.00000000000E+00  0.17915109566E+03  0.17915109566E+03  0.00000000000E+00 0.  1.
          1   -1    0    0  501    0  0.00000000000E+00 -0.00000000000E+00 -0.28384045132E+03  0.28384045132E+03  0.00000000000E+00 0. -1.
         23    2    1    2    0    0 -0.48210295437E+02  0.55753860163E+02  0.12516879520E+03  0.19171291076E+03  0.12511549604E+03 0.  0.
          5    1    3    3  502    0  0.61420890706E+01  0.28742668168E+02  0.12742059885E+03  0.13083328186E+03  0.41800000000E+01 0. -1.
         -5    1    3    3    0  502 -0.54352384508E+02  0.27011191996E+02 -0.22518036469E+01  0.60879628895E+02  0.41800000000E+01 0. -1.
        -11    1    1    2    0    0  0.27674522746E+02 -0.35557380060E+02 -0.23729180060E+03  0.24153178904E+03  0.00000000000E+00 0. -1.
         11    1    1    2    0    0  0.20535772692E+02 -0.20196480104E+02  0.74336497433E+01  0.29746847180E+02  0.00000000000E+00 0.  1.
</event>
<event>
 7    1  0.6992302E-006  0.1268298E+03  0.7561462E-02  0.1232237E+00
          2   -1    0    0  501    0  0.00000000000E+00  0.00000000000E+00  0.38838558846E+03  0.38838558846E+03  0.00000000000E+00 0. -1.
         -2   -1    0    0    0  501 -0.00000000000E+00 -0.00000000000E+00 -0.46604234001E+02  0.46604234001E+02  0.00000000000E+00 0.  1.
         23    2    1    2    0    0  0.20740856551E+02 -0.75399461259E+02  0.17315341627E+03  0.22747526677E+03  0.12509048541E+03 0.  0.
          5    1    3    3  502    0  0.40645638052E+02 -0.95895361666E+02  0.84336214091E+02  0.13408227955E+03  0.41800000000E+01 0.  1.
         -5    1    3    3    0  502 -0.19904781501E+02  0.20495900407E+02  0.88817202178E+02  0.93392987225E+02  0.41800000000E+01 0.  1.
        -11    1    1    2    0    0 -0.46459054100E+02  0.81774695401E+02  0.12431060247E+03  0.15588030794E+03  0.00000000000E+00 0.  1.
         11    1    1    2    0    0  0.25718197549E+02 -0.63752341419E+01  0.44317335714E+02  0.51634247746E+02  0.00000000000E+00 0. -1.
</event>
<event>
 7    1  0.6992302E-006  0.9460874E+02  0.7561462E-02  0.1292060E+00
         -1   -1    0    0    0  501 -0.00000000000E+00  0.00000000000E+00  0.38174443549E+02  0.38174443549E+02  0.00000000000E+00 0.  1.
          1   -1    0    0  501    0  0.00000000000E+00 -0.00000000000E+00 -0.42843949586E+03  0.42843949586E+03  0.00000000000E+00 0. -1.
         23    2    1    2    0    0 -0.14893620630E+02 -0.66130330176E+02 -0.20326638137E+03  0.24811146233E+03  0.12508811072E+03 0.  0.
          5    1    3    3  502    0 -0.27472417828E+02 -0.18457340077E+02  0.52801382636E+01  0.33775129965E+02  0.41800000000E+01 0.  1.
         -5    1    3    3    0  502  0.12578797198E+02 -0.47672990099E+02 -0.20854651963E+03  0.21433633237E+03  0.41800000000E+01 0.  1.
        -11    1    1    2    0    0  0.34391495700E+02  0.76800799038E+02 -0.11082416552E+03  0.13915147636E+03  0.00000000000E+00 0.  1.
         11    1    1    2    0    0 -0.19497875070E+02 -0.10670468862E+02 -0.76174505431E+02  0.79351000723E+02  0.00000000000E+00 0. -1.
</event>
<event>
 7    1  0.6992302E-006  0.1223409E+03  0.7561462E-02  0.1239284E+00
         -1   -1    0    0    0  501 -0.00000000000E+00  0.00000000000E+00  0.89665608319E+03  0.89665608319E+03  0.00000000000E+00 0.  1.
          1   -1    0    0  501    0  0.00000000000E+00 -0.00000000000E+00 -0.22294170278E+02  0.22294170278E+02  0.00000000000E+00 0. -1.
         23    2    1    2    0    0 -0.31898277295E+02  0.53330595837E+02  0.68862707830E+03  0.70265005056E+03  0.12509271777E+03 0.  0.
          5    1    3    3  502    0 -0.55443710275E+02 -0.21593460952E+02  0.24908205222E+03  0.25612423490E+03  0.41800000000E+01 0. -1.
         -5    1    3    3    0  502  0.23545432980E+02  0.74924056789E+02  0.43954502608E+03  0.44652581566E+03  0.41800000000E+01 0. -1.
        -11    1    1    2    0    0 -0.26814419089E+02 -0.36535500321E+02  0.11028512349E+03  0.11923365430E+03  0.00000000000E+00 0.  1.
         11    1    1    2    0    0  0.58712696385E+02 -0.16795095516E+02  0.75449711124E+02  0.97066548609E+02  0.00000000000E+00 0. -1.
</event>
<event>
 7    1  0.6992302E-006  0.1150355E+03  0.7561462E-02  0.1251519E+00
          1   -1    0    0  501    0  0.00000000000E+00  0.00000000000E+00  0.10813287304E+03  0.10813287304E+03  0.00000000000E+00 0. -1.
         -1   -1    0    0    0  501 -0.00000000000E+00 -0.00000000000E+00 -0.16455971253E+03  0.16455971253E+03  0.00000000000E+00 0.  1.
         23    2    1    2    0    0  0.44967451474E+02 -0.27965879567E+02 -0.83938344806E+02  0.15964282446E+03  0.12504408647E+03 0.  0.
          5    1    3    3  502    0  0.61373990361E+02  0.31765559704E+02 -0.64403729696E+02  0.94557550069E+02  0.41800000000E+01 0. -1.
         -5    1    3    3    0  502 -0.16406538887E+02 -0.59731439272E+02 -0.19534615110E+02  0.65085274396E+02  0.41800000000E+01 0. -1.
        -11    1    1    2    0    0 -0.62388322814E+02 -0.38209703516E+01 -0.71301764591E+01  0.62910587776E+02  0.00000000000E+00 0.  1.
         11    1    1    2    0    0  0.17420871340E+02  0.31786849919E+02  0.34641681772E+02  0.50139173328E+02  0.00000000000E+00 0. -1.
</event>
<event>
 6    1  0.6992302E-006  0.4356268E+03  0.7561462E-02  0.1032097E+00
         -2   -1    0    0    0  501 -0.00000000000E+00  0.00000000000E+00  0.17089432518E+03  0.17089432518E+03  0.00000000000E+00 0.  1.
          2   -1    0    0  501    0  0.00000000000E+00 -0.00000000000E+00 -0.15287305384E+04  0.15287305384E+04  0.00000000000E+00 0. -1.
          5    1    1    2  502    0 -0.41787556355E+03 -0.55751198521E+02 -0.56248166908E+03  0.70294472272E+03  0.41800000000E+01 0. -1.
         -5    1    1    2    0  502  0.12286907263E+03 -0.44894530900E+02  0.69708486524E+01  0.13106636885E+03  0.41800000000E+01 0.  1.
        -11    1    1    2    0    0  0.22474725791E+03  0.10564112276E+03 -0.54667033983E+03  0.60043304140E+03  0.00000000000E+00 0.  1.
         11    1    1    2    0    0  0.70259233007E+02 -0.49953933424E+01 -0.25565505295E+03  0.26518073059E+03  0.00000000000E+00 0. -1.
</event>
<event>
 7    1  0.6992302E-006  0.1368458E+03  0.7561462E-02  0.1217637E+00
         -1   -1    0    0    0  501 -0.00000000000E+00  0.00000000000E+00  0.61216583819E+02  0.61216583819E+02  0.00000000000E+00 0.  1.
          1   -1    0    0  501    0  0.00000000000E+00 -0.00000000000E+00 -0.38170130739E+03  0.38170130739E+03  0.00000000000E+00 0. -1.
         23    2    1    2    0    0 -0.58594702632E+02  0.77297600438E+02 -0.10388795671E+03  0.18933804361E+03  0.12509168237E+03 0.  0.
          5    1    3    3  502    0  0.15860921694E+02  0.64369060270E+02 -0.90840660503E+02  0.11253640637E+03  0.41800000000E+01 0.  1.
         -5    1    3    3    0  502 -0.74455624326E+02  0.12928540168E+02 -0.13047296210E+02  0.76801637242E+02  0.41800000000E+01 0.  1.
        -11    1    1    2    0    0  0.36577487473E+02 -0.95974470318E+02 -0.16189790456E+03  0.19172882684E+03  0.00000000000E+00 0.  1.
         11    1    1    2    0    0  0.22017215159E+02  0.18676869880E+02 -0.54698862305E+02  0.61851020762E+02  0.00000000000E+00 0. -1.
</event>
<event>
 7    1  0.6992302E-006  0.9127133E+02  0.7561462E-02  0.1299802E+00
          2   -1    0    0  501    0  0.00000000000E+00  0.00000000000E+00  0.43489706639E+03  0.43489706639E+03  0.00000000000E+00 0. -1.
         -2   -1    0    0    0  501 -0.00000000000E+00 -0.00000000000E+00 -0.31171037429E+02  0.31171037429E+02  0.00000000000E+00 0.  1.
         23    2    1    2    0    0  0.25675119801E+02 -0.25064443348E+02  0.18352903241E+03  0.22498309739E+03  0.12508817001E+03 0.  0.
          5    1    3    3  502    0  0.14474650643E+02 -0.62182446600E+02  0.17320394984E+03  0.18464358320E+03  0.41800000000E+01 0.  1.
         -5    1    3    3    0  502  0.11200469158E+02  0.37118003252E+02  0.10325082566E+02  0.40339514186E+02  0.41800000000E+01 0.  1.
        -11    1    1    2    0    0  0.23918578012E+02  0.16941896883E+02  0.16002604412E+03  0.16268823264E+03  0.00000000000E+00 0. -1.
         11    1    1    2    0    0 -0.49593697813E+02  0.81225464648E+01  0.60170952439E+02  0.78396773793E+02  0.00000000000E+00 0.  1.
</event>
<event>
 6    1  0.6992302E-006  0.1133747E+03  0.7561462E-02  0.1254445E+00
         -1   -1    0    0    0  501 -0.00000000000E+00  0.00000000000E+00  0.30487758798E+02  0.30487758798E+02  0.00000000000E+00 0.  1.
          1   -1    0    0  501    0  0.00000000000E+00 -0.00000000000E+00 -0.59724101438E+03  0.59724101438E+03  0.00000000000E+00 0. -1.
          5    1    1    2  502    0 -0.46093995552E+02 -0.24083308891E+02 -0.15717778867E+03  0.16561096535E+03  0.41800000000E+01 0. -1.
         -5    1    1    2    0  502  0.52095474491E+02  0.58307662712E+02 -0.57579717121E+02  0.97193714905E+02  0.41800000000E+01 0.  1.
        -11    1    1    2    0    0 -0.45753010994E+02 -0.32302701306E+01 -0.16791906156E+03  0.17407062904E+03  0.00000000000E+00 0. -1.
         11    1    1    2    0    0  0.39751532055E+02 -0.30994083690E+02 -0.18407668822E+03  0.19085346387E+03  0.00000000000E+00 0.  1.
</event>
<event>
 7    1  0.6992302E-006  0.8525406E+02  0.7561462E-02  0.1314769E+00
         -1   -1    0    0    0  501 -0.00000000000E+00  0.00000000000E+00  0.40264633833E+02  0.40264633833E+02  0.00000000000E+00 0.  1.
          1   -1    0    0  501    0  0.00000000000E+00 -0.00000000000E+00 -0.40476772994E+03  0.40476772994E+03  0.00000000000E+00 0. -1.
         23    2    1    2    0    0  0.32880031942E+02  0.45198527749E+02 -0.13991107323E+03  0.19581939222E+03  0.12508446166E+03 0.  0.
          5    1    3    3  502    0  0.31606480614E+02  0.56755989947E+02 -0.15971788894E+03  0.17247460236E+03  0.41800000000E+01 0.  1.
         -5    1    3    3    0  502  0.12735513277E+01 -0.11557462198E+02  0.19806815708E+02  0.23344789868E+02  0.41800000000E+01 0.  1.
        -11    1    1    2    0    0 -0.18144928766E+02  0.19537000752E+02 -0.17886407055E+02  0.32106952450E+02  0.00000000000E+00 0.  1.
         11    1    1    2    0    0 -0.14735103176E+02 -0.64735528501E+02 -0.20670561582E+03  0.21710601910E+03  0.00000000000E+00 0. -1.
</event>
<event>
 7    1  0.6992302E-006  0.1192299E+03  0.7561462E-02  0.1244373E+00
          2   -1    0    0  501    0  0.00000000000E+00  0.00000000000E+00  0.75106019134E+02  0.75106019134E+02  0.00000000000E+00 0. -1.
         -2   -1    0    0    0  501 -0.00000000000E+00 -0.00000000000E+00 -0.39474719868E+03  0.39474719868E+03  0.00000000000E+00 0.  1.
         23    2    1    2    0    0 -0.59156165023E+02 -0.10244001499E+03 -0.25219002683E+03  0.30535320430E+03  0.12508941288E+03 0.  0.
          5    1    3    3  502    0 -0.49501121582E+01 -0.17177655881E+02  0.12362598784E+02  0.22133271801E+02  0.41800000000E+01 0. -1.
         -5    1    3    3    0  502 -0.54206052865E+02 -0.85262359105E+02 -0.26455262561E+03  0.28321993250E+03  0.41800000000E+01 0. -1.
        -11    1    1    2    0    0  0.43138074421E+02  0.62444290788E+02 -0.88468690416E+02  0.11656282469E+03  0.00000000000E+00 0.  1.
         11    1    1    2    0    0  0.16018090602E+02  0.39995724197E+02  0.21017537700E+02  0.47937188816E+02  0.00000000000E+00 0. -1.
</event>
<event>
 7    1  0.6992302E-006  0.1100838E+03  0.7561462E-02  0.1260415E+00
          2   -1    0    0  501    0  0.00000000000E+00  0.00000000000E+00  0.24128429801E+03  0.24128429801E+03  0.00000000000E+00 0. -1.
         -2   -1    0    0    0  501 -0.00000000000E+00 -0.00000000000E+00 -0.61380050991E+02  0.61380050991E+02  0.00000000000E+00 0.  1.
         23    2    1    2    0    0 -0.49064763908E+02  0.19196571887E+02  0.79834058321E+02  0.15746880402E+03  0.12508832057E+03 0.  0.
          5    1    3    3  502    0 -0.88182094335E+02  0.12311444240E+02  0.76375777844E+02  0.11738136676E+03  0.41800000000E+01 0.  1.
         -5    1    3    3    0  502  0.39117330426E+02  0.68851276468E+01  0.34582804767E+01  0.40087437262E+02  0.41800000000E+01 0.  1.
        -11    1    1    2    0    0  0.21450018537E+02  0.28686221456E+02  0.77712438609E+02  0.85570004740E+02  0.00000000000E+00 0. -1.
         11    1    1    2    0    0  0.27614745372E+02 -0.47882793343E+02  0.22357750093E+02  0.59625540245E+02  0.00000000000E+00 0.  1.
</event>
<event>
 7    1  0.6992302E-006  0.8019219E+02  0.7561462E-02  0.1328507E+00
          2   -1    0    0  501    0  0.00000000000E+00  0.00000000000E+00  0.11657452443E+03  0.11657452443E+03  0.00000000000E+00 0. -1.
         -2   -1    0    0    0  501 -0.00000000000E+00 -0.00000000000E+00 -0.11554120973E+03  0.11554120973E+03  0.00000000000E+00 0.  1.
         23    2    1    2    0    0 -0.39658749837E+01 -0.44180875506E+02 -0.39583326708E+01  0.13277907913E+03  0.12508771935E+03 0.  0.
          5    1    3    3  502    0  0.25268295288E+02  0.14174410738E+02  0.43174960780E+02  0.52162729079E+02  0.41800000000E+01 0. -1.
         -5    1    3    3    0  502 -0.29234170272E+02 -0.58355286244E+02 -0.47133293451E+02  0.80616350052E+02  0.41800000000E+01 0. -1.
        -11    1    1    2    0    0 -0.15969272340E+02  0.42851467582E+02  0.38861977372E+02  0.60012658817E+02  0.00000000000E+00 0. -1.
         11    1    1    2    0    0  0.19935147324E+02  0.13294079243E+01 -0.33870330003E+02  0.39323996221E+02  0.00000000000E+00 0.  1.
</event>
<event>
 7    1  0.6992302E-006  0.1100278E+03  0.7561462E-02  0.1260518E+00
         -1   -1    0    0    0  501 -0.00000000000E+00  0.00000000000E+00  0.10668548734E+03  0.10668548734E+03  0.00000000000E+00 0.  1.
          1   -1    0    0  501    0  0.00000000000E+00 -0.00000000000E+00 -0.14337954331E+03  0.14337954331E+03  0.00000000000E+00 0. -1.
         23    2    1    2    0    0 -0.15323188103E+02 -0.49702541977E+02  0.57997696447E+01  0.13559901450E+03  0.12509321577E+03 0.  0.
          5    1    3    3  502    0  0.43768180128E+02 -0.39010987314E+02  0.35298501429E+02  0.68563600591E+02  0.41800000000E+01 0.  1.
         -5    1    3    3    0  502 -0.59091368231E+02 -0.10691554663E+02 -0.29498731784E+02  0.67035413905E+02  0.41800000000E+01 0.  1.
        -11    1    1    2    0    0 -0.20763334400E+02  0.60051031013E+02 -0.90346618559E+01  0.64178403657E+02  0.00000000000E+00 0.  1.
         11    1    1    2    0    0  0.36086522503E+02 -0.10348489036E+02 -0.33459163754E+02  0.50287612498E+02  0.00000000000E+00 0. -1.
</event>
<event>
 7    1  0.6992302E-006  0.1559625E+03  0.7561462E-02  0.1193332E+00
          1   -1    0    0  501    0  0.00000000000E+00  0.00000000000E+00  0.74489815974E+02  0.74489815974E+02  0.00000000000E+00 0. -1.
         -1   -1    0    0    0  501 -0.00000000000E+00 -0.00000000000E+00 -0.34616701392E+03  0.34616701392E+03  0.00000000000E+00 0.  1.
         23    2    1    2    0    0  0.10834522882E+03 -0.41923872281E+02 -0.12394738459E+03  0.21097017866E+03  0.12509661251E+03 0.  0.
          5    1    3    3  502    0 -0.20362800675E+02  0.12271082345E+02  0.90797839138E-01  0.24139257600E+02  0.41800000000E+01 0. -1.
         -5    1    3    3    0  502  0.12870802949E+03 -0.54194954626E+02 -0.12403818243E+03  0.18683092106E+03  0.41800000000E+01 0. -1.
        -11    1    1    2    0    0 -0.71276554336E+01  0.46215802568E+02 -0.56634824241E+02  0.73445266667E+02  0.00000000000E+00 0.  1.
         11    1    1    2    0    0 -0.10121757338E+03 -0.42919302871E+01 -0.91094989112E+02  0.13624138457E+03  0.00000000000E+00 0. -1.
</event>
<event>
 7    1  0.6992302E-006  0.2093208E+03  0.7561462E-02  0.1142105E+00
          1   -1    0    0  501    0  0.00000000000E+00  0.00000000000E+00  0.79986211184E+03  0.79986211184E+03  0.00000000000E+00 0. -1.
         -1   -1    0    0    0  501 -0.00000000000E+00 -0.00000000000E+00 -0.62915434316E+02  0.62915434316E+02  0.00000000000E+00 0.  1.
         23    2    1    2    0    0  0.65120699295E+02  0.16500489820E+03  0.22615527564E+03  0.31346474394E+03  0.12508643047E+03 0.  0.
          5    1    3    3  502    0 -0.32507107300E+02  0.83709918369E+02  0.96934965769E+02  0.13220409391E+03  0.41800000000E+01 0.  1.
         -5    1    3    3    0  502  0.97627806595E+02  0.81294979827E+02  0.12922030987E+03  0.18126065003E+03  0.41800000000E+01 0.  1.
        -11    1    1    2    0    0 -0.81416181808E+02 -0.16642733957E+03  0.47844724683E+03  0.51306765832E+03  0.00000000000E+00 0.  1.
         11    1    1    2    0    0  0.16295482513E+02  0.14224413697E+01  0.32344155055E+02  0.36245143896E+02  0.00000000000E+00 0. -1.
</event>
<event>
 7    1  0.6992302E-006  0.8435539E+02  0.7561462E-02  0.1317127E+00
          1   -1    0    0  501    0  0.00000000000E+00  0.00000000000E+00  0.33841094057E+03  0.33841094057E+03  0.00000000000E+00 0. -1.
         -1   -1    0    0    0  501 -0.00000000000E+00 -0.00000000000E+00 -0.32718399568E+02  0.32718399568E+02  0.00000000000E+00 0.  1.
         23    2    1    2    0    0  0.16428114498E+02 -0.13857208350E+02  0.15283969174E+03  0.19088265414E+03  0.11231345028E+03 0.  0.
          5    1    3    3  502    0 -0.26879656158E+02 -0.27634137264E+02  0.13730118203E+03  0.14267182078E+03  0.41800000000E+01 0. -1.
         -5    1    3    3    0  502  0.43307770655E+02  0.13776928914E+02  0.15538509703E+02  0.48210833359E+02  0.41800000000E+01 0.  1.
        -11    1    1    2    0    0  0.31761726964E+02 -0.57354659498E+01  0.21007808742E+02  0.38510140191E+02  0.00000000000E+00 0. -1.
         11    1    1    2    0    0 -0.48189841462E+02  0.19592674300E+02  0.13184504053E+03  0.14173654581E+03  0.00000000000E+00 0.  1.
</event>
<event>
 7    1  0.6992302E-006  0.9013024E+02  0.7561462E-02  0.1302537E+00
         -1   -1    0    0    0  501 -0.00000000000E+00  0.00000000000E+00  0.14946910461E+03  0.14946910461E+03  0.00000000000E+00 0.  1.
          1   -1    0    0  501    0  0.00000000000E+00 -0.00000000000E+00 -0.83213552848E+02  0.83213552848E+02  0.00000000000E+00 0. -1.
         23    2    1    2    0    0  0.57999309749E+01 -0.98324173321E+01  0.56626239435E+02  0.13778372477E+03  0.12509000036E+03 0.  0.
          5    1    3    3  502    0  0.18584499947E+02  0.38734642278E+02  0.72989960412E+02  0.84798365972E+02  0.41800000000E+01 0.  1.
         -5    1    3    3    0  502 -0.12784568972E+02 -0.48567059610E+02 -0.16363720976E+02  0.52985358800E+02  0.41800000000E+01 0.  1.
        -11    1    1    2    0    0  0.34386279187E+02  0.26279522857E+02  0.23587522347E+02  0.49288951382E+02  0.00000000000E+00 0.  1.
         11    1    1    2    0    0 -0.40186210161E+02 -0.16447105524E+02 -0.13958210023E+02  0.45609981301E+02  0.00000000000E+00 0. -1.
</event>
<event>
 7    1  0.6992302E-006  0.7025063E+02  0.7561462E-02  0.1359243E+00
          1   -1    0    0  501    0  0.00000000000E+00  0.00000000000E+00  0.25579647663E+02  0.25579647663E+02  0.00000000000E+00 0. -1.
         -1   -1    0    0    0  501 -0.00000000000E+00 -0.00000000000E+00 -0.56775235920E+03  0.56775235920E+03  0.00000000000E+00 0.  1.
         23    2    1    2    0    0 -0.47877842368E+01  0.31139982312E+02 -0.41489059708E+03  0.43448214298E+03  0.12509158104E+03 0.  0.
          5    1    3    3  502    0  0.28834628515E+02  0.16618125582E+02 -0.22558727048E+02  0.40422351063E+02  0.41800000000E+01 0.  1.
         -5    1    3    3    0  502 -0.33622412752E+02  0.14521856731E+02 -0.39233187004E+03  0.39405979192E+03  0.41800000000E+01 0.  1.
        -11    1    1    2    0    0 -0.28595283607E+02 -0.87627419311E+01 -0.11188311635E+03  0.11581151762E+03  0.00000000000E+00 0.  1.
         11    1    1    2    0    0  0.33383067843E+02 -0.22377240381E+02 -0.15398998104E+02  0.43038346255E+02  0.00000000000E+00 0. -1.
</event>
<event>
 7    1  0.6992302E-006  0.1153460E+03  0.7561462E-02  0.1250978E+00
         -3   -1    0    0    0  501 -0.00000000000E+00  0.00000000000E+00  0.29998752121E+03  0.29998752121E+03  0.00000000000E+00 0.  1.
          3   -1    0    0  501    0  0.00000000000E+00 -0.00000000000E+00 -0.67003844423E+02  0.67003844423E+02  0.00000000000E+00 0. -1.
         23    2    1    2    0    0 -0.13449336698E+02  0.52610264582E+02  0.22282830834E+03  0.26124483457E+03  0.12509070307E+03 0.  0.
          5    1    3    3  502    0 -0.10920871867E+02 -0.39968301371E+02  0.49554939715E+02  0.64729398321E+02  0.41800000000E+01 0. -1.
         -5    1    3    3    0  502 -0.25284648306E+01  0.92578565953E+02  0.17327336862E+03  0.19651543624E+03  0.41800000000E+01 0. -1.
        -11    1    1    2    0    0  0.86106156482E+01 -0.73954954490E+02 -0.11052710352E+02  0.75270448395E+02  0.00000000000E+00 0. -1.
         11    1    1    2    0    0  0.48387210496E+01  0.21344689908E+02  0.21208078804E+02  0.30476082676E+02  0.00000000000E+00 0.  1.
</event>
<event>
 7    1  0.6992302E-006  0.1725185E+03  0.7561462E-02  0.1175247E+00
         -2   -1    0    0    0  501 -0.00000000000E+00  0.00000000000E+00  0.93620509278E+03  0.93620509278E+03  0.00000000000E+00 0.  1.
          2   -1    0    0  501    0  0.00000000000E+00 -0.00000000000E+00 -0.38958183023E+02  0.38958183023E+02  0.00000000000E+00 0. -1.
         23    2    1    2    0    0  0.19940619726E+01  0.15354931315E+03  0.55369741211E+03  0.58805601321E+03  0.12509069764E+03 0.  0.
          5    1    3    3  502    0 -0.53845019337E+02  0.49680254170E+02  0.29035764731E+03  0.29948697720E+03  0.41800000000E+01 0. -1.
         -5    1    3    3    0  502  0.55839081310E+02  0.10386905898E+03  0.26333976480E+03  0.28856903601E+03  0.41800000000E+01 0. -1.
        -11    1    1    2    0    0 -0.32704510709E+01 -0.55318168384E+02  0.23172727549E+03  0.23826104551E+03  0.00000000000E+00 0.  1.
         11    1    1    2    0    0  0.12763890983E+01 -0.98231144770E+02  0.11182222216E+03  0.14884621709E+03  0.00000000000E+00 0. -1.
</event>
<event>
 7    1  0.6992302E-006  0.2592508E+03  0.7561462E-02  0.1107594E+00
          1   -1    0    0  501    0  0.00000000000E+00  0.00000000000E+00  0.51880826105E+03  0.51880826105E+03  0.00000000000E+00 0. -1.
         -1   -1    0    0    0  501 -0.00000000000E+00 -0.00000000000E+00 -0.18610623565E+03  0.18610623565E+03  0.00000000000E+00 0.  1.
         23    2    1    2    0    0 -0.21691818541E+03  0.10132409300E+03 -0.13633331090E+02  0.27046577285E+03  0.12508315467E+03 0.  0.
          5    1    3    3  502    0 -0.12873820887E+03  0.10957899471E+03  0.29829858238E+02  0.17172179636E+03  0.41800000000E+01 0.  1.
         -5    1    3    3    0  502 -0.88179976544E+02 -0.82549017121E+01 -0.43463189328E+02  0.98743976485E+02  0.41800000000E+01 0.  1.
        -11    1    1    2    0    0  0.40551518665E+02  0.21410529647E+02  0.44123089716E+02  0.63637123536E+02  0.00000000000E+00 0.  1.
         11    1    1    2    0    0  0.17636666675E+03 -0.12273462264E+03  0.30221226677E+03  0.37081160031E+03  0.00000000000E+00 0. -1.
</event>
<event>
 7    1  0.6992302E-006  0.8551755E+02  0.7561462E-02  0.1314085E+00
         -1   -1    0    0    0  501 -0.00000000000E+00  0.00000000000E+00  0.24078459951E+03  0.24078459951E+03  0.00000000000E+00 0.  1.
          1   -1    0    0  501    0  0.00000000000E+00 -0.00000000000E+00 -0.79831670998E+02  0.79831670998E+02  0.00000000000E+00 0. -1.
         23    2    1    2    0    0 -0.44354195983E+02  0.62308779447E+00  0.17275709630E+03  0.21785365250E+03  0.12509003416E+03 0.  0.
          5    1    3    3  502    0 -0.54248293428E+02  0.11919767187E+02  0.12816160276E+02  0.57154917145E+02  0.41800000000E+01 0.  1.
         -5    1    3    3    0  502  0.98940974446E+01 -0.11296679393E+02  0.15994093602E+03  0.16069873536E+03  0.41800000000E+01 0.  1.
        -11    1    1    2    0    0  0.49860923371E+02 -0.37546037670E+02  0.32715254832E+01  0.62502155988E+02  0.00000000000E+00 0.  1.
         11    1    1    2    0    0 -0.55067273880E+01  0.36922949876E+02 -0.15075693273E+02  0.40260462016E+02  0.00000000000E+00 0. -1.
</event>
<event>
 7    1  0.6992302E-006  0.7209589E+02  0.7561462E-02  0.1353108E+00
         -2   -1    0    0    0  501 -0.00000000000E+00  0.00000000000E+00  0.63036155997E+02  0.63036155997E+02  0.00000000000E+00 0.  1.
          2   -1    0    0  501    0  0.00000000000E+00 -0.00000000000E+00 -0.19619613444E+03  0.19619613444E+03  0.00000000000E+00 0. -1.
         23    2    1    2    0    0 -0.20276903641E+02  0.40106839874E+02 -0.58510175144E+02  0.14522700682E+03  0.12509089291E+03 0.  0.
          5    1    3    3  502    0 -0.25464542603E+02  0.43688351845E+02  0.28292635631E+02  0.58095272165E+02  0.41800000000E+01 0.  1.
         -5    1    3    3    0  502  0.51876389621E+01 -0.35815119712E+01 -0.86802810775E+02  0.87131734658E+02  0.41800000000E+01 0.  1.
        -11    1    1    2    0    0 -0.58242380897E+01  0.19748151880E+02 -0.21936075447E+02  0.30084924098E+02  0.00000000000E+00 0.  1.
         11    1    1    2    0    0  0.26101141731E+02 -0.59854991754E+02 -0.52713727855E+02  0.83920359519E+02  0.00000000000E+00 0. -1.
</event>
<event>
 7    1  0.6992302E-006  0.1227489E+03  0.7561462E-02  0.1238630E+00
          2   -1    0    0  501    0  0.00000000000E+00  0.00000000000E+00  0.48669477874E+03  0.48669477874E+03  0.00000000000E+00 0. -1.
         -2   -1    0    0    0  501 -0.00000000000E+00 -0.00000000000E+00 -0.48157054790E+02  0.48157054790E+02  0.00000000000E+00 0.  1.
         23    2    1    2    0    0  0.10860895583E+02 -0.93271565437E+02  0.14808473437E+03  0.21539303229E+03  0.12509007088E+03 0.  0.
          5    1    3    3  502    0  0.10495139293E+02  0.21372403867E+02 -0.44010884747E+01  0.24571723090E+02  0.41800000000E+01 0.  1.
         -5    1    3    3    0  502  0.36575629012E+00 -0.11464396930E+03  0.15248582285E+03  0.19082130920E+03  0.41800000000E+01 0.  1.
        -11    1    1    2    0    0  0.20229981721E+02  0.42473854781E+02  0.39179105819E+02  0.61223221356E+02  0.00000000000E+00 0.  1.
         11    1    1    2    0    0 -0.31090877303E+02  0.50797710656E+02  0.25127388376E+03  0.25823557988E+03  0.00000000000E+00 0. -1.
</event>
<event>
 7    1  0.6992302E-006  0.1088748E+03  0.7561462E-02  0.1262668E+00
          4   -1    0    0  501    0  0.00000000000E+00  0.00000000000E+00  0.17044884490E+03  0.17044884490E+03  0.00000000000E+00 0. -1.
         -4   -1    0    0    0  501 -0.00000000000E+00 -0.00000000000E+00 -0.81178834372E+02  0.81178834372E+02  0.00000000000E+00 0.  1.
         23    2    1    2    0    0 -0.32973843171E+01  0.45164955277E+02  0.35415774917E+02  0.13767437622E+03  0.12509680582E+03 0.  0.
          5    1    3    3  502    0  0.50280226612E+02  0.40305390292E+01  0.46932511109E+02  0.69025208670E+02  0.41800000000E+01 0. -1.
         -5    1    3    3    0  502 -0.53577610929E+02  0.41134416247E+02 -0.11516736192E+02  0.68649167550E+02  0.41800000000E+01 0. -1.
        -11    1    1    2    0    0  0.39785445156E+02 -0.48601901680E+02  0.41483489889E+02  0.75272215502E+02  0.00000000000E+00 0. -1.
         11    1    1    2    0    0 -0.36488060839E+02  0.34369464037E+01  0.12370745723E+02  0.38681087551E+02  0.00000000000E+00 0.  1.
</event>
<event>
 7    1  0.6992302E-006  0.9548085E+02  0.7561462E-02  0.1290097E+00
         -1   -1    0    0    0  501 -0.00000000000E+00  0.00000000000E+00  0.11503630428E+03  0.11503630428E+03  0.00000000000E+00 0.  1.
          1   -1    0    0  501    0  0.00000000000E+00 -0.00000000000E+00 -0.16856592476E+03  0.16856592476E+03  0.00000000000E+00 0. -1.
         23    2    1    2    0    0 -0.46444596157E+02 -0.36534688491E+02  0.35879226864E+02  0.14291310912E+03  0.12507978998E+03 0.  0.
          5    1    3    3  502    0 -0.29056635068E+02 -0.60591856980E+02 -0.27558029207E+02  0.72750110292E+02  0.41800000000E+01 0.  1.
         -5    1    3    3    0  502 -0.17387961089E+02  0.24057168489E+02  0.63437256070E+02  0.70162998826E+02  0.41800000000E+01 0.  1.
        -11    1    1    2    0    0  0.50371432271E+01  0.49894267453E+02 -0.11492677789E+02  0.51447957971E+02  0.00000000000E+00 0.  1.
         11    1    1    2    0    0  0.41407452930E+02 -0.13359578963E+02 -0.77916169552E+02  0.89241161948E+02  0.00000000000E+00 0. -1.
</event>
<event>
 7    1  0.6992302E-006  0.1682487E+03  0.7561462E-02  0.1179687E+00
         -1   -1    0    0    0  501 -0.00000000000E+00  0.00000000000E+00  0.14839479266E+03  0.14839479266E+03  0.00000000000E+00 0.  1.
          1   -1    0    0  501    0  0.00000000000E+00 -0.00000000000E+00 -0.21546502037E+03  0.21546502037E+03  0.00000000000E+00 0. -1.
         23    2    1    2    0    0  0.20421829608E+01 -0.14068003421E+03 -0.55570564398E+02  0.19629376040E+03  0.12509240668E+03 0.  0.
          5    1    3    3  502    0 -0.60709151196E+02 -0.57688320067E+02 -0.30149663361E+02  0.89106778148E+02  0.41800000000E+01 0. -1.
         -5    1    3    3    0  502  0.62751334157E+02 -0.82991714139E+02 -0.25420901037E+02  0.10718698225E+03  0.41800000000E+01 0. -1.
        -11    1    1    2    0    0 -0.22326992829E+02  0.10612731890E+03  0.27255221733E+02  0.11182284890E+03  0.00000000000E+00 0.  1.
         11    1    1    2    0    0  0.20284809868E+02  0.34552715311E+02 -0.38754885054E+02  0.55743203731E+02  0.00000000000E+00 0. -1.
</event>
<event>
 7    1  0.6992302E-006  0.1282495E+03  0.7561462E-02  0.1230076E+00
         -4   -1    0    0    0  501 -0.00000000000E+00  0.00000000000E+00  0.16965805842E+03  0.16965805842E+03  0.00000000000E+00 0.  1.
          4   -1    0    0  501    0  0.00000000000E+00 -0.00000000000E+00 -0.11793446623E+03  0.11793446623E+03  0.00000000000E+00 0. -1.
         23    2    1    2    0    0 -0.30953113251E+02  0.80419251505E+02  0.38718356310E+02  0.15675301835E+03  0.12508815457E+03 0.  0.
          5    1    3    3  502    0 -0.48359280836E+01  0.11088702220E+03  0.33843618375E+02  0.11611279343E+03  0.41800000000E+01 0.  1.
         -5    1    3    3    0  502 -0.26117185167E+02 -0.30467770694E+02  0.48747379350E+01  0.40640224926E+02  0.41800000000E+01 0.  1.
        -11    1    1    2    0    0  0.23910052103E+02 -0.90038492959E+02  0.39958575510E+02  0.10136719668E+03  0.00000000000E+00 0.  1.
         11    1    1    2    0    0  0.70430611472E+01  0.96192414544E+01 -0.26953339637E+02  0.29472309616E+02  0.00000000000E+00 0. -1.
</event>
<event>
 7    1  0.6992302E-006  0.1175076E+03  0.7561462E-02  0.1247266E+00
          1   -1    0    0  501    0  0.00000000000E+00  0.00000000000E+00  0.36606799800E+03  0.36606799800E+03  0.00000000000E+00 0. -1.
         -1   -1    0    0    0  501 -0.00000000000E+00 -0.00000000000E+00 -0.46820034215E+02  0.46820034215E+02  0.00000000000E+00 0.  1.
         23    2    1    2    0    0  0.35257861682E+02 -0.47431427878E+02  0.11157854484E+03  0.17774568243E+03  0.12510355228E+03 0.  0.
          5    1    3    3  502    0 -0.21835955137E+02 -0.70835771759E+02  0.76681080431E+02  0.10673320005E+03  0.41800000000E+01 0.  1.
         -5    1    3    3    0  502  0.57093816819E+02  0.23404343881E+02  0.34897464412E+02  0.71012482381E+02  0.41800000000E+01 0.  1.
        -11    1    1    2    0    0 -0.35756472038E+02 -0.13331785435E+02  0.33860815956E+02  0.51017807212E+02  0.00000000000E+00 0.  1.
         11    1    1    2    0    0  0.49861035637E+00  0.60763213312E+02  0.17380860298E+03  0.18412454256E+03  0.00000000000E+00 0. -1.
</event>
<event>
 7    1  0.6992302E-006  0.1032814E+03  0.7561462E-02  0.1273543E+00
         -2   -1    0    0    0  501 -0.00000000000E+00  0.00000000000E+00  0.96023362588E+02  0.96023362588E+02  0.00000000000E+00 0.  1.
          2   -1    0    0  501    0  0.00000000000E+00 -0.00000000000E+00 -0.44777389007E+03  0.44777389007E+03  0.00000000000E+00 0. -1.
         23    2    1    2    0    0  0.49145186971E+02 -0.23251067021E+02  0.43955252972E+02  0.13405959103E+03  0.11438552427E+03 0.  0.
          5    1    3    3  502    0  0.29211543235E+02  0.42450136734E+02  0.39624768189E+02  0.65137723486E+02  0.41800000000E+01 0. -1.
         -5    1    3    3    0  502  0.19933643736E+02 -0.65701203755E+02  0.43304847830E+01  0.68921867545E+02  0.41800000000E+01 0.  1.
        -11    1    1    2    0    0  0.12724567421E+02 -0.96818043682E+01 -0.12831984048E+02  0.20501506444E+02  0.00000000000E+00 0.  1.
         11    1    1    2    0    0 -0.61869754393E+02  0.32932871390E+02 -0.38287379640E+03  0.38923615518E+03  0.00000000000E+00 0. -1.
</event>
<event>
 7    1  0.6992302E-006  0.1198843E+03  0.7561462E-02  0.1243288E+00
         -2   -1    0    0    0  501 -0.00000000000E+00  0.00000000000E+00  0.91763647490E+02  0.91763647490E+02  0.00000000000E+00 0. -1.
          2   -1    0    0  501    0  0.00000000000E+00 -0.00000000000E+00 -0.16150977695E+03  0.16150977695E+03  0.00000000000E+00 0.  1.
         23    2    1    2    0    0 -0.52689870056E+02 -0.78146507326E+01 -0.21731845730E+02  0.13769082509E+03  0.12509675864E+03 0.  0.
          5    1    3    3  502    0 -0.54920039273E+02  0.51689444758E+02 -0.19239579544E+02  0.77946412580E+02  0.41800000000E+01 0. -1.
         -5    1    3    3    0  502  0.22301692168E+01 -0.59504095490E+02 -0.24922661863E+01  0.59744412505E+02  0.41800000000E+01 0. -1.
        -11    1    1    2    0    0 -0.25779024746E+02  0.17127548627E+01 -0.17315494213E+02  0.31101736060E+02  0.00000000000E+00 0. -1.
         11    1    1    2    0    0  0.78468894803E+02  0.61018958699E+01 -0.30698789513E+02  0.84480863291E+02  0.00000000000E+00 0.  1.
</event>
<event>
 7    1  0.6992302E-006  0.1452003E+03  0.7561462E-02  0.1206498E+00
          2   -1    0    0  501    0  0.00000000000E+00  0.00000000000E+00  0.52573804476E+03  0.52573804476E+03  0.00000000000E+00 0. -1.
         -2   -1    0    0    0  501 -0.00000000000E+00 -0.00000000000E+00 -0.46988955210E+02  0.46988955210E+02  0.00000000000E+00 0.  1.
         23    2    1    2    0    0  0.67492659505E+02 -0.70894989461E+02  0.15172779825E+03  0.21966689052E+03  0.12510339488E+03 0.  0.
          5    1    3    3  502    0  0.11942783791E+02 -0.95609091573E+02  0.10714776570E+03  0.14415909465E+03  0.41800000000E+01 0. -1.
         -5    1    3    3    0  502  0.55549875714E+02  0.24714102112E+02  0.44580032558E+02  0.75507795875E+02  0.41800000000E+01 0. -1.
        -11    1    1    2    0    0 -0.81992561149E+02  0.26277660410E+02  0.20663534587E+03  0.22385589490E+03  0.00000000000E+00 0.  1.
         11    1    1    2    0    0  0.14499901643E+02  0.44617329051E+02  0.12038594542E+03  0.12920421454E+03  0.00000000000E+00 0. -1.
</event>
<event>
 7    1  0.6992302E-006  0.2144324E+03  0.7561462E-02  0.1138103E+00
          4   -1    0    0  501    0  0.00000000000E+00  0.00000000000E+00  0.96801128305E+02  0.96801128305E+02  0.00000000000E+00 0. -1.
         -4   -1    0    0    0  501 -0.00000000000E+00 -0.00000000000E+00 -0.96281647226E+03  0.96281647226E+03  0.00000000000E+00 0.  1.
         23    2    1    2    0    0 -0.15318901728E+03  0.14636140592E+03 -0.77233762829E+03  0.81058100856E+03  0.12509046009E+03 0.  0.
          5    1    3    3  502    0 -0.11450980735E+03  0.90928970144E+02 -0.30389882154E+03  0.33727220420E+03  0.41800000000E+01 0. -1.
         -5    1    3    3    0  502 -0.38679209935E+02  0.55432435773E+02 -0.46843880675E+03  0.47330880436E+03  0.41800000000E+01 0. -1.
        -11    1    1    2    0    0  0.40203808378E+02 -0.18569681090E+02  0.15028704712E+02  0.46765812612E+02  0.00000000000E+00 0. -1.
         11    1    1    2    0    0  0.11298520891E+03 -0.12779172483E+03 -0.10870642037E+03  0.20227077939E+03  0.00000000000E+00 0.  1.
</event>
<event>
 7    1  0.6992302E-006  0.1248238E+03  0.7561462E-02  0.1235345E+00
         -2   -1    0    0    0  501 -0.00000000000E+00  0.00000000000E+00  0.42730139597E+03  0.42730139597E+03  0.00000000000E+00 0.  1.
          2   -1    0    0  501    0  0.00000000000E+00 -0.00000000000E+00 -0.43207349499E+02  0.43207349499E+02  0.00000000000E+00 0. -1.
         23    2    1    2    0    0  0.27321319063E+02 -0.68586043338E+02  0.27204727842E+03  0.30839501078E+03  0.12508901295E+03 0.  0.
          5    1    3    3  502    0 -0.79126186632E-03  0.36420191445E+02  0.70109206839E+02  0.79115128952E+02  0.41800000000E+01 0.  1.
         -5    1    3    3    0  502  0.27322110325E+02 -0.10500623478E+03  0.20193807158E+03  0.22927988183E+03  0.41800000000E+01 0.  1.
        -11    1    1    2    0    0  0.12091588667E+01  0.75125285548E+02  0.10941043999E+03  0.13272495987E+03  0.00000000000E+00 0.  1.
         11    1    1    2    0    0 -0.28530477930E+02 -0.65392422107E+01  0.26363280565E+01  0.29388774817E+02  0.00000000000E+00 0. -1.
</event>
<event>
 7    1  0.6992302E-006  0.1497230E+03  0.7561462E-02  0.1200814E+00
          1   -1    0    0  501    0  0.00000000000E+00  0.00000000000E+00  0.28679464864E+02  0.28679464864E+02  0.00000000000E+00 0. -1.
         -1   -1    0    0    0  501 -0.00000000000E+00 -0.00000000000E+00 -0.96099450879E+03  0.96099450879E+03  0.00000000000E+00 0.  1.
         23    2    1    2    0    0  0.11795941531E+03 -0.32199918064E+02 -0.53595907285E+03  0.56378243942E+03  0.12508897972E+03 0.  0.
          5    1    3    3  502    0  0.82155267849E+02 -0.58444259870E+02 -0.19159913505E+03  0.21654773261E+03  0.41800000000E+01 0. -1.
         -5    1    3    3    0  502  0.35804147460E+02  0.26244341806E+02 -0.34435993780E+03  0.34723470681E+03  0.41800000000E+01 0. -1.
        -11    1    1    2    0    0 -0.99901120945E+02 -0.17181664613E+02 -0.29087442504E+03  0.30803145084E+03  0.00000000000E+00 0.  1.
         11    1    1    2    0    0 -0.18058294363E+02  0.49381582677E+02 -0.10548154603E+03  0.11786008339E+03  0.00000000000E+00 0. -1.
</event>
<event>
 7    1  0.6992302E-006  0.8959523E+02  0.7561462E-02  0.1303835E+00
          1   -1    0    0  501    0  0.00000000000E+00  0.00000000000E+00  0.62248187836E+03  0.62248187836E+03  0.00000000000E+00 0. -1.
         -1   -1    0    0    0  501 -0.00000000000E+00 -0.00000000000E+00 -0.35154048672E+02  0.35154048672E+02  0.00000000000E+00 0.  1.
         23    2    1    2    0    0 -0.11350767087E+02  0.59210836724E+02  0.14073371488E+03  0.19770732070E+03  0.12508974001E+03 0.  0.
          5    1    3    3  502    0 -0.21177123327E+02  0.23133600410E+02 -0.16743852630E+02  0.35797528145E+02  0.41800000000E+01 0.  1.
         -5    1    3    3    0  502  0.98263562400E+01  0.36077236314E+02  0.15747756751E+03  0.16190979256E+03  0.41800000000E+01 0.  1.
        -11    1    1    2    0    0  0.75989851932E+01  0.24745327782E+02  0.10890801023E+03  0.11194208554E+03  0.00000000000E+00 0.  1.
         11    1    1    2    0    0  0.37517818941E+01 -0.83956164506E+02  0.33768610458E+03  0.34798652079E+03  0.00000000000E+00 0. -1.
</event>
<event>
 7    1  0.6992302E-006  0.3138270E+03  0.7561462E-02  0.1078526E+00
          2   -1    0    0  501    0  0.00000000000E+00  0.00000000000E+00  0.80125321995E+03  0.80125321995E+03  0.00000000000E+00 0. -1.
         -2   -1    0    0    0  501 -0.00000000000E+00 -0.00000000000E+00 -0.13127817321E+03  0.13127817321E+03  0.00000000000E+00 0.  1.
         23    2    1    2    0    0  0.30418955176E+03  0.32212913221E+02  0.33284320746E+03  0.46904324134E+03  0.12509199144E+03 0.  0.
          5    1    3    3  502    0  0.30279958148E+03  0.14745112289E+02  0.33388214951E+03  0.45099863308E+03  0.41800000000E+01 0.  1.
         -5    1    3    3    0  502  0.13899702813E+01  0.17467800932E+02 -0.10389420521E+01  0.18044608263E+02  0.41800000000E+01 0.  1.
        -11    1    1    2    0    0 -0.14603528720E+03 -0.61507097255E+01  0.99374195239E+02  0.17674661812E+03  0.00000000000E+00 0.  1.
         11    1    1    2    0    0 -0.15815426456E+03 -0.26062203495E+02  0.23775764404E+03  0.28674153370E+03  0.00000000000E+00 0. -1.
</event>
<event>
 7    1  0.6992302E-006  0.1002487E+03  0.7561462E-02  0.1279774E+00
          1   -1    0    0  501    0  0.00000000000E+00  0.00000000000E+00  0.32810199985E+03  0.32810199985E+03  0.00000000000E+00 0. -1.
         -1   -1    0    0    0  501 -0.00000000000E+00 -0.00000000000E+00 -0.57704729319E+02  0.57704729319E+02  0.00000000000E+00 0.  1.
         23    2    1    2    0    0 -0.34452039312E+02 -0.74667728825E+02  0.16311312071E+03  0.22139531087E+03  0.12509108997E+03 0.  0.
          5    1    3    3  502    0 -0.19720401782E+02  0.29708708363E+01 -0.15785769312E+02  0.25775632538E+02  0.41800000000E+01 0.  1.
         -5    1    3    3    0  502 -0.14731637530E+02 -0.77638599661E+02  0.17889889002E+03  0.19561967834E+03  0.41800000000E+01 0.  1.
        -11    1    1    2    0    0  0.95824412020E+01 -0.93362957115E+01 -0.10927920979E+02  0.17274520368E+02  0.00000000000E+00 0.  1.
         11    1    1    2    0    0  0.24869598110E+02  0.84004024536E+02  0.11821207080E+03  0.14713689793E+03  0.00000000000E+00 0. -1.
</event>
<event>
 7    1  0.6992302E-006  0.1077294E+03  0.7561462E-02  0.1264833E+00
         -2   -1    0    0    0  501 -0.00000000000E+00  0.00000000000E+00  0.33225811061E+02  0.33225811061E+02  0.00000000000E+00 0.  1.
          2   -1    0    0  501    0  0.00000000000E+00 -0.00000000000E+00 -0.38022288495E+03  0.38022288495E+03  0.00000000000E+00 0. -1.
         23    2    1    2    0    0  0.12997314121E+02 -0.25965004182E+02 -0.18095089237E+03  0.22188713506E+03  0.12509022199E+03 0.  0.
          5    1    3    3  502    0  0.25876961215E+02  0.43837206214E+02 -0.43315306370E+02  0.66970186922E+02  0.41800000000E+01 0. -1.
         -5    1    3    3    0  502 -0.12879647094E+02 -0.69802210396E+02 -0.13763558600E+03  0.15491694813E+03  0.41800000000E+01 0. -1.
        -11    1    1    2    0    0 -0.40825960676E+02 -0.15222314064E+02 -0.57222305966E+02  0.71922668267E+02  0.00000000000E+00 0.  1.
         11    1    1    2    0    0  0.27828646556E+02  0.41187318246E+02 -0.10882387555E+03  0.11963889269E+03  0.00000000000E+00 0. -1.
</event>
<event>
 7    1  0.6992302E-006  0.2101968E+03  0.7561462E-02  0.1141410E+00
          2   -1    0    0  501    0  0.00000000000E+00  0.00000000000E+00  0.20578411143E+03  0.20578411143E+03  0.00000000000E+00 0. -1.
         -2   -1    0    0    0  501 -0.00000000000E+00 -0.00000000000E+00 -0.26453604147E+03  0.26453604147E+03  0.00000000000E+00 0.  1.
         23    2    1    2    0    0 -0.16431442127E+03 -0.93502489945E+02 -0.11766052997E+03  0.25541001370E+03  0.12509328567E+03 0.  0.
          5    1    3    3  502    0 -0.28841501823E+02  0.22843382653E+02 -0.54618358874E+02  0.65987043308E+02  0.41800000000E+01 0. -1.
         -5    1    3    3    0  502 -0.13547291945E+03 -0.11634587260E+03 -0.63042171093E+02  0.18942297039E+03  0.41800000000E+01 0. -1.
        -11    1    1    2    0    0  0.13763600930E+03  0.37414360744E+02  0.27299421273E+02  0.14521970888E+03  0.00000000000E+00 0.  1.
         11    1    1    2    0    0  0.26678411973E+02  0.56088129201E+02  0.31609178654E+02  0.69690430318E+02  0.00000000000E+00 0. -1.
</event>
<event>
 7    1  0.6992302E-006  0.1361228E+03  0.7561462E-02  0.1218643E+00
          2   -1    0    0  501    0  0.00000000000E+00  0.00000000000E+00  0.55211762151E+02  0.55211762151E+02  0.00000000000E+00 0.  1.
         -2   -1    0    0    0  501 -0.00000000000E+00 -0.00000000000E+00 -0.35625217994E+03  0.35625217994E+03  0.00000000000E+00 0. -1.
         23    2    1    2    0    0  0.88417902923E+02  0.15585392636E+01 -0.15719132261E+03  0.21949222917E+03  0.12509025607E+03 0.  0.
          5    1    3    3  502    0  0.76050209236E+02  0.53918290329E+02 -0.68830097679E+02  0.11595633274E+03  0.41800000000E+01 0.  1.
         -5    1    3    3    0  502  0.12367693687E+02 -0.52359751065E+02 -0.88361224929E+02  0.10353589643E+03  0.41800000000E+01 0.  1.
        -11    1    1    2    0    0  0.18261030468E+01  0.29476644421E+02 -0.50339630120E+02  0.58363392458E+02  0.00000000000E+00 0. -1.
         11    1    1    2    0    0 -0.90244005970E+02 -0.31035183684E+02 -0.93509465065E+02  0.13360832046E+03  0.00000000000E+00 0.  1.
</event>
<event>
 7    1  0.6992302E-006  0.1162206E+03  0.7561462E-02  0.1249465E+00
         -1   -1    0    0    0  501 -0.00000000000E+00  0.00000000000E+00  0.23821918236E+02  0.23821918236E+02  0.00000000000E+00 0.  1.
          1   -1    0    0  501    0  0.00000000000E+00 -0.00000000000E+00 -0.77127887079E+03  0.77127887079E+03  0.00000000000E+00 0. -1.
         23    2    1    2    0    0  0.74603882279E+02  0.24932055876E+02 -0.45468639541E+03  0.47809566336E+03  0.12509355895E+03 0.  0.
          5    1    3    3  502    0  0.83173605044E+00  0.51653716204E+02 -0.30161237714E+03  0.30603316262E+03  0.41800000000E+01 0.  1.
         -5    1    3    3    0  502  0.73772146228E+02 -0.26721660328E+02 -0.15307401827E+03  0.17206250074E+03  0.41800000000E+01 0.  1.
        -11    1    1    2    0    0 -0.41578592085E+02 -0.46666712323E+02 -0.25420083297E+03  0.26177208568E+03  0.00000000000E+00 0.  1.
         11    1    1    2    0    0 -0.33025290193E+02  0.21734656448E+02 -0.38569724174E+02  0.55233039986E+02  0.00000000000E+00 0. -1.
</event>
<event>
 7    1  0.6992302E-006  0.1134271E+03  0.7561462E-02  0.1254352E+00
         -2   -1    0    0    0  501 -0.00000000000E+00  0.00000000000E+00  0.45967593730E+02  0.45967593730E+02  0.00000000000E+00 0.  1.
          2   -1    0    0  501    0  0.00000000000E+00 -0.00000000000E+00 -0.53363123211E+03  0.53363123211E+03  0.00000000000E+00 0. -1.
         23    2    1    2    0    0  0.10175074428E+02  0.89423101364E+02 -0.13649161897E+03  0.20585829807E+03  0.12509058173E+03 0.  0.
          5    1    3    3  502    0 -0.30374795947E+02 -0.26328652575E+00  0.73344022038E+01  0.31527185163E+02  0.41800000000E+01 0. -1.
         -5    1    3    3    0  502  0.40549870375E+02  0.89686387890E+02 -0.14382602117E+03  0.17433111290E+03  0.41800000000E+01 0. -1.
        -11    1    1    2    0    0 -0.14917723188E+02 -0.96605901181E+01 -0.49943421033E+01  0.18461010795E+02  0.00000000000E+00 0.  1.
         11    1    1    2    0    0  0.47426487595E+01 -0.79762511246E+02 -0.34617767731E+03  0.35527951698E+03  0.00000000000E+00 0. -1.
</event>
<event>
 7    1  0.6992302E-006  0.1885785E+03  0.7561462E-02  0.1159750E+00
         -1   -1    0    0    0  501 -0.00000000000E+00  0.00000000000E+00  0.12664847616E+04  0.12664847616E+04  0.00000000000E+00 0.  1.
          1   -1    0    0  501    0  0.00000000000E+00 -0.00000000000E+00 -0.37158051585E+02  0.37158051585E+02  0.00000000000E+00 0. -1.
         23    2    1    2    0    0  0.11071300949E+03 -0.12726249703E+03  0.87626620504E+03  0.90107779950E+03  0.12508247289E+03 0.  0.
          5    1    3    3  502    0  0.39523402300E+02 -0.18902504769E+01  0.43546511597E+03  0.43727910081E+03  0.41800000000E+01 0.  1.
         -5    1    3    3    0  502  0.71189607192E+02 -0.12537224655E+03  0.44080108907E+03  0.46379869869E+03  0.41800000000E+01 0.  1.
        -11    1    1    2    0    0  0.91622115279E+01  0.49282286953E+02  0.82466220137E+02  0.96505789417E+02  0.00000000000E+00 0.  1.
         11    1    1    2    0    0 -0.11987522102E+03  0.77980210076E+02  0.27059428487E+03  0.30605922430E+03  0.00000000000E+00 0. -1.
</event>
<event>
 7    1  0.6992302E-006  0.8171859E+02  0.7561462E-02  0.1324244E+00
          3   -1    0    0  501    0  0.00000000000E+00  0.00000000000E+00  0.10844240718E+03  0.10844240718E+03  0.00000000000E+00 0. -1.
         -3   -1    0    0    0  501 -0.00000000000E+00 -0.00000000000E+00 -0.15128712018E+03  0.15128712018E+03  0.00000000000E+00 0.  1.
         23    2    1    2    0    0  0.21555846270E+02  0.57516663087E+02 -0.14550070762E+02  0.14011570353E+03  0.12509150560E+03 0.  0.
          5    1    3    3  502    0 -0.16365103575E+02  0.50028306034E+02  0.44744764727E+02  0.69211374716E+02  0.41800000000E+01 0.  1.
         -5    1    3    3    0  502  0.37920949845E+02  0.74883570534E+01 -0.59294835488E+02  0.70904328811E+02  0.41800000000E+01 0.  1.
        -11    1    1    2    0    0 -0.19634561194E+02 -0.64699881581E+01  0.33545323345E+02  0.39403876185E+02  0.00000000000E+00 0. -1.
         11    1    1    2    0    0 -0.19212850752E+01 -0.51046674929E+02 -0.61839965584E+02  0.80209947644E+02  0.00000000000E+00 0.  1.
</event>
<event>
 7    1  0.6992302E-006  0.1156878E+03  0.7561462E-02  0.1250385E+00
          1   -1    0    0  501    0  0.00000000000E+00  0.00000000000E+00  0.69950303555E+03  0.69950303555E+03  0.00000000000E+00 0. -1.
         -1   -1    0    0    0  501 -0.00000000000E+00 -0.00000000000E+00 -0.30408293222E+02  0.30408293222E+02  0.00000000000E+00 0.  1.
         23    2    1    2    0    0  0.34099634219E+02 -0.81175496039E+02  0.26581353999E+03  0.30668605655E+03  0.12508898044E+03 0.  0.
          5    1    3    3  502    0  0.10599231217E+02  0.21992650940E+02  0.51007661464E+01  0.25288547073E+02  0.41800000000E+01 0. -1.
         -5    1    3    3    0  502  0.23500403002E+02 -0.10316814698E+03  0.26071277385E+03  0.28139750948E+03  0.41800000000E+01 0. -1.
        -11    1    1    2    0    0 -0.44349337672E+02  0.78432744826E+02  0.40263680708E+03  0.41259539215E+03  0.00000000000E+00 0. -1.
         11    1    1    2    0    0  0.10249703452E+02  0.27427512131E+01  0.64439525840E+00  0.10629880071E+02  0.00000000000E+00 0.  1.
</event>
<event>
 6    1  0.6992302E-006  0.1364638E+03  0.7561462E-02  0.1218168E+00
         -2   -1    0    0    0  501 -0.00000000000E+00  0.00000000000E+00  0.48114895074E+02  0.48114895074E+02  0.00000000000E+00 0.  1.
          2   -1    0    0  501    0  0.00000000000E+00 -0.00000000000E+00 -0.10214847213E+04  0.10214847213E+04  0.00000000000E+00 0. -1.
          5    1    1    2  502    0  0.12807919991E+02  0.40113631554E+02 -0.52636584247E+03  0.52806402904E+03  0.41800000000E+01 0. -1.
         -5    1    1    2    0  502  0.88328048001E+02 -0.32723958270E+02 -0.24354601232E+02  0.97382341879E+02  0.41800000000E+01 0.  1.
        -11    1    1    2    0    0  0.21130422492E+01 -0.30456644239E+02 -0.10509238068E+03  0.10943710798E+03  0.00000000000E+00 0.  1.
         11    1    1    2    0    0 -0.10324901024E+03  0.23066970955E+02 -0.31755700188E+03  0.33471613750E+03  0.00000000000E+00 0. -1.
</event>
<event>
 7    1  0.6992302E-006  0.8475733E+02  0.7561462E-02  0.1316068E+00
         -2   -1    0    0    0  501 -0.00000000000E+00  0.00000000000E+00  0.80449382669E+02  0.80449382669E+02  0.00000000000E+00 0. -1.
          2   -1    0    0  501    0  0.00000000000E+00 -0.00000000000E+00 -0.19386724982E+03  0.19386724982E+03  0.00000000000E+00 0.  1.
         23    2    1    2    0    0 -0.36980010936E+02 -0.35634014059E+02 -0.25661505491E+02  0.13763742481E+03  0.12509294016E+03 0.  0.
          5    1    3    3  502    0 -0.62713828815E+02  0.89192477944E+01  0.22190353200E+02  0.67249248926E+02  0.41800000000E+01 0. -1.
         -5    1    3    3    0  502  0.25733817880E+02 -0.44553261854E+02 -0.47851858691E+02  0.70388175887E+02  0.41800000000E+01 0. -1.
        -11    1    1    2    0    0  0.20222155250E+02  0.31020800979E+02  0.92174622189E+01  0.38160021831E+02  0.00000000000E+00 0. -1.
         11    1    1    2    0    0  0.16757855686E+02  0.46132130802E+01 -0.96973823878E+02  0.98519185845E+02  0.00000000000E+00 0.  1.
</event>
<event>
 7    1  0.6992302E-006  0.1170974E+03  0.7561462E-02  0.1247964E+00
         -2   -1    0    0    0  501 -0.00000000000E+00  0.00000000000E+00  0.11258217879E+03  0.11258217879E+03  0.00000000000E+00 0.  1.
          2   -1    0    0  501    0  0.00000000000E+00 -0.00000000000E+00 -0.17704472459E+03  0.17704472459E+03  0.00000000000E+00 0. -1.
         23    2    1    2    0    0  0.59805169713E+02  0.63265797789E+02 -0.57502439566E+02  0.16288940686E+03  0.12508880372E+03 0.  0.
          5    1    3    3  502    0  0.78112447160E+02 -0.26926549939E+01 -0.52251972643E+02  0.94109222913E+02  0.41800000000E+01 0. -1.
         -5    1    3    3    0  502 -0.18307277447E+02  0.65958452783E+02 -0.52504669224E+01  0.68780183948E+02  0.41800000000E+01 0. -1.
        -11    1    1    2    0    0 -0.23376839896E+02 -0.19824323402E+02  0.41886368870E+02  0.51903259425E+02  0.00000000000E+00 0.  1.
         11    1    1    2    0    0 -0.36428329817E+02 -0.43441474387E+02 -0.48846475111E+02  0.74834237091E+02  0.00000000000E+00 0. -1.
</event>
<event>
 7    1  0.6992302E-006  0.1655974E+03  0.7561462E-02  0.1182518E+00
         -2   -1    0    0    0  501 -0.00000000000E+00  0.00000000000E+00  0.34801882697E+02  0.34801882697E+02  0.00000000000E+00 0.  1.
          2   -1    0    0  501    0  0.00000000000E+00 -0.00000000000E+00 -0.10212394117E+04  0.10212394117E+04  0.00000000000E+00 0. -1.
         23    2    1    2    0    0  0.14198089203E+03 -0.58151177232E+02 -0.53835270000E+03  0.57359487859E+03  0.12508925626E+03 0.  0.
          5    1    3    3  502    0  0.10534384865E+03 -0.81701163731E+02 -0.26405138365E+03  0.29582598298E+03  0.41800000000E+01 0. -1.
         -5    1    3    3    0  502  0.36637043377E+02  0.23549986500E+02 -0.27430131635E+03  0.27776889560E+03  0.41800000000E+01 0. -1.
        -11    1    1    2    0    0 -0.61663255091E+02  0.17812623949E+02 -0.75126483480E+02  0.98811108285E+02  0.00000000000E+00 0.  1.
         11    1    1    2    0    0 -0.80317636936E+02  0.40338553283E+02 -0.37295834555E+03  0.38363530755E+03  0.00000000000E+00 0. -1.
</event>
<event>
 7    1  0.6992302E-006  0.1184915E+03  0.7561462E-02  0.1245607E+00
         -4   -1    0    0    0  501 -0.00000000000E+00  0.00000000000E+00  0.45162536201E+02  0.45162536201E+02  0.00000000000E+00 0.  1.
          4   -1    0    0  501    0  0.00000000000E+00 -0.00000000000E+00 -0.65513111517E+03  0.65513111517E+03  0.00000000000E+00 0. -1.
         23    2    1    2    0    0 -0.96715419634E+02 -0.31021856841E+02 -0.14838652906E+03  0.21904868718E+03  0.12509011693E+03 0.  0.
          5    1    3    3  502    0 -0.64440952659E+02 -0.43164206113E+00 -0.16030350513E+03  0.17282218854E+03  0.41800000000E+01 0.  1.
         -5    1    3    3    0  502 -0.32274466974E+02 -0.30590214780E+02  0.11916976067E+02  0.46226498649E+02  0.41800000000E+01 0.  1.
        -11    1    1    2    0    0  0.17553254609E+02 -0.25153345878E+02 -0.52492888338E+02  0.60797293380E+02  0.00000000000E+00 0.  1.
         11    1    1    2    0    0  0.79162165025E+02  0.56175202719E+02 -0.40908916157E+03  0.42044767080E+03  0.00000000000E+00 0. -1.
</event>
<event>
 7    1  0.6992302E-006  0.1225511E+03  0.7561462E-02  0.1238947E+00
         -1   -1    0    0    0  501 -0.00000000000E+00  0.00000000000E+00  0.27498973191E+02  0.27498973191E+02  0.00000000000E+00 0.  1.
          1   -1    0    0  501    0  0.00000000000E+00 -0.00000000000E+00 -0.92134919949E+03  0.92134919949E+03  0.00000000000E+00 0. -1.
         23    2    1    2    0    0  0.57058364751E+02  0.92875855684E+02 -0.35652837182E+03  0.39324463405E+03  0.12508909120E+03 0.  0.
          5    1    3    3  502    0  0.81924321544E+01  0.45296218440E+02 -0.30283390720E+03  0.30634084138E+03  0.41800000000E+01 0. -1.
         -5    1    3    3    0  502  0.48865932596E+02  0.47579637244E+02 -0.53694464625E+02  0.86903792669E+02  0.41800000000E+01 0. -1.
        -11    1    1    2    0    0  0.48603334524E+01 -0.60468560831E+02 -0.14618688689E+03  0.15827405216E+03  0.00000000000E+00 0. -1.
         11    1    1    2    0    0 -0.61918698203E+02 -0.32407294853E+02 -0.39113496758E+03  0.39732948646E+03  0.00000000000E+00 0.  1.
</event>
<event>
 7    1  0.6992302E-006  0.1016869E+03  0.7561462E-02  0.1276788E+00
          1   -1    0    0  501    0  0.00000000000E+00  0.00000000000E+00  0.84293500345E+03  0.84293500345E+03  0.00000000000E+00 0. -1.
         -1   -1    0    0    0  501 -0.00000000000E+00 -0.00000000000E+00 -0.15989382988E+02  0.15989382988E+02  0.00000000000E+00 0.  1.
         23    2    1    2    0    0 -0.37814370609E+02  0.44504538671E+02  0.47580556570E+03  0.49310296856E+03  0.11553796201E+03 0.  0.
          5    1    3    3  502    0  0.32077147148E+02 -0.15046886649E+02  0.98477151484E+02  0.10474050760E+03  0.41800000000E+01 0. -1.
         -5    1    3    3    0  502 -0.69891517757E+02  0.59551425320E+02  0.37732841422E+03  0.38836246097E+03  0.41800000000E+01 0.  1.
        -11    1    1    2    0    0 -0.10705364527E+02 -0.16763342434E+02  0.14603515523E+02  0.24675436062E+02  0.00000000000E+00 0.  1.
         11    1    1    2    0    0  0.48519735136E+02 -0.27741196237E+02  0.33653653924E+03  0.34114598182E+03  0.00000000000E+00 0. -1.
</event>
<event>
 7    1  0.6992302E-006  0.1250020E+03  0.7561462E-02  0.1235066E+00
          2   -1    0    0  501    0  0.00000000000E+00  0.00000000000E+00  0.55445161968E+02  0.55445161968E+02  0.00000000000E+00 0. -1.
         -2   -1    0    0    0  501 -0.00000000000E+00 -0.00000000000E+00 -0.56546786475E+03  0.56546786475E+03  0.00000000000E+00 0.  1.
         23    2    1    2    0    0 -0.78002725044E+02  0.81054075212E+01 -0.47169408466E+03  0.49425909975E+03  0.12508647183E+03 0.  0.
          5    1    3    3  502    0 -0.37214032948E+02  0.56494331563E+02 -0.35529134459E+03  0.36169863932E+03  0.41800000000E+01 0. -1.
         -5    1    3    3    0  502 -0.40788692096E+02 -0.48388924042E+02 -0.11640274008E+03  0.13256046043E+03  0.41800000000E+01 0. -1.
        -11    1    1    2    0    0  0.75526188585E+02  0.29522557136E+02 -0.36425416360E+02  0.88896555046E+02  0.00000000000E+00 0.  1.
         11    1    1    2    0    0  0.24765364596E+01 -0.37627964658E+02 -0.19032017545E+01  0.37757371916E+02  0.00000000000E+00 0. -1.
</event>
<event>
 7    1  0.6992302E-006  0.1124821E+03  0.7561462E-02  0.1256041E+00
         -2   -1    0    0    0  501 -0.00000000000E+00  0.00000000000E+00  0.13662725289E+03  0.13662725289E+03  0.00000000000E+00 0.  1.
          2   -1    0    0  501    0  0.00000000000E+00 -0.00000000000E+00 -0.12250227661E+03  0.12250227661E+03  0.00000000000E+00 0. -1.
         23    2    1    2    0    0  0.62821230393E+02  0.30272990774E+02  0.38655354293E+02  0.14834071690E+03  0.12509105050E+03 0.  0.
          5    1    3    3  502    0  0.15775481733E+02 -0.36038585653E+02 -0.23409416894E+02  0.45968670625E+02  0.41800000000E+01 0.  1.
         -5    1    3    3    0  502  0.47045748659E+02  0.66311576426E+02  0.62064771187E+02  0.10237204627E+03  0.41800000000E+01 0.  1.
        -11    1    1    2    0    0  0.12834393557E+02 -0.25059712333E+02  0.64254569526E+01  0.28879012054E+02  0.00000000000E+00 0.  1.
         11    1    1    2    0    0 -0.75655623949E+02 -0.52132784410E+01 -0.30955834975E+02  0.81909800551E+02  0.00000000000E+00 0. -1.
</event>
<event>
 7    1  0.6992302E-006  0.1153340E+03  0.7561462E-02  0.1250999E+00
          2   -1    0    0  501    0  0.00000000000E+00  0.00000000000E+00  0.44693841068E+03  0.44693841068E+03  0.00000000000E+00 0. -1.
         -2   -1    0    0    0  501 -0.00000000000E+00 -0.00000000000E+00 -0.35399908665E+02  0.35399908665E+02  0.00000000000E+00 0.  1.
         23    2    1    2    0    0 -0.20756405355E+01 -0.47024575245E+02  0.15162699792E+03  0.20212263775E+03  0.12508874942E+03 0.  0.
          5    1    3    3  502    0  0.30104597790E+02  0.34344654353E+02  0.57269071733E+02  0.73369346923E+02  0.41800000000E+01 0. -1.
         -5    1    3    3    0  502 -0.32180238326E+02 -0.81369229599E+02  0.94357926187E+02  0.12875329083E+03  0.41800000000E+01 0. -1.
        -11    1    1    2    0    0 -0.40618387835E+02  0.13116322595E+02  0.64526886976E+02  0.77366727290E+02  0.00000000000E+00 0.  1.
         11    1    1    2    0    0  0.42694028371E+02  0.33908252651E+02  0.19538461711E+03  0.20284895430E+03  0.00000000000E+00 0. -1.
</event>
<event>
 7    1  0.6992302E-006  0.9386334E+02  0.7561462E-02  0.1293757E+00
          1   -1    0    0  501    0  0.00000000000E+00  0.00000000000E+00  0.50809192280E+02  0.50809192280E+02  0.00000000000E+00 0. -1.
         -1   -1    0    0    0  501 -0.00000000000E+00 -0.00000000000E+00 -0.27748015514E+03  0.27748015514E+03  0.00000000000E+00 0.  1.
         23    2    1    2    0    0  0.19846412667E+02  0.26812769543E+02 -0.17873408266E+03  0.22069486492E+03  0.12509015307E+03 0.  0.
          5    1    3    3  502    0  0.31974489013E+02 -0.42246168982E+02 -0.11123381952E+03  0.12327831012E+03  0.41800000000E+01 0.  1.
         -5    1    3    3    0  502 -0.12128076346E+02  0.69058938525E+02 -0.67500263135E+02  0.97416554801E+02  0.41800000000E+01 0.  1.
        -11    1    1    2    0    0  0.18807916566E+02 -0.14575094104E+02 -0.60611188773E+02  0.65114416977E+02  0.00000000000E+00 0.  1.
         11    1    1    2    0    0 -0.38654329233E+02 -0.12237675440E+02  0.12674308572E+02  0.42480065517E+02  0.00000000000E+00 0. -1.
</event>
<event>
 7    1  0.6992302E-006  0.9854579E+02  0.7561462E-02  0.1283384E+00
         -2   -1    0    0    0  501 -0.00000000000E+00  0.00000000000E+00  0.55308501382E+02  0.55308501382E+02  0.00000000000E+00 0.  1.
          2   -1    0    0  501    0  0.00000000000E+00 -0.00000000000E+00 -0.23980594651E+03  0.23980594651E+03  0.00000000000E+00 0. -1.
         23    2    1    2    0    0  0.13423146210E+02  0.34011615989E+02 -0.90290618030E+02  0.15854385897E+03  0.12508712418E+03 0.  0.
          5    1    3    3  502    0 -0.68060692770E+01 -0.45421447261E+02 -0.46607309681E+02  0.65567859245E+02  0.41800000000E+01 0. -1.
         -5    1    3    3    0  502  0.20229215487E+02  0.79433063250E+02 -0.43683308350E+02  0.92975999725E+02  0.41800000000E+01 0. -1.
        -11    1    1    2    0    0 -0.35982307485E+00  0.16612195846E+02 -0.80944786660E+02  0.82632638896E+02  0.00000000000E+00 0. -1.
         11    1    1    2    0    0 -0.13063323135E+02 -0.50623811835E+02 -0.13262040432E+02  0.53937950021E+02  0.00000000000E+00 0.  1.
</event>
<event>
 7    1  0.6992302E-006  0.2343399E+03  0.7561462E-02  0.1123622E+00
          2   -1    0    0  501    0  0.00000000000E+00  0.00000000000E+00  0.20873408666E+03  0.20873408666E+03  0.00000000000E+00 0. -1.
         -2   -1    0    0    0  501 -0.00000000000E+00 -0.00000000000E+00 -0.28753516375E+03  0.28753516375E+03  0.00000000000E+00 0.  1.
         23    2    1    2    0    0  0.12311139649E+03 -0.16754477474E+03 -0.11242989997E+03  0.26743754081E+03  0.12511869702E+03 0.  0.
          5    1    3    3  502    0  0.14799242877E+03 -0.12783159109E+03 -0.89939801116E+02  0.21528891025E+03  0.41800000000E+01 0.  1.
         -5    1    3    3    0  502 -0.24881032284E+02 -0.39713183648E+02 -0.22490098851E+02  0.52148630560E+02  0.41800000000E+01 0.  1.
        -11    1    1    2    0    0  0.12343247899E+02  0.32459705790E+02  0.81305273325E+00  0.34736858284E+02  0.00000000000E+00 0.  1.
         11    1    1    2    0    0 -0.13545464438E+03  0.13508506895E+03  0.32815770138E+02  0.19409485132E+03  0.00000000000E+00 0. -1.
</event>
<event>
 7    1  0.6992302E-006  0.1001994E+03  0.7561462E-02  0.1279877E+00
          2   -1    0    0  501    0  0.00000000000E+00  0.00000000000E+00  0.37130759854E+03  0.37130759854E+03  0.00000000000E+00 0. -1.
         -2   -1    0    0    0  501 -0.00000000000E+00 -0.00000000000E+00 -0.39008350750E+02  0.39008350750E+02  0.00000000000E+00 0.  1.
         23    2    1    2    0    0 -0.28415920216E+02  0.36230158036E+02  0.15501402243E+03  0.20444903518E+03  0.12509984797E+03 0.  0.
          5    1    3    3  502    0 -0.68288070466E+02  0.36402026636E+02  0.50473416023E+02  0.92484627026E+02  0.41800000000E+01 0. -1.
         -5    1    3    3    0  502  0.39872150249E+02 -0.17186860003E+00  0.10454060641E+03  0.11196440815E+03  0.41800000000E+01 0. -1.
        -11    1    1    2    0    0 -0.22781159438E+02 -0.68810495119E+01  0.57753706848E+01  0.24488466148E+02  0.00000000000E+00 0.  1.
         11    1    1    2    0    0  0.51197079654E+02 -0.29349108524E+02  0.17150985467E+03  0.18137844796E+03  0.00000000000E+00 0. -1.
</event>
<event>
 7    1  0.6992302E-006  0.1189464E+03  0.7561462E-02  0.1244845E+00
         -2   -1    0    0    0  501 -0.00000000000E+00  0.00000000000E+00  0.10005167666E+03  0.10005167666E+03  0.00000000000E+00 0.  1.
          2   -1    0    0  501    0  0.00000000000E+00 -0.00000000000E+00 -0.14792154217E+03  0.14792154217E+03  0.00000000000E+00 0. -1.
         23    2    1    2    0    0  0.26435563834E+02  0.49207320427E+02 -0.42450758826E+02  0.14342094932E+03  0.12508917763E+03 0.  0.
          5    1    3    3  502    0 -0.50158410329E+02  0.21693147719E+02 -0.10044890786E+02  0.55721010540E+02  0.41800000000E+01 0.  1.
         -5    1    3    3    0  502  0.76593974163E+02  0.27514172708E+02 -0.32405868040E+02  0.87699938776E+02  0.41800000000E+01 0.  1.
        -11    1    1    2    0    0  0.30085259720E+02 -0.28370310709E+02  0.96362014965E+01  0.42460025453E+02  0.00000000000E+00 0.  1.
         11    1    1    2    0    0 -0.56520823554E+02 -0.20837009718E+02 -0.15055308180E+02  0.62092244069E+02  0.00000000000E+00 0. -1.
</event>
<event>
 7    1  0.6992302E-006  0.1594549E+03  0.7561462E-02  0.1189313E+00
         -1   -1    0    0    0  501 -0.00000000000E+00  0.00000000000E+00  0.73289354895E+02  0.73289354895E+02  0.00000000000E+00 0.  1.
          1   -1    0    0  501    0  0.00000000000E+00 -0.00000000000E+00 -0.51539885043E+03  0.51539885043E+03  0.00000000000E+00 0. -1.
         23    2    1    2    0    0  0.14664266844E+03  0.59840568365E+02 -0.23451826330E+03  0.31017485500E+03  0.12698290839E+03 0.  0.
          5    1    3    3  502    0  0.28136778477E+02  0.13686977456E+02  0.11174758719E+02  0.33486703143E+02  0.41800000000E+01 0.  1.
         -5    1    3    3    0  502  0.11850588996E+03  0.46153590909E+02 -0.24569302202E+03  0.27668815185E+03  0.41800000000E+01 0.  1.
        -11    1    1    2    0    0 -0.68237144536E+02 -0.15326210248E+02 -0.23934579069E+02  0.73919312025E+02  0.00000000000E+00 0.  1.
         11    1    1    2    0    0 -0.78405523899E+02 -0.44514358117E+02 -0.18365665317E+03  0.20459403831E+03  0.00000000000E+00 0. -1.
</event>
<event>
 6    1  0.6992302E-006  0.1197959E+03  0.7561462E-02  0.1243434E+00
          1   -1    0    0  501    0  0.00000000000E+00  0.00000000000E+00  0.14288248207E+03  0.14288248207E+03  0.00000000000E+00 0. -1.
         -1   -1    0    0    0  501 -0.00000000000E+00 -0.00000000000E+00 -0.58315847832E+03  0.58315847832E+03  0.00000000000E+00 0.  1.
          5    1    1    2  502    0 -0.68143882971E+02 -0.77388207219E+01 -0.13473151826E+03  0.15123998329E+03  0.41800000000E+01 0. -1.
         -5    1    1    2    0  502  0.26608057730E+02 -0.24531022012E+02 -0.38695639163E+03  0.38866757159E+03  0.41800000000E+01 0.  1.
        -11    1    1    2    0    0  0.13944666209E+02 -0.47783478486E+02  0.88105717727E+02  0.10119452568E+03  0.00000000000E+00 0.  1.
         11    1    1    2    0    0  0.27591159032E+02  0.80053321220E+02 -0.66938040838E+01  0.84938879838E+02  0.00000000000E+00 0. -1.
</event>
<event>
 7    1  0.6992302E-006  0.1087509E+03  0.7561462E-02  0.1262901E+00
          1   -1    0    0  501    0  0.00000000000E+00  0.00000000000E+00  0.66087831632E+02  0.66087831632E+02  0.00000000000E+00 0. -1.
         -1   -1    0    0    0  501 -0.00000000000E+00 -0.00000000000E+00 -0.43451071335E+03  0.43451071335E+03  0.00000000000E+00 0.  1.
         23    2    1    2    0    0  0.21863514627E+02  0.49956080038E+02 -0.37171208174E+03  0.39593931310E+03  0.12499777894E+03 0.  0.
          5    1    3    3  502    0 -0.15963764920E+02 -0.37036118922E+02 -0.91643739259E+02  0.10021259023E+03  0.41800000000E+01 0. -1.
         -5    1    3    3    0  502  0.37827279547E+02  0.86992198960E+02 -0.28006834249E+03  0.29572672287E+03  0.41800000000E+01 0. -1.
        -11    1    1    2    0    0 -0.88127595639E+01 -0.62963317392E+02 -0.27106758394E+02  0.69114545638E+02  0.00000000000E+00 0.  1.
         11    1    1    2    0    0 -0.13050755063E+02  0.13007237354E+02  0.30395958424E+02  0.35544686239E+02  0.00000000000E+00 0. -1.
</event>
<event>
 7    1  0.6992302E-006  0.1828075E+03  0.7561462E-02  0.1165113E+00
         -1   -1    0    0    0  501 -0.00000000000E+00  0.00000000000E+00  0.15501348459E+03  0.15501348459E+03  0.00000000000E+00 0.  1.
          1   -1    0    0  501    0  0.00000000000E+00 -0.00000000000E+00 -0.26722748547E+03  0.26722748547E+03  0.00000000000E+00 0. -1.
         23    2    1    2    0    0  0.12021689085E+03  0.77998912946E+02  0.31681920115E+02  0.19283911534E+03  0.12508896465E+03 0.  0.
          5    1    3    3  502    0  0.13272761005E+03  0.97756836742E+02  0.35777970364E+02  0.16873219361E+03  0.41800000000E+01 0.  1.
         -5    1    3    3    0  502 -0.12510719197E+02 -0.19757923796E+02 -0.40960502488E+01  0.24106921728E+02  0.41800000000E+01 0.  1.
        -11    1    1    2    0    0 -0.13867027884E+03 -0.59700282977E+02 -0.11053707772E+03  0.18711497955E+03  0.00000000000E+00 0.  1.
         11    1    1    2    0    0  0.18453387993E+02 -0.18298629969E+02 -0.33358843275E+02  0.42286875172E+02  0.00000000000E+00 0. -1.
</event>
<event>
 7    1  0.6992302E-006  0.2023486E+03  0.7561462E-02  0.1147772E+00
         -1   -1    0    0    0  501 -0.00000000000E+00  0.00000000000E+00  0.56742623110E+03  0.56742623110E+03  0.00000000000E+00 0.  1.
          1   -1    0    0  501    0  0.00000000000E+00 -0.00000000000E+00 -0.83370989775E+02  0.83370989775E+02  0.00000000000E+00 0. -1.
         23    2    1    2    0    0  0.15339683166E+03 -0.79061775621E+02  0.36046961235E+03  0.41876952595E+03  0.12509285396E+03 0.  0.
          5    1    3    3  502    0  0.15513175917E+03 -0.28612039040E+02  0.23110444876E+03  0.27984147319E+03  0.41800000000E+01 0. -1.
         -5    1    3    3    0  502 -0.17349275006E+01 -0.50449736581E+02  0.12936516359E+03  0.13892805276E+03  0.41800000000E+01 0. -1.
        -11    1    1    2    0    0  0.66611449263E+01  0.27180639911E+02  0.20688078381E+02  0.34801646869E+02  0.00000000000E+00 0.  1.
         11    1    1    2    0    0 -0.16005797659E+03  0.51881135710E+02  0.10289755060E+03  0.19722604806E+03  0.00000000000E+00 0. -1.
</event>
<event>
 7    1  0.6992302E-006  0.7422251E+02  0.7561462E-02  0.1346296E+00
         -2   -1    0    0    0  501 -0.00000000000E+00  0.00000000000E+00  0.15554567417E+03  0.15554567417E+03  0.00000000000E+00 0.  1.
          2   -1    0    0  501    0  0.00000000000E+00 -0.00000000000E+00 -0.12479825486E+03  0.12479825486E+03  0.00000000000E+00 0. -1.
         23    2    1    2    0    0  0.31428271853E+02 -0.14572737865E+02  0.12994843014E+03  0.17421267536E+03  0.11074005960E+03 0.  0.
          5    1    3    3  502    0  0.91719410882E+00  0.45557407989E+02  0.34648331855E+02  0.57395975190E+02  0.41800000000E+01 0. -1.
         -5    1    3    3    0  502  0.30511077744E+02 -0.60130145854E+02  0.95300098288E+02  0.11681670017E+03  0.41800000000E+01 0.  1.
        -11    1    1    2    0    0 -0.13067340754E+02  0.29410724815E+01 -0.58244039366E+02  0.59764315636E+02  0.00000000000E+00 0. -1.
         11    1    1    2    0    0 -0.18360931099E+02  0.11631665384E+02 -0.40956971466E+02  0.46366938028E+02  0.00000000000E+00 0.  1.
</event>
<event>
 7    1  0.6992302E-006  0.9336141E+02  0.7561462E-02  0.1294910E+00
          2   -1    0    0  501    0  0.00000000000E+00  0.00000000000E+00  0.64800375996E+02  0.64800375996E+02  0.00000000000E+00 0. -1.
         -2   -1    0    0    0  501 -0.00000000000E+00 -0.00000000000E+00 -0.27253234228E+03  0.27253234228E+03  0.00000000000E+00 0.  1.
         23    2    1    2    0    0 -0.59927990686E+02  0.20139743703E+02 -0.16869587126E+03  0.21932067598E+03  0.12508512538E+03 0.  0.
          5    1    3    3  502    0  0.20245011654E+02  0.21193780857E+02 -0.12388477190E+03  0.12737325446E+03  0.41800000000E+01 0.  1.
         -5    1    3    3    0  502 -0.80173002340E+02 -0.10540371537E+01 -0.44811099358E+02  0.91947421520E+02  0.41800000000E+01 0.  1.
        -11    1    1    2    0    0  0.51216485050E+02 -0.33267724133E+02  0.14024038494E+02  0.62662137416E+02  0.00000000000E+00 0. -1.
         11    1    1    2    0    0  0.87115056357E+01  0.13127980430E+02 -0.53060133525E+02  0.55349904880E+02  0.00000000000E+00 0.  1.
</event>
<event>
 7    1  0.6992302E-006  0.1060663E+03  0.7561462E-02  0.1268033E+00
         -2   -1    0    0    0  501 -0.00000000000E+00  0.00000000000E+00  0.94413435224E+02  0.94413435224E+02  0.00000000000E+00 0.  1.
          2   -1    0    0  501    0  0.00000000000E+00 -0.00000000000E+00 -0.18707542840E+03  0.18707542840E+03  0.00000000000E+00 0. -1.
         23    2    1    2    0    0  0.21013847375E+02  0.65349130980E+02 -0.14010954551E+02  0.14337323543E+03  0.12508991602E+03 0.  0.
          5    1    3    3  502    0  0.41217733932E+02  0.34397291953E+01  0.40728307028E+02  0.58197944301E+02  0.41800000000E+01 0. -1.
         -5    1    3    3    0  502 -0.20203886557E+02  0.61909401785E+02 -0.54739261579E+02  0.85175291133E+02  0.41800000000E+01 0. -1.
        -11    1    1    2    0    0 -0.51773303821E+02 -0.39375209756E+02 -0.72478937479E+02  0.97386233678E+02  0.00000000000E+00 0.  1.
         11    1    1    2    0    0  0.30759456446E+02 -0.25973921224E+02 -0.61721011438E+01  0.40729394510E+02  0.00000000000E+00 0. -1.
</event>
<event>
 7    1  0.6992302E-006  0.9679651E+02  0.7561462E-02  0.1287180E+00
         -3   -1    0    0    0  501 -0.00000000000E+00  0.00000000000E+00  0.53390291218E+02  0.53390291218E+02  0.00000000000E+00 0.  1.
          3   -1    0    0  501    0  0.00000000000E+00 -0.00000000000E+00 -0.23081444169E+03  0.23081444169E+03  0.00000000000E+00 0. -1.
         23    2    1    2    0    0  0.53513131897E+01 -0.19356363188E+02 -0.13429818454E+03  0.18220402183E+03  0.12148661594E+03 0.  0.
          5    1    3    3  502    0 -0.21409342026E+02 -0.65191092332E+02 -0.63190567946E+02  0.93374293694E+02  0.41800000000E+01 0. -1.
         -5    1    3    3    0  502  0.26760655216E+02  0.45834729144E+02 -0.71107616590E+02  0.88829728134E+02  0.41800000000E+01 0.  1.
        -11    1    1    2    0    0  0.31796050618E+02  0.91001875071E+01  0.11617023684E+02  0.35053637284E+02  0.00000000000E+00 0.  1.
         11    1    1    2    0    0 -0.37147363808E+02  0.10256175681E+02 -0.54742989623E+02  0.66947073800E+02  0.00000000000E+00 0. -1.
</event>
<event>
 6    1  0.6992302E-006  0.1488323E+03  0.7561462E-02  0.1201915E+00
         -1   -1    0    0    0  501 -0.00000000000E+00  0.00000000000E+00  0.26380925984E+02  0.26380925984E+02  0.00000000000E+00 0.  1.
          1   -1    0    0  501    0  0.00000000000E+00 -0.00000000000E+00 -0.10371282648E+04  0.10371282648E+04  0.00000000000E+00 0. -1.
          5    1    1    2  502    0  0.51925876291E+02  0.62308598386E+02 -0.20673359081E+03  0.22211462814E+03  0.41800000000E+01 0. -1.
         -5    1    1    2    0  502  0.25846511259E+02 -0.91932715798E+02 -0.16368611171E+03  0.18955284737E+03  0.41800000000E+01 0.  1.
        -11    1    1    2    0    0  0.10593056806E+02  0.30711978833E+02 -0.13571515251E+03  0.13954942178E+03  0.00000000000E+00 0. -1.
         11    1    1    2    0    0 -0.88365444357E+02 -0.10878614214E+01 -0.50461248380E+03  0.51229229352E+03  0.00000000000E+00 0.  1.
</event>
<event>
 7    1  0.6992302E-006  0.9577481E+02  0.7561462E-02  0.1289440E+00
         -1   -1    0    0    0  501 -0.00000000000E+00  0.00000000000E+00  0.45717620726E+03  0.45717620726E+03  0.00000000000E+00 0.  1.
          1   -1    0    0  501    0  0.00000000000E+00 -0.00000000000E+00 -0.34291860943E+02  0.34291860943E+02  0.00000000000E+00 0. -1.
         23    2    1    2    0    0  0.55310829492E+02  0.30097263294E+02  0.23722613575E+03  0.27548257261E+03  0.12509706317E+03 0.  0.
          5    1    3    3  502    0  0.50504798410E+02  0.45376467278E+02  0.42833073151E+02  0.80385962709E+02  0.41800000000E+01 0. -1.
         -5    1    3    3    0  502  0.48060310816E+01 -0.15279203984E+02  0.19439306260E+03  0.19509660990E+03  0.41800000000E+01 0. -1.
        -11    1    1    2    0    0  0.21261892629E+02  0.63191297427E+01  0.19901090784E+02  0.29800216330E+02  0.00000000000E+00 0.  1.
         11    1    1    2    0    0 -0.76572722121E+02 -0.36416393037E+02  0.16575711978E+03  0.18618527926E+03  0.00000000000E+00 0. -1.
</event>
<event>
 7    1  0.6992302E-006  0.1275537E+03  0.7561462E-02  0.1231131E+00
          2   -1    0    0  501    0  0.00000000000E+00  0.00000000000E+00  0.15803621261E+03  0.15803621261E+03  0.00000000000E+00 0. -1.
         -2   -1    0    0    0  501 -0.00000000000E+00 -0.00000000000E+00 -0.28668685028E+03  0.28668685028E+03  0.00000000000E+00 0.  1.
         23    2    1    2    0    0  0.76295514967E+02 -0.72163081104E+02 -0.22338642630E+03  0.27672956232E+03  0.12509691975E+03 0.  0.
          5    1    3    3  502    0 -0.10287994962E+02  0.93492478319E+00  0.11433173559E+02  0.15965800397E+02  0.41800000000E+01 0.  1.
         -5    1    3    3    0  502  0.86583509929E+02 -0.73098005887E+02 -0.23481959986E+03  0.26076376192E+03  0.41800000000E+01 0.  1.
        -11    1    1    2    0    0 -0.74633271210E+02  0.18510880876E+02  0.26844882775E+02  0.81445844667E+02  0.00000000000E+00 0.  1.
         11    1    1    2    0    0 -0.16622437567E+01  0.53652200228E+02  0.67890905860E+02  0.86547655902E+02  0.00000000000E+00 0. -1.
</event>
<event>
 7    1  0.6992302E-006  0.1273437E+03  0.7561462E-02  0.1231451E+00
          1   -1    0    0  501    0  0.00000000000E+00  0.00000000000E+00  0.21574273077E+03  0.21574273077E+03  0.00000000000E+00 0. -1.
         -1   -1    0    0    0  501 -0.00000000000E+00 -0.00000000000E+00 -0.11115874015E+03  0.11115874015E+03  0.00000000000E+00 0.  1.
         23    2    1    2    0    0  0.30094923646E+02 -0.92031013883E+02 -0.99107942754E+00  0.15818863929E+03  0.12508897400E+03 0.  0.
          5    1    3    3  502    0  0.65096353848E+02 -0.10732559655E+02  0.15873520983E+02  0.67986500053E+02  0.41800000000E+01 0. -1.
         -5    1    3    3    0  502 -0.35001430203E+02 -0.81298454228E+02 -0.16864600410E+02  0.90202139238E+02  0.41800000000E+01 0. -1.
        -11    1    1    2    0    0 -0.22875733598E+01  0.46917465908E+02  0.10575462508E+03  0.11571742446E+03  0.00000000000E+00 0. -1.
         11    1    1    2    0    0 -0.27807350286E+02  0.45113547975E+02 -0.17955503411E+00  0.52995407168E+02  0.00000000000E+00 0.  1.
</event>
<event>
 7    1  0.6992302E-006  0.2010976E+03  0.7561462E-02  0.1148816E+00
          1   -1    0    0  501    0  0.00000000000E+00  0.00000000000E+00  0.19032308308E+03  0.19032308308E+03  0.00000000000E+00 0. -1.
         -1   -1    0    0    0  501 -0.00000000000E+00 -0.00000000000E+00 -0.37577617487E+03  0.37577617487E+03  0.00000000000E+00 0.  1.
         23    2    1    2    0    0  0.12166088196E+03  0.15554157219E+03 -0.24570285156E+03  0.33857983604E+03  0.12357938028E+03 0.  0.
          5    1    3    3  502    0  0.25814076086E+02  0.77667918317E+01 -0.11765949580E+03  0.12078045758E+03  0.41800000000E+01 0. -1.
         -5    1    3    3    0  502  0.95846805873E+02  0.14777478036E+03 -0.12804335576E+03  0.21779937846E+03  0.41800000000E+01 0.  1.
        -11    1    1    2    0    0 -0.44533699875E+02 -0.40303781586E+02  0.65349642652E+02  0.88759343336E+02  0.00000000000E+00 0. -1.
         11    1    1    2    0    0 -0.77127182083E+02 -0.11523779060E+03 -0.50998828793E+01  0.13876007857E+03  0.00000000000E+00 0.  1.
</event>
<event>
 7    1  0.6992302E-006  0.8337722E+02  0.7561462E-02  0.1319732E+00
          1   -1    0    0  501    0  0.00000000000E+00  0.00000000000E+00  0.15088241964E+02  0.15088241964E+02  0.00000000000E+00 0. -1.
         -1   -1    0    0    0  501 -0.00000000000E+00 -0.00000000000E+00 -0.95137384950E+03  0.95137384950E+03  0.00000000000E+00 0.  1.
         23    2    1    2    0    0 -0.81288876009E+01 -0.24071326463E+02 -0.71946289100E+03  0.73069881185E+03  0.12509354313E+03 0.  0.
          5    1    3    3  502    0 -0.28946121277E+02 -0.41956928457E+02 -0.68279044596E+03  0.68470324030E+03  0.41800000000E+01 0.  1.
         -5    1    3    3    0  502  0.20817233676E+02  0.17885601994E+02 -0.36672445043E+02  0.45995571548E+02  0.41800000000E+01 0.  1.
        -11    1    1    2    0    0  0.45612049355E+02  0.52742581039E+01 -0.15002998261E+03  0.15689892456E+03  0.00000000000E+00 0.  1.
         11    1    1    2    0    0 -0.37483161754E+02  0.18797068359E+02 -0.66792733920E+02  0.78864355057E+02  0.00000000000E+00 0. -1.
</event>
<event>
 7    1  0.6992302E-006  0.1283925E+03  0.7561462E-02  0.1229861E+00
          2   -1    0    0  501    0  0.00000000000E+00  0.00000000000E+00  0.28336498884E+03  0.28336498884E+03  0.00000000000E+00 0.  1.
         -2   -1    0    0    0  501 -0.00000000000E+00 -0.00000000000E+00 -0.59212388036E+02  0.59212388036E+02  0.00000000000E+00 0. -1.
         23    2    1    2    0    0  0.59427546840E+02 -0.32977911282E+02  0.10597722141E+03  0.17747714483E+03  0.12509112488E+03 0.  0.
          5    1    3    3  502    0 -0.36536970656E+02  0.72877518120E+01  0.20436210874E+02  0.42698626045E+02  0.41800000000E+01 0. -1.
         -5    1    3    3    0  502  0.95964517497E+02 -0.40265663094E+02  0.85541010534E+02  0.13477851879E+03  0.41800000000E+01 0. -1.
        -11    1    1    2    0    0 -0.48139677425E+02  0.65172994276E+02  0.79213479914E+02  0.11331250207E+03  0.00000000000E+00 0. -1.
         11    1    1    2    0    0 -0.11287869415E+02 -0.32195082993E+02  0.38961899484E+02  0.51787729978E+02  0.00000000000E+00 0.  1.
</event>
<event>
 7    1  0.6992302E-006  0.9908624E+02  0.7561462E-02  0.1282229E+00
         -3   -1    0    0    0  501 -0.00000000000E+00  0.00000000000E+00  0.22805149827E+03  0.22805149827E+03  0.00000000000E+00 0.  1.
          3   -1    0    0  501    0  0.00000000000E+00 -0.00000000000E+00 -0.65592443948E+02  0.65592443948E+02  0.00000000000E+00 0. -1.
         23    2    1    2    0    0  0.15368878752E+02 -0.57715623679E+02  0.72855537793E+02  0.15659765129E+03  0.12509036475E+03 0.  0.
          5    1    3    3  502    0 -0.50566100562E+02 -0.67701130652E-01  0.22711739397E+02  0.55589842741E+02  0.41800000000E+01 0.  1.
         -5    1    3    3    0  502  0.65934979314E+02 -0.57647922548E+02  0.50143798396E+02  0.10100780855E+03  0.41800000000E+01 0.  1.
        -11    1    1    2    0    0 -0.11478085267E+02  0.40031993519E+02  0.10520351880E+03  0.11314630933E+03  0.00000000000E+00 0.  1.
         11    1    1    2    0    0 -0.38907934848E+01  0.17683630160E+02 -0.15600002270E+02  0.23899981598E+02  0.00000000000E+00 0. -1.
</event>
<event>
 7    1  0.7774231E-006  0.2762863E+03  0.7561462E-02  0.1097735E+00
          2   -1    0    0  501    0  0.00000000000E+00  0.00000000000E+00  0.21575070277E+03  0.21575070277E+03  0.00000000000E+00 0.  1.
         -2   -1    0    0    0  501 -0.00000000000E+00 -0.00000000000E+00 -0.41397040802E+03  0.41397040802E+03  0.00000000000E+00 0. -1.
         23    2    1    2    0    0 -0.24034099388E+03  0.11802508453E+03 -0.18119723797E+03  0.34666067063E+03  0.12508983810E+03 0.  0.
          5    1    3    3  502    0 -0.88395655025E+02  0.23243081803E+02  0.51631501810E+00  0.91497386084E+02  0.41800000000E+01 0.  1.
         -5    1    3    3    0  502 -0.15194533885E+03  0.94782002723E+02 -0.18171355299E+03  0.25516328454E+03  0.41800000000E+01 0.  1.
        -11    1    1    2    0    0  0.11541981447E+03 -0.83701520704E+01 -0.16093340555E+02  0.11683658943E+03  0.00000000000E+00 0. -1.
         11    1    1    2    0    0  0.12492117940E+03 -0.10965493246E+03 -0.92912672804E+00  0.16622385073E+03  0.00000000000E+00 0.  1.
</event>
<event>
 7    1  0.6992302E-006  0.1054982E+03  0.7561462E-02  0.1269141E+00
          1   -1    0    0  501    0  0.00000000000E+00  0.00000000000E+00  0.36362009868E+03  0.36362009868E+03  0.00000000000E+00 0. -1.
         -1   -1    0    0    0  501 -0.00000000000E+00 -0.00000000000E+00 -0.47731864924E+02  0.47731864924E+02  0.00000000000E+00 0.  1.
         23    2    1    2    0    0  0.71475735932E+02  0.81871085622E+01  0.19709565962E+03  0.24427366067E+03  0.12508841945E+03 0.  0.
          5    1    3    3  502    0  0.45751965502E+02 -0.41428559619E+02  0.31438655114E+02  0.69393294595E+02  0.41800000000E+01 0. -1.
         -5    1    3    3    0  502  0.25723770430E+02  0.49615668181E+02  0.16565700451E+03  0.17488036607E+03  0.41800000000E+01 0. -1.
        -11    1    1    2    0    0 -0.41746422030E+02  0.24899942884E+02  0.10114428495E+02  0.49649497196E+02  0.00000000000E+00 0.  1.
         11    1    1    2    0    0 -0.29729313902E+02 -0.33087051447E+02  0.10867814563E+03  0.11742880574E+03  0.00000000000E+00 0. -1.
</event>
<event>
 7    1  0.6992302E-006  0.1174927E+03  0.7561462E-02  0.1247292E+00
          1   -1    0    0  501    0  0.00000000000E+00  0.00000000000E+00  0.61149761141E+02  0.61149761141E+02  0.00000000000E+00 0. -1.
         -1   -1    0    0    0  501 -0.00000000000E+00 -0.00000000000E+00 -0.30944634354E+03  0.30944634354E+03  0.00000000000E+00 0.  1.
         23    2    1    2    0    0 -0.12716177222E+02 -0.76992671953E+02 -0.16741557055E+03  0.22308012287E+03  0.12508874953E+03 0.  0.
          5    1    3    3  502    0  0.37663641800E+02 -0.90585151195E+01 -0.41782337904E+01  0.39185924098E+02  0.41800000000E+01 0. -1.
         -5    1    3    3    0  502 -0.50379819022E+02 -0.67934156833E+02 -0.16323733676E+03  0.18389419877E+03  0.41800000000E+01 0. -1.
        -11    1    1    2    0    0 -0.11297908148E+01  0.91373371633E+02 -0.87467337542E+02  0.12649468213E+03  0.00000000000E+00 0.  1.
         11    1    1    2    0    0  0.13845968037E+02 -0.14380699680E+02  0.65863256926E+01  0.21021299681E+02  0.00000000000E+00 0. -1.
</event>
<event>
 7    1  0.6992302E-006  0.1398602E+03  0.7561462E-02  0.1213517E+00
          1   -1    0    0  501    0  0.00000000000E+00  0.00000000000E+00  0.35040518153E+02  0.35040518153E+02  0.00000000000E+00 0. -1.
         -1   -1    0    0    0  501 -0.00000000000E+00 -0.00000000000E+00 -0.66693760466E+03  0.66693760466E+03  0.00000000000E+00 0.  1.
         23    2    1    2    0    0  0.75547767535E+02  0.63657567515E+02 -0.43665209558E+03  0.46483602542E+03  0.12509087445E+03 0.  0.
          5    1    3    3  502    0  0.73121071484E+02 -0.78585380925E+01 -0.12537486745E+03  0.14541243930E+03  0.41800000000E+01 0. -1.
         -5    1    3    3    0  502  0.24266960515E+01  0.71516105608E+02 -0.31127722814E+03  0.31942358612E+03  0.41800000000E+01 0. -1.
        -11    1    1    2    0    0 -0.47238453712E+02 -0.86131442279E+02 -0.14852140382E+03  0.17806938044E+03  0.00000000000E+00 0.  1.
         11    1    1    2    0    0 -0.28309313823E+02  0.22473874764E+02 -0.46723587102E+02  0.59072716949E+02  0.00000000000E+00 0. -1.
</event>
<event>
 7    1  0.6992302E-006  0.1208383E+03  0.7561462E-02  0.1241721E+00
          1   -1    0    0  501    0  0.00000000000E+00  0.00000000000E+00  0.14722977199E+03  0.14722977199E+03  0.00000000000E+00 0. -1.
         -1   -1    0    0    0  501 -0.00000000000E+00 -0.00000000000E+00 -0.10908001878E+03  0.10908001878E+03  0.00000000000E+00 0.  1.
         23    2    1    2    0    0 -0.28668713535E+02 -0.75440872894E+02  0.59036749442E+01  0.14898200246E+03  0.12509022040E+03 0.  0.
          5    1    3    3  502    0 -0.37268131668E+02 -0.10831765702E+03  0.44652042026E+01  0.11471285416E+03  0.41800000000E+01 0. -1.
         -5    1    3    3    0  502  0.85994181329E+01  0.32876784130E+02  0.14384707417E+01  0.34269148297E+02  0.41800000000E+01 0. -1.
        -11    1    1    2    0    0  0.40575487555E+02  0.66579974337E+02  0.42961172327E+02  0.89022050643E+02  0.00000000000E+00 0. -1.
         11    1    1    2    0    0 -0.11906774019E+02  0.88608985576E+01 -0.10715094067E+02  0.18305737671E+02  0.00000000000E+00 0.  1.
</event>
<event>
 7    1  0.6992302E-006  0.1292626E+03  0.7561462E-02  0.1228554E+00
          4   -1    0    0  501    0  0.00000000000E+00  0.00000000000E+00  0.16215717756E+03  0.16215717756E+03  0.00000000000E+00 0. -1.
         -4   -1    0    0    0  501 -0.00000000000E+00 -0.00000000000E+00 -0.13505129433E+03  0.13505129433E+03  0.00000000000E+00 0.  1.
         23    2    1    2    0    0 -0.82357066294E+02  0.49245394753E+00 -0.43619340555E+02  0.15601480263E+03  0.12512011385E+03 0.  0.
          5    1    3    3  502    0  0.31604230953E+02 -0.97327714576E+01  0.43902391338E+00  0.33334957572E+02  0.41800000000E+01 0. -1.
         -5    1    3    3    0  502 -0.11396129725E+03  0.10225225405E+02 -0.44058364468E+02  0.12267984506E+03  0.41800000000E+01 0. -1.
        -11    1    1    2    0    0  0.14820450013E+02  0.32361648421E+02 -0.32927510116E+01  0.35745828237E+02  0.00000000000E+00 0.  1.
         11    1    1    2    0    0  0.67536616280E+02 -0.32854102369E+02  0.74017974796E+02  0.10544784101E+03  0.00000000000E+00 0. -1.
</event>
<event>
 7    1  0.6992302E-006  0.9955510E+02  0.7561462E-02  0.1281234E+00
         -2   -1    0    0    0  501 -0.00000000000E+00  0.00000000000E+00  0.21397301752E+02  0.21397301752E+02  0.00000000000E+00 0.  1.
          2   -1    0    0  501    0  0.00000000000E+00 -0.00000000000E+00 -0.55903609386E+03  0.55903609386E+03  0.00000000000E+00 0. -1.
         23    2    1    2    0    0  0.49841156909E+01 -0.25893634006E+01 -0.28110012850E+03  0.30772780193E+03  0.12509025392E+03 0.  0.
          5    1    3    3  502    0 -0.31662431754E+02 -0.53475027691E+02 -0.13432635506E+03  0.14806461506E+03  0.41800000000E+01 0.  1.
         -5    1    3    3    0  502  0.36646547444E+02  0.50885664291E+02 -0.14677377344E+03  0.15966318687E+03  0.41800000000E+01 0.  1.
        -11    1    1    2    0    0 -0.31392408379E+02 -0.21647210479E+02 -0.48974557978E+02  0.62069254503E+02  0.00000000000E+00 0.  1.
         11    1    1    2    0    0  0.26408292689E+02  0.24236573879E+02 -0.20756410563E+03  0.21063633918E+03  0.00000000000E+00 0. -1.
</event>
<event>
 7    1  0.6992302E-006  0.2349516E+03  0.7561462E-02  0.1123202E+00
          2   -1    0    0  501    0  0.00000000000E+00  0.00000000000E+00  0.40970908856E+03  0.40970908856E+03  0.00000000000E+00 0. -1.
         -2   -1    0    0    0  501 -0.00000000000E+00 -0.00000000000E+00 -0.16864926745E+03  0.16864926745E+03  0.00000000000E+00 0.  1.
         23    2    1    2    0    0  0.19259463151E+03  0.12527746003E+03  0.47495462138E+02  0.26587597453E+03  0.12508829214E+03 0.  0.
          5    1    3    3  502    0  0.22183087047E+02  0.36152245310E+02 -0.36372695790E+02  0.56031416107E+02  0.41800000000E+01 0.  1.
         -5    1    3    3    0  502  0.17041154446E+03  0.89125214719E+02  0.83868157929E+02  0.20984455842E+03  0.41800000000E+01 0.  1.
        -11    1    1    2    0    0 -0.11159878761E+03 -0.43357425746E+02  0.53518126344E+02  0.13114246304E+03  0.00000000000E+00 0.  1.
         11    1    1    2    0    0 -0.80995843894E+02 -0.81920034283E+02  0.14004623263E+03  0.18133991844E+03  0.00000000000E+00 0. -1.
</event>
<event>
 7    1  0.6992302E-006  0.1087006E+03  0.7561462E-02  0.1262995E+00
          1   -1    0    0  501    0  0.00000000000E+00  0.00000000000E+00  0.76279172607E+03  0.76279172607E+03  0.00000000000E+00 0. -1.
         -1   -1    0    0    0  501 -0.00000000000E+00 -0.00000000000E+00 -0.16878327579E+02  0.16878327579E+02  0.00000000000E+00 0.  1.
         23    2    1    2    0    0  0.82523659081E+01 -0.18361048712E+02  0.33145429115E+03  0.35484446782E+03  0.12508964615E+03 0.  0.
          5    1    3    3  502    0  0.55371179339E+02 -0.45803276025E+02  0.19214699824E+03  0.20518735080E+03  0.41800000000E+01 0. -1.
         -5    1    3    3    0  502 -0.47118813430E+02  0.27442227313E+02  0.13930729291E+03  0.14965711702E+03  0.41800000000E+01 0. -1.
        -11    1    1    2    0    0  0.27039086620E+02 -0.23609241407E+02  0.11805188126E+03  0.12338863462E+03  0.00000000000E+00 0.  1.
         11    1    1    2    0    0 -0.35291452528E+02  0.41970290119E+02  0.29640722608E+03  0.30143695120E+03  0.00000000000E+00 0. -1.
</event>
<event>
 7    1  0.6992302E-006  0.7455849E+02  0.7561462E-02  0.1345244E+00
         -1   -1    0    0    0  501 -0.00000000000E+00  0.00000000000E+00  0.27794891296E+02  0.27794891296E+02  0.00000000000E+00 0.  1.
          1   -1    0    0  501    0  0.00000000000E+00 -0.00000000000E+00 -0.64116750822E+03  0.64116750822E+03  0.00000000000E+00 0. -1.
         23    2    1    2    0    0  0.25278868407E+01  0.50093158298E+02 -0.18706141595E+03  0.23055355470E+03  0.12508898244E+03 0.  0.
          5    1    3    3  502    0  0.75344235128E+01  0.14675308021E+02  0.16575839176E+02  0.23756326474E+02  0.41800000000E+01 0.  1.
         -5    1    3    3    0  502 -0.50065366720E+01  0.35417850277E+02 -0.20363725512E+03  0.20679722823E+03  0.41800000000E+01 0.  1.
        -11    1    1    2    0    0  0.38878117664E+02 -0.34048633894E+02 -0.30232828166E+03  0.30671355920E+03  0.00000000000E+00 0. -1.
         11    1    1    2    0    0 -0.41406004504E+02 -0.16044524404E+02 -0.12398291931E+03  0.13169528561E+03  0.00000000000E+00 0.  1.
</event>
<event>
 7    1  0.6992302E-006  0.1490546E+03  0.7561462E-02  0.1201639E+00
         -2   -1    0    0    0  501 -0.00000000000E+00  0.00000000000E+00  0.76838375506E+02  0.76838375506E+02  0.00000000000E+00 0.  1.
          2   -1    0    0  501    0  0.00000000000E+00 -0.00000000000E+00 -0.30597667553E+03  0.30597667553E+03  0.00000000000E+00 0. -1.
         23    2    1    2    0    0  0.46171266911E+02 -0.97606545776E+02 -0.10509382972E+03  0.19583170416E+03  0.12508604896E+03 0.  0.
          5    1    3    3  502    0  0.12886503510E+02 -0.12003653716E+03 -0.58581940947E+02  0.13425404437E+03  0.41800000000E+01 0. -1.
         -5    1    3    3    0  502  0.33284763401E+02  0.22429991382E+02 -0.46511888773E+02  0.61577659790E+02  0.41800000000E+01 0. -1.
        -11    1    1    2    0    0 -0.26975894956E+02 -0.91519868941E+01 -0.43001805671E+02  0.51581130889E+02  0.00000000000E+00 0.  1.
         11    1    1    2    0    0 -0.19195371955E+02  0.10675853267E+03 -0.81042664637E+02  0.13540221599E+03  0.00000000000E+00 0. -1.
</event>
<event>
 7    1  0.6992302E-006  0.1139310E+03  0.7561462E-02  0.1253459E+00
          1   -1    0    0  501    0  0.00000000000E+00  0.00000000000E+00  0.75830574107E+02  0.75830574107E+02  0.00000000000E+00 0.  1.
         -1   -1    0    0    0  501 -0.00000000000E+00 -0.00000000000E+00 -0.17632900995E+03  0.17632900995E+03  0.00000000000E+00 0. -1.
         23    2    1    2    0    0  0.37883689771E+02  0.81737823254E+01 -0.61592420717E+02  0.14471766205E+03  0.12509033037E+03 0.  0.
          5    1    3    3  502    0 -0.45950020116E+02  0.66495700490E+01 -0.27378948192E+02  0.54062004537E+02  0.41800000000E+01 0. -1.
         -5    1    3    3    0  502  0.83833709887E+02  0.15242122764E+01 -0.34213472525E+02  0.90655657511E+02  0.41800000000E+01 0. -1.
        -11    1    1    2    0    0  0.27701710431E+02 -0.14742312829E+02 -0.24894394601E+02  0.40055604238E+02  0.00000000000E+00 0. -1.
         11    1    1    2    0    0 -0.65585400202E+02  0.65685305032E+01 -0.14011620521E+02  0.67386317767E+02  0.00000000000E+00 0.  1.
</event>
<event>
 7    1  0.6992302E-006  0.1277495E+03  0.7561462E-02  0.1230834E+00
          1   -1    0    0  501    0  0.00000000000E+00  0.00000000000E+00  0.14797626253E+03  0.14797626253E+03  0.00000000000E+00 0. -1.
         -1   -1    0    0    0  501 -0.00000000000E+00 -0.00000000000E+00 -0.12832539199E+03  0.12832539199E+03  0.00000000000E+00 0.  1.
         23    2    1    2    0    0 -0.66969720275E+02 -0.49358306563E+02  0.24423713164E+02  0.15219878972E+03  0.12508704157E+03 0.  0.
          5    1    3    3  502    0 -0.73896821400E+02  0.17529535653E+02 -0.96937125977E+01  0.76677671438E+02  0.41800000000E+01 0.  1.
         -5    1    3    3    0  502  0.69271011248E+01 -0.66887842217E+02  0.34117425762E+02  0.75521118285E+02  0.41800000000E+01 0.  1.
        -11    1    1    2    0    0  0.17727556655E+02  0.59241373472E+02 -0.29048032681E+02  0.68319797997E+02  0.00000000000E+00 0.  1.
         11    1    1    2    0    0  0.49242163621E+02 -0.98830669081E+01  0.24275190048E+02  0.55783066798E+02  0.00000000000E+00 0. -1.
</event>
<event>
 7    1  0.6992302E-006  0.1352881E+03  0.7561462E-02  0.1219814E+00
         -2   -1    0    0    0  501 -0.00000000000E+00  0.00000000000E+00  0.11270836964E+03  0.11270836964E+03  0.00000000000E+00 0.  1.
          2   -1    0    0  501    0  0.00000000000E+00 -0.00000000000E+00 -0.23038338557E+03  0.23038338557E+03  0.00000000000E+00 0. -1.
         23    2    1    2    0    0  0.10127323931E+03  0.43432281794E+02 -0.13164709502E+02  0.16722007946E+03  0.12508642330E+03 0.  0.
          5    1    3    3  502    0 -0.17692734780E+02 -0.50628628302E+01 -0.32157482571E+02  0.37285942784E+02  0.41800000000E+01 0.  1.
         -5    1    3    3    0  502  0.11896597409E+03  0.48495144624E+02  0.18992773069E+02  0.12993413667E+03  0.41800000000E+01 0.  1.
        -11    1    1    2    0    0 -0.47594707450E+02 -0.50066515340E+02 -0.14077920393E+02  0.70498936007E+02  0.00000000000E+00 0.  1.
         11    1    1    2    0    0 -0.53678531862E+02  0.66342335466E+01 -0.90432386036E+02  0.10537273975E+03  0.00000000000E+00 0. -1.
</event>
<event>
 7    1  0.6992302E-006  0.1419194E+03  0.7561462E-02  0.1210769E+00
         -1   -1    0    0    0  501 -0.00000000000E+00  0.00000000000E+00  0.54167666406E+02  0.54167666406E+02  0.00000000000E+00 0.  1.
          1   -1    0    0  501    0  0.00000000000E+00 -0.00000000000E+00 -0.48357784837E+03  0.48357784837E+03  0.00000000000E+00 0. -1.
         23    2    1    2    0    0 -0.11032377376E+03  0.37065988202E+02 -0.26972177469E+03  0.31928363744E+03  0.12508790052E+03 0.  0.
          5    1    3    3  502    0 -0.12170715345E+03  0.48516759223E+02 -0.27248537905E+03  0.30237767994E+03  0.41800000000E+01 0. -1.
         -5    1    3    3    0  502  0.11383379688E+02 -0.11450771021E+02  0.27636043620E+01  0.16905957506E+02  0.41800000000E+01 0. -1.
        -11    1    1    2    0    0  0.77373794832E+02  0.10631251906E+02 -0.13390048470E+03  0.15501312024E+03  0.00000000000E+00 0. -1.
         11    1    1    2    0    0  0.32949978932E+02 -0.47697240108E+02 -0.25787922568E+02  0.63448757088E+02  0.00000000000E+00 0.  1.
</event>
<event>
 7    1  0.6992302E-006  0.1827666E+03  0.7561462E-02  0.1165152E+00
          2   -1    0    0  501    0  0.00000000000E+00  0.00000000000E+00  0.95632949320E+03  0.95632949320E+03  0.00000000000E+00 0. -1.
         -2   -1    0    0    0  501 -0.00000000000E+00 -0.00000000000E+00 -0.47978458660E+02  0.47978458660E+02  0.00000000000E+00 0.  1.
         23    2    1    2    0    0 -0.15315923464E+02 -0.15684398110E+03  0.24936282672E+03  0.32041164154E+03  0.12508872357E+03 0.  0.
          5    1    3    3  502    0 -0.58792973729E+02 -0.63928205626E+02  0.62105043618E+02  0.10685475224E+03  0.41800000000E+01 0. -1.
         -5    1    3    3    0  502  0.43477050265E+02 -0.92915775474E+02  0.18725778310E+03  0.21355688929E+03  0.41800000000E+01 0. -1.
        -11    1    1    2    0    0  0.34424459975E+02  0.24644514267E+02  0.25248770699E+03  0.25601257334E+03  0.00000000000E+00 0. -1.
         11    1    1    2    0    0 -0.19108536511E+02  0.13219946683E+03  0.40650050083E+03  0.42788373698E+03  0.00000000000E+00 0.  1.
</event>
<event>
 7    1  0.6992302E-006  0.1422887E+03  0.7561462E-02  0.1210282E+00
          1   -1    0    0  501    0  0.00000000000E+00  0.00000000000E+00  0.71431203107E+03  0.71431203107E+03  0.00000000000E+00 0. -1.
         -1   -1    0    0    0  501 -0.00000000000E+00 -0.00000000000E+00 -0.35030026485E+02  0.35030026485E+02  0.00000000000E+00 0.  1.
         23    2    1    2    0    0 -0.10496086372E+03  0.44040872109E+02  0.33568918234E+03  0.37588943680E+03  0.12509700328E+03 0.  0.
          5    1    3    3  502    0 -0.73508176304E+02  0.80036027793E+02  0.28964448018E+03  0.30938748363E+03  0.41800000000E+01 0. -1.
         -5    1    3    3    0  502 -0.31452687420E+02 -0.35995155684E+02  0.46044702164E+02  0.66501953174E+02  0.41800000000E+01 0. -1.
        -11    1    1    2    0    0  0.79041461189E+02 -0.58341337972E+02  0.32242718550E+03  0.33706164755E+03  0.00000000000E+00 0. -1.
         11    1    1    2    0    0  0.25919402535E+02  0.14300465863E+02  0.21165636752E+02  0.36390973205E+02  0.00000000000E+00 0.  1.
</event>
<event>
 7    1  0.6992302E-006  0.1129161E+03  0.7561462E-02  0.1255263E+00
         -2   -1    0    0    0  501 -0.00000000000E+00  0.00000000000E+00  0.26304802090E+03  0.26304802090E+03  0.00000000000E+00 0.  1.
          2   -1    0    0  501    0  0.00000000000E+00 -0.00000000000E+00 -0.67338543721E+02  0.67338543721E+02  0.00000000000E+00 0. -1.
         23    2    1    2    0    0 -0.10838500214E+02  0.73983763540E+02  0.12089062328E+03  0.18934458479E+03  0.12508300699E+03 0.  0.
          5    1    3    3  502    0 -0.27966557145E+02 -0.21248453401E+02  0.12184426426E+01  0.35391836530E+02  0.41800000000E+01 0. -1.
         -5    1    3    3    0  502  0.17128056931E+02  0.95232216941E+02  0.11967218064E+03  0.15395274826E+03  0.41800000000E+01 0. -1.
        -11    1    1    2    0    0  0.33523419451E+02 -0.34705490833E+02 -0.57387715247E+01  0.48592429907E+02  0.00000000000E+00 0. -1.
         11    1    1    2    0    0 -0.22684919237E+02 -0.39278272707E+02  0.80557625430E+02  0.92449549931E+02  0.00000000000E+00 0.  1.
</event>
<event>
 7    1  0.6992302E-006  0.7700557E+02  0.7561462E-02  0.1337771E+00
         -1   -1    0    0    0  501 -0.00000000000E+00  0.00000000000E+00  0.37684235301E+03  0.37684235301E+03  0.00000000000E+00 0.  1.
          1   -1    0    0  501    0  0.00000000000E+00 -0.00000000000E+00 -0.48477205654E+02  0.48477205654E+02  0.00000000000E+00 0. -1.
         23    2    1    2    0    0 -0.82081657874E+01 -0.32950961315E+02  0.29682242596E+03  0.32388722166E+03  0.12508493101E+03 0.  0.
          5    1    3    3  502    0 -0.15416044221E+02 -0.52166623836E+02  0.29795842454E+03  0.30291204370E+03  0.41800000000E+01 0. -1.
         -5    1    3    3    0  502  0.72078784337E+01  0.19215662521E+02 -0.11359985855E+01  0.20975177959E+02  0.41800000000E+01 0. -1.
        -11    1    1    2    0    0  0.37251465666E+02  0.32541626718E+02 -0.10272407869E+02  0.50518823493E+02  0.00000000000E+00 0. -1.
         11    1    1    2    0    0 -0.29043299878E+02  0.40933459739E+00  0.41815129267E+02  0.50913513514E+02  0.00000000000E+00 0.  1.
</event>
<event>
 7    1  0.6992302E-006  0.1144600E+03  0.7561462E-02  0.1252527E+00
         -2   -1    0    0    0  501 -0.00000000000E+00  0.00000000000E+00  0.99113318786E+02  0.99113318786E+02  0.00000000000E+00 0.  1.
          2   -1    0    0  501    0  0.00000000000E+00 -0.00000000000E+00 -0.17794863034E+03  0.17794863034E+03  0.00000000000E+00 0. -1.
         23    2    1    2    0    0  0.61948252172E+02  0.23780817018E+02 -0.15281106297E+02  0.14242269577E+03  0.12509036276E+03 0.  0.
          5    1    3    3  502    0 -0.21304327165E+02 -0.16606750865E+02 -0.38229511280E+02  0.46996026034E+02  0.41800000000E+01 0.  1.
         -5    1    3    3    0  502  0.83252579337E+02  0.40387567883E+02  0.22948404984E+02  0.95426669737E+02  0.41800000000E+01 0.  1.
        -11    1    1    2    0    0 -0.51317361670E+02 -0.55450988800E+02 -0.17174260515E+02  0.77480571706E+02  0.00000000000E+00 0.  1.
         11    1    1    2    0    0 -0.10630890502E+02  0.31670171782E+02 -0.46379944742E+02  0.57158681649E+02  0.00000000000E+00 0. -1.
</event>
<event>
 7    1  0.6992302E-006  0.1300944E+03  0.7561462E-02  0.1227316E+00
         -1   -1    0    0    0  501 -0.00000000000E+00  0.00000000000E+00  0.56520930012E+03  0.56520930012E+03  0.00000000000E+00 0.  1.
          1   -1    0    0  501    0  0.00000000000E+00 -0.00000000000E+00 -0.44552182807E+02  0.44552182807E+02  0.00000000000E+00 0. -1.
         23    2    1    2    0    0 -0.54636042539E+02 -0.65144932039E+02  0.43188890418E+03  0.45760826552E+03  0.12509332438E+03 0.  0.
          5    1    3    3  502    0  0.25753373429E+02  0.98533099861E+01  0.18792842898E+03  0.18998655420E+03  0.41800000000E+01 0.  1.
         -5    1    3    3    0  502 -0.80389415968E+02 -0.74998242025E+02  0.24396047520E+03  0.26762171132E+03  0.41800000000E+01 0.  1.
        -11    1    1    2    0    0  0.34195790777E+02 -0.16603488329E+02  0.17754140428E+02  0.41955183636E+02  0.00000000000E+00 0.  1.
         11    1    1    2    0    0  0.20440251761E+02  0.81748420368E+02  0.71014072706E+02  0.11019803377E+03  0.00000000000E+00 0. -1.
</event>
<event>
 7    1  0.6992302E-006  0.1030502E+03  0.7561462E-02  0.1274009E+00
          1   -1    0    0  501    0  0.00000000000E+00  0.00000000000E+00  0.56150739835E+03  0.56150739835E+03  0.00000000000E+00 0. -1.
         -1   -1    0    0    0  501 -0.00000000000E+00 -0.00000000000E+00 -0.39112947532E+02  0.39112947532E+02  0.00000000000E+00 0.  1.
         23    2    1    2    0    0  0.30746049672E+02 -0.42189465819E+02  0.11134922028E+03  0.17542269751E+03  0.12509677593E+03 0.  0.
          5    1    3    3  502    0  0.18163398932E+02  0.27131426157E+02 -0.10550148469E+02  0.34565899074E+02  0.41800000000E+01 0.  1.
         -5    1    3    3    0  502  0.12582650740E+02 -0.69320891977E+02  0.12189936875E+03  0.14085679844E+03  0.41800000000E+01 0.  1.
        -11    1    1    2    0    0 -0.61067110584E+02  0.17557032141E+02  0.18030045495E+03  0.19116928474E+03  0.00000000000E+00 0.  1.
         11    1    1    2    0    0  0.30321060912E+02  0.24632433678E+02  0.23074477559E+03  0.23402836363E+03  0.00000000000E+00 0. -1.
</event>
<event>
 7    1  0.6992302E-006  0.1589248E+03  0.7561462E-02  0.1189916E+00
         -1   -1    0    0    0  501 -0.00000000000E+00  0.00000000000E+00  0.32722783855E+02  0.32722783855E+02  0.00000000000E+00 0.  1.
          1   -1    0    0  501    0  0.00000000000E+00 -0.00000000000E+00 -0.11266180506E+04  0.11266180506E+04  0.00000000000E+00 0. -1.
         23    2    1    2    0    0 -0.12078182459E+03  0.44308932981E+02 -0.29411348962E+03  0.34453063788E+03  0.12508830867E+03 0.  0.
          5    1    3    3  502    0 -0.65352216803E+01  0.47775007595E+02 -0.30591562240E+02  0.57257982442E+02  0.41800000000E+01 0. -1.
         -5    1    3    3    0  502 -0.11424660291E+03 -0.34660746140E+01 -0.26352192738E+03  0.28727265543E+03  0.41800000000E+01 0. -1.
        -11    1    1    2    0    0  0.74716501504E+02  0.18700049367E+02 -0.35872555092E+03  0.36690089714E+03  0.00000000000E+00 0.  1.
         11    1    1    2    0    0  0.46065323082E+02 -0.63008982348E+02 -0.44105622623E+03  0.44790929947E+03  0.00000000000E+00 0. -1.
</event>
<event>
 7    1  0.6992302E-006  0.1092379E+03  0.7561462E-02  0.1261988E+00
          1   -1    0    0  501    0  0.00000000000E+00  0.00000000000E+00  0.51550075362E+03  0.51550075362E+03  0.00000000000E+00 0. -1.
         -1   -1    0    0    0  501 -0.00000000000E+00 -0.00000000000E+00 -0.39619457898E+02  0.39619457898E+02  0.00000000000E+00 0.  1.
         23    2    1    2    0    0  0.52663271112E+02 -0.32064121749E+02  0.12498399507E+03  0.18727000481E+03  0.12509007814E+03 0.  0.
          5    1    3    3  502    0  0.25128169455E+02  0.30941018008E+02 -0.47730716700E+01  0.40361195580E+02  0.41800000000E+01 0.  1.
         -5    1    3    3    0  502  0.27535101657E+02 -0.63005139757E+02  0.12975706674E+03  0.14690880923E+03  0.41800000000E+01 0.  1.
        -11    1    1    2    0    0 -0.78659933868E+02  0.25635464963E+02  0.28358213908E+03  0.29540377767E+03  0.00000000000E+00 0. -1.
         11    1    1    2    0    0  0.25996662755E+02  0.64286567865E+01  0.67315161572E+02  0.72446429035E+02  0.00000000000E+00 0.  1.
</event>
<event>
 7    1  0.6992302E-006  0.1070574E+03  0.7561462E-02  0.1266118E+00
          2   -1    0    0  501    0  0.00000000000E+00  0.00000000000E+00  0.30870857840E+03  0.30870857840E+03  0.00000000000E+00 0. -1.
         -2   -1    0    0    0  501 -0.00000000000E+00 -0.00000000000E+00 -0.67647609506E+02  0.67647609506E+02  0.00000000000E+00 0.  1.
         23    2    1    2    0    0  0.13887611052E+02  0.93128133443E+02  0.14000594516E+03  0.21003246887E+03  0.12508500438E+03 0.  0.
          5    1    3    3  502    0  0.62882341698E+01  0.87702466739E+02  0.20881763757E+02  0.90469801695E+02  0.41800000000E+01 0. -1.
         -5    1    3    3    0  502  0.75993768818E+01  0.54256667039E+01  0.11912418140E+03  0.11956266718E+03  0.41800000000E+01 0. -1.
        -11    1    1    2    0    0 -0.41387568274E+02 -0.57710332203E+02  0.98471862080E+02  0.12140889948E+03  0.00000000000E+00 0. -1.
         11    1    1    2    0    0  0.27499957223E+02 -0.35417801240E+02  0.25831616600E+01  0.44914819560E+02  0.00000000000E+00 0.  1.
</event>
<event>
 6    1  0.6992302E-006  0.1321324E+03  0.7561462E-02  0.1224326E+00
          1   -1    0    0  501    0  0.00000000000E+00  0.00000000000E+00  0.22844863363E+03  0.22844863363E+03  0.00000000000E+00 0. -1.
         -1   -1    0    0    0  501 -0.00000000000E+00 -0.00000000000E+00 -0.19466984284E+03  0.19466984284E+03  0.00000000000E+00 0.  1.
          5    1    1    2  502    0 -0.48422306317E+02  0.14479965420E+02 -0.11986862545E+03  0.13015509562E+03  0.41800000000E+01 0. -1.
         -5    1    1    2    0  502  0.18543531418E+02 -0.89675936671E+02 -0.60367930863E+01  0.91867031333E+02  0.41800000000E+01 0.  1.
        -11    1    1    2    0    0 -0.33021204970E+02  0.26079549926E+02  0.48043353834E+02  0.63864753578E+02  0.00000000000E+00 0.  1.
         11    1    1    2    0    0  0.62899979869E+02  0.49116421325E+02  0.11164085549E+03  0.13723159594E+03  0.00000000000E+00 0. -1.
</event>
<event>
 7    1  0.6992302E-006  0.1161899E+03  0.7561462E-02  0.1249518E+00
          2   -1    0    0  501    0  0.00000000000E+00  0.00000000000E+00  0.55670810925E+02  0.55670810925E+02  0.00000000000E+00 0. -1.
         -2   -1    0    0    0  501 -0.00000000000E+00 -0.00000000000E+00 -0.31086240393E+03  0.31086240393E+03  0.00000000000E+00 0.  1.
         23    2    1    2    0    0 -0.31751231475E+02 -0.62607969121E+02 -0.18893423896E+03  0.23721474502E+03  0.12508713005E+03 0.  0.
          5    1    3    3  502    0 -0.41755117513E+01 -0.92218240573E+02 -0.16734411076E+03  0.19116266006E+03  0.41800000000E+01 0.  1.
         -5    1    3    3    0  502 -0.27575719723E+02  0.29610271452E+02 -0.21590128199E+02  0.46052084962E+02  0.41800000000E+01 0.  1.
        -11    1    1    2    0    0  0.24137039564E+02 -0.10117684137E+02 -0.46848603215E+02  0.53663356534E+02  0.00000000000E+00 0.  1.
         11    1    1    2    0    0  0.76141919102E+01  0.72725653258E+02 -0.19408750830E+02  0.75655113304E+02  0.00000000000E+00 0. -1.
</event>
<event>
 7    1  0.6992302E-006  0.1103239E+03  0.7561462E-02  0.1259971E+00
          2   -1    0    0  501    0  0.00000000000E+00  0.00000000000E+00  0.54626271369E+03  0.54626271369E+03  0.00000000000E+00 0. -1.
         -2   -1    0    0    0  501 -0.00000000000E+00 -0.00000000000E+00 -0.23814628245E+02  0.23814628245E+02  0.00000000000E+00 0.  1.
         23    2    1    2    0    0  0.29849932696E+02 -0.22823795245E+02  0.30193596854E+03  0.32897476631E+03  0.12508846333E+03 0.  0.
          5    1    3    3  502    0 -0.37471066789E+02  0.22890716430E+02  0.15270261474E+03  0.15894535757E+03  0.41800000000E+01 0.  1.
         -5    1    3    3    0  502  0.67320999486E+02 -0.45714511674E+02  0.14923335380E+03  0.17002940874E+03  0.41800000000E+01 0.  1.
        -11    1    1    2    0    0 -0.60563715737E+02  0.84644634787E+01  0.16601281687E+03  0.17691768191E+03  0.00000000000E+00 0. -1.
         11    1    1    2    0    0  0.30713783040E+02  0.14359331766E+02  0.54499300034E+02  0.64184893718E+02  0.00000000000E+00 0.  1.
</event>
<event>
 7    1  0.6992302E-006  0.1105453E+03  0.7561462E-02  0.1259563E+00
          2   -1    0    0  501    0  0.00000000000E+00  0.00000000000E+00  0.55402677633E+03  0.55402677633E+03  0.00000000000E+00 0. -1.
         -2   -1    0    0    0  501 -0.00000000000E+00 -0.00000000000E+00 -0.34094478960E+02  0.34094478960E+02  0.00000000000E+00 0.  1.
         23    2    1    2    0    0  0.47648839705E+02  0.57854177705E+02  0.20763470441E+03  0.25372561649E+03  0.12508796979E+03 0.  0.
          5    1    3    3  502    0  0.61085528912E+02 -0.85166216371E+01  0.15799759920E+03  0.16966050937E+03  0.41800000000E+01 0. -1.
         -5    1    3    3    0  502 -0.13436689207E+02  0.66370799342E+02  0.49637105208E+02  0.84065107123E+02  0.41800000000E+01 0. -1.
        -11    1    1    2    0    0 -0.46744619941E+02 -0.15770683508E+02  0.27090460365E+03  0.27535990672E+03  0.00000000000E+00 0. -1.
         11    1    1    2    0    0 -0.90421976343E+00 -0.42083494197E+02  0.41392989308E+02  0.59035732070E+02  0.00000000000E+00 0.  1.
</event>
<event>
 7    1  0.6992302E-006  0.1678321E+03  0.7561462E-02  0.1180128E+00
         -2   -1    0    0    0  501 -0.00000000000E+00  0.00000000000E+00  0.15443662481E+03  0.15443662481E+03  0.00000000000E+00 0.  1.
          2   -1    0    0  501    0  0.00000000000E+00 -0.00000000000E+00 -0.22773616912E+03  0.22773616912E+03  0.00000000000E+00 0. -1.
         23    2    1    2    0    0 -0.12169827747E+03 -0.40255206871E+02  0.41642605320E+02  0.18387748044E+03  0.12508344740E+03 0.  0.
          5    1    3    3  502    0 -0.13432241653E+03  0.84457379393E+00  0.41594735457E+02  0.14067984683E+03  0.41800000000E+01 0.  1.
         -5    1    3    3    0  502  0.12624139057E+02 -0.41099780664E+02  0.47869862420E-01  0.43197633605E+02  0.41800000000E+01 0.  1.
        -11    1    1    2    0    0  0.98710409005E+02 -0.13483961452E+02 -0.51932023127E+02  0.11234988691E+03  0.00000000000E+00 0. -1.
         11    1    1    2    0    0  0.22987868469E+02  0.53739168323E+02 -0.63010126502E+02  0.85945426584E+02  0.00000000000E+00 0.  1.
</event>
<event>
 7    1  0.6992302E-006  0.1699037E+03  0.7561462E-02  0.1177948E+00
         -2   -1    0    0    0  501 -0.00000000000E+00  0.00000000000E+00  0.16924581790E+04  0.16924581790E+04  0.00000000000E+00 0.  1.
          2   -1    0    0  501    0  0.00000000000E+00 -0.00000000000E+00 -0.62908254330E+02  0.62908254330E+02  0.00000000000E+00 0. -1.
         23    2    1    2    0    0  0.14568488466E+03  0.45311168536E+02  0.15464178123E+04  0.15589524229E+04  0.12508964352E+03 0.  0.
          5    1    3    3  502    0  0.65095143773E+02  0.76668533734E+02  0.58056557203E+03  0.58922771289E+03  0.41800000000E+01 0.  1.
         -5    1    3    3    0  502  0.80589740892E+02 -0.31357365198E+02  0.96585224029E+03  0.96972470999E+03  0.41800000000E+01 0.  1.
        -11    1    1    2    0    0 -0.57173351771E+02 -0.17728052006E+02  0.84668951807E+02  0.10369140457E+03  0.00000000000E+00 0.  1.
         11    1    1    2    0    0 -0.88511532894E+02 -0.27583116530E+02 -0.15368394288E+01  0.92722605918E+02  0.00000000000E+00 0. -1.
</event>
<event>
 7    1  0.6992302E-006  0.1040986E+03  0.7561462E-02  0.1271906E+00
          3   -1    0    0  501    0  0.00000000000E+00  0.00000000000E+00  0.98194860205E+02  0.98194860205E+02  0.00000000000E+00 0. -1.
         -3   -1    0    0    0  501 -0.00000000000E+00 -0.00000000000E+00 -0.13280155793E+03  0.13280155793E+03  0.00000000000E+00 0.  1.
         23    2    1    2    0    0  0.61314509332E+01  0.37635402726E+02 -0.15200658454E+02  0.13165265530E+03  0.12508934168E+03 0.  0.
          5    1    3    3  502    0 -0.41537555824E+02  0.60510186350E+02  0.76304908097E+01  0.73909052124E+02  0.41800000000E+01 0.  1.
         -5    1    3    3    0  502  0.47669006757E+02 -0.22874783624E+02 -0.22831149264E+02  0.57743603176E+02  0.41800000000E+01 0.  1.
        -11    1    1    2    0    0 -0.37761518100E+02 -0.86439490397E+01 -0.36436040164E+02  0.53181153871E+02  0.00000000000E+00 0.  1.
         11    1    1    2    0    0  0.31630067167E+02 -0.28991453686E+02  0.17030000893E+02  0.46162608963E+02  0.00000000000E+00 0. -1.
</event>
<event>
 7    1  0.6992302E-006  0.1179618E+03  0.7561462E-02  0.1246498E+00
          1   -1    0    0  501    0  0.00000000000E+00  0.00000000000E+00  0.68979321136E+02  0.68979321136E+02  0.00000000000E+00 0. -1.
         -1   -1    0    0    0  501 -0.00000000000E+00 -0.00000000000E+00 -0.26303398601E+03  0.26303398601E+03  0.00000000000E+00 0.  1.
         23    2    1    2    0    0  0.32789141194E+02  0.54868236873E+02 -0.16531400688E+03  0.21699613787E+03  0.12519166019E+03 0.  0.
          5    1    3    3  502    0  0.79272202208E+02  0.20929941670E+02 -0.10804883500E+03  0.13569881225E+03  0.41800000000E+01 0. -1.
         -5    1    3    3    0  502 -0.46483061015E+02  0.33938295203E+02 -0.57265171879E+02  0.81297325620E+02  0.41800000000E+01 0. -1.
        -11    1    1    2    0    0 -0.41670790581E+02 -0.11620967742E+01 -0.41802895693E+02  0.59036322251E+02  0.00000000000E+00 0.  1.
         11    1    1    2    0    0  0.88816493876E+01 -0.53706140099E+02  0.13062237696E+02  0.55980847026E+02  0.00000000000E+00 0. -1.
</event>
<event>
 7    1  0.7608962E-006  0.2789774E+03  0.7561462E-02  0.1096249E+00
          1   -1    0    0  501    0  0.00000000000E+00  0.00000000000E+00  0.13140115164E+03  0.13140115164E+03  0.00000000000E+00 0. -1.
         -1   -1    0    0    0  501 -0.00000000000E+00 -0.00000000000E+00 -0.71321954126E+03  0.71321954126E+03  0.00000000000E+00 0.  1.
         23    2    1    2    0    0 -0.25984301469E+03 -0.45453635862E+02 -0.44772113286E+03  0.53449581864E+03  0.12508853679E+03 0.  0.
          5    1    3    3  502    0 -0.44463115536E+02 -0.49119546007E+02 -0.17345208033E+03  0.18572236003E+03  0.41800000000E+01 0.  1.
         -5    1    3    3    0  502 -0.21537989915E+03  0.36659101451E+01 -0.27426905253E+03  0.34877345861E+03  0.41800000000E+01 0.  1.
        -11    1    1    2    0    0  0.15279485018E+03 -0.14399771313E+02 -0.98715672483E+02  0.18247850188E+03  0.00000000000E+00 0.  1.
         11    1    1    2    0    0  0.10704816451E+03  0.59853407175E+02 -0.35381584282E+02  0.12764637238E+03  0.00000000000E+00 0. -1.
</event>
<event>
 7    1  0.6992302E-006  0.1097582E+03  0.7561462E-02  0.1261018E+00
         -2   -1    0    0    0  501 -0.00000000000E+00  0.00000000000E+00  0.25056180904E+03  0.25056180904E+03  0.00000000000E+00 0.  1.
          2   -1    0    0  501    0  0.00000000000E+00 -0.00000000000E+00 -0.90090781169E+02  0.90090781169E+02  0.00000000000E+00 0. -1.
         23    2    1    2    0    0  0.10057962478E+02 -0.10027232530E+03  0.12682031006E+03  0.20466072978E+03  0.12508765502E+03 0.  0.
          5    1    3    3  502    0 -0.23203002536E+02 -0.22597101447E+02  0.11462464250E+03  0.11918594460E+03  0.41800000000E+01 0. -1.
         -5    1    3    3    0  502  0.33260965014E+02 -0.77675223854E+02  0.12195667554E+02  0.85474785179E+02  0.41800000000E+01 0. -1.
        -11    1    1    2    0    0 -0.15058747083E+02  0.75233285841E+02 -0.17612967371E+02  0.78721215575E+02  0.00000000000E+00 0. -1.
         11    1    1    2    0    0  0.50007846051E+01  0.25039039460E+02  0.51263685189E+02  0.57270644861E+02  0.00000000000E+00 0.  1.
</event>
<event>
 7    1  0.6992302E-006  0.1924051E+03  0.7561462E-02  0.1156310E+00
         -2   -1    0    0    0  501 -0.00000000000E+00  0.00000000000E+00  0.10225740543E+03  0.10225740543E+03  0.00000000000E+00 0.  1.
          2   -1    0    0  501    0  0.00000000000E+00 -0.00000000000E+00 -0.41436214257E+03  0.41436214257E+03  0.00000000000E+00 0. -1.
         23    2    1    2    0    0 -0.16318919515E+03  0.55864803683E+02 -0.12500934681E+03  0.24703380432E+03  0.12508706562E+03 0.  0.
          5    1    3    3  502    0 -0.15496566232E+03  0.87439334617E+02 -0.91684609635E+02  0.20020872554E+03  0.41800000000E+01 0. -1.
         -5    1    3    3    0  502 -0.82235328241E+01 -0.31574530933E+02 -0.33324737171E+02  0.46825078785E+02  0.41800000000E+01 0. -1.
        -11    1    1    2    0    0  0.14405552874E+03 -0.41213554777E+02 -0.10228706672E+03  0.18141994509E+03  0.00000000000E+00 0.  1.
         11    1    1    2    0    0  0.19133666404E+02 -0.14651248906E+02 -0.84808323618E+02  0.88165798581E+02  0.00000000000E+00 0. -1.
</event>
<event>
 7    1  0.6992302E-006  0.3727784E+03  0.7561462E-02  0.1053636E+00
          1   -1    0    0  501    0  0.00000000000E+00  0.00000000000E+00  0.61390081084E+03  0.61390081084E+03  0.00000000000E+00 0. -1.
         -1   -1    0    0    0  501 -0.00000000000E+00 -0.00000000000E+00 -0.35205437247E+03  0.35205437247E+03  0.00000000000E+00 0.  1.
         23    2    1    2    0    0 -0.26050801786E+03  0.24966759921E+03 -0.15055826595E+03  0.41050373766E+03  0.12508872739E+03 0.  0.
          5    1    3    3  502    0 -0.16373839395E+03  0.22091282873E+03 -0.77188422500E+02  0.28563659520E+03  0.41800000000E+01 0. -1.
         -5    1    3    3    0  502 -0.96769623906E+02  0.28754770479E+02 -0.73369843452E+02  0.12486714245E+03  0.41800000000E+01 0. -1.
        -11    1    1    2    0    0  0.80713610979E+02 -0.13171163049E+03  0.20507225383E+03  0.25674358783E+03  0.00000000000E+00 0.  1.
         11    1    1    2    0    0  0.17979440688E+03 -0.11795596872E+03  0.20733245049E+03  0.29870785783E+03  0.00000000000E+00 0. -1.
</event>
<event>
 7    1  0.6992302E-006  0.1083982E+03  0.7561462E-02  0.1263565E+00
          3   -1    0    0  501    0  0.00000000000E+00  0.00000000000E+00  0.11242930920E+03  0.11242930920E+03  0.00000000000E+00 0. -1.
         -3   -1    0    0    0  501 -0.00000000000E+00 -0.00000000000E+00 -0.10176322921E+04  0.10176322921E+04  0.00000000000E+00 0.  1.
         23    2    1    2    0    0 -0.57937586412E+02  0.13907889837E+02 -0.98361993792E+03  0.99354765124E+03  0.12680126063E+03 0.  0.
          5    1    3    3  502    0 -0.32427704341E+02 -0.56376499621E+02 -0.44534468610E+03  0.45008802201E+03  0.41800000000E+01 0.  1.
         -5    1    3    3    0  502 -0.25509882071E+02  0.70284389458E+02 -0.53827525181E+03  0.54345962923E+03  0.41800000000E+01 0. -1.
        -11    1    1    2    0    0  0.53588227572E+02 -0.29068989230E+02  0.47190662713E+01  0.61147149203E+02  0.00000000000E+00 0.  1.
         11    1    1    2    0    0  0.43493588399E+01  0.15161099393E+02  0.73697888775E+02  0.75366800828E+02  0.00000000000E+00 0. -1.
</event>
<event>
 7    1  0.6992302E-006  0.8049849E+02  0.7561462E-02  0.1327643E+00
         -2   -1    0    0    0  501 -0.00000000000E+00  0.00000000000E+00  0.13897320146E+03  0.13897320146E+03  0.00000000000E+00 0.  1.
          2   -1    0    0  501    0  0.00000000000E+00 -0.00000000000E+00 -0.92717095163E+02  0.92717095163E+02  0.00000000000E+00 0. -1.
         23    2    1    2    0    0  0.23337828322E+01  0.51999050754E+01  0.62109416960E+02  0.13977331362E+03  0.12508602628E+03 0.  0.
          5    1    3    3  502    0  0.14218742514E+02  0.59434189677E+02  0.57317681632E+02  0.83889120683E+02  0.41800000000E+01 0. -1.
         -5    1    3    3    0  502 -0.11884959682E+02 -0.54234284602E+02  0.47917353275E+01  0.55884192938E+02  0.41800000000E+01 0. -1.
        -11    1    1    2    0    0  0.17479446831E+02 -0.13990268313E+02 -0.48104031500E+02  0.53058990902E+02  0.00000000000E+00 0. -1.
         11    1    1    2    0    0 -0.19813229663E+02  0.87903632374E+01  0.32250720833E+02  0.38857992096E+02  0.00000000000E+00 0.  1.
</event>
<event>
 7    1  0.6992302E-006  0.1278685E+03  0.7561462E-02  0.1230653E+00
         -2   -1    0    0    0  501 -0.00000000000E+00  0.00000000000E+00  0.17678143264E+03  0.17678143264E+03  0.00000000000E+00 0.  1.
          2   -1    0    0  501    0  0.00000000000E+00 -0.00000000000E+00 -0.13815650945E+03  0.13815650945E+03  0.00000000000E+00 0. -1.
         23    2    1    2    0    0 -0.88239260150E+02 -0.32070139068E+02  0.83229657622E+02  0.17717028186E+03  0.12508985576E+03 0.  0.
          5    1    3    3  502    0  0.15035577447E+02 -0.21582724244E+02 -0.17976684925E+02  0.32132789731E+02  0.41800000000E+01 0.  1.
         -5    1    3    3    0  502 -0.10327483760E+03 -0.10487414823E+02  0.10120634255E+03  0.14503749213E+03  0.41800000000E+01 0.  1.
        -11    1    1    2    0    0  0.99194253701E+02  0.89109340785E+01 -0.18700254852E+02  0.10133412182E+03  0.00000000000E+00 0.  1.
         11    1    1    2    0    0 -0.10954993551E+02  0.23159204989E+02 -0.25904479580E+02  0.36433538420E+02  0.00000000000E+00 0. -1.
</event>
<event>
 7    1  0.6992302E-006  0.1046209E+03  0.7561462E-02  0.1270868E+00
          2   -1    0    0  501    0  0.00000000000E+00  0.00000000000E+00  0.20151060742E+03  0.20151060742E+03  0.00000000000E+00 0. -1.
         -2   -1    0    0    0  501 -0.00000000000E+00 -0.00000000000E+00 -0.77251087922E+02  0.77251087922E+02  0.00000000000E+00 0.  1.
         23    2    1    2    0    0 -0.30883752542E+02  0.24928267139E+01  0.89307506165E+01  0.12917805811E+03  0.12508873664E+03 0.  0.
          5    1    3    3  502    0  0.16212100077E+01 -0.51701905190E+02 -0.24694641156E+02  0.57471845490E+02  0.41800000000E+01 0.  1.
         -5    1    3    3    0  502 -0.32504962549E+02  0.54194731904E+02  0.33625391772E+02  0.71706212620E+02  0.41800000000E+01 0.  1.
        -11    1    1    2    0    0 -0.21851446930E+02 -0.27930578516E+02  0.55578495179E+02  0.65928537641E+02  0.00000000000E+00 0. -1.
         11    1    1    2    0    0  0.52735199471E+02  0.25437751802E+02  0.59750273700E+02  0.83655099589E+02  0.00000000000E+00 0.  1.
</event>
<event>
 7    1  0.6992302E-006  0.2652218E+03  0.7561462E-02  0.1104046E+00
          2   -1    0    0  501    0  0.00000000000E+00  0.00000000000E+00  0.34177590396E+03  0.34177590396E+03  0.00000000000E+00 0. -1.
         -2   -1    0    0    0  501 -0.00000000000E+00 -0.00000000000E+00 -0.24921000657E+03  0.24921000657E+03  0.00000000000E+00 0.  1.
         23    2    1    2    0    0 -0.17823431712E+03  0.18549558555E+03 -0.37345259428E+02  0.28847636854E+03  0.12509141755E+03 0.  0.
          5    1    3    3  502    0 -0.49890216028E+02  0.98477197314E+02  0.36942883579E+02  0.11648622705E+03  0.41800000000E+01 0.  1.
         -5    1    3    3    0  502 -0.12834410109E+03  0.87018388238E+02 -0.74288143006E+02  0.17199014149E+03  0.41800000000E+01 0.  1.
        -11    1    1    2    0    0  0.61719673869E+02 -0.25157758999E+02  0.21227702221E+01  0.66683859619E+02  0.00000000000E+00 0.  1.
         11    1    1    2    0    0  0.11651464325E+03 -0.16033782655E+03  0.12778838660E+03  0.23582568237E+03  0.00000000000E+00 0. -1.
</event>
<event>
 7    1  0.6992302E-006  0.1038560E+03  0.7561462E-02  0.1272390E+00
          2   -1    0    0  501    0  0.00000000000E+00  0.00000000000E+00  0.14534193242E+03  0.14534193242E+03  0.00000000000E+00 0. -1.
         -2   -1    0    0    0  501 -0.00000000000E+00 -0.00000000000E+00 -0.12256042167E+03  0.12256042167E+03  0.00000000000E+00 0.  1.
         23    2    1    2    0    0  0.10897319787E+02 -0.73443266327E+02 -0.18430446505E+02  0.14663449201E+03  0.12509727392E+03 0.  0.
          5    1    3    3  502    0  0.45434378310E+02 -0.38104271685E+01  0.30204071867E+02  0.54850345896E+02  0.41800000000E+01 0. -1.
         -5    1    3    3    0  502 -0.34537058523E+02 -0.69632839158E+02 -0.48634518372E+02  0.91784146114E+02  0.41800000000E+01 0. -1.
        -11    1    1    2    0    0 -0.23158763874E+02  0.65510234714E+02 -0.79929651087E+01  0.69941451856E+02  0.00000000000E+00 0.  1.
         11    1    1    2    0    0  0.12261444087E+02  0.79330316121E+01  0.49204922361E+02  0.51326410221E+02  0.00000000000E+00 0. -1.
</event>
<event>
 7    1  0.6992302E-006  0.2066085E+03  0.7561462E-02  0.1144280E+00
          2   -1    0    0  501    0  0.00000000000E+00  0.00000000000E+00  0.77170751373E+03  0.77170751373E+03  0.00000000000E+00 0. -1.
         -2   -1    0    0    0  501 -0.00000000000E+00 -0.00000000000E+00 -0.87598509843E+02  0.87598509843E+02  0.00000000000E+00 0.  1.
         23    2    1    2    0    0 -0.59716320018E+02  0.17675843099E+03  0.11300358565E+03  0.25145083283E+03  0.12509248241E+03 0.  0.
          5    1    3    3  502    0 -0.27744620482E+02 -0.57666226990E+01  0.46335465909E+02  0.54474450011E+02  0.41800000000E+01 0. -1.
         -5    1    3    3    0  502 -0.31971699537E+02  0.18252505369E+03  0.66668119744E+02  0.19697638282E+03  0.41800000000E+01 0. -1.
        -11    1    1    2    0    0 -0.15948066716E+02 -0.37120433247E+02  0.57646104611E+02  0.70394181387E+02  0.00000000000E+00 0.  1.
         11    1    1    2    0    0  0.75664386734E+02 -0.13963799775E+03  0.51345931363E+03  0.53746100936E+03  0.00000000000E+00 0. -1.
</event>
<event>
 7    1  0.6992302E-006  0.9786849E+02  0.7561462E-02  0.1284843E+00
         -1   -1    0    0    0  501 -0.00000000000E+00  0.00000000000E+00  0.80064695973E+02  0.80064695973E+02  0.00000000000E+00 0.  1.
          1   -1    0    0  501    0  0.00000000000E+00 -0.00000000000E+00 -0.15573694220E+03  0.15573694220E+03  0.00000000000E+00 0. -1.
         23    2    1    2    0    0 -0.14914628165E+02  0.27878836967E+01 -0.20014001972E+02  0.12758526777E+03  0.12508885582E+03 0.  0.
          5    1    3    3  502    0 -0.58392092331E+02 -0.34034600693E+02 -0.22299611623E+01  0.67752753582E+02  0.41800000000E+01 0. -1.
         -5    1    3    3    0  502  0.43477464167E+02  0.36822484390E+02 -0.17784040809E+02  0.59832514192E+02  0.41800000000E+01 0. -1.
        -11    1    1    2    0    0 -0.22197506654E+02 -0.20095857990E+02  0.93648751903E+01  0.31373136555E+02  0.00000000000E+00 0.  1.
         11    1    1    2    0    0  0.37112134819E+02  0.17307974293E+02 -0.65023119448E+02  0.76843233844E+02  0.00000000000E+00 0. -1.
</event>
<event>
 7    1  0.6992302E-006  0.3426705E+03  0.7561462E-02  0.1065664E+00
          2   -1    0    0  501    0  0.00000000000E+00  0.00000000000E+00  0.13572931937E+04  0.13572931937E+04  0.00000000000E+00 0.  1.
         -2   -1    0    0    0  501 -0.00000000000E+00 -0.00000000000E+00 -0.11913751885E+03  0.11913751885E+03  0.00000000000E+00 0. -1.
         23    2    1    2    0    0 -0.33081326460E+03 -0.44284311378E+02  0.26927232366E+03  0.44671371813E+03  0.12508815055E+03 0.  0.
          5    1    3    3  502    0 -0.31055605528E+03 -0.51790880057E+02  0.28078250688E+03  0.42188108194E+03  0.41800000000E+01 0.  1.
         -5    1    3    3    0  502 -0.20257209318E+02  0.75065686793E+01 -0.11510183215E+02  0.24832636194E+02  0.41800000000E+01 0.  1.
        -11    1    1    2    0    0  0.47992112300E+02  0.44785177693E+02  0.19727343900E+03  0.20790806795E+03  0.00000000000E+00 0. -1.
         11    1    1    2    0    0  0.28282115230E+03 -0.50086631527E+00  0.77160991222E+03  0.82180892651E+03  0.00000000000E+00 0.  1.
</event>
<event>
 7    1  0.6992302E-006  0.1196735E+03  0.7561462E-02  0.1243637E+00
         -1   -1    0    0    0  501 -0.00000000000E+00  0.00000000000E+00  0.10658544867E+03  0.10658544867E+03  0.00000000000E+00 0.  1.
          1   -1    0    0  501    0  0.00000000000E+00 -0.00000000000E+00 -0.19498688117E+03  0.19498688117E+03  0.00000000000E+00 0. -1.
         23    2    1    2    0    0  0.82662168788E+02  0.30001360347E+02 -0.91482696772E+01  0.15317539922E+03  0.12508355734E+03 0.  0.
          5    1    3    3  502    0 -0.17637010375E+02  0.20828205458E+01  0.35423778005E+02  0.39846188331E+02  0.41800000000E+01 0.  1.
         -5    1    3    3    0  502  0.10029917916E+03  0.27918539801E+02 -0.44572047682E+02  0.11332921089E+03  0.41800000000E+01 0.  1.
        -11    1    1    2    0    0 -0.28562212032E+02 -0.51339569166E+02 -0.12871093922E+02  0.60143298688E+02  0.00000000000E+00 0. -1.
         11    1    1    2    0    0 -0.54099956756E+02  0.21338208818E+02 -0.66382068904E+02  0.88253631928E+02  0.00000000000E+00 0.  1.
</event>
<event>
 7    1  0.6992302E-006  0.1382718E+03  0.7561462E-02  0.1215674E+00
          1   -1    0    0  501    0  0.00000000000E+00  0.00000000000E+00  0.15123850526E+03  0.15123850526E+03  0.00000000000E+00 0. -1.
         -1   -1    0    0    0  501 -0.00000000000E+00 -0.00000000000E+00 -0.16111731754E+03  0.16111731754E+03  0.00000000000E+00 0.  1.
         23    2    1    2    0    0 -0.83735583807E+01  0.11206651188E+03  0.52078476864E+01  0.16823583033E+03  0.12508858207E+03 0.  0.
          5    1    3    3  502    0  0.52133325776E+02  0.75804818100E+02  0.23888206485E+02  0.95143958887E+02  0.41800000000E+01 0.  1.
         -5    1    3    3    0  502 -0.60506884157E+02  0.36261693782E+02 -0.18680358798E+02  0.73091871444E+02  0.41800000000E+01 0.  1.
        -11    1    1    2    0    0  0.83248246043E+01 -0.19331648020E+02  0.33396593371E+02  0.39475913779E+02  0.00000000000E+00 0. -1.
         11    1    1    2    0    0  0.48733776427E-01 -0.92734863862E+02 -0.48483253332E+02  0.10464407869E+03  0.00000000000E+00 0.  1.
</event>
<event>
 7    1  0.6992302E-006  0.1167622E+03  0.7561462E-02  0.1248536E+00
          1   -1    0    0  501    0  0.00000000000E+00  0.00000000000E+00  0.21707374692E+02  0.21707374692E+02  0.00000000000E+00 0. -1.
         -1   -1    0    0    0  501 -0.00000000000E+00 -0.00000000000E+00 -0.77175934024E+03  0.77175934024E+03  0.00000000000E+00 0.  1.
         23    2    1    2    0    0  0.39496936691E+02  0.52628412778E+02 -0.48964229704E+03  0.50963390819E+03  0.12508950189E+03 0.  0.
          5    1    3    3  502    0 -0.24399584421E+02 -0.23665620912E+02 -0.21018108182E+03  0.21295295464E+03  0.41800000000E+01 0.  1.
         -5    1    3    3    0  502  0.63896521112E+02  0.76294033690E+02 -0.27946121522E+03  0.29668095355E+03  0.41800000000E+01 0.  1.
        -11    1    1    2    0    0 -0.35441389660E+02  0.10069415213E+02 -0.38873539005E+02  0.53559660740E+02  0.00000000000E+00 0. -1.
         11    1    1    2    0    0 -0.40555470311E+01 -0.62697827991E+02 -0.22153612950E+03  0.23027314601E+03  0.00000000000E+00 0.  1.
</event>
<event>
 7    1  0.6992302E-006  0.1099136E+03  0.7561462E-02  0.1260730E+00
          1   -1    0    0  501    0  0.00000000000E+00  0.00000000000E+00  0.17542838402E+03  0.17542838402E+03  0.00000000000E+00 0. -1.
         -1   -1    0    0    0  501 -0.00000000000E+00 -0.00000000000E+00 -0.80809947153E+02  0.80809947153E+02  0.00000000000E+00 0.  1.
         23    2    1    2    0    0 -0.35734171115E+02 -0.13026111524E+02  0.31576741837E+02  0.13451629989E+03  0.12510369197E+03 0.  0.
          5    1    3    3  502    0 -0.50622861716E+02 -0.54544819095E+02 -0.81893862433E+01  0.74982330355E+02  0.41800000000E+01 0. -1.
         -5    1    3    3    0  502  0.14888690601E+02  0.41518707571E+02  0.39766128080E+02  0.59533969535E+02  0.41800000000E+01 0. -1.
        -11    1    1    2    0    0  0.17600041203E+02 -0.40668845507E+02  0.13170997744E+02  0.46229769919E+02  0.00000000000E+00 0.  1.
         11    1    1    2    0    0  0.18134129912E+02  0.53694957031E+02  0.49870697290E+02  0.75492261368E+02  0.00000000000E+00 0. -1.
</event>
<event>
 7    1  0.6992302E-006  0.2169132E+03  0.7561462E-02  0.1136205E+00
         -1   -1    0    0    0  501 -0.00000000000E+00  0.00000000000E+00  0.68557370380E+02  0.68557370380E+02  0.00000000000E+00 0.  1.
          1   -1    0    0  501    0  0.00000000000E+00 -0.00000000000E+00 -0.77346346622E+03  0.77346346622E+03  0.00000000000E+00 0. -1.
         23    2    1    2    0    0  0.11895932063E+03  0.16106628421E+03 -0.30393580280E+03  0.38486644049E+03  0.12510610264E+03 0.  0.
          5    1    3    3  502    0  0.51245717227E+02  0.13737999580E+03 -0.12747946629E+03  0.19433958296E+03  0.41800000000E+01 0.  1.
         -5    1    3    3    0  502  0.67713603403E+02  0.23686288405E+02 -0.17645633651E+03  0.19052685753E+03  0.41800000000E+01 0.  1.
        -11    1    1    2    0    0 -0.52810878069E+02 -0.14944415967E+02 -0.14547343535E+03  0.15548261897E+03  0.00000000000E+00 0.  1.
         11    1    1    2    0    0 -0.66148442561E+02 -0.14612186824E+03 -0.25549685769E+03  0.30167177714E+03  0.00000000000E+00 0. -1.
</event>
<event>
 7    1  0.6992302E-006  0.1096411E+03  0.7561462E-02  0.1261236E+00
         -2   -1    0    0    0  501 -0.00000000000E+00  0.00000000000E+00  0.56542340210E+02  0.56542340210E+02  0.00000000000E+00 0.  1.
          2   -1    0    0  501    0  0.00000000000E+00 -0.00000000000E+00 -0.27286261699E+03  0.27286261699E+03  0.00000000000E+00 0. -1.
         23    2    1    2    0    0  0.25416325197E+02 -0.96076181407E+00 -0.61572922342E+02  0.14172255165E+03  0.12508854556E+03 0.  0.
          5    1    3    3  502    0 -0.36160587081E+01  0.55807003019E+02 -0.53162378985E+02  0.77273594493E+02  0.41800000000E+01 0. -1.
         -5    1    3    3    0  502  0.29032383905E+02 -0.56767764833E+02 -0.84105433563E+01  0.64448957159E+02  0.41800000000E+01 0. -1.
        -11    1    1    2    0    0 -0.20435107645E+02  0.47912894450E+02 -0.47470489054E+02  0.70474721781E+02  0.00000000000E+00 0.  1.
         11    1    1    2    0    0 -0.49812175511E+01 -0.46952132635E+02 -0.10727686538E+03  0.11720768376E+03  0.00000000000E+00 0. -1.
</event>
<event>
 6    1  0.6992302E-006  0.1189620E+03  0.7561462E-02  0.1244819E+00
         -1   -1    0    0    0  501 -0.00000000000E+00  0.00000000000E+00  0.12919127926E+03  0.12919127926E+03  0.00000000000E+00 0.  1.
          1   -1    0    0  501    0  0.00000000000E+00 -0.00000000000E+00 -0.12071012937E+03  0.12071012937E+03  0.00000000000E+00 0. -1.
          5    1    1    2  502    0 -0.63948439765E+02  0.58733124150E+02  0.30221580277E+02  0.92031511643E+02  0.41800000000E+01 0. -1.
         -5    1    1    2    0  502  0.44418533522E+02 -0.21600339005E+02  0.11898620009E+02  0.50976762584E+02  0.41800000000E+01 0.  1.
        -11    1    1    2    0    0  0.55051618559E+02 -0.82938232519E+01 -0.19853888278E+02  0.59107064636E+02  0.00000000000E+00 0.  1.
         11    1    1    2    0    0 -0.35521712316E+02 -0.28838961893E+02 -0.13785162115E+02  0.47786069764E+02  0.00000000000E+00 0. -1.
</event>
<event>
 7    1  0.6992302E-006  0.1394755E+03  0.7561462E-02  0.1214036E+00
         -1   -1    0    0    0  501 -0.00000000000E+00  0.00000000000E+00  0.45087500508E+02  0.45087500508E+02  0.00000000000E+00 0.  1.
          1   -1    0    0  501    0  0.00000000000E+00 -0.00000000000E+00 -0.44414887392E+03  0.44414887392E+03  0.00000000000E+00 0. -1.
         23    2    1    2    0    0 -0.59926556243E+02 -0.77314682822E+02 -0.23763109966E+03  0.28580277587E+03  0.12508371137E+03 0.  0.
          5    1    3    3  502    0 -0.23522796695E+02 -0.10641979650E+03 -0.18967678722E+03  0.21879956824E+03  0.41800000000E+01 0. -1.
         -5    1    3    3    0  502 -0.36403759548E+02  0.29105113682E+02 -0.47954312436E+02  0.67003207631E+02  0.41800000000E+01 0. -1.
        -11    1    1    2    0    0  0.68024477915E+02  0.28747854898E+02 -0.86015054781E+02  0.11336824249E+03  0.00000000000E+00 0. -1.
         11    1    1    2    0    0 -0.80979216721E+01  0.48566827923E+02 -0.75415218977E+02  0.90065356066E+02  0.00000000000E+00 0.  1.
</event>
<event>
 7    1  0.8250043E-006  0.1928824E+03  0.7561462E-02  0.1155887E+00
          1   -1    0    0  501    0  0.00000000000E+00  0.00000000000E+00  0.51794857116E+03  0.51794857116E+03  0.00000000000E+00 0. -1.
         -1   -1    0    0    0  501 -0.00000000000E+00 -0.00000000000E+00 -0.94693416686E+02  0.94693416686E+02  0.00000000000E+00 0.  1.
         23    2    1    2    0    0  0.11319173199E+02 -0.19129361685E+03  0.20451100702E+03  0.30691026362E+03  0.12509111237E+03 0.  0.
          5    1    3    3  502    0  0.38376176650E+01 -0.12301512711E+03  0.20377170816E+03  0.23809206256E+03  0.41800000000E+01 0.  1.
         -5    1    3    3    0  502  0.74815555342E+01 -0.68278489746E+02  0.73929886349E+00  0.68818201066E+02  0.41800000000E+01 0.  1.
        -11    1    1    2    0    0  0.57737152418E+01  0.13121012137E+03  0.20220001241E+03  0.24111050735E+03  0.00000000000E+00 0. -1.
         11    1    1    2    0    0 -0.17092888441E+02  0.60083495488E+02  0.16544135038E+02  0.64621216868E+02  0.00000000000E+00 0.  1.
</event>
<event>
 7    1  0.6992302E-006  0.2361559E+03  0.7561462E-02  0.1122380E+00
         -4   -1    0    0    0  501 -0.00000000000E+00  0.00000000000E+00  0.29771383912E+03  0.29771383912E+03  0.00000000000E+00 0.  1.
          4   -1    0    0  501    0  0.00000000000E+00 -0.00000000000E+00 -0.23298413252E+03  0.23298413252E+03  0.00000000000E+00 0. -1.
         23    2    1    2    0    0  0.91414525671E+02  0.21135730258E+03  0.99170459981E+02  0.28019831700E+03  0.12509113423E+03 0.  0.
          5    1    3    3  502    0  0.74783000205E+02  0.17371128849E+03  0.19175674096E+02  0.19014017920E+03  0.41800000000E+01 0. -1.
         -5    1    3    3    0  502  0.16631525466E+02  0.37646014082E+02  0.79994785885E+02  0.90058137802E+02  0.41800000000E+01 0. -1.
        -11    1    1    2    0    0 -0.43532530127E+02 -0.26833725625E+02 -0.31065939100E+02  0.59834961204E+02  0.00000000000E+00 0.  1.
         11    1    1    2    0    0 -0.47881995544E+02 -0.18452357695E+03 -0.33748142804E+01  0.19066469343E+03  0.00000000000E+00 0. -1.
</event>
<event>
 7    1  0.6992302E-006  0.8322944E+02  0.7561462E-02  0.1320129E+00
          2   -1    0    0  501    0  0.00000000000E+00  0.00000000000E+00  0.14077433639E+03  0.14077433639E+03  0.00000000000E+00 0. -1.
         -2   -1    0    0    0  501 -0.00000000000E+00 -0.00000000000E+00 -0.94900654136E+02  0.94900654136E+02  0.00000000000E+00 0.  1.
         23    2    1    2    0    0  0.35222163236E+02  0.18761262646E+02  0.27739311487E+02  0.13420340096E+03  0.12509395536E+03 0.  0.
          5    1    3    3  502    0  0.88316276776E+01 -0.33012048703E+02 -0.34646452404E+02  0.48843035032E+02  0.41800000000E+01 0. -1.
         -5    1    3    3    0  502  0.26390535558E+02  0.51773311349E+02  0.62385763890E+02  0.85360365928E+02  0.41800000000E+01 0. -1.
        -11    1    1    2    0    0 -0.25108858816E+01 -0.36480977487E+02  0.43210786465E+02  0.56606875318E+02  0.00000000000E+00 0. -1.
         11    1    1    2    0    0 -0.32711277354E+02  0.17719714841E+02 -0.25076415698E+02  0.44864714247E+02  0.00000000000E+00 0.  1.
</event>
<event>
 7    1  0.6992302E-006  0.1042641E+03  0.7561462E-02  0.1271576E+00
          1   -1    0    0  501    0  0.00000000000E+00  0.00000000000E+00  0.70019037999E+03  0.70019037999E+03  0.00000000000E+00 0. -1.
         -1   -1    0    0    0  501 -0.00000000000E+00 -0.00000000000E+00 -0.27957322009E+02  0.27957322009E+02  0.00000000000E+00 0.  1.
         23    2    1    2    0    0 -0.67406661103E+02 -0.56173629607E+02  0.40025220992E+03  0.42842520436E+03  0.12508872677E+03 0.  0.
          5    1    3    3  502    0  0.52898911825E+01  0.62688479847E+01  0.24996526871E+03  0.25013474242E+03  0.41800000000E+01 0.  1.
         -5    1    3    3    0  502 -0.72696552285E+02 -0.62442477592E+02  0.15028694121E+03  0.17829046194E+03  0.41800000000E+01 0.  1.
        -11    1    1    2    0    0  0.16920012957E+02  0.49696716971E+02  0.22295203664E+03  0.22904947317E+03  0.00000000000E+00 0. -1.
         11    1    1    2    0    0  0.50486648146E+02  0.64769126362E+01  0.49028811426E+02  0.70673024473E+02  0.00000000000E+00 0.  1.
</event>
<event>
 7    1  0.6992302E-006  0.8739882E+02  0.7561462E-02  0.1309276E+00
         -2   -1    0    0    0  501 -0.00000000000E+00  0.00000000000E+00  0.86782180697E+02  0.86782180697E+02  0.00000000000E+00 0.  1.
          2   -1    0    0  501    0  0.00000000000E+00 -0.00000000000E+00 -0.16177749910E+03  0.16177749910E+03  0.00000000000E+00 0. -1.
         23    2    1    2    0    0 -0.43035468871E+02  0.23576604586E+02 -0.39785720923E+02  0.13987488752E+03  0.12479652521E+03 0.  0.
          5    1    3    3  502    0 -0.24198580375E+02  0.42622084759E+02  0.34970609046E+02  0.60354198681E+02  0.41800000000E+01 0. -1.
         -5    1    3    3    0  502 -0.18836888497E+02 -0.19045480173E+02 -0.74756329969E+02  0.79520688840E+02  0.41800000000E+01 0. -1.
        -11    1    1    2    0    0  0.93969753139E+01 -0.52986789299E+02 -0.35644710310E+01  0.53931516194E+02  0.00000000000E+00 0. -1.
         11    1    1    2    0    0  0.33638493558E+02  0.29410184714E+02 -0.31645126449E+02  0.54753276082E+02  0.00000000000E+00 0.  1.
</event>
<event>
 7    1  0.6992302E-006  0.7464760E+02  0.7561462E-02  0.1344966E+00
          2   -1    0    0  501    0  0.00000000000E+00  0.00000000000E+00  0.67634096698E+02  0.67634096698E+02  0.00000000000E+00 0. -1.
         -2   -1    0    0    0  501 -0.00000000000E+00 -0.00000000000E+00 -0.20074917114E+03  0.20074917114E+03  0.00000000000E+00 0.  1.
         23    2    1    2    0    0  0.16886970508E+02  0.35924589742E+02 -0.93977601473E+02  0.16141609712E+03  0.12509045091E+03 0.  0.
          5    1    3    3  502    0 -0.25104655459E+01  0.66680643218E+02 -0.72121970138E+01  0.67246552350E+02  0.41800000000E+01 0. -1.
         -5    1    3    3    0  502  0.19397436054E+02 -0.30756053476E+02 -0.86765404459E+02  0.94169544768E+02  0.41800000000E+01 0. -1.
        -11    1    1    2    0    0 -0.43919536759E+01 -0.32614688804E+02 -0.67888354793E+02  0.75444256901E+02  0.00000000000E+00 0.  1.
         11    1    1    2    0    0 -0.12495016832E+02 -0.33099009376E+01  0.28750881825E+02  0.31522913818E+02  0.00000000000E+00 0. -1.
</event>
<event>
 7    1  0.6992302E-006  0.6441859E+02  0.7561462E-02  0.1380172E+00
          2   -1    0    0  501    0  0.00000000000E+00  0.00000000000E+00  0.60151023995E+03  0.60151023995E+03  0.00000000000E+00 0. -1.
         -2   -1    0    0    0  501 -0.00000000000E+00 -0.00000000000E+00 -0.19809720618E+02  0.19809720618E+02  0.00000000000E+00 0.  1.
         23    2    1    2    0    0 -0.85517343484E+01 -0.28030920850E+00  0.33603279579E+03  0.35866318055E+03  0.12509207210E+03 0.  0.
          5    1    3    3  502    0  0.16419834762E+02 -0.12991922284E+02 -0.87153867989E-01  0.21351370308E+02  0.41800000000E+01 0. -1.
         -5    1    3    3    0  502 -0.24971569110E+02  0.12711613076E+02  0.33611994965E+03  0.33731181024E+03  0.41800000000E+01 0. -1.
        -11    1    1    2    0    0 -0.32529446900E+02  0.14592066467E+02  0.45437022252E+02  0.57754794698E+02  0.00000000000E+00 0.  1.
         11    1    1    2    0    0  0.41081181249E+02 -0.14311757259E+02  0.20023070129E+03  0.20490198532E+03  0.00000000000E+00 0. -1.
</event>
<event>
 7    1  0.6992302E-006  0.1329889E+03  0.7561462E-02  0.1223087E+00
          3   -1    0    0  501    0  0.00000000000E+00  0.00000000000E+00  0.77809964496E+03  0.77809964496E+03  0.00000000000E+00 0. -1.
         -3   -1    0    0    0  501 -0.00000000000E+00 -0.00000000000E+00 -0.28564950670E+02  0.28564950670E+02  0.00000000000E+00 0.  1.
         23    2    1    2    0    0  0.63857381063E+02 -0.59912721775E+02  0.25219093026E+03  0.29481397688E+03  0.12509083226E+03 0.  0.
          5    1    3    3  502    0 -0.81585757994E+01 -0.72474017966E+02  0.83671222293E+02  0.11107381095E+03  0.41800000000E+01 0. -1.
         -5    1    3    3    0  502  0.72015956862E+02  0.12561296191E+02  0.16851970796E+03  0.18374016593E+03  0.41800000000E+01 0. -1.
        -11    1    1    2    0    0  0.14119012128E+02  0.35166184415E+02  0.12461157040E+03  0.13024611513E+03  0.00000000000E+00 0.  1.
         11    1    1    2    0    0 -0.77976393191E+02  0.24746537360E+02  0.37273219363E+03  0.38160450361E+03  0.00000000000E+00 0. -1.
</event>
<event>
 7    1  0.6992302E-006  0.9088874E+02  0.7561462E-02  0.1300714E+00
         -2   -1    0    0    0  501 -0.00000000000E+00  0.00000000000E+00  0.23405243781E+02  0.23405243781E+02  0.00000000000E+00 0.  1.
          2   -1    0    0  501    0  0.00000000000E+00 -0.00000000000E+00 -0.66812162876E+03  0.66812162876E+03  0.00000000000E+00 0. -1.
         23    2    1    2    0    0  0.57883942912E+02 -0.28200050497E+01 -0.30848248201E+03  0.33788633620E+03  0.12508889322E+03 0.  0.
          5    1    3    3  502    0 -0.18791179310E+02  0.12681995317E+02 -0.21361405632E+03  0.21485432014E+03  0.41800000000E+01 0.  1.
         -5    1    3    3    0  502  0.76675122222E+02 -0.15502000367E+02 -0.94868425693E+02  0.12303201606E+03  0.41800000000E+01 0.  1.
        -11    1    1    2    0    0  0.99871347966E+01  0.72962619223E+01 -0.19675420706E+01  0.12523957892E+02  0.00000000000E+00 0.  1.
         11    1    1    2    0    0 -0.67871077709E+02 -0.44762568726E+01 -0.33426636090E+03  0.34111657845E+03  0.00000000000E+00 0. -1.
</event>
<event>
 7    1  0.6992302E-006  0.1949298E+03  0.7561462E-02  0.1154089E+00
         -3   -1    0    0    0  501 -0.00000000000E+00  0.00000000000E+00  0.32016930401E+03  0.32016930401E+03  0.00000000000E+00 0.  1.
          3   -1    0    0  501    0  0.00000000000E+00 -0.00000000000E+00 -0.18318607633E+03  0.18318607633E+03  0.00000000000E+00 0. -1.
         23    2    1    2    0    0 -0.84899654644E+02 -0.14631381929E+03  0.21122783842E+03  0.29812903617E+03  0.12509211569E+03 0.  0.
          5    1    3    3  502    0 -0.18007929877E+02  0.15837815414E+02  0.66063845284E+02  0.70406150223E+02  0.41800000000E+01 0. -1.
         -5    1    3    3    0  502 -0.66891724767E+02 -0.16215163471E+03  0.14516399313E+03  0.22772288595E+03  0.41800000000E+01 0. -1.
        -11    1    1    2    0    0  0.19231530238E+02  0.11626145943E+03 -0.34468603067E+02  0.12277892043E+03  0.00000000000E+00 0.  1.
         11    1    1    2    0    0  0.65668124406E+02  0.30052359863E+02 -0.39776007671E+02  0.82447423747E+02  0.00000000000E+00 0. -1.
</event>
<event>
 7    1  0.6992302E-006  0.1591173E+03  0.7561462E-02  0.1189697E+00
          2   -1    0    0  501    0  0.00000000000E+00  0.00000000000E+00  0.63592502644E+03  0.63592502644E+03  0.00000000000E+00 0. -1.
         -2   -1    0    0    0  501 -0.00000000000E+00 -0.00000000000E+00 -0.54229578828E+02  0.54229578828E+02  0.00000000000E+00 0.  1.
         23    2    1    2    0    0 -0.49637564242E+02 -0.13898413299E+03  0.25446322412E+03  0.31965627143E+03  0.12509245552E+03 0.  0.
          5    1    3    3  502    0 -0.17787815479E+00 -0.57129435280E+02  0.20309050370E+03  0.21101428650E+03  0.41800000000E+01 0.  1.
         -5    1    3    3    0  502 -0.49459686087E+02 -0.81854697715E+02  0.51372720421E+02  0.10864198493E+03  0.41800000000E+01 0.  1.
        -11    1    1    2    0    0  0.65742810196E+02  0.13240171421E+03  0.31827567011E+03  0.35092981235E+03  0.00000000000E+00 0. -1.
         11    1    1    2    0    0 -0.16105245954E+02  0.65824187896E+01  0.89565533850E+01  0.19568521479E+02  0.00000000000E+00 0.  1.
</event>
<event>
 7    1  0.6992302E-006  0.8637514E+02  0.7561462E-02  0.1311875E+00
          2   -1    0    0  501    0  0.00000000000E+00  0.00000000000E+00  0.41087711160E+03  0.41087711160E+03  0.00000000000E+00 0. -1.
         -2   -1    0    0    0  501 -0.00000000000E+00 -0.00000000000E+00 -0.29536833402E+02  0.29536833402E+02  0.00000000000E+00 0.  1.
         23    2    1    2    0    0 -0.34415354569E+02  0.39014649477E+02  0.20014641817E+03  0.24168534568E+03  0.12508660243E+03 0.  0.
          5    1    3    3  502    0 -0.17542813393E+02  0.76165851049E+02  0.17937602717E+03  0.19570952632E+03  0.41800000000E+01 0.  1.
         -5    1    3    3    0  502 -0.16872541177E+02 -0.37151201572E+02  0.20770391000E+02  0.45975819366E+02  0.41800000000E+01 0.  1.
        -11    1    1    2    0    0  0.16869414040E+02 -0.10163985304E+02  0.64082414756E+01  0.20711090897E+02  0.00000000000E+00 0.  1.
         11    1    1    2    0    0  0.17545940529E+02 -0.28850664173E+02  0.17478561855E+03  0.17801750842E+03  0.00000000000E+00 0. -1.
</event>
<event>
 7    1  0.6992302E-006  0.1302518E+03  0.7561462E-02  0.1227083E+00
          2   -1    0    0  501    0  0.00000000000E+00  0.00000000000E+00  0.23574591582E+03  0.23574591582E+03  0.00000000000E+00 0. -1.
         -2   -1    0    0    0  501 -0.00000000000E+00 -0.00000000000E+00 -0.14372448179E+03  0.14372448179E+03  0.00000000000E+00 0.  1.
         23    2    1    2    0    0  0.98139097195E+02 -0.13053961303E+02 -0.65705229813E+02  0.17251900998E+03  0.12507575016E+03 0.  0.
          5    1    3    3  502    0  0.11592505938E+02 -0.59415657299E+02 -0.18084324432E+02  0.63317625637E+02  0.41800000000E+01 0. -1.
         -5    1    3    3    0  502  0.86546591257E+02  0.46361695996E+02 -0.47620905381E+02  0.10920138435E+03  0.41800000000E+01 0. -1.
        -11    1    1    2    0    0 -0.26231850626E+02  0.13801898787E+02  0.12405567948E+03  0.12754769308E+03  0.00000000000E+00 0. -1.
         11    1    1    2    0    0 -0.71907246569E+02 -0.74793748407E+00  0.33670984360E+02  0.79403694545E+02  0.00000000000E+00 0.  1.
</event>
<event>
 7    1  0.6992302E-006  0.1127292E+03  0.7561462E-02  0.1255598E+00
         -1   -1    0    0    0  501 -0.00000000000E+00  0.00000000000E+00  0.10558142061E+03  0.10558142061E+03  0.00000000000E+00 0.  1.
          1   -1    0    0  501    0  0.00000000000E+00 -0.00000000000E+00 -0.17155502282E+03  0.17155502282E+03  0.00000000000E+00 0. -1.
         23    2    1    2    0    0 -0.32181821102E+02 -0.61738194129E+01  0.38526011945E+02  0.13492791908E+03  0.12508998400E+03 0.  0.
          5    1    3    3  502    0 -0.25146513897E+02  0.58528420830E+02  0.14829287084E+02  0.65538563926E+02  0.41800000000E+01 0.  1.
         -5    1    3    3    0  502 -0.70353072054E+01 -0.64702240243E+02  0.23696724861E+02  0.69389355157E+02  0.41800000000E+01 0.  1.
        -11    1    1    2    0    0 -0.13811244723E+02  0.38025718591E+02 -0.46140312989E+02  0.61364763814E+02  0.00000000000E+00 0.  1.
         11    1    1    2    0    0  0.45993065826E+02 -0.31851899178E+02 -0.58359301160E+02  0.80843760533E+02  0.00000000000E+00 0. -1.
</event>
<event>
 7    1  0.6992302E-006  0.2033427E+03  0.7561462E-02  0.1146949E+00
          2   -1    0    0  501    0  0.00000000000E+00  0.00000000000E+00  0.10909622132E+04  0.10909622132E+04  0.00000000000E+00 0. -1.
         -2   -1    0    0    0  501 -0.00000000000E+00 -0.00000000000E+00 -0.45151544111E+02  0.45151544111E+02  0.00000000000E+00 0.  1.
         23    2    1    2    0    0  0.18969817423E+03  0.23186317311E+02  0.46013824566E+03  0.51370910355E+03  0.12508731085E+03 0.  0.
          5    1    3    3  502    0  0.16265814540E+03  0.35000815966E+02  0.24298223020E+03  0.29451751387E+03  0.41800000000E+01 0.  1.
         -5    1    3    3    0  502  0.27040028837E+02 -0.11814498655E+02  0.21715601546E+03  0.21919158968E+03  0.41800000000E+01 0.  1.
        -11    1    1    2    0    0 -0.80627309398E+02 -0.54082882784E+02  0.25651458516E+03  0.27427259001E+03  0.00000000000E+00 0. -1.
         11    1    1    2    0    0 -0.10907086484E+03  0.30896565473E+02  0.32915783826E+03  0.34813206374E+03  0.00000000000E+00 0.  1.
</event>
<event>
 7    1  0.6992302E-006  0.1299903E+03  0.7561462E-02  0.1227470E+00
          2   -1    0    0  501    0  0.00000000000E+00  0.00000000000E+00  0.14590549476E+03  0.14590549476E+03  0.00000000000E+00 0.  1.
         -2   -1    0    0    0  501 -0.00000000000E+00 -0.00000000000E+00 -0.19128792624E+03  0.19128792624E+03  0.00000000000E+00 0. -1.
         23    2    1    2    0    0 -0.88400630580E+02 -0.75232243911E+02 -0.81416874532E+02  0.18907812963E+03  0.12508904682E+03 0.  0.
          5    1    3    3  502    0 -0.70509809888E+02 -0.11357948329E+02 -0.97273516326E+02  0.12074868802E+03  0.41800000000E+01 0. -1.
         -5    1    3    3    0  502 -0.17890820692E+02 -0.63874295581E+02  0.15856641793E+02  0.68329441605E+02  0.41800000000E+01 0. -1.
        -11    1    1    2    0    0  0.39301203289E+02  0.10408907903E+02 -0.23840805230E+02  0.47130817282E+02  0.00000000000E+00 0. -1.
         11    1    1    2    0    0  0.49099427292E+02  0.64823336008E+02  0.59875248280E+02  0.10098447409E+03  0.00000000000E+00 0.  1.
</event>
<event>
 7    1  0.6992302E-006  0.7447103E+02  0.7561462E-02  0.1345517E+00
         -2   -1    0    0    0  501 -0.00000000000E+00  0.00000000000E+00  0.32008454908E+03  0.32008454908E+03  0.00000000000E+00 0.  1.
          2   -1    0    0  501    0  0.00000000000E+00 -0.00000000000E+00 -0.44310679742E+02  0.44310679742E+02  0.00000000000E+00 0. -1.
         23    2    1    2    0    0  0.17428650366E+02 -0.46326570171E+02  0.17851258061E+03  0.22352553643E+03  0.12508802918E+03 0.  0.
          5    1    3    3  502    0 -0.15296267681E+02  0.13549817821E+02 -0.99042474076E+01  0.23089822101E+02  0.41800000000E+01 0.  1.
         -5    1    3    3    0  502  0.32724918047E+02 -0.59876387992E+02  0.18841682802E+03  0.20043571433E+03  0.41800000000E+01 0.  1.
        -11    1    1    2    0    0 -0.90657959602E+00  0.42821375706E+02  0.11107724568E+03  0.11904892528E+03  0.00000000000E+00 0.  1.
         11    1    1    2    0    0 -0.16522070770E+02  0.35051944644E+01 -0.13815956947E+02  0.21820767106E+02  0.00000000000E+00 0. -1.
</event>
<event>
 7    1  0.6992302E-006  0.1338466E+03  0.7561462E-02  0.1221857E+00
         -2   -1    0    0    0  501 -0.00000000000E+00  0.00000000000E+00  0.54178786864E+02  0.54178786864E+02  0.00000000000E+00 0.  1.
          2   -1    0    0  501    0  0.00000000000E+00 -0.00000000000E+00 -0.33382387573E+03  0.33382387573E+03  0.00000000000E+00 0. -1.
         23    2    1    2    0    0 -0.43645421326E+01 -0.77105173343E+02 -0.15260448330E+03  0.21189081794E+03  0.12508130724E+03 0.  0.
          5    1    3    3  502    0  0.55570671021E+02 -0.62809286069E+02 -0.10149964413E+03  0.13172986014E+03  0.41800000000E+01 0.  1.
         -5    1    3    3    0  502 -0.59935213154E+02 -0.14295887274E+02 -0.51104839167E+02  0.80160957798E+02  0.41800000000E+01 0.  1.
        -11    1    1    2    0    0 -0.35585932199E+02  0.52169197186E+00 -0.37228797232E+02  0.51503534600E+02  0.00000000000E+00 0. -1.
         11    1    1    2    0    0  0.39950474331E+02  0.76583481371E+02 -0.89811808335E+02  0.12460831005E+03  0.00000000000E+00 0.  1.
</event>
<event>
 7    1  0.6992302E-006  0.1249363E+03  0.7561462E-02  0.1235169E+00
          1   -1    0    0  501    0  0.00000000000E+00  0.00000000000E+00  0.85616869273E+02  0.85616869273E+02  0.00000000000E+00 0. -1.
         -1   -1    0    0    0  501 -0.00000000000E+00 -0.00000000000E+00 -0.30710944400E+03  0.30710944400E+03  0.00000000000E+00 0.  1.
         23    2    1    2    0    0  0.83941335491E+02 -0.10979616463E+02 -0.22298868593E+03  0.26932940566E+03  0.12509066680E+03 0.  0.
          5    1    3    3  502    0  0.79000979743E+02 -0.60932897693E+02 -0.13461472114E+03  0.16760837798E+03  0.41800000000E+01 0.  1.
         -5    1    3    3    0  502  0.49403557478E+01  0.49953281230E+02 -0.88373964784E+02  0.10172102768E+03  0.41800000000E+01 0.  1.
        -11    1    1    2    0    0 -0.40040249729E+02  0.31728414525E+02 -0.35619659910E+02  0.62279001748E+02  0.00000000000E+00 0.  1.
         11    1    1    2    0    0 -0.43901085762E+02 -0.20748798062E+02  0.37115771109E+02  0.61117905864E+02  0.00000000000E+00 0. -1.
</event>
<event>
 7    1  0.6992302E-006  0.8284844E+02  0.7561462E-02  0.1321157E+00
          1   -1    0    0  501    0  0.00000000000E+00  0.00000000000E+00  0.26986315729E+02  0.26986315729E+02  0.00000000000E+00 0. -1.
         -1   -1    0    0    0  501 -0.00000000000E+00 -0.00000000000E+00 -0.51737742173E+03  0.51737742173E+03  0.00000000000E+00 0.  1.
         23    2    1    2    0    0  0.43033286898E+02  0.20580281955E+02 -0.26383615476E+03  0.29585896722E+03  0.12509036789E+03 0.  0.
          5    1    3    3  502    0  0.12419584818E+01  0.42029051764E+02 -0.23871472975E+03  0.24242561385E+03  0.41800000000E+01 0.  1.
         -5    1    3    3    0  502  0.41791328417E+02 -0.21448769809E+02 -0.25121425009E+02  0.53433353363E+02  0.41800000000E+01 0.  1.
        -11    1    1    2    0    0  0.10095645804E+02  0.10633668962E+02 -0.10140315280E+01  0.14697797105E+02  0.00000000000E+00 0. -1.
         11    1    1    2    0    0 -0.53128932702E+02 -0.31213950917E+02 -0.22554091972E+03  0.23380697314E+03  0.00000000000E+00 0.  1.
</event>
<event>
 7    1  0.6992302E-006  0.1095291E+03  0.7561462E-02  0.1261444E+00
         -1   -1    0    0    0  501 -0.00000000000E+00  0.00000000000E+00  0.49965740350E+02  0.49965740350E+02  0.00000000000E+00 0.  1.
          1   -1    0    0  501    0  0.00000000000E+00 -0.00000000000E+00 -0.46715832748E+03  0.46715832748E+03  0.00000000000E+00 0. -1.
         23    2    1    2    0    0  0.35196216725E+02  0.28408848828E+02 -0.61392681205E+02  0.14649739228E+03  0.12508632330E+03 0.  0.
          5    1    3    3  502    0 -0.26048835786E+01  0.64350361931E+02 -0.68003903594E+02  0.93753708210E+02  0.41800000000E+01 0.  1.
         -5    1    3    3    0  502  0.37801100304E+02 -0.35941513103E+02  0.66112223893E+01  0.52743684075E+02  0.41800000000E+01 0.  1.
        -11    1    1    2    0    0 -0.17263183233E+02 -0.61867213305E+02 -0.19098422610E+03  0.20149576719E+03  0.00000000000E+00 0.  1.
         11    1    1    2    0    0 -0.17933033492E+02  0.33458364476E+02 -0.16481567983E+03  0.16913090836E+03  0.00000000000E+00 0. -1.
</event>
<event>
 7    1  0.6992302E-006  0.1093495E+03  0.7561462E-02  0.1261779E+00
         -1   -1    0    0    0  501 -0.00000000000E+00  0.00000000000E+00  0.33927440627E+02  0.33927440627E+02  0.00000000000E+00 0.  1.
          1   -1    0    0  501    0  0.00000000000E+00 -0.00000000000E+00 -0.48109346621E+03  0.48109346621E+03  0.00000000000E+00 0. -1.
         23    2    1    2    0    0  0.26526081465E+02 -0.61719591729E+02 -0.21906014675E+03  0.26105121023E+03  0.12508974965E+03 0.  0.
          5    1    3    3  502    0  0.18151612440E+02 -0.87892980729E+02 -0.21492561394E+03  0.23294881203E+03  0.41800000000E+01 0. -1.
         -5    1    3    3    0  502  0.83744690246E+01  0.26173388999E+02 -0.41345328052E+01  0.28102398201E+02  0.41800000000E+01 0. -1.
        -11    1    1    2    0    0 -0.43930091245E+02  0.80827121285E+01 -0.15693036541E+03  0.16316348470E+03  0.00000000000E+00 0. -1.
         11    1    1    2    0    0  0.17404009780E+02  0.53636879601E+02 -0.71175513424E+02  0.90806211907E+02  0.00000000000E+00 0.  1.
</event>
<event>
 7    1  0.6992302E-006  0.1000661E+03  0.7561462E-02  0.1280157E+00
          1   -1    0    0  501    0  0.00000000000E+00  0.00000000000E+00  0.10424536804E+03  0.10424536804E+03  0.00000000000E+00 0. -1.
         -1   -1    0    0    0  501 -0.00000000000E+00 -0.00000000000E+00 -0.17107487655E+03  0.17107487655E+03  0.00000000000E+00 0.  1.
         23    2    1    2    0    0 -0.39038389818E+02 -0.29467274458E+02 -0.93300193486E+02  0.16353644086E+03  0.12508767022E+03 0.  0.
          5    1    3    3  502    0  0.18969156203E+02 -0.62165067146E+02 -0.61690010733E+02  0.89707604385E+02  0.41800000000E+01 0.  1.
         -5    1    3    3    0  502 -0.58007546021E+02  0.32697792688E+02 -0.31610182753E+02  0.73828836478E+02  0.41800000000E+01 0.  1.
        -11    1    1    2    0    0  0.38319731568E+02 -0.48490403455E+00 -0.29457480016E+02  0.48336115775E+02  0.00000000000E+00 0.  1.
         11    1    1    2    0    0  0.71865824978E+00  0.29952178492E+02  0.55928164998E+02  0.63447687949E+02  0.00000000000E+00 0. -1.
</event>
<event>
 7    1  0.6992302E-006  0.1787270E+03  0.7561462E-02  0.1169041E+00
          1   -1    0    0  501    0  0.00000000000E+00  0.00000000000E+00  0.39289303292E+03  0.39289303292E+03  0.00000000000E+00 0. -1.
         -1   -1    0    0    0  501 -0.00000000000E+00 -0.00000000000E+00 -0.10321922004E+03  0.10321922004E+03  0.00000000000E+00 0.  1.
         23    2    1    2    0    0  0.11136079514E+03 -0.11710038185E+03  0.21374249250E+03  0.29571530411E+03  0.12509181372E+03 0.  0.
          5    1    3    3  502    0  0.36282978259E+02  0.10270760420E+02  0.10639121901E+03  0.11295356087E+03  0.41800000000E+01 0.  1.
         -5    1    3    3    0  502  0.75077816885E+02 -0.12737114227E+03  0.10735127348E+03  0.18276174324E+03  0.41800000000E+01 0.  1.
        -11    1    1    2    0    0 -0.40117896904E+01  0.38120466890E+02 -0.12657646204E+02  0.40366823752E+02  0.00000000000E+00 0.  1.
         11    1    1    2    0    0 -0.10734900545E+03  0.78979914964E+02  0.88588966588E+02  0.16003012510E+03  0.00000000000E+00 0. -1.
</event>
<event>
 6    1  0.6992302E-006  0.1026261E+03  0.7561462E-02  0.1274869E+00
         -1   -1    0    0    0  501 -0.00000000000E+00  0.00000000000E+00  0.65923204121E+03  0.65923204121E+03  0.00000000000E+00 0.  1.
          1   -1    0    0  501    0  0.00000000000E+00 -0.00000000000E+00 -0.24725061994E+02  0.24725061994E+02  0.00000000000E+00 0. -1.
          5    1    1    2  502    0 -0.30497752522E+01  0.61465682614E+02  0.11105914613E+03  0.12703911841E+03  0.41800000000E+01 0. -1.
         -5    1    1    2    0  502 -0.48779934541E+01 -0.60203806639E+02  0.39157235946E+03  0.39622553962E+03  0.41800000000E+01 0.  1.
        -11    1    1    2    0    0 -0.10844607850E+02 -0.39212178555E+02  0.99174155928E+02  0.10719474647E+03  0.00000000000E+00 0.  1.
         11    1    1    2    0    0  0.18772376556E+02  0.37950302580E+02  0.32701317703E+02  0.53497698707E+02  0.00000000000E+00 0. -1.
</event>
<event>
 7    1  0.6992302E-006  0.1018210E+03  0.7561462E-02  0.1276513E+00
          2   -1    0    0  501    0  0.00000000000E+00  0.00000000000E+00  0.89002008286E+03  0.89002008286E+03  0.00000000000E+00 0. -1.
         -2   -1    0    0    0  501 -0.00000000000E+00 -0.00000000000E+00 -0.15918244555E+02  0.15918244555E+02  0.00000000000E+00 0.  1.
         23    2    1    2    0    0 -0.39276528812E+02 -0.24479761998E+02  0.44171594297E+03  0.46141425853E+03  0.12509292241E+03 0.  0.
          5    1    3    3  502    0 -0.10655420039E+02 -0.59520277191E+02  0.37985235214E+03  0.38465761814E+03  0.41800000000E+01 0.  1.
         -5    1    3    3    0  502 -0.28621108772E+02  0.35040515193E+02  0.61863590830E+02  0.76756640383E+02  0.41800000000E+01 0.  1.
        -11    1    1    2    0    0  0.53232590058E+01 -0.31595701523E+02  0.81593734108E+02  0.87659357098E+02  0.00000000000E+00 0.  1.
         11    1    1    2    0    0  0.33953269806E+02  0.56075463521E+02  0.35079216123E+03  0.35686471179E+03  0.00000000000E+00 0. -1.
</event>
<event>
 7    1  0.6992302E-006  0.1275479E+03  0.7561462E-02  0.1231140E+00
         -2   -1    0    0    0  501 -0.00000000000E+00  0.00000000000E+00  0.38270791699E+02  0.38270791699E+02  0.00000000000E+00 0.  1.
          2   -1    0    0  501    0  0.00000000000E+00 -0.00000000000E+00 -0.67177067143E+03  0.67177067143E+03  0.00000000000E+00 0. -1.
         23    2    1    2    0    0 -0.95873896808E+02 -0.61040030526E+02 -0.26904249265E+03  0.31773055679E+03  0.12510457406E+03 0.  0.
          5    1    3    3  502    0 -0.77470969289E+02 -0.56316045374E+02 -0.27961236317E+03  0.29559058524E+03  0.41800000000E+01 0. -1.
         -5    1    3    3    0  502 -0.18402927519E+02 -0.47239851521E+01  0.10569870521E+02  0.22139971540E+02  0.41800000000E+01 0. -1.
        -11    1    1    2    0    0  0.10980022253E+03  0.61479450158E+02 -0.28365361057E+03  0.31031465072E+03  0.00000000000E+00 0. -1.
         11    1    1    2    0    0 -0.13926325726E+02 -0.43941963168E+00 -0.80803776515E+02  0.81996255628E+02  0.00000000000E+00 0.  1.
</event>
<event>
 7    1  0.6992302E-006  0.1139019E+03  0.7561462E-02  0.1253510E+00
          2   -1    0    0  501    0  0.00000000000E+00  0.00000000000E+00  0.31964341152E+03  0.31964341152E+03  0.00000000000E+00 0.  1.
         -2   -1    0    0    0  501 -0.00000000000E+00 -0.00000000000E+00 -0.61328740582E+02  0.61328740582E+02  0.00000000000E+00 0. -1.
         23    2    1    2    0    0 -0.17491828772E+02  0.79209159751E+02  0.80560997566E+02  0.16946226241E+03  0.12508928407E+03 0.  0.
          5    1    3    3  502    0 -0.47726469212E+02  0.49847693060E+01 -0.92176880050E+01  0.49041838879E+02  0.41800000000E+01 0. -1.
         -5    1    3    3    0  502  0.30234640439E+02  0.74224390445E+02  0.89778685571E+02  0.12042042353E+03  0.41800000000E+01 0. -1.
        -11    1    1    2    0    0  0.29231288364E+02 -0.12746541613E+02  0.11504301100E+03  0.11938105764E+03  0.00000000000E+00 0.  1.
         11    1    1    2    0    0 -0.11739459591E+02 -0.66462618138E+02  0.62710662368E+02  0.92128832056E+02  0.00000000000E+00 0. -1.
</event>
<event>
 7    1  0.6992302E-006  0.1215020E+03  0.7561462E-02  0.1240640E+00
          2   -1    0    0  501    0  0.00000000000E+00  0.00000000000E+00  0.29371340916E+03  0.29371340916E+03  0.00000000000E+00 0. -1.
         -2   -1    0    0    0  501 -0.00000000000E+00 -0.00000000000E+00 -0.65051450695E+02  0.65051450695E+02  0.00000000000E+00 0.  1.
         23    2    1    2    0    0  0.37438218546E+02 -0.46097551031E+02  0.45734511085E+02  0.14582296059E+03  0.12508431522E+03 0.  0.
          5    1    3    3  502    0 -0.44160418065E+02 -0.17217980221E+02  0.33755554851E+02  0.58339619898E+02  0.41800000000E+01 0. -1.
         -5    1    3    3    0  502  0.81598636611E+02 -0.28879570810E+02  0.11978956235E+02  0.87483340696E+02  0.41800000000E+01 0. -1.
        -11    1    1    2    0    0 -0.53212425872E+01 -0.27738182797E+02  0.53910827926E+02  0.60861315917E+02  0.00000000000E+00 0.  1.
         11    1    1    2    0    0 -0.32116975959E+02  0.73835733828E+02  0.12901661945E+03  0.15208058334E+03  0.00000000000E+00 0. -1.
</event>
<event>
 7    1  0.6992302E-006  0.1096004E+03  0.7561462E-02  0.1261312E+00
          1   -1    0    0  501    0  0.00000000000E+00  0.00000000000E+00  0.58746842181E+03  0.58746842181E+03  0.00000000000E+00 0. -1.
         -1   -1    0    0    0  501 -0.00000000000E+00 -0.00000000000E+00 -0.43968813535E+02  0.43968813535E+02  0.00000000000E+00 0.  1.
         23    2    1    2    0    0 -0.45155156013E+01  0.45829903259E+02  0.77126869595E+02  0.15402270096E+03  0.12511462139E+03 0.  0.
          5    1    3    3  502    0  0.46007635653E+02  0.48785322802E+02  0.78366871289E+02  0.10322571954E+03  0.41800000000E+01 0.  1.
         -5    1    3    3    0  502 -0.50523151254E+02 -0.29554195427E+01 -0.12400016938E+01  0.50796981421E+02  0.41800000000E+01 0.  1.
        -11    1    1    2    0    0  0.47385498788E+02 -0.24714662825E+02  0.21526042881E+03  0.22179551904E+03  0.00000000000E+00 0.  1.
         11    1    1    2    0    0 -0.42869983187E+02 -0.21115240434E+02  0.25111230987E+03  0.25561901534E+03  0.00000000000E+00 0. -1.
</event>
<event>
 7    1  0.6992302E-006  0.8412519E+02  0.7561462E-02  0.1317736E+00
          1   -1    0    0  501    0  0.00000000000E+00  0.00000000000E+00  0.68682048954E+02  0.68682048954E+02  0.00000000000E+00 0. -1.
         -1   -1    0    0    0  501 -0.00000000000E+00 -0.00000000000E+00 -0.25601945304E+03  0.25601945304E+03  0.00000000000E+00 0.  1.
         23    2    1    2    0    0  0.48039903749E+02 -0.22011773669E-02 -0.18503518487E+03  0.22846143299E+03  0.12509506131E+03 0.  0.
          5    1    3    3  502    0 -0.30440394133E+02 -0.15752229136E+02 -0.10001622866E+02  0.35947950953E+02  0.41800000000E+01 0.  1.
         -5    1    3    3    0  502  0.78480297883E+02  0.15750027958E+02 -0.17503356201E+03  0.19251348204E+03  0.41800000000E+01 0.  1.
        -11    1    1    2    0    0 -0.41364237293E+02 -0.90278126614E+01  0.36466568672E+02  0.55877653485E+02  0.00000000000E+00 0. -1.
         11    1    1    2    0    0 -0.66756664562E+01  0.90300138387E+01 -0.38768787887E+02  0.40362415522E+02  0.00000000000E+00 0.  1.
</event>
<event>
 7    1  0.6992302E-006  0.2035491E+03  0.7561462E-02  0.1146779E+00
         -1   -1    0    0    0  501 -0.00000000000E+00  0.00000000000E+00  0.96043773291E+03  0.96043773291E+03  0.00000000000E+00 0.  1.
          1   -1    0    0  501    0  0.00000000000E+00 -0.00000000000E+00 -0.48053988449E+02  0.48053988449E+02  0.00000000000E+00 0. -1.
         23    2    1    2    0    0 -0.15434838999E+03  0.96663209346E+02  0.40670713667E+03  0.46284596884E+03  0.12509394199E+03 0.  0.
          5    1    3    3  502    0 -0.92405525179E+02 -0.13137903048E+02  0.14792442240E+03  0.17495854572E+03  0.41800000000E+01 0.  1.
         -5    1    3    3    0  502 -0.61942864807E+02  0.10980111239E+03  0.25878271427E+03  0.28788742312E+03  0.41800000000E+01 0.  1.
        -11    1    1    2    0    0  0.99205042648E+02 -0.86161241897E+02  0.23528948365E+03  0.26949311903E+03  0.00000000000E+00 0. -1.
         11    1    1    2    0    0  0.55143347338E+02 -0.10501967449E+02  0.27038712415E+03  0.27615263349E+03  0.00000000000E+00 0.  1.
</event>
<event>
 7    1  0.6992302E-006  0.1111892E+03  0.7561462E-02  0.1258383E+00
         -2   -1    0    0    0  501 -0.00000000000E+00  0.00000000000E+00  0.20833219780E+02  0.20833219780E+02  0.00000000000E+00 0.  1.
          2   -1    0    0  501    0  0.00000000000E+00 -0.00000000000E+00 -0.77962665452E+03  0.77962665452E+03  0.00000000000E+00 0. -1.
         23    2    1    2    0    0  0.37099953648E+02 -0.33611871915E+02 -0.28164537557E+03  0.31221403161E+03  0.12508924597E+03 0.  0.
          5    1    3    3  502    0 -0.34488629274E+02 -0.38413120390E+02 -0.18283936016E+03  0.19003351649E+03  0.41800000000E+01 0.  1.
         -5    1    3    3    0  502  0.71588582922E+02  0.48012484756E+01 -0.98806015413E+02  0.12218051511E+03  0.41800000000E+01 0.  1.
        -11    1    1    2    0    0 -0.29806347224E+02 -0.25456472744E+02 -0.12191283768E+03  0.12805932348E+03  0.00000000000E+00 0.  1.
         11    1    1    2    0    0 -0.72936064236E+01  0.59068344659E+02 -0.35523522149E+03  0.36018651921E+03  0.00000000000E+00 0. -1.
</event>
<event>
 7    1  0.6992302E-006  0.1201024E+03  0.7561462E-02  0.1242928E+00
          2   -1    0    0  501    0  0.00000000000E+00  0.00000000000E+00  0.29843276330E+03  0.29843276330E+03  0.00000000000E+00 0. -1.
         -2   -1    0    0    0  501 -0.00000000000E+00 -0.00000000000E+00 -0.52716802840E+02  0.52716802840E+02  0.00000000000E+00 0.  1.
         23    2    1    2    0    0  0.24031951917E+02  0.51032807120E+02  0.10144442580E+03  0.17064675277E+03  0.12508981009E+03 0.  0.
          5    1    3    3  502    0  0.73442244238E+02  0.28056929276E+02  0.39643843747E+02  0.88147951004E+02  0.41800000000E+01 0. -1.
         -5    1    3    3    0  502 -0.49410292321E+02  0.22975877844E+02  0.61800582058E+02  0.82498801765E+02  0.41800000000E+01 0. -1.
        -11    1    1    2    0    0 -0.57355890172E+02 -0.45127136436E+02  0.11239973428E+03  0.13401439045E+03  0.00000000000E+00 0. -1.
         11    1    1    2    0    0  0.33323938255E+02 -0.59056706839E+01  0.31871800378E+02  0.46488422928E+02  0.00000000000E+00 0.  1.
</event>
<event>
 7    1  0.6992302E-006  0.1171204E+03  0.7561462E-02  0.1247924E+00
          2   -1    0    0  501    0  0.00000000000E+00  0.00000000000E+00  0.10547798349E+04  0.10547798349E+04  0.00000000000E+00 0. -1.
         -2   -1    0    0    0  501 -0.00000000000E+00 -0.00000000000E+00 -0.18841930201E+02  0.18841930201E+02  0.00000000000E+00 0.  1.
         23    2    1    2    0    0  0.12782144731E+02  0.86371187139E+02  0.69022629237E+03  0.70688291961E+03  0.12509101553E+03 0.  0.
          5    1    3    3  502    0 -0.34644941513E+02  0.57417456715E+01  0.40797324494E+03  0.40950321196E+03  0.41800000000E+01 0. -1.
         -5    1    3    3    0  502  0.47427086244E+02  0.80629441467E+02  0.28225304743E+03  0.29737970765E+03  0.41800000000E+01 0. -1.
        -11    1    1    2    0    0 -0.33058575453E+02 -0.27592443913E+02  0.57162030066E+02  0.71566123643E+02  0.00000000000E+00 0.  1.
         11    1    1    2    0    0  0.20276430722E+02 -0.58778743226E+02  0.28854958222E+03  0.29517272181E+03  0.00000000000E+00 0. -1.
</event>
<event>
 7    1  0.6992302E-006  0.1155462E+03  0.7561462E-02  0.1250631E+00
          2   -1    0    0  501    0  0.00000000000E+00  0.00000000000E+00  0.20028372534E+03  0.20028372534E+03  0.00000000000E+00 0. -1.
         -2   -1    0    0    0  501 -0.00000000000E+00 -0.00000000000E+00 -0.90668037904E+02  0.90668037904E+02  0.00000000000E+00 0.  1.
         23    2    1    2    0    0  0.14634154174E+02  0.62214310002E+02  0.65315700562E+01  0.14061091002E+03  0.12507592802E+03 0.  0.
          5    1    3    3  502    0  0.50471868212E+02  0.72359354795E+02  0.33473677825E+02  0.94452343614E+02  0.41800000000E+01 0. -1.
         -5    1    3    3    0  502 -0.35837714039E+02 -0.10145044793E+02 -0.26942107768E+02  0.46158566403E+02  0.41800000000E+01 0. -1.
        -11    1    1    2    0    0  0.27334365893E+02  0.32519364841E+01  0.10573356374E+02  0.29487938461E+02  0.00000000000E+00 0. -1.
         11    1    1    2    0    0 -0.41968520066E+02 -0.65466246486E+02  0.92510761004E+02  0.12085291476E+03  0.00000000000E+00 0.  1.
</event>
<event>
 7    1  0.7535508E-006  0.2942026E+03  0.7561462E-02  0.1088175E+00
         -1   -1    0    0    0  501 -0.00000000000E+00  0.00000000000E+00  0.82752943854E+02  0.82752943854E+02  0.00000000000E+00 0.  1.
          1   -1    0    0  501    0  0.00000000000E+00 -0.00000000000E+00 -0.11694258211E+04  0.11694258211E+04  0.00000000000E+00 0. -1.
         23    2    1    2    0    0  0.10831347863E+03 -0.26266008189E+03 -0.42446355947E+03  0.52586919431E+03  0.12508784089E+03 0.  0.
          5    1    3    3  502    0  0.80713850532E+02 -0.24774483518E+03 -0.29969153457E+03  0.39714571295E+03  0.41800000000E+01 0. -1.
         -5    1    3    3    0  502  0.27599628101E+02 -0.14915246713E+02 -0.12477202490E+03  0.12872348136E+03  0.41800000000E+01 0. -1.
        -11    1    1    2    0    0 -0.11951986802E+03  0.20394767920E+03 -0.49041454943E+03  0.54441352389E+03  0.00000000000E+00 0.  1.
         11    1    1    2    0    0  0.11206389384E+02  0.58712402691E+02 -0.17179476833E+03  0.18189604673E+03  0.00000000000E+00 0. -1.
</event>
<event>
 7    1  0.6992302E-006  0.1270455E+03  0.7561462E-02  0.1231907E+00
         -2   -1    0    0    0  501 -0.00000000000E+00  0.00000000000E+00  0.27998345492E+03  0.27998345492E+03  0.00000000000E+00 0.  1.
          2   -1    0    0  501    0  0.00000000000E+00 -0.00000000000E+00 -0.82382072878E+02  0.82382072878E+02  0.00000000000E+00 0. -1.
         23    2    1    2    0    0  0.78372804307E+02 -0.57783280922E+02  0.15683244619E+03  0.22299247436E+03  0.12509205984E+03 0.  0.
          5    1    3    3  502    0  0.10460263134E+03 -0.67165395418E+02  0.10012052909E+03  0.15966995199E+03  0.41800000000E+01 0.  1.
         -5    1    3    3    0  502 -0.26229827029E+02  0.93821144959E+01  0.56711917094E+02  0.63322522367E+02  0.41800000000E+01 0.  1.
        -11    1    1    2    0    0 -0.30468370036E+02  0.40355948823E+02 -0.24799733181E+02  0.56320075851E+02  0.00000000000E+00 0. -1.
         11    1    1    2    0    0 -0.47904434270E+02  0.17427332100E+02  0.65568669040E+02  0.83052977590E+02  0.00000000000E+00 0.  1.
</event>
<event>
 7    1  0.6992302E-006  0.1159683E+03  0.7561462E-02  0.1249900E+00
         -2   -1    0    0    0  501 -0.00000000000E+00  0.00000000000E+00  0.25301620170E+02  0.25301620170E+02  0.00000000000E+00 0.  1.
          2   -1    0    0  501    0  0.00000000000E+00 -0.00000000000E+00 -0.66592486207E+03  0.66592486207E+03  0.00000000000E+00 0. -1.
         23    2    1    2    0    0  0.14493536398E+02 -0.44778923782E+02 -0.21431051967E+03  0.25257311972E+03  0.12509583268E+03 0.  0.
          5    1    3    3  502    0 -0.38800441234E+02 -0.61558181435E+02 -0.15326402416E+03  0.16971216056E+03  0.41800000000E+01 0.  1.
         -5    1    3    3    0  502  0.53293977631E+02  0.16779257653E+02 -0.61046495508E+02  0.82860959161E+02  0.41800000000E+01 0.  1.
        -11    1    1    2    0    0  0.39138103166E+02  0.18105077723E+02 -0.16231143220E+03  0.16794221025E+03  0.00000000000E+00 0.  1.
         11    1    1    2    0    0 -0.53631639563E+02  0.26673846059E+02 -0.26400129003E+03  0.27071115227E+03  0.00000000000E+00 0. -1.
</event>
<event>
 7    1  0.6992302E-006  0.1923696E+03  0.7561462E-02  0.1156341E+00
          1   -1    0    0  501    0  0.00000000000E+00  0.00000000000E+00  0.27246000939E+03  0.27246000939E+03  0.00000000000E+00 0. -1.
         -1   -1    0    0    0  501 -0.00000000000E+00 -0.00000000000E+00 -0.20526264770E+03  0.20526264770E+03  0.00000000000E+00 0.  1.
         23    2    1    2    0    0 -0.15657128635E+03 -0.72187369622E+02 -0.85306409782E+02  0.22945926107E+03  0.12509510342E+03 0.  0.
          5    1    3    3  502    0  0.13578053395E+02 -0.22100201288E+02 -0.37367475261E+02  0.45679131323E+02  0.41800000000E+01 0.  1.
         -5    1    3    3    0  502 -0.17014933974E+03 -0.50087168334E+02 -0.47938934521E+02  0.18378012974E+03  0.41800000000E+01 0.  1.
        -11    1    1    2    0    0  0.14429837657E+03  0.44890159337E+02  0.82596716561E+02  0.17221894632E+03  0.00000000000E+00 0.  1.
         11    1    1    2    0    0  0.12272909776E+02  0.27297210286E+02  0.69907054916E+02  0.76044449704E+02  0.00000000000E+00 0. -1.
</event>
<event>
 7    1  0.6992302E-006  0.8848286E+02  0.7561462E-02  0.1306568E+00
         -2   -1    0    0    0  501 -0.00000000000E+00  0.00000000000E+00  0.14490426472E+02  0.14490426472E+02  0.00000000000E+00 0.  1.
          2   -1    0    0  501    0  0.00000000000E+00 -0.00000000000E+00 -0.93805785182E+03  0.93805785182E+03  0.00000000000E+00 0. -1.
         23    2    1    2    0    0 -0.39977442141E+02 -0.15803344703E+02 -0.54011167968E+03  0.55607120406E+03  0.12508643362E+03 0.  0.
          5    1    3    3  502    0 -0.17658138723E+02  0.28859248473E+02 -0.46209871427E+03  0.46335446498E+03  0.41800000000E+01 0. -1.
         -5    1    3    3    0  502 -0.22319303418E+02 -0.44662593176E+02 -0.78012965410E+02  0.92716739084E+02  0.41800000000E+01 0. -1.
        -11    1    1    2    0    0 -0.13272691176E+02 -0.23225545512E+02 -0.51644760115E+02  0.58161598523E+02  0.00000000000E+00 0. -1.
         11    1    1    2    0    0  0.53250133317E+02  0.39028890215E+02 -0.33181098555E+03  0.33831547571E+03  0.00000000000E+00 0.  1.
</event>
<event>
 7    1  0.6992302E-006  0.1115035E+03  0.7561462E-02  0.1257811E+00
          2   -1    0    0  501    0  0.00000000000E+00  0.00000000000E+00  0.13459166792E+03  0.13459166792E+03  0.00000000000E+00 0. -1.
         -2   -1    0    0    0  501 -0.00000000000E+00 -0.00000000000E+00 -0.14352289895E+03  0.14352289895E+03  0.00000000000E+00 0.  1.
         23    2    1    2    0    0 -0.67200366730E+02  0.55771341276E+02 -0.11769532231E+02  0.15301029148E+03  0.12508915067E+03 0.  0.
          5    1    3    3  502    0 -0.64128577036E+02  0.66487780216E+02  0.39371130474E+02  0.10050202797E+03  0.41800000000E+01 0.  1.
         -5    1    3    3    0  502 -0.30717896939E+01 -0.10716438939E+02 -0.51140662705E+02  0.52508263515E+02  0.41800000000E+01 0.  1.
        -11    1    1    2    0    0  0.83348848717E+02 -0.59059229695E+02  0.16776683991E+02  0.10352043431E+03  0.00000000000E+00 0. -1.
         11    1    1    2    0    0 -0.16148481986E+02  0.32878884182E+01 -0.13938382794E+02  0.21583841077E+02  0.00000000000E+00 0.  1.
</event>
<event>
 7    1  0.6992302E-006  0.1546562E+03  0.7561462E-02  0.1194865E+00
         -2   -1    0    0    0  501 -0.00000000000E+00  0.00000000000E+00  0.27226032238E+02  0.27226032238E+02  0.00000000000E+00 0.  1.
          2   -1    0    0  501    0  0.00000000000E+00 -0.00000000000E+00 -0.10048217237E+04  0.10048217237E+04  0.00000000000E+00 0. -1.
         23    2    1    2    0    0  0.55248702583E+02 -0.96742625097E+02 -0.34935515156E+03  0.38743776902E+03  0.12508976095E+03 0.  0.
          5    1    3    3  502    0  0.17947716918E+02  0.29149598949E+02 -0.96796046594E+02  0.10275585968E+03  0.41800000000E+01 0.  1.
         -5    1    3    3    0  502  0.37300985665E+02 -0.12589222405E+03 -0.25255910497E+03  0.28468190935E+03  0.41800000000E+01 0.  1.
        -11    1    1    2    0    0 -0.52043997066E+02  0.56960352466E+01 -0.26471377371E+03  0.26984144315E+03  0.00000000000E+00 0. -1.
         11    1    1    2    0    0 -0.32047055163E+01  0.91046589851E+02 -0.36352676618E+03  0.37476854376E+03  0.00000000000E+00 0.  1.
</event>
<event>
 7    1  0.6992302E-006  0.1277014E+03  0.7561462E-02  0.1230907E+00
         -2   -1    0    0    0  501 -0.00000000000E+00  0.00000000000E+00  0.83198292569E+02  0.83198292569E+02  0.00000000000E+00 0.  1.
          2   -1    0    0  501    0  0.00000000000E+00 -0.00000000000E+00 -0.29119780419E+03  0.29119780419E+03  0.00000000000E+00 0. -1.
         23    2    1    2    0    0  0.58320233300E+02 -0.87173272139E+02 -0.65196703599E+02  0.17578122629E+03  0.12509196764E+03 0.  0.
          5    1    3    3  502    0  0.48745354440E+02 -0.67273919488E+01  0.24258848007E+02  0.55021191268E+02  0.41800000000E+01 0. -1.
         -5    1    3    3    0  502  0.95748788597E+01 -0.80445880190E+02 -0.89455551606E+02  0.12076003502E+03  0.41800000000E+01 0. -1.
        -11    1    1    2    0    0  0.10176301663E+02 -0.39362694451E+01  0.49687519712E+01  0.11989154634E+02  0.00000000000E+00 0.  1.
         11    1    1    2    0    0 -0.68496534963E+02  0.91109541584E+02 -0.14777156000E+03  0.18662571584E+03  0.00000000000E+00 0. -1.
</event>
<event>
 7    1  0.6992302E-006  0.1093683E+03  0.7561462E-02  0.1261744E+00
          1   -1    0    0  501    0  0.00000000000E+00  0.00000000000E+00  0.18845607311E+03  0.18845607311E+03  0.00000000000E+00 0. -1.
         -1   -1    0    0    0  501 -0.00000000000E+00 -0.00000000000E+00 -0.11178149066E+03  0.11178149066E+03  0.00000000000E+00 0.  1.
         23    2    1    2    0    0  0.16754991585E+02  0.52826126320E+02 -0.39299717095E+02  0.14235979183E+03  0.12510201118E+03 0.  0.
          5    1    3    3  502    0 -0.13077557579E+02 -0.27113557068E+02  0.21739605768E+02  0.37366433441E+02  0.41800000000E+01 0.  1.
         -5    1    3    3    0  502  0.29832549164E+02  0.79939683388E+02 -0.61039322863E+02  0.10499335839E+03  0.41800000000E+01 0.  1.
        -11    1    1    2    0    0 -0.27682203910E+02  0.16838749322E+02  0.58631676773E+02  0.66988964862E+02  0.00000000000E+00 0. -1.
         11    1    1    2    0    0  0.10927212325E+02 -0.69664875642E+02  0.57342622773E+02  0.90888807089E+02  0.00000000000E+00 0.  1.
</event>
<event>
 7    1  0.6992302E-006  0.7529511E+02  0.7561462E-02  0.1342960E+00
          2   -1    0    0  501    0  0.00000000000E+00  0.00000000000E+00  0.72282340659E+02  0.72282340659E+02  0.00000000000E+00 0. -1.
         -2   -1    0    0    0  501 -0.00000000000E+00 -0.00000000000E+00 -0.17978823092E+03  0.17978823092E+03  0.00000000000E+00 0.  1.
         23    2    1    2    0    0  0.88543276105E+01 -0.18970204566E+02 -0.28594885700E+02  0.13001724659E+03  0.12509416111E+03 0.  0.
          5    1    3    3  502    0 -0.12756505602E+02  0.16850845146E+02 -0.68647937119E+02  0.71949225764E+02  0.41800000000E+01 0. -1.
         -5    1    3    3    0  502  0.21610833213E+02 -0.35821049713E+02  0.40053051419E+02  0.58068020826E+02  0.41800000000E+01 0. -1.
        -11    1    1    2    0    0 -0.45525237563E+02 -0.40676758776E+00 -0.62782306433E+02  0.77552116128E+02  0.00000000000E+00 0.  1.
         11    1    1    2    0    0  0.36670909952E+02  0.19376972154E+02 -0.16128698127E+02  0.44501208858E+02  0.00000000000E+00 0. -1.
</event>
<event>
 7    1  0.6992302E-006  0.1082333E+03  0.7561462E-02  0.1263877E+00
         -2   -1    0    0    0  501 -0.00000000000E+00  0.00000000000E+00  0.83421893510E+02  0.83421893510E+02  0.00000000000E+00 0.  1.
          2   -1    0    0  501    0  0.00000000000E+00 -0.00000000000E+00 -0.17775642370E+03  0.17775642370E+03  0.00000000000E+00 0. -1.
         23    2    1    2    0    0 -0.18915796628E+02 -0.54802135969E+02 -0.55909313845E+02  0.14877732292E+03  0.12509100276E+03 0.  0.
          5    1    3    3  502    0 -0.30655628946E+02  0.28190264812E+02 -0.49187280041E+02  0.64585753337E+02  0.41800000000E+01 0. -1.
         -5    1    3    3    0  502  0.11739832318E+02 -0.82992400781E+02 -0.67220338033E+01  0.84191569582E+02  0.41800000000E+01 0. -1.
        -11    1    1    2    0    0 -0.19100266006E+02  0.48535672725E+02  0.72337643110E+01  0.52657943697E+02  0.00000000000E+00 0.  1.
         11    1    1    2    0    0  0.38016062633E+02  0.62664632442E+01 -0.45658980657E+02  0.59743050594E+02  0.00000000000E+00 0. -1.
</event>
<event>
 7    1  0.6992302E-006  0.9909170E+02  0.7561462E-02  0.1282218E+00
          1   -1    0    0  501    0  0.00000000000E+00  0.00000000000E+00  0.18646377375E+03  0.18646377375E+03  0.00000000000E+00 0. -1.
         -1   -1    0    0    0  501 -0.00000000000E+00 -0.00000000000E+00 -0.86566149109E+02  0.86566149109E+02  0.00000000000E+00 0.  1.
         23    2    1    2    0    0  0.28491204438E+02  0.58845705756E+02  0.58490488736E+02  0.15278508272E+03  0.12509028104E+03 0.  0.
          5    1    3    3  502    0  0.54851171033E+02 -0.11958617048E+02 -0.13560182592E+01  0.56311372483E+02  0.41800000000E+01 0.  1.
         -5    1    3    3    0  502 -0.26359966595E+02  0.70804322804E+02  0.59846506995E+02  0.96473710234E+02  0.41800000000E+01 0.  1.
        -11    1    1    2    0    0 -0.25349656635E+02 -0.41784229453E+02  0.70849938785E+02  0.86071137719E+02  0.00000000000E+00 0. -1.
         11    1    1    2    0    0 -0.31415478032E+01 -0.17061476303E+02 -0.29442802877E+02  0.34173702426E+02  0.00000000000E+00 0.  1.
</event>
<event>
 7    1  0.6992302E-006  0.1324620E+03  0.7561462E-02  0.1223848E+00
          2   -1    0    0  501    0  0.00000000000E+00  0.00000000000E+00  0.31702676111E+03  0.31702676111E+03  0.00000000000E+00 0. -1.
         -2   -1    0    0    0  501 -0.00000000000E+00 -0.00000000000E+00 -0.83475921940E+02  0.83475921940E+02  0.00000000000E+00 0.  1.
         23    2    1    2    0    0 -0.28200736506E+02  0.98450440369E+02  0.45837562343E+02  0.16803541601E+03  0.12508816156E+03 0.  0.
          5    1    3    3  502    0 -0.31807458695E+02  0.12781334846E+03  0.37981897558E+02  0.13714249310E+03  0.41800000000E+01 0.  1.
         -5    1    3    3    0  502  0.36067221886E+01 -0.29362908088E+02  0.78556647846E+01  0.30892922904E+02  0.41800000000E+01 0.  1.
        -11    1    1    2    0    0  0.17615127933E+02 -0.37820634647E+02  0.79665578333E+01  0.42475395006E+02  0.00000000000E+00 0.  1.
         11    1    1    2    0    0  0.10585608573E+02 -0.60629805723E+02  0.17974671900E+03  0.18999187204E+03  0.00000000000E+00 0. -1.
</event>
<event>
 6    1  0.6992302E-006  0.1429552E+03  0.7561462E-02  0.1209407E+00
         -3   -1    0    0    0  501 -0.00000000000E+00  0.00000000000E+00  0.97422445380E+02  0.97422445380E+02  0.00000000000E+00 0.  1.
          3   -1    0    0  501    0  0.00000000000E+00 -0.00000000000E+00 -0.27122743972E+03  0.27122743972E+03  0.00000000000E+00 0. -1.
          5    1    1    2  502    0  0.16964432110E+02 -0.44430729445E+02 -0.27134563464E+02  0.54914830513E+02  0.41800000000E+01 0. -1.
         -5    1    1    2    0  502 -0.94856479968E+02  0.72667447363E+02 -0.52517916961E+01  0.11968025491E+03  0.41800000000E+01 0.  1.
        -11    1    1    2    0    0  0.14517722752E+02 -0.49634140040E+02 -0.10697352000E+03  0.11881770117E+03  0.00000000000E+00 0. -1.
         11    1    1    2    0    0  0.63374325107E+02  0.21397422122E+02 -0.34445119179E+02  0.75237098505E+02  0.00000000000E+00 0.  1.
</event>
<event>
 7    1  0.1042302E-005  0.2245835E+03  0.7561462E-02  0.1130511E+00
         -3   -1    0    0    0  501 -0.00000000000E+00  0.00000000000E+00  0.45988985038E+02  0.45988985038E+02  0.00000000000E+00 0.  1.
          3   -1    0    0  501    0  0.00000000000E+00 -0.00000000000E+00 -0.13087844854E+04  0.13087844854E+04  0.00000000000E+00 0. -1.
         23    2    1    2    0    0  0.16575338383E+03  0.14087827850E+03 -0.56788285198E+03  0.62085344432E+03  0.12508873706E+03 0.  0.
          5    1    3    3  502    0  0.95769415843E+02  0.12868892935E+03 -0.26563644698E+03  0.31034306165E+03  0.41800000000E+01 0.  1.
         -5    1    3    3    0  502  0.69983967987E+02  0.12189349145E+02 -0.30224640500E+03  0.31051038267E+03  0.41800000000E+01 0.  1.
        -11    1    1    2    0    0 -0.48370892336E+02 -0.41958430811E+02 -0.35804770575E+03  0.36372848766E+03  0.00000000000E+00 0. -1.
         11    1    1    2    0    0 -0.11738249149E+03 -0.98919847687E+02 -0.33686494262E+03  0.37019153845E+03  0.00000000000E+00 0.  1.
</event>
<event>
 7    1  0.6992302E-006  0.9146792E+02  0.7561462E-02  0.1299335E+00
          2   -1    0    0  501    0  0.00000000000E+00  0.00000000000E+00  0.12336575238E+03  0.12336575238E+03  0.00000000000E+00 0. -1.
         -2   -1    0    0    0  501 -0.00000000000E+00 -0.00000000000E+00 -0.11159522856E+03  0.11159522856E+03  0.00000000000E+00 0.  1.
         23    2    1    2    0    0  0.15745206928E+02 -0.37807078882E+02 -0.12619579454E+02  0.13223709196E+03  0.12510039148E+03 0.  0.
          5    1    3    3  502    0 -0.20987417147E+02 -0.47566796656E+02 -0.54561673409E+02  0.75481921198E+02  0.41800000000E+01 0.  1.
         -5    1    3    3    0  502  0.36732624075E+02  0.97597177732E+01  0.41942093954E+02  0.56755170758E+02  0.41800000000E+01 0.  1.
        -11    1    1    2    0    0 -0.10068801098E+02  0.64484637715E+02  0.34268252739E+02  0.73715414959E+02  0.00000000000E+00 0. -1.
         11    1    1    2    0    0 -0.56764058299E+01 -0.26677558833E+02 -0.98781494683E+01  0.29008474027E+02  0.00000000000E+00 0.  1.
</event>
<event>
 7    1  0.6992302E-006  0.1046007E+03  0.7561462E-02  0.1270908E+00
         -2   -1    0    0    0  501 -0.00000000000E+00  0.00000000000E+00  0.19481952532E+03  0.19481952532E+03  0.00000000000E+00 0.  1.
          2   -1    0    0  501    0  0.00000000000E+00 -0.00000000000E+00 -0.78878230672E+02  0.78878230672E+02  0.00000000000E+00 0. -1.
         23    2    1    2    0    0  0.21143703557E+02 -0.50021483284E+02  0.89310110507E+02  0.16301219242E+03  0.12508986389E+03 0.  0.
          5    1    3    3  502    0 -0.34314710579E+02 -0.26510036531E+02  0.92814387334E+02  0.10252933383E+03  0.41800000000E+01 0.  1.
         -5    1    3    3    0  502  0.55458414136E+02 -0.23511446753E+02 -0.35042768271E+01  0.60482858588E+02  0.41800000000E+01 0.  1.
        -11    1    1    2    0    0 -0.55993801306E+02  0.20649364802E+02  0.26017346111E+02  0.65104564741E+02  0.00000000000E+00 0.  1.
         11    1    1    2    0    0  0.34850097750E+02  0.29372118482E+02  0.61383802531E+00  0.45580998830E+02  0.00000000000E+00 0. -1.
</event>
<event>
 7    1  0.2055385E-005  0.2644137E+03  0.7561462E-02  0.1104520E+00
          2   -1    0    0  501    0  0.00000000000E+00  0.00000000000E+00  0.18815722286E+04  0.18815722286E+04  0.00000000000E+00 0. -1.
         -2   -1    0    0    0  501 -0.00000000000E+00 -0.00000000000E+00 -0.42960563935E+02  0.42960563935E+02  0.00000000000E+00 0.  1.
         23    2    1    2    0    0 -0.22483688271E+03 -0.11398284023E+03  0.68969190999E+03  0.74489302764E+03  0.12508789001E+03 0.  0.
          5    1    3    3  502    0 -0.37302832181E+02  0.71463079059E+01  0.30440950190E+02  0.48853811047E+02  0.41800000000E+01 0.  1.
         -5    1    3    3    0  502 -0.18753405053E+03 -0.12112914814E+03  0.65925095980E+03  0.69603921659E+03  0.41800000000E+01 0.  1.
        -11    1    1    2    0    0  0.78954452088E+02 -0.49455364926E+01  0.35708151758E+03  0.36573962601E+03  0.00000000000E+00 0. -1.
         11    1    1    2    0    0  0.14588243062E+03  0.11892837672E+03  0.79183823710E+03  0.81390013889E+03  0.00000000000E+00 0.  1.
</event>
<event>
 7    1  0.6992302E-006  0.2021124E+03  0.7561462E-02  0.1147969E+00
          2   -1    0    0  501    0  0.00000000000E+00  0.00000000000E+00  0.22999623434E+03  0.22999623434E+03  0.00000000000E+00 0. -1.
         -2   -1    0    0    0  501 -0.00000000000E+00 -0.00000000000E+00 -0.20552001883E+03  0.20552001883E+03  0.00000000000E+00 0.  1.
         23    2    1    2    0    0 -0.59949246218E+02 -0.16847996634E+03 -0.41918294238E+02  0.22222578832E+03  0.12509095262E+03 0.  0.
          5    1    3    3  502    0 -0.28696474871E+02  0.13833366676E+02  0.15541737095E+01  0.32167336843E+02  0.41800000000E+01 0.  1.
         -5    1    3    3    0  502 -0.31252771347E+02 -0.18231333301E+03 -0.43472467947E+02  0.19005845148E+03  0.41800000000E+01 0.  1.
        -11    1    1    2    0    0  0.16299586115E+02  0.12286062181E+03  0.81548088822E+02  0.14835935996E+03  0.00000000000E+00 0. -1.
         11    1    1    2    0    0  0.43649660103E+02  0.45619344529E+02 -0.15153579080E+02  0.64931104883E+02  0.00000000000E+00 0.  1.
</event>
<event>
 7    1  0.6992302E-006  0.1093708E+03  0.7561462E-02  0.1261740E+00
          2   -1    0    0  501    0  0.00000000000E+00  0.00000000000E+00  0.17512084749E+03  0.17512084749E+03  0.00000000000E+00 0. -1.
         -2   -1    0    0    0  501 -0.00000000000E+00 -0.00000000000E+00 -0.13229120597E+03  0.13229120597E+03  0.00000000000E+00 0.  1.
         23    2    1    2    0    0 -0.37796092884E+02  0.58322123967E+02 -0.57873863771E+02  0.15436836411E+03  0.12510073121E+03 0.  0.
          5    1    3    3  502    0 -0.67050803853E+02  0.55535459137E+02  0.23842568423E+01  0.87196069863E+02  0.41800000000E+01 0.  1.
         -5    1    3    3    0  502  0.29254710968E+02  0.27866648306E+01 -0.60258120613E+02  0.67172294248E+02  0.41800000000E+01 0.  1.
        -11    1    1    2    0    0  0.25895508506E+02  0.13424443080E+02  0.42825710120E+00  0.29171500423E+02  0.00000000000E+00 0.  1.
         11    1    1    2    0    0  0.11900584379E+02 -0.71746567047E+02  0.10027524819E+03  0.12387218893E+03  0.00000000000E+00 0. -1.
</event>
<event>
 7    1  0.6992302E-006  0.1274151E+03  0.7561462E-02  0.1231342E+00
          1   -1    0    0  501    0  0.00000000000E+00  0.00000000000E+00  0.48447078192E+03  0.48447078192E+03  0.00000000000E+00 0. -1.
         -1   -1    0    0    0  501 -0.00000000000E+00 -0.00000000000E+00 -0.42980296171E+02  0.42980296171E+02  0.00000000000E+00 0.  1.
         23    2    1    2    0    0 -0.30059822921E+02  0.62552543947E+02  0.12030671591E+03  0.18691639061E+03  0.12509043719E+03 0.  0.
          5    1    3    3  502    0  0.44877630478E+02  0.46921581321E+02  0.67972897266E+02  0.94092633472E+02  0.41800000000E+01 0. -1.
         -5    1    3    3    0  502 -0.74937453399E+02  0.15630962626E+02  0.52333818649E+02  0.92823757136E+02  0.41800000000E+01 0. -1.
        -11    1    1    2    0    0 -0.30047096429E+02 -0.37326846141E+02  0.13085273940E+03  0.13935049643E+03  0.00000000000E+00 0.  1.
         11    1    1    2    0    0  0.60106919350E+02 -0.25225697806E+02  0.19033103043E+03  0.20118419105E+03  0.00000000000E+00 0. -1.
</event>
<event>
 7    1  0.6992302E-006  0.1032311E+03  0.7561462E-02  0.1273644E+00
          1   -1    0    0  501    0  0.00000000000E+00  0.00000000000E+00  0.18289341665E+03  0.18289341665E+03  0.00000000000E+00 0. -1.
         -1   -1    0    0    0  501 -0.00000000000E+00 -0.00000000000E+00 -0.79427859042E+02  0.79427859042E+02  0.00000000000E+00 0.  1.
         23    2    1    2    0    0 -0.37154580096E+02  0.19644319633E+02  0.22786187958E+02  0.13388200152E+03  0.12505525919E+03 0.  0.
          5    1    3    3  502    0 -0.65289434220E+02  0.35512386290E+02 -0.22802141069E+02  0.77854029042E+02  0.41800000000E+01 0. -1.
         -5    1    3    3    0  502  0.28134854125E+02 -0.15868066656E+02  0.45588329027E+02  0.56027972473E+02  0.41800000000E+01 0. -1.
        -11    1    1    2    0    0  0.14804146881E+02  0.36302837878E+02  0.25705813187E+02  0.46881207690E+02  0.00000000000E+00 0. -1.
         11    1    1    2    0    0  0.22350433214E+02 -0.55947157511E+02  0.54973556461E+02  0.81558066483E+02  0.00000000000E+00 0.  1.
</event>
<event>
 7    1  0.6992302E-006  0.8904370E+02  0.7561462E-02  0.1305184E+00
          1   -1    0    0  501    0  0.00000000000E+00  0.00000000000E+00  0.69717412783E+02  0.69717412783E+02  0.00000000000E+00 0. -1.
         -1   -1    0    0    0  501 -0.00000000000E+00 -0.00000000000E+00 -0.20602913867E+03  0.20602913867E+03  0.00000000000E+00 0.  1.
         23    2    1    2    0    0 -0.21527984570E+02  0.40094950353E+02 -0.11069713146E+03  0.17311660902E+03  0.12507776078E+03 0.  0.
          5    1    3    3  502    0 -0.36822932899E+02 -0.12266654692E+01 -0.12193889536E+03  0.12745195054E+03  0.41800000000E+01 0.  1.
         -5    1    3    3    0  502  0.15294948329E+02  0.41321615823E+02  0.11241763899E+02  0.45664658480E+02  0.41800000000E+01 0.  1.
        -11    1    1    2    0    0 -0.17263804282E+02 -0.53099009693E+02 -0.26281436442E+02  0.61711082231E+02  0.00000000000E+00 0. -1.
         11    1    1    2    0    0  0.38791788852E+02  0.13004059339E+02  0.66684201684E+00  0.40918860199E+02  0.00000000000E+00 0.  1.
</event>
<event>
 7    1  0.6992302E-006  0.1237201E+03  0.7561462E-02  0.1237083E+00
          2   -1    0    0  501    0  0.00000000000E+00  0.00000000000E+00  0.12935468676E+03  0.12935468676E+03  0.00000000000E+00 0. -1.
         -2   -1    0    0    0  501 -0.00000000000E+00 -0.00000000000E+00 -0.12275793271E+03  0.12275793271E+03  0.00000000000E+00 0.  1.
         23    2    1    2    0    0  0.35131628166E+02 -0.52419701078E+02 -0.13493096825E+02  0.14075458190E+03  0.12509089617E+03 0.  0.
          5    1    3    3  502    0  0.81024084951E+02 -0.39083303510E+02  0.27757844294E+01  0.90097637786E+02  0.41800000000E+01 0. -1.
         -5    1    3    3    0  502 -0.45892456785E+02 -0.13336397569E+02 -0.16268881255E+02  0.50656944116E+02  0.41800000000E+01 0. -1.
        -11    1    1    2    0    0 -0.31679884241E+02  0.77693152833E+02  0.13199010278E+02  0.84935592863E+02  0.00000000000E+00 0. -1.
         11    1    1    2    0    0 -0.34517439250E+01 -0.25273451755E+02  0.68908405960E+01  0.26422444699E+02  0.00000000000E+00 0.  1.
</event>
<event>
 7    1  0.6992302E-006  0.1586587E+03  0.7561462E-02  0.1190219E+00
         -2   -1    0    0    0  501 -0.00000000000E+00  0.00000000000E+00  0.69161772159E+02  0.69161772159E+02  0.00000000000E+00 0.  1.
          2   -1    0    0  501    0  0.00000000000E+00 -0.00000000000E+00 -0.53989096112E+03  0.53989096112E+03  0.00000000000E+00 0. -1.
         23    2    1    2    0    0 -0.72696361704E+01  0.13313310606E+03 -0.10940303185E+03  0.21305903062E+03  0.12509138903E+03 0.  0.
          5    1    3    3  502    0 -0.58414434340E+02  0.11376485500E+03 -0.78115422858E+02  0.14991390883E+03  0.41800000000E+01 0. -1.
         -5    1    3    3    0  502  0.51144798170E+02  0.19368251057E+02 -0.31287608994E+02  0.63145121787E+02  0.41800000000E+01 0. -1.
        -11    1    1    2    0    0  0.80175132164E+01 -0.22612424904E+02 -0.72416526555E+01  0.25060802289E+02  0.00000000000E+00 0.  1.
         11    1    1    2    0    0 -0.74787704598E+00 -0.11052068116E+03 -0.35408450446E+03  0.37093290038E+03  0.00000000000E+00 0. -1.
</event>
<event>
 7    1  0.6992302E-006  0.1185143E+03  0.7561462E-02  0.1245568E+00
         -4   -1    0    0    0  501 -0.00000000000E+00  0.00000000000E+00  0.21698147660E+03  0.21698147660E+03  0.00000000000E+00 0.  1.
          4   -1    0    0  501    0  0.00000000000E+00 -0.00000000000E+00 -0.16852267961E+03  0.16852267961E+03  0.00000000000E+00 0. -1.
         23    2    1    2    0    0  0.54075241279E+02 -0.94035610896E+02  0.14077898451E+03  0.21733166495E+03  0.12508997672E+03 0.  0.
          5    1    3    3  502    0  0.14630619261E+02 -0.65477419817E+02 -0.11401389728E+01  0.67231836526E+02  0.41800000000E+01 0.  1.
         -5    1    3    3    0  502  0.39444622019E+02 -0.28558191079E+02  0.14191912348E+03  0.15009982842E+03  0.41800000000E+01 0.  1.
        -11    1    1    2    0    0 -0.56350580953E+02  0.45732001982E+02 -0.10776442330E+02  0.73368492477E+02  0.00000000000E+00 0.  1.
         11    1    1    2    0    0  0.22753396740E+01  0.48303608915E+02 -0.81543745188E+02  0.94803998777E+02  0.00000000000E+00 0. -1.
</event>
<event>
 7    1  0.6992302E-006  0.1386421E+03  0.7561462E-02  0.1215168E+00
          1   -1    0    0  501    0  0.00000000000E+00  0.00000000000E+00  0.15711048431E+03  0.15711048431E+03  0.00000000000E+00 0. -1.
         -1   -1    0    0    0  501 -0.00000000000E+00 -0.00000000000E+00 -0.15967430667E+03  0.15967430667E+03  0.00000000000E+00 0.  1.
         23    2    1    2    0    0 -0.38893460023E+02 -0.96281254459E+02 -0.50911232769E+02  0.17061606214E+03  0.12543965021E+03 0.  0.
          5    1    3    3  502    0  0.30552099390E+02 -0.43009265042E+02  0.21323321299E+02  0.57055973287E+02  0.41800000000E+01 0.  1.
         -5    1    3    3    0  502 -0.69445559413E+02 -0.53271989418E+02 -0.72234554068E+02  0.11356008885E+03  0.41800000000E+01 0.  1.
        -11    1    1    2    0    0  0.36606697576E+02  0.11355698583E+03  0.48366719238E+02  0.12874229634E+03  0.00000000000E+00 0. -1.
         11    1    1    2    0    0  0.22867624470E+01 -0.17275731366E+02 -0.19308833421E-01  0.17426432497E+02  0.00000000000E+00 0.  1.
</event>
<event>
 7    1  0.6992302E-006  0.1027252E+03  0.7561462E-02  0.1274667E+00
         -1   -1    0    0    0  501 -0.00000000000E+00  0.00000000000E+00  0.20471925330E+03  0.20471925330E+03  0.00000000000E+00 0.  1.
          1   -1    0    0  501    0  0.00000000000E+00 -0.00000000000E+00 -0.15912093735E+03  0.15912093735E+03  0.00000000000E+00 0. -1.
         23    2    1    2    0    0  0.68475635499E+02  0.37025358481E+02  0.14586665717E+03  0.20732701104E+03  0.12509043930E+03 0.  0.
          5    1    3    3  502    0 -0.13053969955E+02  0.26007160000E+00  0.11004147880E+03  0.11089216936E+03  0.41800000000E+01 0.  1.
         -5    1    3    3    0  502  0.81529605454E+02  0.36765286881E+02  0.35825178372E+02  0.96434841682E+02  0.41800000000E+01 0.  1.
        -11    1    1    2    0    0 -0.13807893375E+02  0.19289690901E+02  0.59373828892E+01  0.24454091889E+02  0.00000000000E+00 0.  1.
         11    1    1    2    0    0 -0.54667742124E+02 -0.56315049382E+02 -0.10620572412E+03  0.13205908773E+03  0.00000000000E+00 0. -1.
</event>
<event>
 7    1  0.6992302E-006  0.1572955E+03  0.7561462E-02  0.1191784E+00
          2   -1    0    0  501    0  0.00000000000E+00  0.00000000000E+00  0.12204650476E+03  0.12204650476E+03  0.00000000000E+00 0. -1.
         -2   -1    0    0    0  501 -0.00000000000E+00 -0.00000000000E+00 -0.39466668720E+03  0.39466668720E+03  0.00000000000E+00 0.  1.
         23    2    1    2    0    0 -0.70923110876E+02 -0.13938192105E+03 -0.26698559950E+03  0.33374615002E+03  0.12509106579E+03 0.  0.
          5    1    3    3  502    0 -0.42206789991E+02 -0.69596981616E+02 -0.33125602382E+02  0.87976877102E+02  0.41800000000E+01 0.  1.
         -5    1    3    3    0  502 -0.28716320885E+02 -0.69784939429E+02 -0.23385999712E+03  0.24576927292E+03  0.41800000000E+01 0.  1.
        -11    1    1    2    0    0  0.36672410153E+02  0.92050060171E+02 -0.48679163835E+02  0.11039809888E+03  0.00000000000E+00 0.  1.
         11    1    1    2    0    0  0.34250700723E+02  0.47331860874E+02  0.43044580900E+02  0.72568943073E+02  0.00000000000E+00 0. -1.
</event>
<event>
 6    1  0.6992302E-006  0.1856934E+03  0.7561462E-02  0.1162404E+00
         -2   -1    0    0    0  501 -0.00000000000E+00  0.00000000000E+00  0.88673062505E+02  0.88673062505E+02  0.00000000000E+00 0.  1.
          2   -1    0    0  501    0  0.00000000000E+00 -0.00000000000E+00 -0.74760570361E+03  0.74760570361E+03  0.00000000000E+00 0. -1.
          5    1    1    2  502    0 -0.40781681674E+02 -0.55555199590E+02 -0.16400252252E+03  0.17794332119E+03  0.41800000000E+01 0. -1.
         -5    1    1    2    0  502  0.15116076259E+03  0.43405197330E+02 -0.16996020751E+02  0.15824008476E+03  0.41800000000E+01 0.  1.
        -11    1    1    2    0    0  0.17045681357E+02  0.25146805541E+01 -0.90658168219E+02  0.92280996613E+02  0.00000000000E+00 0.  1.
         11    1    1    2    0    0 -0.12742476227E+03  0.96353217064E+01 -0.38727592961E+03  0.40781436355E+03  0.00000000000E+00 0. -1.
</event>
<event>
 7    1  0.6992302E-006  0.1162907E+03  0.7561462E-02  0.1249345E+00
         -1   -1    0    0    0  501 -0.00000000000E+00  0.00000000000E+00  0.62348194479E+02  0.62348194479E+02  0.00000000000E+00 0.  1.
          1   -1    0    0  501    0  0.00000000000E+00 -0.00000000000E+00 -0.36783722582E+03  0.36783722582E+03  0.00000000000E+00 0. -1.
         23    2    1    2    0    0  0.42155635502E+02 -0.75916228091E+02 -0.79169632121E+02  0.17164001697E+03  0.12510832700E+03 0.  0.
          5    1    3    3  502    0 -0.31335478519E+02 -0.49407757503E+02 -0.72300609202E+02  0.93101499486E+02  0.41800000000E+01 0.  1.
         -5    1    3    3    0  502  0.73491114021E+02 -0.26508470588E+02 -0.68690229190E+01  0.78538517485E+02  0.41800000000E+01 0.  1.
        -11    1    1    2    0    0  0.20744730480E+01  0.36150665478E+02 -0.17876116708E+03  0.18239169090E+03  0.00000000000E+00 0. -1.
         11    1    1    2    0    0 -0.44230108550E+02  0.39765562613E+02 -0.47558232136E+02  0.76153712425E+02  0.00000000000E+00 0.  1.
</event>
<event>
 6    1  0.6992302E-006  0.1043591E+03  0.7561462E-02  0.1271388E+00
         -2   -1    0    0    0  501 -0.00000000000E+00  0.00000000000E+00  0.36897888634E+02  0.36897888634E+02  0.00000000000E+00 0.  1.
          2   -1    0    0  501    0  0.00000000000E+00 -0.00000000000E+00 -0.54983542319E+03  0.54983542319E+03  0.00000000000E+00 0. -1.
          5    1    1    2  502    0  0.68769085387E+02 -0.19552307601E+02 -0.29423260133E+03  0.30282301088E+03  0.41800000000E+01 0. -1.
         -5    1    1    2    0  502 -0.18953984520E+02  0.10397532737E+02  0.12605045470E+02  0.25371672935E+02  0.41800000000E+01 0.  1.
        -11    1    1    2    0    0 -0.27196350714E+02 -0.47135013639E+02 -0.12025437420E+03  0.13199418744E+03  0.00000000000E+00 0.  1.
         11    1    1    2    0    0 -0.22618750152E+02  0.56289788503E+02 -0.11105560450E+03  0.12654444057E+03  0.00000000000E+00 0. -1.
</event>
<event>
 7    1  0.6992302E-006  0.1396045E+03  0.7561462E-02  0.1213862E+00
          3   -1    0    0  501    0  0.00000000000E+00  0.00000000000E+00  0.31781172355E+03  0.31781172355E+03  0.00000000000E+00 0. -1.
         -3   -1    0    0    0  501 -0.00000000000E+00 -0.00000000000E+00 -0.95523134394E+02  0.95523134394E+02  0.00000000000E+00 0.  1.
         23    2    1    2    0    0 -0.81057216683E+02  0.74627416590E+02  0.22578911052E+02  0.16821848887E+03  0.12509248214E+03 0.  0.
          5    1    3    3  502    0 -0.85564873614E+02  0.98836461488E+02 -0.51524326227E+01  0.13089695825E+03  0.41800000000E+01 0. -1.
         -5    1    3    3    0  502  0.45076569305E+01 -0.24209044898E+02  0.27731343675E+02  0.37321530621E+02  0.41800000000E+01 0. -1.
        -11    1    1    2    0    0 -0.25688789480E+01 -0.27152659988E+02  0.46860834850E+01  0.27673551667E+02  0.00000000000E+00 0.  1.
         11    1    1    2    0    0  0.83626095631E+02 -0.47474756602E+02  0.19502359462E+03  0.21744281741E+03  0.00000000000E+00 0. -1.
</event>
<event>
 7    1  0.6992302E-006  0.1787542E+03  0.7561462E-02  0.1169014E+00
         -1   -1    0    0    0  501 -0.00000000000E+00  0.00000000000E+00  0.98221575995E+02  0.98221575995E+02  0.00000000000E+00 0.  1.
          1   -1    0    0  501    0  0.00000000000E+00 -0.00000000000E+00 -0.41579952465E+03  0.41579952465E+03  0.00000000000E+00 0. -1.
         23    2    1    2    0    0 -0.24369859896E+02 -0.16723753540E+03 -0.14101374220E+03  0.25316664542E+03  0.12508473745E+03 0.  0.
          5    1    3    3  502    0 -0.16634404499E+02 -0.16305319465E+03 -0.16171638612E+03  0.23028831850E+03  0.41800000000E+01 0.  1.
         -5    1    3    3    0  502 -0.77354553972E+01 -0.41843407580E+01  0.20702643914E+02  0.22878326923E+02  0.41800000000E+01 0.  1.
        -11    1    1    2    0    0 -0.10329488761E+02  0.13816157159E+03 -0.96380398542E+02  0.16877351518E+03  0.00000000000E+00 0. -1.
         11    1    1    2    0    0  0.34699348657E+02  0.29075963813E+02 -0.80183807907E+02  0.92080940044E+02  0.00000000000E+00 0.  1.
</event>
<event>
 7    1  0.6992302E-006  0.1138721E+03  0.7561462E-02  0.1253563E+00
         -1   -1    0    0    0  501 -0.00000000000E+00  0.00000000000E+00  0.17073869129E+03  0.17073869129E+03  0.00000000000E+00 0.  1.
          1   -1    0    0  501    0  0.00000000000E+00 -0.00000000000E+00 -0.11221289870E+03  0.11221289870E+03  0.00000000000E+00 0. -1.
         23    2    1    2    0    0 -0.27429810613E+02  0.71106925302E+02  0.73365345104E+02  0.16383277116E+03  0.12510041449E+03 0.  0.
          5    1    3    3  502    0 -0.18355539884E+02 -0.15883094762E+02 -0.22949365557E+02  0.33665179683E+02  0.41800000000E+01 0.  1.
         -5    1    3    3    0  502 -0.90742707283E+01  0.86990020064E+02  0.96314710661E+02  0.13016759147E+03  0.41800000000E+01 0.  1.
        -11    1    1    2    0    0  0.57537074288E+02 -0.30862714403E+02 -0.20757097695E+02  0.68511890667E+02  0.00000000000E+00 0. -1.
         11    1    1    2    0    0 -0.30107263675E+02 -0.40244210899E+02  0.59175451814E+01  0.50606928161E+02  0.00000000000E+00 0.  1.
</event>
<event>
 7    1  0.6992302E-006  0.1161063E+03  0.7561462E-02  0.1249662E+00
         -1   -1    0    0    0  501 -0.00000000000E+00  0.00000000000E+00  0.95583833018E+02  0.95583833018E+02  0.00000000000E+00 0.  1.
          1   -1    0    0  501    0  0.00000000000E+00 -0.00000000000E+00 -0.14379206030E+03  0.14379206030E+03  0.00000000000E+00 0. -1.
         23    2    1    2    0    0 -0.43876918825E+02  0.95319056162E+00 -0.25419985487E+02  0.13498101979E+03  0.12509039717E+03 0.  0.
          5    1    3    3  502    0 -0.73013118386E+01 -0.59215610813E+02 -0.23952811309E+02  0.64428311231E+02  0.41800000000E+01 0. -1.
         -5    1    3    3    0  502 -0.36575606987E+02  0.60168801375E+02 -0.14671741782E+01  0.70552708562E+02  0.41800000000E+01 0. -1.
        -11    1    1    2    0    0  0.19153169397E+02 -0.46361491622E+02 -0.10405244355E+02  0.51229883012E+02  0.00000000000E+00 0.  1.
         11    1    1    2    0    0  0.24723749428E+02  0.45408301060E+02 -0.12382997443E+02  0.53164990516E+02  0.00000000000E+00 0. -1.
</event>
<event>
 7    1  0.6992302E-006  0.7544723E+02  0.7561462E-02  0.1342492E+00
         -1   -1    0    0    0  501 -0.00000000000E+00  0.00000000000E+00  0.13521742104E+03  0.13521742104E+03  0.00000000000E+00 0.  1.
          1   -1    0    0  501    0  0.00000000000E+00 -0.00000000000E+00 -0.11326493972E+03  0.11326493972E+03  0.00000000000E+00 0. -1.
         23    2    1    2    0    0 -0.51473284903E+01 -0.31785543711E+02  0.64016278891E+02  0.14415864390E+03  0.12508722904E+03 0.  0.
          5    1    3    3  502    0 -0.34130337006E+02 -0.15303059013E+02 -0.27535996630E+02  0.46634397495E+02  0.41800000000E+01 0.  1.
         -5    1    3    3    0  502  0.28983008515E+02 -0.16482484698E+02  0.91552275520E+02  0.97524246408E+02  0.41800000000E+01 0.  1.
        -11    1    1    2    0    0  0.31632503744E+02 -0.72780216921E+01  0.10084766429E+02  0.33989519073E+02  0.00000000000E+00 0.  1.
         11    1    1    2    0    0 -0.26485175254E+02  0.39063565404E+02 -0.52148563998E+02  0.70334197780E+02  0.00000000000E+00 0. -1.
</event>
<event>
 7    1  0.6992302E-006  0.1589193E+03  0.7561462E-02  0.1189922E+00
         -1   -1    0    0    0  501 -0.00000000000E+00  0.00000000000E+00  0.11859731258E+03  0.11859731258E+03  0.00000000000E+00 0.  1.
          1   -1    0    0  501    0  0.00000000000E+00 -0.00000000000E+00 -0.27634033828E+03  0.27634033828E+03  0.00000000000E+00 0. -1.
         23    2    1    2    0    0 -0.13050304470E+03  0.71707506468E+02 -0.68293392984E+02  0.20612170697E+03  0.12509660026E+03 0.  0.
          5    1    3    3  502    0 -0.89360296099E+02  0.42229935865E+01 -0.86930038749E+02  0.12480945569E+03  0.41800000000E+01 0. -1.
         -5    1    3    3    0  502 -0.41142748604E+02  0.67484512882E+02  0.18636645765E+02  0.81312251272E+02  0.41800000000E+01 0. -1.
        -11    1    1    2    0    0  0.85426671992E+02 -0.42432604089E+02 -0.14340894567E+02  0.96456743851E+02  0.00000000000E+00 0.  1.
         11    1    1    2    0    0  0.45076372710E+02 -0.29274902380E+02 -0.75108738147E+02  0.92359200040E+02  0.00000000000E+00 0. -1.
</event>
<event>
 6    1  0.6992302E-006  0.1387886E+03  0.7561462E-02  0.1214968E+00
         -4   -1    0    0    0  501 -0.00000000000E+00  0.00000000000E+00  0.34297146973E+03  0.34297146973E+03  0.00000000000E+00 0.  1.
          4   -1    0    0  501    0  0.00000000000E+00 -0.00000000000E+00 -0.75070387609E+02  0.75070387609E+02  0.00000000000E+00 0. -1.
          5    1    1    2  502    0  0.38603124563E+02  0.71254970690E+02  0.94476287125E+01  0.81695790358E+02  0.41800000000E+01 0. -1.
         -5    1    1    2    0  502 -0.97915325465E+02 -0.41201092320E+02  0.20215499150E+03  0.22840545956E+03  0.41800000000E+01 0.  1.
        -11    1    1    2    0    0  0.36020416698E+02  0.15297238182E+02  0.13569243414E+02  0.41419805431E+02  0.00000000000E+00 0. -1.
         11    1    1    2    0    0  0.23291784204E+02 -0.45351116551E+02  0.42729218490E+02  0.66520801984E+02  0.00000000000E+00 0.  1.
</event>
<event>
 7    1  0.6992302E-006  0.9137079E+02  0.7561462E-02  0.1299566E+00
          1   -1    0    0  501    0  0.00000000000E+00  0.00000000000E+00  0.35229121575E+02  0.35229121575E+02  0.00000000000E+00 0. -1.
         -1   -1    0    0    0  501 -0.00000000000E+00 -0.00000000000E+00 -0.37899362489E+03  0.37899362489E+03  0.00000000000E+00 0.  1.
         23    2    1    2    0    0  0.33163817369E+02  0.20301942404E+02 -0.22522611494E+03  0.26055083826E+03  0.12509168166E+03 0.  0.
          5    1    3    3  502    0  0.34880528267E+02 -0.28183245205E+02 -0.19392520867E+02  0.49035587363E+02  0.41800000000E+01 0. -1.
         -5    1    3    3    0  502 -0.17167108979E+01  0.48485187609E+02 -0.20583359408E+03  0.21151525090E+03  0.41800000000E+01 0. -1.
        -11    1    1    2    0    0 -0.17119676877E+02  0.30914193793E+02 -0.17891159497E+02  0.39608891709E+02  0.00000000000E+00 0. -1.
         11    1    1    2    0    0 -0.16044140492E+02 -0.51216136197E+02 -0.10064722888E+03  0.11406301649E+03  0.00000000000E+00 0.  1.
</event>
<event>
 7    1  0.6992302E-006  0.9148335E+02  0.7561462E-02  0.1299299E+00
         -2   -1    0    0    0  501 -0.00000000000E+00  0.00000000000E+00  0.48771727094E+03  0.48771727094E+03  0.00000000000E+00 0. -1.
          2   -1    0    0  501    0  0.00000000000E+00 -0.00000000000E+00 -0.24883039647E+02  0.24883039647E+02  0.00000000000E+00 0.  1.
         23    2    1    2    0    0 -0.93454714738E+01  0.16465058099E+02  0.25033666206E+03  0.28048682946E+03  0.12508389646E+03 0.  0.
          5    1    3    3  502    0  0.43813721426E+02  0.19812395455E+02  0.20441362930E+03  0.21003470533E+03  0.41800000000E+01 0.  1.
         -5    1    3    3    0  502 -0.53159192900E+02 -0.33473373553E+01  0.45923032766E+02  0.70452124138E+02  0.41800000000E+01 0.  1.
        -11    1    1    2    0    0  0.39812601294E+00 -0.48250081197E+02  0.17773336815E+03  0.18416671521E+03  0.00000000000E+00 0.  1.
         11    1    1    2    0    0  0.89473454609E+01  0.31785023098E+02  0.34764201079E+02  0.47946765906E+02  0.00000000000E+00 0. -1.
</event>
<event>
 7    1  0.6992302E-006  0.2550082E+03  0.7561462E-02  0.1110180E+00
         -1   -1    0    0    0  501 -0.00000000000E+00  0.00000000000E+00  0.11234213900E+03  0.11234213900E+03  0.00000000000E+00 0.  1.
          1   -1    0    0  501    0  0.00000000000E+00 -0.00000000000E+00 -0.73170380006E+03  0.73170380006E+03  0.00000000000E+00 0. -1.
         23    2    1    2    0    0 -0.21037209886E+03 -0.11017303188E+03 -0.14312636656E+03  0.30418173224E+03  0.12508737943E+03 0.  0.
          5    1    3    3  502    0 -0.98641121858E+02 -0.10457714876E+03 -0.12545242102E+03  0.19084609848E+03  0.41800000000E+01 0.  1.
         -5    1    3    3    0  502 -0.11173097700E+03 -0.55958831222E+01 -0.17673945539E+02  0.11333563377E+03  0.41800000000E+01 0.  1.
        -11    1    1    2    0    0  0.42341619386E+02  0.69472485008E+02 -0.14910003799E+03  0.16985305483E+03  0.00000000000E+00 0. -1.
         11    1    1    2    0    0  0.16803047948E+03  0.40700546876E+02 -0.32713525651E+03  0.37001115199E+03  0.00000000000E+00 0.  1.
</event>
<event>
 7    1  0.6992302E-006  0.1064436E+03  0.7561462E-02  0.1267301E+00
         -2   -1    0    0    0  501 -0.00000000000E+00  0.00000000000E+00  0.80902582564E+02  0.80902582564E+02  0.00000000000E+00 0.  1.
          2   -1    0    0  501    0  0.00000000000E+00 -0.00000000000E+00 -0.16504424091E+03  0.16504424091E+03  0.00000000000E+00 0. -1.
         23    2    1    2    0    0 -0.61649444309E+01 -0.33067981796E+01 -0.17484606767E+02  0.12649712983E+03  0.12508745312E+03 0.  0.
          5    1    3    3  502    0  0.54696665709E+02 -0.25178837812E+02 -0.57024957132E+01  0.60627468780E+02  0.41800000000E+01 0.  1.
         -5    1    3    3    0  502 -0.60861610140E+02  0.21872039632E+02 -0.11782111054E+02  0.65869661054E+02  0.41800000000E+01 0.  1.
        -11    1    1    2    0    0  0.12766864735E+02 -0.40991467066E+02 -0.60580947563E+02  0.74251898393E+02  0.00000000000E+00 0. -1.
         11    1    1    2    0    0 -0.66019203041E+01  0.44298265245E+02 -0.60761040192E+01  0.45197795251E+02  0.00000000000E+00 0.  1.
</event>
<event>
 7    1  0.6992302E-006  0.1051984E+03  0.7561462E-02  0.1269729E+00
         -1   -1    0    0    0  501 -0.00000000000E+00  0.00000000000E+00  0.48800050596E+02  0.48800050596E+02  0.00000000000E+00 0.  1.
          1   -1    0    0  501    0  0.00000000000E+00 -0.00000000000E+00 -0.26582360499E+03  0.26582360499E+03  0.00000000000E+00 0. -1.
         23    2    1    2    0    0 -0.59043338657E+01 -0.27241292609E+02 -0.11954470413E+03  0.17525785123E+03  0.12508968363E+03 0.  0.
          5    1    3    3  502    0 -0.27202140404E+02 -0.72615366873E+02 -0.77339877181E+02  0.10959870871E+03  0.41800000000E+01 0. -1.
         -5    1    3    3    0  502  0.21297806538E+02  0.45374074265E+02 -0.42204826944E+02  0.65659142518E+02  0.41800000000E+01 0. -1.
        -11    1    1    2    0    0 -0.15788146842E+02 -0.22897489175E+02 -0.21948918105E+00  0.27813823303E+02  0.00000000000E+00 0.  1.
         11    1    1    2    0    0  0.21692480707E+02  0.50138781784E+02 -0.97259361091E+02  0.11155198106E+03  0.00000000000E+00 0. -1.
</event>
<event>
 7    1  0.6992302E-006  0.9073832E+02  0.7561462E-02  0.1301074E+00
         -2   -1    0    0    0  501 -0.00000000000E+00  0.00000000000E+00  0.55635835669E+03  0.55635835669E+03  0.00000000000E+00 0.  1.
          2   -1    0    0  501    0  0.00000000000E+00 -0.00000000000E+00 -0.22760211338E+02  0.22760211338E+02  0.00000000000E+00 0. -1.
         23    2    1    2    0    0  0.43303704274E+01 -0.22409610959E+02  0.36622362213E+03  0.38767247139E+03  0.12509700594E+03 0.  0.
          5    1    3    3  502    0  0.45718968011E+02 -0.26799319944E+02  0.66942171243E+02  0.85481894435E+02  0.41800000000E+01 0. -1.
         -5    1    3    3    0  502 -0.41388597583E+02  0.43897089851E+01  0.29928145089E+03  0.30219057696E+03  0.41800000000E+01 0. -1.
        -11    1    1    2    0    0  0.26903228162E+01  0.54029989809E+02  0.13594665422E+03  0.14631462821E+03  0.00000000000E+00 0.  1.
         11    1    1    2    0    0 -0.70206932436E+01 -0.31620378850E+02  0.31427869004E+02  0.45131468427E+02  0.00000000000E+00 0. -1.
</event>
<event>
 7    1  0.6992302E-006  0.1040175E+03  0.7561462E-02  0.1272068E+00
         -2   -1    0    0    0  501 -0.00000000000E+00  0.00000000000E+00  0.51919488499E+02  0.51919488499E+02  0.00000000000E+00 0.  1.
          2   -1    0    0  501    0  0.00000000000E+00 -0.00000000000E+00 -0.33513060993E+03  0.33513060993E+03  0.00000000000E+00 0. -1.
         23    2    1    2    0    0 -0.10433735782E+02 -0.13239772832E+01 -0.47785709680E+02  0.13432476366E+03  0.12509617230E+03 0.  0.
          5    1    3    3  502    0  0.26902268752E+02 -0.53128715936E+02 -0.34555412336E+02  0.68977832981E+02  0.41800000000E+01 0. -1.
         -5    1    3    3    0  502 -0.37336004534E+02  0.51804738653E+02 -0.13230297344E+02  0.65346930680E+02  0.41800000000E+01 0. -1.
        -11    1    1    2    0    0 -0.27000355272E+02 -0.26398930708E+02 -0.57405212355E+02  0.68711579321E+02  0.00000000000E+00 0.  1.
         11    1    1    2    0    0  0.37434091055E+02  0.27722907991E+02 -0.17802019939E+03  0.18401375544E+03  0.00000000000E+00 0. -1.
</event>
<event>
 7    1  0.6992302E-006  0.1043639E+03  0.7561462E-02  0.1271378E+00
         -2   -1    0    0    0  501 -0.00000000000E+00  0.00000000000E+00  0.26564427088E+02  0.26564427088E+02  0.00000000000E+00 0. -1.
          2   -1    0    0  501    0  0.00000000000E+00 -0.00000000000E+00 -0.56538155950E+03  0.56538155950E+03  0.00000000000E+00 0.  1.
         23    2    1    2    0    0  0.31857662210E+02  0.43130239435E+02 -0.25403155309E+03  0.28819501330E+03  0.12509679266E+03 0.  0.
          5    1    3    3  502    0 -0.30507847515E+02  0.18602269634E+02 -0.13431428056E+02  0.38401156951E+02  0.41800000000E+01 0. -1.
         -5    1    3    3    0  502  0.62365509725E+02  0.24527969800E+02 -0.24060012503E+03  0.24979385635E+03  0.41800000000E+01 0. -1.
        -11    1    1    2    0    0  0.29051606068E+02  0.29915321736E+01 -0.74930467936E+02  0.80420893460E+02  0.00000000000E+00 0. -1.
         11    1    1    2    0    0 -0.60909268277E+02 -0.46121771608E+02 -0.20985511139E+03  0.22333007982E+03  0.00000000000E+00 0.  1.
</event>
<event>
 6    1  0.6992302E-006  0.1118684E+03  0.7561462E-02  0.1257149E+00
         -1   -1    0    0    0  501 -0.00000000000E+00  0.00000000000E+00  0.57346074740E+03  0.57346074740E+03  0.00000000000E+00 0.  1.
          1   -1    0    0  501    0  0.00000000000E+00 -0.00000000000E+00 -0.51153111432E+02  0.51153111432E+02  0.00000000000E+00 0. -1.
          5    1    1    2  502    0 -0.11823441906E+02  0.59258851480E+02  0.14605179473E+03  0.15811389692E+03  0.41800000000E+01 0. -1.
         -5    1    1    2    0  502  0.52371678727E+02 -0.48776710288E+02  0.36275776483E+03  0.36977375319E+03  0.41800000000E+01 0.  1.
        -11    1    1    2    0    0 -0.64076320522E+02  0.33838874155E+01 -0.40019640217E+01  0.64290289016E+02  0.00000000000E+00 0. -1.
         11    1    1    2    0    0  0.23528083702E+02 -0.13866028607E+02  0.17500040426E+02  0.32435919703E+02  0.00000000000E+00 0.  1.
</event>
<event>
 7    1  0.6992302E-006  0.6554675E+02  0.7561462E-02  0.1375927E+00
         -2   -1    0    0    0  501 -0.00000000000E+00  0.00000000000E+00  0.78701535899E+03  0.78701535899E+03  0.00000000000E+00 0.  1.
          2   -1    0    0  501    0  0.00000000000E+00 -0.00000000000E+00 -0.22753436351E+02  0.22753436351E+02  0.00000000000E+00 0. -1.
         23    2    1    2    0    0 -0.83727741879E+01  0.17063285034E+02  0.65368030847E+03  0.66526443750E+03  0.12213749248E+03 0.  0.
          5    1    3    3  502    0  0.26789759248E+02  0.19689958062E+02  0.47972774785E+02  0.58517050247E+02  0.41800000000E+01 0. -1.
         -5    1    3    3    0  502 -0.35162533436E+02 -0.26266730281E+01  0.60570753369E+03  0.60674738725E+03  0.41800000000E+01 0.  1.
        -11    1    1    2    0    0  0.33199775151E+02 -0.16890658225E+02  0.11354652734E+03  0.11950034843E+03  0.00000000000E+00 0.  1.
         11    1    1    2    0    0 -0.24827000964E+02 -0.17262680946E+00 -0.29649131637E+01  0.25004009417E+02  0.00000000000E+00 0. -1.
</event>
<event>
 7    1  0.6992302E-006  0.1048651E+03  0.7561462E-02  0.1270386E+00
          2   -1    0    0  501    0  0.00000000000E+00  0.00000000000E+00  0.69946366902E+03  0.69946366902E+03  0.00000000000E+00 0. -1.
         -2   -1    0    0    0  501 -0.00000000000E+00 -0.00000000000E+00 -0.21553530379E+02  0.21553530379E+02  0.00000000000E+00 0.  1.
         23    2    1    2    0    0 -0.34496201940E+02 -0.43661322208E+02  0.41223739199E+03  0.43437723301E+03  0.12509042408E+03 0.  0.
          5    1    3    3  502    0 -0.38615717975E+02 -0.74514431938E+02  0.38072135298E+03  0.38988433574E+03  0.41800000000E+01 0.  1.
         -5    1    3    3    0  502  0.41195160347E+01  0.30853109731E+02  0.31516039009E+02  0.44492897267E+02  0.41800000000E+01 0.  1.
        -11    1    1    2    0    0 -0.15373507852E+02  0.41635431165E+02  0.57884931793E+02  0.72941889204E+02  0.00000000000E+00 0.  1.
         11    1    1    2    0    0  0.49869709792E+02  0.20258910424E+01  0.20778781486E+03  0.21369807718E+03  0.00000000000E+00 0. -1.
</event>
<event>
 7    1  0.6992302E-006  0.8899799E+02  0.7561462E-02  0.1305297E+00
         -4   -1    0    0    0  501 -0.00000000000E+00  0.00000000000E+00  0.46850903241E+03  0.46850903241E+03  0.00000000000E+00 0.  1.
          4   -1    0    0  501    0  0.00000000000E+00 -0.00000000000E+00 -0.54381018365E+02  0.54381018365E+02  0.00000000000E+00 0. -1.
         23    2    1    2    0    0  0.17436486209E+02  0.54515233568E+02  0.21714741005E+03  0.25706048396E+03  0.12510456817E+03 0.  0.
          5    1    3    3  502    0  0.50909715702E+02  0.40654553417E+02  0.20997785014E+03  0.21989261428E+03  0.41800000000E+01 0.  1.
         -5    1    3    3    0  502 -0.33473229493E+02  0.13860680151E+02  0.71695599180E+01  0.37167869678E+02  0.41800000000E+01 0.  1.
        -11    1    1    2    0    0 -0.40161512399E+01  0.97738308388E+01 -0.28807294191E+02  0.30684156150E+02  0.00000000000E+00 0. -1.
         11    1    1    2    0    0 -0.13420334969E+02 -0.64289064407E+02  0.22578789818E+03  0.23514541067E+03  0.00000000000E+00 0.  1.
</event>
<event>
 7    1  0.6992302E-006  0.9767926E+02  0.7561462E-02  0.1285253E+00
         -1   -1    0    0    0  501 -0.00000000000E+00  0.00000000000E+00  0.10971361164E+03  0.10971361164E+03  0.00000000000E+00 0.  1.
          1   -1    0    0  501    0  0.00000000000E+00 -0.00000000000E+00 -0.17589940175E+03  0.17589940175E+03  0.00000000000E+00 0. -1.
         23    2    1    2    0    0 -0.43548634751E+02 -0.53979006747E+02  0.18316855256E+02  0.14419271099E+03  0.12508322812E+03 0.  0.
          5    1    3    3  502    0 -0.24710272262E+01 -0.76394750937E+02 -0.24757936896E+02  0.80453040872E+02  0.41800000000E+01 0. -1.
         -5    1    3    3    0  502 -0.41077607525E+02  0.22415744191E+02  0.43074792151E+02  0.63739670116E+02  0.41800000000E+01 0. -1.
        -11    1    1    2    0    0  0.36966203073E+02  0.32028535890E+02  0.48729614776E+01  0.49153565837E+02  0.00000000000E+00 0.  1.
         11    1    1    2    0    0  0.65824316781E+01  0.21950470857E+02 -0.89375606848E+02  0.92266736569E+02  0.00000000000E+00 0. -1.
</event>
<event>
 7    1  0.6992302E-006  0.9713093E+02  0.7561462E-02  0.1286448E+00
          4   -1    0    0  501    0  0.00000000000E+00  0.00000000000E+00  0.93686524567E+02  0.93686524567E+02  0.00000000000E+00 0.  1.
         -4   -1    0    0    0  501 -0.00000000000E+00 -0.00000000000E+00 -0.17523993511E+03  0.17523993511E+03  0.00000000000E+00 0. -1.
         23    2    1    2    0    0 -0.18779506523E+01  0.33036163218E+02 -0.10818322009E+03  0.16866064888E+03  0.12509152887E+03 0.  0.
          5    1    3    3  502    0  0.56660230470E+02  0.54719242214E+01 -0.22830983895E+02  0.61473977399E+02  0.41800000000E+01 0.  1.
         -5    1    3    3    0  502 -0.58538181122E+02  0.27564238997E+02 -0.85352236190E+02  0.10718667148E+03  0.41800000000E+01 0.  1.
        -11    1    1    2    0    0 -0.23156618850E+02  0.78107338804E+01 -0.21358666990E+02  0.32456574310E+02  0.00000000000E+00 0. -1.
         11    1    1    2    0    0  0.25034569503E+02 -0.40846897098E+02  0.47988476534E+02  0.67809236486E+02  0.00000000000E+00 0.  1.
</event>
<event>
 7    1  0.6992302E-006  0.1076405E+03  0.7561462E-02  0.1265003E+00
          2   -1    0    0  501    0  0.00000000000E+00  0.00000000000E+00  0.21800202194E+03  0.21800202194E+03  0.00000000000E+00 0. -1.
         -2   -1    0    0    0  501 -0.00000000000E+00 -0.00000000000E+00 -0.12620501449E+03  0.12620501449E+03  0.00000000000E+00 0.  1.
         23    2    1    2    0    0 -0.12443201934E+02 -0.21249234170E+02 -0.80277040788E+02  0.14622653026E+03  0.11971395761E+03 0.  0.
          5    1    3    3  502    0 -0.61617306187E+02 -0.33092018079E+02 -0.35505814347E+02  0.78548770422E+02  0.41800000000E+01 0. -1.
         -5    1    3    3    0  502  0.49174104253E+02  0.11842783908E+02 -0.44771226441E+02  0.67677759839E+02  0.41800000000E+01 0.  1.
        -11    1    1    2    0    0  0.17878444290E+02  0.56259974309E+02  0.80769269272E+02  0.10004248267E+03  0.00000000000E+00 0. -1.
         11    1    1    2    0    0 -0.54352423553E+01 -0.35010740138E+02  0.91304778972E+02  0.97938023502E+02  0.00000000000E+00 0.  1.
</event>
<event>
 7    1  0.6992302E-006  0.1132195E+03  0.7561462E-02  0.1254721E+00
          1   -1    0    0  501    0  0.00000000000E+00  0.00000000000E+00  0.73176120311E+03  0.73176120311E+03  0.00000000000E+00 0. -1.
         -1   -1    0    0    0  501 -0.00000000000E+00 -0.00000000000E+00 -0.21050330655E+02  0.21050330655E+02  0.00000000000E+00 0.  1.
         23    2    1    2    0    0  0.11054964369E+02 -0.86595236023E+02  0.46406587524E+03  0.48849358030E+03  0.12509154365E+03 0.  0.
          5    1    3    3  502    0 -0.42934558417E+02 -0.50358504863E+02  0.35741762760E+03  0.36351642087E+03  0.41800000000E+01 0. -1.
         -5    1    3    3    0  502  0.53989522786E+02 -0.36236731160E+02  0.10664824763E+03  0.12497715943E+03  0.41800000000E+01 0. -1.
        -11    1    1    2    0    0 -0.24041980918E+02  0.69251777682E+02  0.19404396264E+03  0.20742922889E+03  0.00000000000E+00 0. -1.
         11    1    1    2    0    0  0.12987016549E+02  0.17343458341E+02  0.52601034571E+02  0.56888724577E+02  0.00000000000E+00 0.  1.
</event>
<event>
 7    1  0.6992302E-006  0.7108708E+02  0.7561462E-02  0.1356435E+00
          1   -1    0    0  501    0  0.00000000000E+00  0.00000000000E+00  0.13745594436E+03  0.13745594436E+03  0.00000000000E+00 0. -1.
         -1   -1    0    0    0  501 -0.00000000000E+00 -0.00000000000E+00 -0.83848715811E+02  0.83848715811E+02  0.00000000000E+00 0.  1.
         23    2    1    2    0    0  0.48703309932E+01 -0.37290888028E+02  0.43361483670E+02  0.13754625694E+03  0.12499769629E+03 0.  0.
          5    1    3    3  502    0 -0.76485701130E+01 -0.66337673261E+02 -0.17210143137E+02  0.69085808566E+02  0.41800000000E+01 0. -1.
         -5    1    3    3    0  502  0.12518901106E+02  0.29046785233E+02  0.60571626807E+02  0.68460448373E+02  0.41800000000E+01 0. -1.
        -11    1    1    2    0    0  0.58292086563E+01  0.29640648197E+02 -0.29299334449E+02  0.42083235359E+02  0.00000000000E+00 0.  1.
         11    1    1    2    0    0 -0.10699539649E+02  0.76502398308E+01  0.39545079329E+02  0.41675167874E+02  0.00000000000E+00 0. -1.
</event>
<event>
 7    1  0.6992302E-006  0.1121607E+03  0.7561462E-02  0.1256620E+00
         -2   -1    0    0    0  501 -0.00000000000E+00  0.00000000000E+00  0.27557664477E+03  0.27557664477E+03  0.00000000000E+00 0.  1.
          2   -1    0    0  501    0  0.00000000000E+00 -0.00000000000E+00 -0.60027955932E+02  0.60027955932E+02  0.00000000000E+00 0. -1.
         23    2    1    2    0    0  0.49573443088E+02  0.10148038063E+02  0.19203361108E+03  0.23470335698E+03  0.12509296166E+03 0.  0.
          5    1    3    3  502    0  0.63739037553E+01 -0.50816682545E+02  0.12127628389E+03  0.13171321615E+03  0.41800000000E+01 0. -1.
         -5    1    3    3    0  502  0.43199539333E+02  0.60964720608E+02  0.70757327184E+02  0.10299014083E+03  0.41800000000E+01 0. -1.
        -11    1    1    2    0    0 -0.72798859009E+02 -0.15111411326E+02  0.18741638079E+02  0.76676447643E+02  0.00000000000E+00 0. -1.
         11    1    1    2    0    0  0.23225415921E+02  0.49633732634E+01  0.47734396850E+01  0.24224796083E+02  0.00000000000E+00 0.  1.
</event>
<event>
 7    1  0.6992302E-006  0.1774431E+03  0.7561462E-02  0.1170301E+00
         -1   -1    0    0    0  501 -0.00000000000E+00  0.00000000000E+00  0.14906989623E+03  0.14906989623E+03  0.00000000000E+00 0.  1.
          1   -1    0    0  501    0  0.00000000000E+00 -0.00000000000E+00 -0.26863548685E+03  0.26863548685E+03  0.00000000000E+00 0. -1.
         23    2    1    2    0    0 -0.15308696611E+03 -0.38677688489E+02 -0.38999487988E+01  0.20147918075E+03  0.12508824045E+03 0.  0.
          5    1    3    3  502    0 -0.12791111888E+03  0.15646149965E+02 -0.35388699875E+02  0.13370074353E+03  0.41800000000E+01 0.  1.
         -5    1    3    3    0  502 -0.25175847224E+02 -0.54323838453E+02  0.31488751076E+02  0.67778437221E+02  0.41800000000E+01 0.  1.
        -11    1    1    2    0    0  0.13088980823E+03  0.51084003702E+02 -0.55793056910E+02  0.15117732148E+03  0.00000000000E+00 0.  1.
         11    1    1    2    0    0  0.22197157881E+02 -0.12406315213E+02 -0.59872584914E+02  0.65048880847E+02  0.00000000000E+00 0. -1.
</event>
<event>
 7    1  0.6992302E-006  0.1016124E+03  0.7561462E-02  0.1276941E+00
          1   -1    0    0  501    0  0.00000000000E+00  0.00000000000E+00  0.20113185214E+03  0.20113185214E+03  0.00000000000E+00 0. -1.
         -1   -1    0    0    0  501 -0.00000000000E+00 -0.00000000000E+00 -0.58803798832E+02  0.58803798832E+02  0.00000000000E+00 0.  1.
         23    2    1    2    0    0 -0.39129689770E+02  0.90352831353E+01  0.73072516113E+02  0.15034163342E+03  0.12510093990E+03 0.  0.
          5    1    3    3  502    0  0.14944076012E+02  0.56909272430E+02  0.30567756140E+02  0.66436818195E+02  0.41800000000E+01 0.  1.
         -5    1    3    3    0  502 -0.54073765782E+02 -0.47873989295E+02  0.42504759973E+02  0.83904815221E+02  0.41800000000E+01 0.  1.
        -11    1    1    2    0    0  0.10095658678E+02 -0.32836196805E+02  0.62684333875E+02  0.71480513835E+02  0.00000000000E+00 0. -1.
         11    1    1    2    0    0  0.29034031092E+02  0.23800913670E+02  0.65712033223E+01  0.38113503723E+02  0.00000000000E+00 0.  1.
</event>
<event>
 7    1  0.6992302E-006  0.1589367E+03  0.7561462E-02  0.1189903E+00
          1   -1    0    0  501    0  0.00000000000E+00  0.00000000000E+00  0.24866165817E+03  0.24866165817E+03  0.00000000000E+00 0. -1.
         -1   -1    0    0    0  501 -0.00000000000E+00 -0.00000000000E+00 -0.13337325285E+03  0.13337325285E+03  0.00000000000E+00 0.  1.
         23    2    1    2    0    0 -0.74282282196E+02  0.12239456015E+03  0.38994076228E+02  0.19408395939E+03  0.12509899883E+03 0.  0.
          5    1    3    3  502    0  0.35161885702E+01  0.55311035346E+02 -0.36533231718E+02  0.66511830773E+02  0.41800000000E+01 0.  1.
         -5    1    3    3    0  502 -0.77798470766E+02  0.67083524805E+02  0.75527307946E+02  0.12757212861E+03  0.41800000000E+01 0.  1.
        -11    1    1    2    0    0  0.63913082930E+02 -0.37801525659E+02  0.10512162279E+01  0.74262659307E+02  0.00000000000E+00 0.  1.
         11    1    1    2    0    0  0.10369199265E+02 -0.84593034491E+02  0.75243112863E+02  0.11368829232E+03  0.00000000000E+00 0. -1.
</event>
<event>
 7    1  0.6992302E-006  0.1138284E+03  0.7561462E-02  0.1253640E+00
          3   -1    0    0  501    0  0.00000000000E+00  0.00000000000E+00  0.12057688651E+03  0.12057688651E+03  0.00000000000E+00 0. -1.
         -3   -1    0    0    0  501 -0.00000000000E+00 -0.00000000000E+00 -0.14063122025E+03  0.14063122025E+03  0.00000000000E+00 0.  1.
         23    2    1    2    0    0  0.26578193450E+02  0.50010499041E+02 -0.39490034824E+02  0.14287971128E+03  0.12509076170E+03 0.  0.
          5    1    3    3  502    0  0.74113628751E+02  0.35499174704E+02 -0.43072230365E+02  0.92874704845E+02  0.41800000000E+01 0. -1.
         -5    1    3    3    0  502 -0.47535435301E+02  0.14511324337E+02  0.35821955407E+01  0.50005006431E+02  0.41800000000E+01 0. -1.
        -11    1    1    2    0    0  0.26684277517E+02 -0.86165857668E+01 -0.24987208974E+02  0.37558711761E+02  0.00000000000E+00 0.  1.
         11    1    1    2    0    0 -0.53262470967E+02 -0.41393913274E+02  0.44422910060E+02  0.80769683718E+02  0.00000000000E+00 0. -1.
</event>
<event>
 7    1  0.6992302E-006  0.9985440E+02  0.7561462E-02  0.1280602E+00
          2   -1    0    0  501    0  0.00000000000E+00  0.00000000000E+00  0.16803578554E+03  0.16803578554E+03  0.00000000000E+00 0. -1.
         -2   -1    0    0    0  501 -0.00000000000E+00 -0.00000000000E+00 -0.13069394408E+03  0.13069394408E+03  0.00000000000E+00 0.  1.
         23    2    1    2    0    0  0.36274150651E+02 -0.77665830811E+02 -0.33404784198E+02  0.15528391641E+03  0.12509764109E+03 0.  0.
          5    1    3    3  502    0 -0.54600528846E+01 -0.47013300115E+02 -0.74965891048E+02  0.88754829647E+02  0.41800000000E+01 0. -1.
         -5    1    3    3    0  502  0.41734203536E+02 -0.30652530697E+02  0.41561106850E+02  0.66529086762E+02  0.41800000000E+01 0. -1.
        -11    1    1    2    0    0 -0.23345547851E+02  0.19424481777E+01  0.61820010515E+02  0.66109767882E+02  0.00000000000E+00 0.  1.
         11    1    1    2    0    0 -0.12928602800E+02  0.75723382633E+02  0.89266151439E+01  0.77336045320E+02  0.00000000000E+00 0. -1.
</event>
<event>
 7    1  0.6992302E-006  0.1906930E+03  0.7561462E-02  0.1157838E+00
          1   -1    0    0  501    0  0.00000000000E+00  0.00000000000E+00  0.15737371999E+03  0.15737371999E+03  0.00000000000E+00 0. -1.
         -1   -1    0    0    0  501 -0.00000000000E+00 -0.00000000000E+00 -0.25517014780E+03  0.25517014780E+03  0.00000000000E+00 0.  1.
         23    2    1    2    0    0  0.13845014950E+03  0.84658208059E+02 -0.90488588303E+02  0.22399214068E+03  0.12509531719E+03 0.  0.
          5    1    3    3  502    0  0.49998196876E+01 -0.28104181772E+02 -0.44234072808E+01  0.29187020436E+02  0.41800000000E+01 0.  1.
         -5    1    3    3    0  502  0.13345032981E+03  0.11276238983E+03 -0.86065181022E+02  0.19480512024E+03  0.41800000000E+01 0.  1.
        -11    1    1    2    0    0 -0.36851580732E+02 -0.64365769386E+02 -0.33959316549E+02  0.81573442073E+02  0.00000000000E+00 0.  1.
         11    1    1    2    0    0 -0.10159856877E+03 -0.20292438673E+02  0.26651477047E+02  0.10697828505E+03  0.00000000000E+00 0. -1.
</event>
<event>
 7    1  0.6992302E-006  0.1293868E+03  0.7561462E-02  0.1228368E+00
          2   -1    0    0  501    0  0.00000000000E+00  0.00000000000E+00  0.12163890026E+03  0.12163890026E+03  0.00000000000E+00 0. -1.
         -2   -1    0    0    0  501 -0.00000000000E+00 -0.00000000000E+00 -0.20009110658E+03  0.20009110658E+03  0.00000000000E+00 0.  1.
         23    2    1    2    0    0 -0.79762336809E+02 -0.67762889175E+02 -0.77811274143E+02  0.18071164771E+03  0.12509302822E+03 0.  0.
          5    1    3    3  502    0 -0.26678416132E+02 -0.81699531866E+02 -0.79725005695E+00  0.86050330633E+02  0.41800000000E+01 0. -1.
         -5    1    3    3    0  502 -0.53083920677E+02  0.13936642691E+02 -0.77014024086E+02  0.94661317072E+02  0.41800000000E+01 0. -1.
        -11    1    1    2    0    0  0.28301304325E+02 -0.48214943554E+01  0.34913722322E+02  0.45201533610E+02  0.00000000000E+00 0. -1.
         11    1    1    2    0    0  0.51461032484E+02  0.72584383531E+02 -0.35554654496E+02  0.95816825522E+02  0.00000000000E+00 0.  1.
</event>
<event>
 7    1  0.6992302E-006  0.1288206E+03  0.7561462E-02  0.1229216E+00
          2   -1    0    0  501    0  0.00000000000E+00  0.00000000000E+00  0.58918596589E+03  0.58918596589E+03  0.00000000000E+00 0. -1.
         -2   -1    0    0    0  501 -0.00000000000E+00 -0.00000000000E+00 -0.30739951072E+02  0.30739951072E+02  0.00000000000E+00 0.  1.
         23    2    1    2    0    0  0.11553434433E+02  0.75444015833E+02  0.25411295078E+03  0.29334324808E+03  0.12510630708E+03 0.  0.
          5    1    3    3  502    0  0.48924988333E+02 -0.67239416780E+01  0.51405416977E+02  0.71406268420E+02  0.41800000000E+01 0.  1.
         -5    1    3    3    0  502 -0.37371553900E+02  0.82167957511E+02  0.20270753380E+03  0.22193697966E+03  0.41800000000E+01 0.  1.
        -11    1    1    2    0    0 -0.46422196745E+02 -0.16570498787E+02  0.14603363006E+03  0.15412794324E+03  0.00000000000E+00 0. -1.
         11    1    1    2    0    0  0.34868762312E+02 -0.58873517046E+02  0.15829943399E+03  0.17245472564E+03  0.00000000000E+00 0.  1.
</event>
<event>
 7    1  0.6992302E-006  0.7210210E+02  0.7561462E-02  0.1353087E+00
          2   -1    0    0  501    0  0.00000000000E+00  0.00000000000E+00  0.69938026346E+02  0.69938026346E+02  0.00000000000E+00 0. -1.
         -2   -1    0    0    0  501 -0.00000000000E+00 -0.00000000000E+00 -0.18555199559E+03  0.18555199559E+03  0.00000000000E+00 0.  1.
         23    2    1    2    0    0  0.82278861072E+01  0.93517078593E+01 -0.10073740775E+03  0.16109281906E+03  0.12509084092E+03 0.  0.
          5    1    3    3  502    0 -0.33957703734E+02 -0.21675228281E+02  0.71190281240E+01  0.41122914845E+02  0.41800000000E+01 0.  1.
         -5    1    3    3    0  502  0.42185589841E+02  0.31026936140E+02 -0.10785643588E+03  0.11996990421E+03  0.41800000000E+01 0.  1.
        -11    1    1    2    0    0  0.13561998999E+02 -0.22095620735E+02 -0.46919357858E+02  0.53605693861E+02  0.00000000000E+00 0.  1.
         11    1    1    2    0    0 -0.21789885106E+02  0.12743912876E+02  0.32042796372E+02  0.40791509014E+02  0.00000000000E+00 0. -1.
</event>
<event>
 6    1  0.6992302E-006  0.1007286E+03  0.7561462E-02  0.1278771E+00
          2   -1    0    0  501    0  0.00000000000E+00  0.00000000000E+00  0.47000727513E+03  0.47000727513E+03  0.00000000000E+00 0. -1.
         -2   -1    0    0    0  501 -0.00000000000E+00 -0.00000000000E+00 -0.84829292932E+02  0.84829292932E+02  0.00000000000E+00 0.  1.
          5    1    1    2  502    0 -0.24454342497E+02 -0.35958848001E+02  0.16073670242E+03  0.16656774454E+03  0.41800000000E+01 0. -1.
         -5    1    1    2    0  502  0.58073580783E+02  0.30890955337E+01 -0.61837309497E+02  0.84990637967E+02  0.41800000000E+01 0.  1.
        -11    1    1    2    0    0  0.95467368946E+00 -0.28772687288E+02  0.68010991279E+02  0.73853055931E+02  0.00000000000E+00 0.  1.
         11    1    1    2    0    0 -0.34573911976E+02  0.61642439755E+02  0.21826759800E+03  0.22942512963E+03  0.00000000000E+00 0. -1.
</event>
<event>
 7    1  0.6992302E-006  0.1021560E+03  0.7561462E-02  0.1275826E+00
         -1   -1    0    0    0  501 -0.00000000000E+00  0.00000000000E+00  0.46278365391E+03  0.46278365391E+03  0.00000000000E+00 0.  1.
          1   -1    0    0  501    0  0.00000000000E+00 -0.00000000000E+00 -0.33475203993E+02  0.33475203993E+02  0.00000000000E+00 0. -1.
         23    2    1    2    0    0  0.33429957995E+02 -0.46405938663E+02  0.29132862155E+03  0.32216648145E+03  0.12509117795E+03 0.  0.
          5    1    3    3  502    0 -0.26532619423E+02 -0.12945169809E+02  0.22376643055E+03  0.22574420293E+03  0.41800000000E+01 0. -1.
         -5    1    3    3    0  502  0.59962577418E+02 -0.33460768853E+02  0.67562190998E+02  0.96422278522E+02  0.41800000000E+01 0. -1.
        -11    1    1    2    0    0  0.30447064598E+02  0.93317468240E+01  0.49219191965E+02  0.58622812105E+02  0.00000000000E+00 0. -1.
         11    1    1    2    0    0 -0.63877022594E+02  0.37074191838E+02  0.88760636409E+02  0.11546956435E+03  0.00000000000E+00 0.  1.
</event>
<event>
 7    1  0.6992302E-006  0.1055669E+03  0.7561462E-02  0.1269007E+00
          3   -1    0    0  501    0  0.00000000000E+00  0.00000000000E+00  0.17125155043E+03  0.17125155043E+03  0.00000000000E+00 0. -1.
         -3   -1    0    0    0  501 -0.00000000000E+00 -0.00000000000E+00 -0.85379822615E+02  0.85379822615E+02  0.00000000000E+00 0.  1.
         23    2    1    2    0    0  0.25544966093E+02 -0.44821909250E+02  0.28948195715E+02  0.13837151509E+03  0.12508848592E+03 0.  0.
          5    1    3    3  502    0 -0.38061994862E+02  0.17588030579E+02  0.25170010667E+02  0.49082136359E+02  0.41800000000E+01 0.  1.
         -5    1    3    3    0  502  0.63606960955E+02 -0.62409939829E+02  0.37781850474E+01  0.89289378728E+02  0.41800000000E+01 0.  1.
        -11    1    1    2    0    0 -0.44223477242E+02  0.19525291769E+02 -0.52103766768E+01  0.48622021586E+02  0.00000000000E+00 0.  1.
         11    1    1    2    0    0  0.18678511149E+02  0.25296617481E+02  0.62133908778E+02  0.69637836373E+02  0.00000000000E+00 0. -1.
</event>
<event>
 7    1  0.6992302E-006  0.1445515E+03  0.7561462E-02  0.1207333E+00
         -2   -1    0    0    0  501 -0.00000000000E+00  0.00000000000E+00  0.81868114168E+03  0.81868114168E+03  0.00000000000E+00 0.  1.
          2   -1    0    0  501    0  0.00000000000E+00 -0.00000000000E+00 -0.32549658056E+02  0.32549658056E+02  0.00000000000E+00 0. -1.
         23    2    1    2    0    0 -0.11220927643E+03 -0.28835891794E+02  0.50177639127E+03  0.52995220791E+03  0.12508942985E+03 0.  0.
          5    1    3    3  502    0 -0.10395036776E+03  0.22774112135E+02  0.41603154386E+03  0.42944622134E+03  0.41800000000E+01 0.  1.
         -5    1    3    3    0  502 -0.82589086696E+01 -0.51610003930E+02  0.85744847414E+02  0.10050598657E+03  0.41800000000E+01 0.  1.
        -11    1    1    2    0    0  0.44518350759E+02 -0.17827349392E+02  0.19078596294E+03  0.19672056729E+03  0.00000000000E+00 0.  1.
         11    1    1    2    0    0  0.67690925675E+02  0.46663241187E+02  0.93569129418E+02  0.12455802454E+03  0.00000000000E+00 0. -1.
</event>
<event>
 7    1  0.6992302E-006  0.1413855E+03  0.7561462E-02  0.1211477E+00
          2   -1    0    0  501    0  0.00000000000E+00  0.00000000000E+00  0.99468827278E+02  0.99468827278E+02  0.00000000000E+00 0.  1.
         -2   -1    0    0    0  501 -0.00000000000E+00 -0.00000000000E+00 -0.28126240948E+03  0.28126240948E+03  0.00000000000E+00 0. -1.
         23    2    1    2    0    0 -0.10425993220E+03 -0.52817713478E+02 -0.15109829217E+03  0.22834863853E+03  0.12511020144E+03 0.  0.
          5    1    3    3  502    0 -0.75635163596E+02 -0.90381693510E+02 -0.13260566406E+03  0.17745777818E+03  0.41800000000E+01 0.  1.
         -5    1    3    3    0  502 -0.28624768601E+02  0.37563980032E+02 -0.18492628110E+02  0.50890860356E+02  0.41800000000E+01 0.  1.
        -11    1    1    2    0    0  0.60161555895E+02  0.24117134096E+02  0.30537810997E+02  0.71649193054E+02  0.00000000000E+00 0.  1.
         11    1    1    2    0    0  0.44098376302E+02  0.28700579382E+02 -0.61233101024E+02  0.80733405170E+02  0.00000000000E+00 0. -1.
</event>
<event>
 7    1  0.6992302E-006  0.9933161E+02  0.7561462E-02  0.1281708E+00
         -2   -1    0    0    0  501 -0.00000000000E+00  0.00000000000E+00  0.16208154368E+03  0.16208154368E+03  0.00000000000E+00 0.  1.
          2   -1    0    0  501    0  0.00000000000E+00 -0.00000000000E+00 -0.87749573102E+02  0.87749573102E+02  0.00000000000E+00 0. -1.
         23    2    1    2    0    0  0.97535296364E+01 -0.85030792328E+01  0.88467086296E+02  0.15375923038E+03  0.12509213354E+03 0.  0.
          5    1    3    3  502    0 -0.43231119300E+02 -0.25401290748E+02  0.83862571258E+02  0.97798560856E+02  0.41800000000E+01 0. -1.
         -5    1    3    3    0  502  0.52984648936E+02  0.16898211515E+02  0.46045150386E+01  0.55960669528E+02  0.41800000000E+01 0. -1.
        -11    1    1    2    0    0 -0.22561388245E+02  0.46930180873E+02  0.28497379917E+01  0.52149584111E+02  0.00000000000E+00 0.  1.
         11    1    1    2    0    0  0.12807858608E+02 -0.38427101640E+02 -0.16984853710E+02  0.43922302287E+02  0.00000000000E+00 0. -1.
</event>
<event>
 6    1  0.6992302E-006  0.9401310E+02  0.7561462E-02  0.1293414E+00
          2   -1    0    0  501    0  0.00000000000E+00  0.00000000000E+00  0.24557281720E+03  0.24557281720E+03  0.00000000000E+00 0. -1.
         -2   -1    0    0    0  501 -0.00000000000E+00 -0.00000000000E+00 -0.77623645825E+02  0.77623645825E+02  0.00000000000E+00 0.  1.
          5    1    1    2  502    0  0.37181043215E+02  0.53496463377E+02  0.12046427009E+03  0.13701610977E+03  0.41800000000E+01 0. -1.
         -5    1    1    2    0  502 -0.68349401968E+01  0.43036486037E+01 -0.40996040614E+02  0.41992684421E+02  0.41800000000E+01 0.  1.
        -11    1    1    2    0    0  0.21421702201E+02 -0.58054859130E+02  0.52395321753E+02  0.81083449208E+02  0.00000000000E+00 0.  1.
         11    1    1    2    0    0 -0.51767805219E+02  0.25474714908E+00  0.36085620145E+02  0.63104219626E+02  0.00000000000E+00 0. -1.
</event>
<event>
 7    1  0.6992302E-006  0.1246063E+03  0.7561462E-02  0.1235686E+00
         -2   -1    0    0    0  501 -0.00000000000E+00  0.00000000000E+00  0.73613994252E+02  0.73613994252E+02  0.00000000000E+00 0.  1.
          2   -1    0    0  501    0  0.00000000000E+00 -0.00000000000E+00 -0.27507892508E+03  0.27507892508E+03  0.00000000000E+00 0. -1.
         23    2    1    2    0    0 -0.11630006174E+02 -0.90472098228E+02 -0.95692851211E+02  0.18200260802E+03  0.12508944780E+03 0.  0.
          5    1    3    3  502    0  0.13947924007E+02  0.19126806364E+02 -0.58748382166E+02  0.63476169646E+02  0.41800000000E+01 0.  1.
         -5    1    3    3    0  502 -0.25577930181E+02 -0.10959890459E+03 -0.36944469045E+02  0.11852643837E+03  0.41800000000E+01 0.  1.
        -11    1    1    2    0    0  0.34405183042E+02  0.23114704686E+02 -0.27852122729E+01  0.41542310964E+02  0.00000000000E+00 0.  1.
         11    1    1    2    0    0 -0.22775176868E+02  0.67357393543E+02 -0.10298686734E+03  0.12514800035E+03  0.00000000000E+00 0. -1.
</event>
<event>
 7    1  0.7196054E-006  0.2211226E+03  0.7561462E-02  0.1133049E+00
          1   -1    0    0  501    0  0.00000000000E+00  0.00000000000E+00  0.18638895452E+04  0.18638895452E+04  0.00000000000E+00 0. -1.
         -1   -1    0    0    0  501 -0.00000000000E+00 -0.00000000000E+00 -0.27411986127E+02  0.27411986127E+02  0.00000000000E+00 0.  1.
         23    2    1    2    0    0  0.69525235805E+02  0.18414517216E+03  0.86235700195E+03  0.89333617826E+03  0.12508687270E+03 0.  0.
          5    1    3    3  502    0  0.10288211682E+03  0.10808231032E+03  0.58795838112E+03  0.60661276453E+03  0.41800000000E+01 0. -1.
         -5    1    3    3    0  502 -0.33356881016E+02  0.76062861838E+02  0.27439862083E+03  0.28672341372E+03  0.41800000000E+01 0. -1.
        -11    1    1    2    0    0 -0.84094585478E+02 -0.13996125542E+03  0.84708828123E+03  0.86268163799E+03  0.00000000000E+00 0. -1.
         11    1    1    2    0    0  0.14569349673E+02 -0.44183916738E+02  0.12703227590E+03  0.13528371509E+03  0.00000000000E+00 0.  1.
</event>
<event>
 7    1  0.6992302E-006  0.1716349E+03  0.7561462E-02  0.1176154E+00
          2   -1    0    0  501    0  0.00000000000E+00  0.00000000000E+00  0.77130283672E+03  0.77130283672E+03  0.00000000000E+00 0.  1.
         -2   -1    0    0    0  501 -0.00000000000E+00 -0.00000000000E+00 -0.50448640847E+02  0.50448640847E+02  0.00000000000E+00 0. -1.
         23    2    1    2    0    0 -0.20116683537E+02  0.16118074093E+03  0.29461725535E+03  0.35889569580E+03  0.12499152413E+03 0.  0.
          5    1    3    3  502    0 -0.33071580710E+02  0.78164859475E+02  0.24920884216E+03  0.26329829874E+03  0.41800000000E+01 0.  1.
         -5    1    3    3    0  502  0.12954897173E+02  0.83015881460E+02  0.45408413187E+02  0.95597397054E+02  0.41800000000E+01 0.  1.
        -11    1    1    2    0    0 -0.14167723187E+02 -0.11887084975E+03  0.34389137634E+03  0.36413223151E+03  0.00000000000E+00 0.  1.
         11    1    1    2    0    0  0.34284406724E+02 -0.42309891184E+02  0.82345564181E+02  0.98723550264E+02  0.00000000000E+00 0. -1.
</event>
<event>
 7    1  0.6992302E-006  0.1273130E+03  0.7561462E-02  0.1231498E+00
         -1   -1    0    0    0  501 -0.00000000000E+00  0.00000000000E+00  0.51410913255E+02  0.51410913255E+02  0.00000000000E+00 0.  1.
          1   -1    0    0  501    0  0.00000000000E+00 -0.00000000000E+00 -0.49796804388E+03  0.49796804388E+03  0.00000000000E+00 0. -1.
         23    2    1    2    0    0 -0.77040267337E+02  0.86757704979E+02 -0.23028867069E+03  0.28660245037E+03  0.12508393399E+03 0.  0.
          5    1    3    3  502    0  0.89937736092E+01  0.20549170257E+01 -0.12773947405E+03  0.12814037724E+03  0.41800000000E+01 0. -1.
         -5    1    3    3    0  502 -0.86034040946E+02  0.84702787953E+02 -0.10254919664E+03  0.15846207313E+03  0.41800000000E+01 0. -1.
        -11    1    1    2    0    0  0.42800051253E+02 -0.76988849174E+02 -0.70795753493E+02  0.11300958365E+03  0.00000000000E+00 0.  1.
         11    1    1    2    0    0  0.34240216084E+02 -0.97688558048E+01 -0.14547270644E+03  0.14976692312E+03  0.00000000000E+00 0. -1.
</event>
<event>
 7    1  0.6992302E-006  0.1140679E+03  0.7561462E-02  0.1253217E+00
          2   -1    0    0  501    0  0.00000000000E+00  0.00000000000E+00  0.10860971483E+03  0.10860971483E+03  0.00000000000E+00 0. -1.
         -2   -1    0    0    0  501 -0.00000000000E+00 -0.00000000000E+00 -0.12129208388E+03  0.12129208388E+03  0.00000000000E+00 0.  1.
         23    2    1    2    0    0  0.36136300327E+02 -0.72981951051E+01 -0.12796037245E+02  0.13103500470E+03  0.12508932022E+03 0.  0.
          5    1    3    3  502    0  0.70829685553E+02  0.31863217375E+02 -0.10659738308E+02  0.78506123315E+02  0.41800000000E+01 0.  1.
         -5    1    3    3    0  502 -0.34693385226E+02 -0.39161412480E+02 -0.21362989369E+01  0.52528881380E+02  0.41800000000E+01 0.  1.
        -11    1    1    2    0    0 -0.14547813621E+02 -0.41787776062E+02  0.70170014605E+01  0.44800618510E+02  0.00000000000E+00 0.  1.
         11    1    1    2    0    0 -0.21588486707E+02  0.49085971167E+02 -0.69033332688E+01  0.54066175507E+02  0.00000000000E+00 0. -1.
</event>
<event>
 7    1  0.6992302E-006  0.8201675E+02  0.7561462E-02  0.1323424E+00
          1   -1    0    0  501    0  0.00000000000E+00  0.00000000000E+00  0.78435038232E+02  0.78435038232E+02  0.00000000000E+00 0. -1.
         -1   -1    0    0    0  501 -0.00000000000E+00 -0.00000000000E+00 -0.12886266039E+03  0.12886266039E+03  0.00000000000E+00 0.  1.
         23    2    1    2    0    0  0.23897761122E+02 -0.39116046150E+02 -0.62052361448E+02  0.14700835442E+03  0.12513909323E+03 0.  0.
          5    1    3    3  502    0  0.62790354539E+02 -0.22733045397E+02  0.56204526108E+01  0.67145229642E+02  0.41800000000E+01 0.  1.
         -5    1    3    3    0  502 -0.38892593417E+02 -0.16383000753E+02 -0.67672814059E+02  0.79863124776E+02  0.41800000000E+01 0.  1.
        -11    1    1    2    0    0 -0.40864072659E+01  0.34012281017E+02 -0.40790753688E+01  0.34498881724E+02  0.00000000000E+00 0.  1.
         11    1    1    2    0    0 -0.19811353856E+02  0.51037651328E+01  0.15703814658E+02  0.25790462480E+02  0.00000000000E+00 0. -1.
</event>
<event>
 7    1  0.6992302E-006  0.1180984E+03  0.7561462E-02  0.1246267E+00
         -2   -1    0    0    0  501 -0.00000000000E+00  0.00000000000E+00  0.32875162602E+02  0.32875162602E+02  0.00000000000E+00 0. -1.
          2   -1    0    0  501    0  0.00000000000E+00 -0.00000000000E+00 -0.54324421606E+03  0.54324421606E+03  0.00000000000E+00 0.  1.
         23    2    1    2    0    0 -0.39774223775E+02  0.51375398632E+02 -0.18868694784E+03  0.23552290136E+03  0.12508737872E+03 0.  0.
          5    1    3    3  502    0 -0.39307105922E+02  0.91961467881E+02 -0.13104877725E+03  0.16490365239E+03  0.41800000000E+01 0. -1.
         -5    1    3    3    0  502 -0.46711785319E+00 -0.40586069249E+02 -0.57638170590E+02  0.70619248970E+02  0.41800000000E+01 0. -1.
        -11    1    1    2    0    0  0.56462005480E+02 -0.54321559310E+02 -0.31064464047E+03  0.32037303650E+03  0.00000000000E+00 0.  1.
         11    1    1    2    0    0 -0.16687781704E+02  0.29461606779E+01 -0.11037465148E+02  0.20223440801E+02  0.00000000000E+00 0. -1.
</event>
<event>
 7    1  0.6992302E-006  0.1076596E+03  0.7561462E-02  0.1264966E+00
          2   -1    0    0  501    0  0.00000000000E+00  0.00000000000E+00  0.44411543795E+03  0.44411543795E+03  0.00000000000E+00 0. -1.
         -2   -1    0    0    0  501 -0.00000000000E+00 -0.00000000000E+00 -0.67772729531E+02  0.67772729531E+02  0.00000000000E+00 0.  1.
         23    2    1    2    0    0  0.83276075622E+02 -0.17130779714E+02  0.45015234683E+02  0.15780516652E+03  0.12509089032E+03 0.  0.
          5    1    3    3  502    0  0.14953581949E+02  0.16019073988E+02 -0.38719377404E+02  0.44686496071E+02  0.41800000000E+01 0. -1.
         -5    1    3    3    0  502  0.68322493673E+02 -0.33149853702E+02  0.83734612087E+02  0.11311867045E+03  0.41800000000E+01 0. -1.
        -11    1    1    2    0    0 -0.22168703174E+02  0.44716365722E+02  0.20587966465E+03  0.21184296325E+03  0.00000000000E+00 0.  1.
         11    1    1    2    0    0 -0.61107372448E+02 -0.27585586008E+02  0.12544780909E+03  0.14224003771E+03  0.00000000000E+00 0. -1.
</event>
<event>
 7    1  0.6992302E-006  0.1063014E+03  0.7561462E-02  0.1267577E+00
          2   -1    0    0  501    0  0.00000000000E+00  0.00000000000E+00  0.14583444697E+04  0.14583444697E+04  0.00000000000E+00 0. -1.
         -2   -1    0    0    0  501 -0.00000000000E+00 -0.00000000000E+00 -0.11298999448E+02  0.11298999448E+02  0.00000000000E+00 0.  1.
         23    2    1    2    0    0  0.56364764907E+02  0.34818517698E+02  0.82649261913E+03  0.83852872033E+03  0.12510415439E+03 0.  0.
          5    1    3    3  502    0  0.33392046650E+02  0.56681206281E+02  0.18775140234E+03  0.19898705839E+03  0.41800000000E+01 0. -1.
         -5    1    3    3    0  502  0.22972718257E+02 -0.21862688583E+02  0.63874121678E+03  0.63954166194E+03  0.41800000000E+01 0. -1.
        -11    1    1    2    0    0 -0.78220954003E+02 -0.45370392232E+02  0.50641456337E+03  0.51442463018E+03  0.00000000000E+00 0.  1.
         11    1    1    2    0    0  0.21856189097E+02  0.10551874534E+02  0.11413828774E+03  0.11669011863E+03  0.00000000000E+00 0. -1.
</event>
<event>
 7    1  0.6992302E-006  0.2161892E+03  0.7561462E-02  0.1136756E+00
          2   -1    0    0  501    0  0.00000000000E+00  0.00000000000E+00  0.17701450675E+03  0.17701450675E+03  0.00000000000E+00 0. -1.
         -2   -1    0    0    0  501 -0.00000000000E+00 -0.00000000000E+00 -0.29584312521E+03  0.29584312521E+03  0.00000000000E+00 0.  1.
         23    2    1    2    0    0 -0.12258415496E+03  0.14791326098E+03 -0.12367036904E+03  0.26047431541E+03  0.12508917215E+03 0.  0.
          5    1    3    3  502    0  0.22357095955E+02  0.17429480861E+02  0.15109625887E+01  0.28694632783E+02  0.41800000000E+01 0.  1.
         -5    1    3    3    0  502 -0.14494125092E+03  0.13048378012E+03 -0.12518133163E+03  0.23177968263E+03  0.41800000000E+01 0.  1.
        -11    1    1    2    0    0 -0.12280509424E+02 -0.13416061517E+02  0.11984916102E+02  0.21781639799E+02  0.00000000000E+00 0. -1.
         11    1    1    2    0    0  0.13486466439E+03 -0.13449719946E+03 -0.71431655220E+01  0.19060167674E+03  0.00000000000E+00 0.  1.
</event>
<event>
 7    1  0.6992302E-006  0.1437029E+03  0.7561462E-02  0.1208432E+00
          2   -1    0    0  501    0  0.00000000000E+00  0.00000000000E+00  0.76802723039E+03  0.76802723039E+03  0.00000000000E+00 0. -1.
         -2   -1    0    0    0  501 -0.00000000000E+00 -0.00000000000E+00 -0.32396546512E+02  0.32396546512E+02  0.00000000000E+00 0.  1.
         23    2    1    2    0    0  0.10083142020E+03 -0.37185974841E+02  0.35462014068E+03  0.39109228688E+03  0.12509180892E+03 0.  0.
          5    1    3    3  502    0  0.48799249179E+02 -0.78954689052E+02  0.25233404354E+03  0.26889617247E+03  0.41800000000E+01 0. -1.
         -5    1    3    3    0  502  0.52032171017E+02  0.41768714211E+02  0.10228609714E+03  0.12219611441E+03  0.41800000000E+01 0. -1.
        -11    1    1    2    0    0  0.60464299815E+01  0.18084102118E+02  0.77186078170E+01  0.20571119842E+02  0.00000000000E+00 0.  1.
         11    1    1    2    0    0 -0.10687785018E+03  0.19101872723E+02  0.37329193538E+03  0.38876037018E+03  0.00000000000E+00 0. -1.
</event>
<event>
 7    1  0.6992302E-006  0.1236481E+03  0.7561462E-02  0.1237197E+00
          3   -1    0    0  501    0  0.00000000000E+00  0.00000000000E+00  0.45527317218E+02  0.45527317218E+02  0.00000000000E+00 0. -1.
         -3   -1    0    0    0  501 -0.00000000000E+00 -0.00000000000E+00 -0.47138133223E+03  0.47138133223E+03  0.00000000000E+00 0.  1.
         23    2    1    2    0    0 -0.89178158387E+02 -0.40244102915E+02 -0.21838107691E+03  0.27001833443E+03  0.12508906596E+03 0.  0.
          5    1    3    3  502    0  0.75921786260E+00  0.32965317095E+02 -0.94973037650E+02  0.10062126427E+03  0.41800000000E+01 0. -1.
         -5    1    3    3    0  502 -0.89937376250E+02 -0.73209420010E+02 -0.12340803926E+03  0.16939707016E+03  0.41800000000E+01 0. -1.
        -11    1    1    2    0    0  0.50290727069E+02  0.25891686408E+02 -0.19582885355E+03  0.20383443413E+03  0.00000000000E+00 0.  1.
         11    1    1    2    0    0  0.38887431318E+02  0.14352416507E+02 -0.11644084554E+02  0.43055880889E+02  0.00000000000E+00 0. -1.
</event>
<event>
 7    1  0.6992302E-006  0.1648570E+03  0.7561462E-02  0.1183320E+00
         -2   -1    0    0    0  501 -0.00000000000E+00  0.00000000000E+00  0.62535802303E+02  0.62535802303E+02  0.00000000000E+00 0. -1.
          2   -1    0    0  501    0  0.00000000000E+00 -0.00000000000E+00 -0.72671624830E+03  0.72671624830E+03  0.00000000000E+00 0.  1.
         23    2    1    2    0    0 -0.71827831183E+02 -0.12630696466E+03 -0.14089341640E+03  0.23793450038E+03  0.12509670272E+03 0.  0.
          5    1    3    3  502    0  0.11654168290E+02 -0.93335697757E+02 -0.10538547307E+03  0.14131858494E+03  0.41800000000E+01 0.  1.
         -5    1    3    3    0  502 -0.83481999473E+02 -0.32971266901E+02 -0.35507943326E+02  0.96615915440E+02  0.41800000000E+01 0.  1.
        -11    1    1    2    0    0  0.16009875910E+02  0.19834110043E+02 -0.16261037796E+02  0.30234572894E+02  0.00000000000E+00 0. -1.
         11    1    1    2    0    0  0.55817955273E+02  0.10647285461E+03 -0.50702599180E+03  0.52108297733E+03  0.00000000000E+00 0.  1.
</event>
<event>
 7    1  0.6992302E-006  0.1162098E+03  0.7561462E-02  0.1249484E+00
         -1   -1    0    0    0  501 -0.00000000000E+00  0.00000000000E+00  0.73841845227E+02  0.73841845227E+02  0.00000000000E+00 0.  1.
          1   -1    0    0  501    0  0.00000000000E+00 -0.00000000000E+00 -0.31037957389E+03  0.31037957389E+03  0.00000000000E+00 0. -1.
         23    2    1    2    0    0 -0.90791044525E+02 -0.30479123648E+02 -0.70452959895E+02  0.17257681396E+03  0.12508855429E+03 0.  0.
          5    1    3    3  502    0 -0.46230226121E+02 -0.35436582539E+02  0.27664012738E+02  0.64620083488E+02  0.41800000000E+01 0. -1.
         -5    1    3    3    0  502 -0.44560818404E+02  0.49574588917E+01 -0.98116972633E+02  0.10795673047E+03  0.41800000000E+01 0. -1.
        -11    1    1    2    0    0 -0.19638487112E+01  0.36016810065E+02 -0.65025500100E+02  0.74359820954E+02  0.00000000000E+00 0. -1.
         11    1    1    2    0    0  0.92754893236E+02 -0.55376864174E+01 -0.10105926867E+03  0.13728478421E+03  0.00000000000E+00 0.  1.
</event>
<event>
 7    1  0.6992302E-006  0.2050295E+03  0.7561462E-02  0.1145564E+00
          1   -1    0    0  501    0  0.00000000000E+00  0.00000000000E+00  0.23198021565E+03  0.23198021565E+03  0.00000000000E+00 0. -1.
         -1   -1    0    0    0  501 -0.00000000000E+00 -0.00000000000E+00 -0.23168225074E+03  0.23168225074E+03  0.00000000000E+00 0.  1.
         23    2    1    2    0    0 -0.18305359735E+03  0.69360995244E+02 -0.59218423160E+02  0.23973416075E+03  0.12508428768E+03 0.  0.
          5    1    3    3  502    0 -0.62517511364E+02 -0.11526402436E+02  0.28805900779E+02  0.69918162876E+02  0.41800000000E+01 0.  1.
         -5    1    3    3    0  502 -0.12053608599E+03  0.80887397680E+02 -0.88024323938E+02  0.16981599787E+03  0.41800000000E+01 0.  1.
        -11    1    1    2    0    0  0.51755475835E+01 -0.13858268120E+02 -0.16963322438E+02  0.22507603075E+02  0.00000000000E+00 0.  1.
         11    1    1    2    0    0  0.17787804977E+03 -0.55502727124E+02  0.76479710507E+02  0.20142070258E+03  0.00000000000E+00 0. -1.
</event>
<event>
 7    1  0.6992302E-006  0.9357017E+02  0.7561462E-02  0.1294429E+00
          2   -1    0    0  501    0  0.00000000000E+00  0.00000000000E+00  0.83207176441E+03  0.83207176441E+03  0.00000000000E+00 0. -1.
         -2   -1    0    0    0  501 -0.00000000000E+00 -0.00000000000E+00 -0.16344627871E+02  0.16344627871E+02  0.00000000000E+00 0.  1.
         23    2    1    2    0    0  0.23934561971E+02  0.39205141401E+02  0.45834225802E+03  0.47732063661E+03  0.12508980083E+03 0.  0.
          5    1    3    3  502    0  0.39457763697E+02 -0.10145787564E+02  0.45455683452E+02  0.61184505223E+02  0.41800000000E+01 0. -1.
         -5    1    3    3    0  502 -0.15523201726E+02  0.49350928965E+02  0.41288657457E+03  0.41613613138E+03  0.41800000000E+01 0. -1.
        -11    1    1    2    0    0  0.29831346913E+02 -0.42019687975E+01  0.17916301680E+03  0.18167815606E+03  0.00000000000E+00 0. -1.
         11    1    1    2    0    0 -0.53765908884E+02 -0.35003172603E+02  0.17822186171E+03  0.18941759961E+03  0.00000000000E+00 0.  1.
</event>
<event>
 6    1  0.6992302E-006  0.1363121E+03  0.7561462E-02  0.1218379E+00
          1   -1    0    0  501    0  0.00000000000E+00  0.00000000000E+00  0.20858037805E+03  0.20858037805E+03  0.00000000000E+00 0. -1.
         -1   -1    0    0    0  501 -0.00000000000E+00 -0.00000000000E+00 -0.22257526744E+03  0.22257526744E+03  0.00000000000E+00 0.  1.
          5    1    1    2  502    0  0.28804241788E+02  0.36525677140E+02 -0.34950612725E+02  0.58333756654E+02  0.41800000000E+01 0. -1.
         -5    1    1    2    0  502 -0.97052101977E+02 -0.55694366492E+02 -0.13733344728E+03  0.17719740714E+03  0.41800000000E+01 0.  1.
        -11    1    1    2    0    0  0.65737440400E+02  0.50261764614E+02  0.12586675219E+03  0.15063231844E+03  0.00000000000E+00 0. -1.
         11    1    1    2    0    0  0.25104197893E+01 -0.31093075262E+02  0.32422418429E+02  0.44992163246E+02  0.00000000000E+00 0.  1.
</event>
<event>
 7    1  0.6992302E-006  0.1445797E+03  0.7561462E-02  0.1207296E+00
         -1   -1    0    0    0  501 -0.00000000000E+00  0.00000000000E+00  0.29295462333E+03  0.29295462333E+03  0.00000000000E+00 0.  1.
          1   -1    0    0  501    0  0.00000000000E+00 -0.00000000000E+00 -0.72317467367E+02  0.72317467367E+02  0.00000000000E+00 0. -1.
         23    2    1    2    0    0 -0.45705955806E+02 -0.84562904528E+02  0.13622261325E+03  0.20843264470E+03  0.12509055839E+03 0.  0.
          5    1    3    3  502    0  0.15220538794E+02  0.26583483338E+02  0.25307011072E+02  0.39953267663E+02  0.41800000000E+01 0. -1.
         -5    1    3    3    0  502 -0.60926494600E+02 -0.11114638787E+03  0.11091560218E+03  0.16847937704E+03  0.41800000000E+01 0. -1.
        -11    1    1    2    0    0  0.71926865173E+02  0.73880805160E+02  0.59027127311E+02  0.11881098040E+03  0.00000000000E+00 0. -1.
         11    1    1    2    0    0 -0.26220909367E+02  0.10682099367E+02  0.25387415395E+02  0.38028465593E+02  0.00000000000E+00 0.  1.
</event>
<event>
 7    1  0.6992302E-006  0.1099433E+03  0.7561462E-02  0.1260675E+00
          2   -1    0    0  501    0  0.00000000000E+00  0.00000000000E+00  0.47967081607E+03  0.47967081607E+03  0.00000000000E+00 0. -1.
         -2   -1    0    0    0  501 -0.00000000000E+00 -0.00000000000E+00 -0.26396081918E+02  0.26396081918E+02  0.00000000000E+00 0.  1.
         23    2    1    2    0    0 -0.23548485640E+02 -0.22877898048E+02  0.25294000329E+03  0.28407613347E+03  0.12507067981E+03 0.  0.
          5    1    3    3  502    0 -0.67083879386E+02 -0.43903712033E+02  0.14532816918E+03  0.16602870824E+03  0.41800000000E+01 0. -1.
         -5    1    3    3    0  502  0.43535393745E+02  0.21025813985E+02  0.10761183411E+03  0.11804742523E+03  0.41800000000E+01 0. -1.
        -11    1    1    2    0    0 -0.31366873149E+02 -0.55334719020E+00  0.10424003768E+03  0.10885849705E+03  0.00000000000E+00 0. -1.
         11    1    1    2    0    0  0.54915358790E+02  0.23431245238E+02  0.96094693173E+02  0.11313226746E+03  0.00000000000E+00 0.  1.
</event>
<event>
 7    1  0.6992302E-006  0.1404385E+03  0.7561462E-02  0.1212740E+00
         -2   -1    0    0    0  501 -0.00000000000E+00  0.00000000000E+00  0.28744139345E+02  0.28744139345E+02  0.00000000000E+00 0.  1.
          2   -1    0    0  501    0  0.00000000000E+00 -0.00000000000E+00 -0.74208475327E+03  0.74208475327E+03  0.00000000000E+00 0. -1.
         23    2    1    2    0    0 -0.23410849679E+02 -0.98174645009E+02 -0.41812344440E+03  0.44795190347E+03  0.12508942508E+03 0.  0.
          5    1    3    3  502    0 -0.57723751061E+01 -0.12152844500E+03 -0.38383925578E+03  0.40268167321E+03  0.41800000000E+01 0.  1.
         -5    1    3    3    0  502 -0.17638474573E+02  0.23353799993E+02 -0.34284188612E+02  0.45270230264E+02  0.41800000000E+01 0.  1.
        -11    1    1    2    0    0  0.51074469955E+02  0.84454458057E+02 -0.24195593113E+03  0.26131174787E+03  0.00000000000E+00 0. -1.
         11    1    1    2    0    0 -0.27663620276E+02  0.13720186952E+02 -0.53261238402E+02  0.61565241272E+02  0.00000000000E+00 0.  1.
</event>
<event>
 7    1  0.6992302E-006  0.8230821E+02  0.7561462E-02  0.1322626E+00
         -1   -1    0    0    0  501 -0.00000000000E+00  0.00000000000E+00  0.60420128929E+02  0.60420128929E+02  0.00000000000E+00 0.  1.
          1   -1    0    0  501    0  0.00000000000E+00 -0.00000000000E+00 -0.22204604838E+03  0.22204604838E+03  0.00000000000E+00 0. -1.
         23    2    1    2    0    0 -0.20159984554E+02  0.30171139829E+01 -0.46496154079E+02  0.13500125250E+03  0.12509163792E+03 0.  0.
          5    1    3    3  502    0 -0.57434765756E+02  0.34228611177E+02  0.87005577759E+00  0.66996862147E+02  0.41800000000E+01 0.  1.
         -5    1    3    3    0  502  0.37274781201E+02 -0.31211497194E+02 -0.47366209856E+02  0.68004390350E+02  0.41800000000E+01 0.  1.
        -11    1    1    2    0    0 -0.37988350462E+01 -0.19423503028E+02  0.77096114084E+01  0.21240097119E+02  0.00000000000E+00 0.  1.
         11    1    1    2    0    0  0.23958819600E+02  0.16406389045E+02 -0.12283937678E+03  0.12622482769E+03  0.00000000000E+00 0. -1.
</event>
<event>
 7    1  0.6992302E-006  0.2142243E+03  0.7561462E-02  0.1138264E+00
          2   -1    0    0  501    0  0.00000000000E+00  0.00000000000E+00  0.18810814884E+03  0.18810814884E+03  0.00000000000E+00 0. -1.
         -2   -1    0    0    0  501 -0.00000000000E+00 -0.00000000000E+00 -0.25324329288E+03  0.25324329288E+03  0.00000000000E+00 0.  1.
         23    2    1    2    0    0  0.10879311139E+03 -0.15085114088E+03 -0.65660700900E+02  0.23356078817E+03  0.12508919353E+03 0.  0.
          5    1    3    3  502    0  0.10494904379E+03 -0.43881739416E+02 -0.53424930172E+02  0.12574420229E+03  0.41800000000E+01 0.  1.
         -5    1    3    3    0  502  0.38440675979E+01 -0.10696940147E+03 -0.12235770728E+02  0.10781658588E+03  0.41800000000E+01 0.  1.
        -11    1    1    2    0    0 -0.24883082805E+02  0.11253600723E+03  0.57630829353E+01  0.11539815362E+03  0.00000000000E+00 0.  1.
         11    1    1    2    0    0 -0.83910028582E+02  0.38315133651E+02 -0.52375260744E+01  0.92392499927E+02  0.00000000000E+00 0. -1.
</event>
<event>
 7    1  0.6992302E-006  0.1118295E+03  0.7561462E-02  0.1257219E+00
         -1   -1    0    0    0  501 -0.00000000000E+00  0.00000000000E+00  0.70902815057E+02  0.70902815057E+02  0.00000000000E+00 0.  1.
          1   -1    0    0  501    0  0.00000000000E+00 -0.00000000000E+00 -0.31007443322E+03  0.31007443322E+03  0.00000000000E+00 0. -1.
         23    2    1    2    0    0 -0.80382935020E+02 -0.31585421057E+02 -0.62366889242E+02  0.16430770187E+03  0.12509331299E+03 0.  0.
          5    1    3    3  502    0 -0.18094573704E+02  0.18310759443E+02 -0.78550823689E+02  0.82767154181E+02  0.41800000000E+01 0.  1.
         -5    1    3    3    0  502 -0.62288361316E+02 -0.49896180500E+02  0.16183934447E+02  0.81540547693E+02  0.41800000000E+01 0.  1.
        -11    1    1    2    0    0 -0.12093461204E+02 -0.10539689773E+02 -0.58759237726E+02  0.60909645234E+02  0.00000000000E+00 0.  1.
         11    1    1    2    0    0  0.92476396224E+02  0.42125110830E+02 -0.11804549120E+03  0.15575990117E+03  0.00000000000E+00 0. -1.
</event>
<event>
 7    1  0.6992302E-006  0.8919791E+02  0.7561462E-02  0.1304806E+00
         -1   -1    0    0    0  501 -0.00000000000E+00  0.00000000000E+00  0.53596487958E+02  0.53596487958E+02  0.00000000000E+00 0.  1.
          1   -1    0    0  501    0  0.00000000000E+00 -0.00000000000E+00 -0.23237066208E+03  0.23237066208E+03  0.00000000000E+00 0. -1.
         23    2    1    2    0    0  0.58122679367E+01 -0.19932991282E+02 -0.69574975587E+02  0.14463626149E+03  0.12509142380E+03 0.  0.
          5    1    3    3  502    0 -0.37658971549E+02  0.86373776453E+01 -0.82217680069E+02  0.90939659921E+02  0.41800000000E+01 0. -1.
         -5    1    3    3    0  502  0.43471239485E+02 -0.28570368927E+02  0.12642704482E+02  0.53696601565E+02  0.41800000000E+01 0. -1.
        -11    1    1    2    0    0  0.38445255086E+02 -0.84439067599E+00 -0.64457918182E+02  0.75057137240E+02  0.00000000000E+00 0.  1.
         11    1    1    2    0    0 -0.44257523022E+02  0.20777381958E+02 -0.44741280351E+02  0.66273751309E+02  0.00000000000E+00 0. -1.
</event>
<event>
 7    1  0.6992302E-006  0.1535978E+03  0.7561462E-02  0.1196120E+00
          2   -1    0    0  501    0  0.00000000000E+00  0.00000000000E+00  0.30688617664E+03  0.30688617664E+03  0.00000000000E+00 0. -1.
         -2   -1    0    0    0  501 -0.00000000000E+00 -0.00000000000E+00 -0.95681978102E+02  0.95681978102E+02  0.00000000000E+00 0.  1.
         23    2    1    2    0    0 -0.10727548325E+03  0.69775970158E+02  0.73283525435E+02  0.19337713868E+03  0.12509007693E+03 0.  0.
          5    1    3    3  502    0  0.15394813115E+01 -0.26487783960E+02 -0.64162594637E+01  0.27615457399E+02  0.41800000000E+01 0. -1.
         -5    1    3    3    0  502 -0.10881496456E+03  0.96263754118E+02  0.79699784899E+02  0.16576168128E+03  0.41800000000E+01 0. -1.
        -11    1    1    2    0    0  0.24778334349E+02 -0.40452852357E+02  0.10576994540E+03  0.11592100960E+03  0.00000000000E+00 0. -1.
         11    1    1    2    0    0  0.82497148896E+02 -0.29323117801E+02  0.32150727704E+02  0.93270006462E+02  0.00000000000E+00 0.  1.
</event>
<event>
 7    1  0.6992302E-006  0.1032120E+03  0.7561462E-02  0.1273683E+00
          2   -1    0    0  501    0  0.00000000000E+00  0.00000000000E+00  0.22508299522E+03  0.22508299522E+03  0.00000000000E+00 0. -1.
         -2   -1    0    0    0  501 -0.00000000000E+00 -0.00000000000E+00 -0.71290250198E+02  0.71290250198E+02  0.00000000000E+00 0.  1.
         23    2    1    2    0    0 -0.64116704685E+02  0.18293124764E+02  0.58784252208E+02  0.15345908395E+03  0.12509401226E+03 0.  0.
          5    1    3    3  502    0 -0.83109538157E+02  0.59788775973E+01  0.84637159350E+02  0.11884386165E+03  0.41800000000E+01 0. -1.
         -5    1    3    3    0  502  0.18992833472E+02  0.12314247167E+02 -0.25852907142E+02  0.34615222291E+02  0.41800000000E+01 0. -1.
        -11    1    1    2    0    0 -0.13827846331E+02 -0.17141344993E+02  0.28479457048E+01  0.22206887154E+02  0.00000000000E+00 0. -1.
         11    1    1    2    0    0  0.77944551017E+02 -0.11517797713E+01  0.92160547104E+02  0.12070727431E+03  0.00000000000E+00 0.  1.
</event>
<event>
 7    1  0.6992302E-006  0.1498972E+03  0.7561462E-02  0.1200599E+00
          1   -1    0    0  501    0  0.00000000000E+00  0.00000000000E+00  0.29402182104E+03  0.29402182104E+03  0.00000000000E+00 0. -1.
         -1   -1    0    0    0  501 -0.00000000000E+00 -0.00000000000E+00 -0.10464366054E+03  0.10464366054E+03  0.00000000000E+00 0.  1.
         23    2    1    2    0    0 -0.27099357440E+02  0.12911402479E+03  0.56514357454E+02  0.19036784720E+03  0.12506493545E+03 0.  0.
          5    1    3    3  502    0  0.68682653053E+01  0.12690100380E+03  0.34704806322E+01  0.12720280842E+03  0.41800000000E+01 0.  1.
         -5    1    3    3    0  502 -0.33967622745E+02  0.22130209956E+01  0.53043876822E+02  0.63165038789E+02  0.41800000000E+01 0.  1.
        -11    1    1    2    0    0  0.38284350439E+02 -0.94229919855E+02  0.13786604803E+03  0.17132430208E+03  0.00000000000E+00 0. -1.
         11    1    1    2    0    0 -0.11184993000E+02 -0.34884104938E+02 -0.50022449865E+01  0.36973332290E+02  0.00000000000E+00 0.  1.
</event>
<event>
 7    1  0.6992302E-006  0.6612930E+02  0.7561462E-02  0.1373773E+00
          2   -1    0    0  501    0  0.00000000000E+00  0.00000000000E+00  0.55580037258E+03  0.55580037258E+03  0.00000000000E+00 0. -1.
         -2   -1    0    0    0  501 -0.00000000000E+00 -0.00000000000E+00 -0.26149972714E+02  0.26149972714E+02  0.00000000000E+00 0.  1.
         23    2    1    2    0    0 -0.12943812337E+02  0.39331021229E+02  0.21411780750E+03  0.25139416442E+03  0.12505246461E+03 0.  0.
          5    1    3    3  502    0  0.83573775949E+01  0.21233835050E+02  0.22107490771E+03  0.22228879578E+03  0.41800000000E+01 0. -1.
         -5    1    3    3    0  502 -0.21301189931E+02  0.18097186179E+02 -0.69571002106E+01  0.29105368636E+02  0.41800000000E+01 0.  1.
        -11    1    1    2    0    0  0.11630284461E+02 -0.59479901634E+02  0.29709275563E+03  0.30321152297E+03  0.00000000000E+00 0. -1.
         11    1    1    2    0    0  0.13135278755E+01  0.20148880405E+02  0.18439836739E+02  0.27344657906E+02  0.00000000000E+00 0.  1.
</event>
<event>
 7    1  0.6992302E-006  0.1054687E+03  0.7561462E-02  0.1269199E+00
         -2   -1    0    0    0  501 -0.00000000000E+00  0.00000000000E+00  0.51779186596E+02  0.51779186596E+02  0.00000000000E+00 0.  1.
          2   -1    0    0  501    0  0.00000000000E+00 -0.00000000000E+00 -0.30531132866E+03  0.30531132866E+03  0.00000000000E+00 0. -1.
         23    2    1    2    0    0  0.27213734015E+02 -0.20184306191E+02 -0.64564571906E+02  0.14478693065E+03  0.12508668118E+03 0.  0.
          5    1    3    3  502    0  0.47156962570E+02 -0.58261115436E+02 -0.68231551229E+02  0.10144532357E+03  0.41800000000E+01 0. -1.
         -5    1    3    3    0  502 -0.19943228555E+02  0.38076809245E+02  0.36669793231E+01  0.43341607087E+02  0.41800000000E+01 0. -1.
        -11    1    1    2    0    0 -0.25445217502E+02 -0.31765777989E+02 -0.53617504966E+02  0.67315381480E+02  0.00000000000E+00 0. -1.
         11    1    1    2    0    0 -0.17685165128E+01  0.51950084180E+02 -0.13535006519E+03  0.14498820312E+03  0.00000000000E+00 0.  1.
</event>
<event>
 7    1  0.6992302E-006  0.1078552E+03  0.7561462E-02  0.1264594E+00
          1   -1    0    0  501    0  0.00000000000E+00  0.00000000000E+00  0.11009638467E+03  0.11009638467E+03  0.00000000000E+00 0. -1.
         -1   -1    0    0    0  501 -0.00000000000E+00 -0.00000000000E+00 -0.13839380254E+03  0.13839380254E+03  0.00000000000E+00 0.  1.
         23    2    1    2    0    0  0.26019716471E+02  0.26804885902E+02 -0.62899332544E+02  0.14490638830E+03  0.12508400290E+03 0.  0.
          5    1    3    3  502    0  0.65680754881E+02  0.51553152144E+02 -0.39590500077E+02  0.92501725141E+02  0.41800000000E+01 0. -1.
         -5    1    3    3    0  502 -0.39661038410E+02 -0.24748266241E+02 -0.23308832468E+02  0.52404663158E+02  0.41800000000E+01 0. -1.
        -11    1    1    2    0    0  0.26665986944E+02 -0.16884496928E+02  0.38555617624E+02  0.49826667023E+02  0.00000000000E+00 0. -1.
         11    1    1    2    0    0 -0.52685703416E+02 -0.99203889740E+01 -0.39537029538E+01  0.53757131888E+02  0.00000000000E+00 0.  1.
</event>
<event>
 7    1  0.6992302E-006  0.1466159E+03  0.7561462E-02  0.1204694E+00
         -1   -1    0    0    0  501 -0.00000000000E+00  0.00000000000E+00  0.49233017242E+02  0.49233017242E+02  0.00000000000E+00 0.  1.
          1   -1    0    0  501    0  0.00000000000E+00 -0.00000000000E+00 -0.50195468828E+03  0.50195468828E+03  0.00000000000E+00 0. -1.
         23    2    1    2    0    0 -0.11088026405E+03 -0.17255505442E+02 -0.21296300087E+03  0.27128030427E+03  0.12509028067E+03 0.  0.
          5    1    3    3  502    0 -0.60103699864E+02  0.51989302872E+02 -0.79202689409E+02  0.11227591353E+03  0.41800000000E+01 0. -1.
         -5    1    3    3    0  502 -0.50776564189E+02 -0.69244808314E+02 -0.13376031146E+03  0.15900439073E+03  0.41800000000E+01 0. -1.
        -11    1    1    2    0    0  0.42154302210E+01  0.20540894414E+02 -0.43153886851E+01  0.21408427658E+02  0.00000000000E+00 0.  1.
         11    1    1    2    0    0  0.10666483383E+03 -0.32853889719E+01 -0.23544328148E+03  0.25849897360E+03  0.00000000000E+00 0. -1.
</event>
<event>
 7    1  0.6992302E-006  0.8000277E+02  0.7561462E-02  0.1329044E+00
          2   -1    0    0  501    0  0.00000000000E+00  0.00000000000E+00  0.21961189651E+03  0.21961189651E+03  0.00000000000E+00 0. -1.
         -2   -1    0    0    0  501 -0.00000000000E+00 -0.00000000000E+00 -0.66998025666E+02  0.66998025666E+02  0.00000000000E+00 0.  1.
         23    2    1    2    0    0 -0.54559867114E+02 -0.35362967040E+01  0.82320724662E+02  0.15941397710E+03  0.12508728909E+03 0.  0.
          5    1    3    3  502    0 -0.45694048821E+02  0.82828847011E+00 -0.24522577285E+02  0.52033271626E+02  0.41800000000E+01 0. -1.
         -5    1    3    3    0  502 -0.88658182923E+01 -0.43645851741E+01  0.10684330195E+03  0.10738070548E+03  0.41800000000E+01 0. -1.
        -11    1    1    2    0    0  0.33598561789E+02 -0.41685412252E+02  0.50396767349E+02  0.73528029405E+02  0.00000000000E+00 0. -1.
         11    1    1    2    0    0  0.20961305325E+02  0.45221708956E+02  0.19896378837E+02  0.53667915673E+02  0.00000000000E+00 0.  1.
</event>
<event>
 7    1  0.6992302E-006  0.1202950E+03  0.7561462E-02  0.1242611E+00
         -2   -1    0    0    0  501 -0.00000000000E+00  0.00000000000E+00  0.52234396846E+02  0.52234396846E+02  0.00000000000E+00 0.  1.
          2   -1    0    0  501    0  0.00000000000E+00 -0.00000000000E+00 -0.37305188354E+03  0.37305188354E+03  0.00000000000E+00 0. -1.
         23    2    1    2    0    0 -0.86914995954E+02 -0.12263146283E+02 -0.16110180197E+03  0.22205074388E+03  0.12509252967E+03 0.  0.
          5    1    3    3  502    0 -0.40119200069E+02 -0.68525001764E+02 -0.83284119198E+02  0.11514748365E+03  0.41800000000E+01 0.  1.
         -5    1    3    3    0  502 -0.46795795885E+02  0.56261855481E+02 -0.77817682771E+02  0.10690326022E+03  0.41800000000E+01 0.  1.
        -11    1    1    2    0    0  0.39646279905E+02  0.55588192123E+01 -0.14902860898E+03  0.15431219743E+03  0.00000000000E+00 0. -1.
         11    1    1    2    0    0  0.47268716049E+02  0.67043270711E+01 -0.10687075741E+02  0.48923339075E+02  0.00000000000E+00 0.  1.
</event>
<event>
 7    1  0.6992302E-006  0.9236088E+02  0.7561462E-02  0.1297233E+00
          2   -1    0    0  501    0  0.00000000000E+00  0.00000000000E+00  0.50262904219E+02  0.50262904219E+02  0.00000000000E+00 0. -1.
         -2   -1    0    0    0  501 -0.00000000000E+00 -0.00000000000E+00 -0.26095153692E+03  0.26095153692E+03  0.00000000000E+00 0.  1.
         23    2    1    2    0    0 -0.29822313036E+02  0.36839378823E+01 -0.15679907164E+03  0.20282118314E+03  0.12509013435E+03 0.  0.
          5    1    3    3  502    0  0.30185732315E+02 -0.29376507864E+02 -0.11479259063E+03  0.12234773767E+03  0.41800000000E+01 0.  1.
         -5    1    3    3    0  502 -0.60008045351E+02  0.33060445746E+02 -0.42006481011E+02  0.80473445476E+02  0.41800000000E+01 0.  1.
        -11    1    1    2    0    0  0.34512367233E+02  0.26309123021E+02  0.34289223540E+01  0.43531953261E+02  0.00000000000E+00 0. -1.
         11    1    1    2    0    0 -0.46900541966E+01 -0.29993060904E+02 -0.57318483418E+02  0.64861304737E+02  0.00000000000E+00 0.  1.
</event>
<event>
 6    1  0.6992302E-006  0.1420984E+03  0.7561462E-02  0.1210533E+00
          1   -1    0    0  501    0  0.00000000000E+00  0.00000000000E+00  0.50022239812E+03  0.50022239812E+03  0.00000000000E+00 0. -1.
         -1   -1    0    0    0  501 -0.00000000000E+00 -0.00000000000E+00 -0.14748539399E+03  0.14748539399E+03  0.00000000000E+00 0.  1.
          5    1    1    2  502    0  0.76578089035E+02 -0.48901004804E+02 -0.38822065136E+02  0.98894575850E+02  0.41800000000E+01 0. -1.
         -5    1    1    2    0  502 -0.44114039007E+02  0.83499973008E+02 -0.41920101007E+02  0.10340725892E+03  0.41800000000E+01 0.  1.
        -11    1    1    2    0    0 -0.39735512071E+02  0.19404832226E+02  0.13697239203E+03  0.14393364656E+03  0.00000000000E+00 0.  1.
         11    1    1    2    0    0  0.72714620430E+01 -0.54003800430E+02  0.29650677824E+03  0.30147231078E+03  0.00000000000E+00 0. -1.
</event>
<event>
 6    1  0.6992302E-006  0.2373302E+03  0.7561462E-02  0.1121584E+00
         -1   -1    0    0    0  501 -0.00000000000E+00  0.00000000000E+00  0.64466579715E+02  0.64466579715E+02  0.00000000000E+00 0.  1.
          1   -1    0    0  501    0  0.00000000000E+00 -0.00000000000E+00 -0.93637034939E+03  0.93637034939E+03  0.00000000000E+00 0. -1.
          5    1    1    2  502    0  0.10611421849E+01  0.21843944146E+03 -0.36384214438E+03  0.42440015791E+03  0.41800000000E+01 0. -1.
         -5    1    1    2    0  502 -0.48600250656E+02 -0.60843776096E+02 -0.19504742173E+03  0.21005932157E+03  0.41800000000E+01 0.  1.
        -11    1    1    2    0    0  0.64663854325E+02 -0.13635352632E+03 -0.20251262431E+03  0.25255704544E+03  0.00000000000E+00 0.  1.
         11    1    1    2    0    0 -0.17124745853E+02 -0.21242139050E+02 -0.11050157926E+03  0.11382040419E+03  0.00000000000E+00 0. -1.
</event>
<event>
 7    1  0.6992302E-006  0.1096454E+03  0.7561462E-02  0.1261228E+00
         -2   -1    0    0    0  501 -0.00000000000E+00  0.00000000000E+00  0.52078657407E+03  0.52078657407E+03  0.00000000000E+00 0.  1.
          2   -1    0    0  501    0  0.00000000000E+00 -0.00000000000E+00 -0.34376295292E+02  0.34376295292E+02  0.00000000000E+00 0. -1.
         23    2    1    2    0    0  0.77517752011E+02 -0.42785730845E+01  0.28339570709E+03  0.31935293490E+03  0.12508342083E+03 0.  0.
          5    1    3    3  502    0  0.37931825891E+02 -0.32954742987E+02  0.24884402118E+02  0.56227612163E+02  0.41800000000E+01 0.  1.
         -5    1    3    3    0  502  0.39585926121E+02  0.28676169903E+02  0.25851130497E+03  0.26312532274E+03  0.41800000000E+01 0.  1.
        -11    1    1    2    0    0 -0.15357504475E+02  0.43620946346E+02  0.72598599296E+02  0.86076689780E+02  0.00000000000E+00 0.  1.
         11    1    1    2    0    0 -0.62160247536E+02 -0.39342373262E+02  0.13041597239E+03  0.14973324468E+03  0.00000000000E+00 0. -1.
</event>
<event>
 7    1  0.6992302E-006  0.1477928E+03  0.7561462E-02  0.1203212E+00
         -2   -1    0    0    0  501 -0.00000000000E+00  0.00000000000E+00  0.76467878481E+02  0.76467878481E+02  0.00000000000E+00 0.  1.
          2   -1    0    0  501    0  0.00000000000E+00 -0.00000000000E+00 -0.33443854823E+03  0.33443854823E+03  0.00000000000E+00 0. -1.
         23    2    1    2    0    0 -0.40517848458E+02  0.10515751525E+03 -0.98961529210E+02  0.19530480616E+03  0.12510309344E+03 0.  0.
          5    1    3    3  502    0  0.79331198527E+01 -0.16608051275E+02 -0.53170818112E+02  0.56421361703E+02  0.41800000000E+01 0. -1.
         -5    1    3    3    0  502 -0.48450968310E+02  0.12176556652E+03 -0.45790711098E+02  0.13888344446E+03  0.41800000000E+01 0. -1.
        -11    1    1    2    0    0 -0.90561004350E+01 -0.94441759889E+02 -0.10474876620E+03  0.14132785637E+03  0.00000000000E+00 0.  1.
         11    1    1    2    0    0  0.49573948893E+02 -0.10715755361E+02 -0.54260374331E+02  0.74273764173E+02  0.00000000000E+00 0. -1.
</event>
<event>
 7    1  0.6992302E-006  0.1239504E+03  0.7561462E-02  0.1236719E+00
          1   -1    0    0  501    0  0.00000000000E+00  0.00000000000E+00  0.54338886520E+02  0.54338886520E+02  0.00000000000E+00 0. -1.
         -1   -1    0    0    0  501 -0.00000000000E+00 -0.00000000000E+00 -0.36107030805E+03  0.36107030805E+03  0.00000000000E+00 0.  1.
         23    2    1    2    0    0  0.62652271448E+02 -0.38715070964E+02 -0.25222303314E+03  0.28536928985E+03  0.11133287612E+03 0.  0.
          5    1    3    3  502    0  0.89005133730E+02 -0.33236123798E+01 -0.16807802983E+03  0.19026470177E+03  0.41800000000E+01 0. -1.
         -5    1    3    3    0  502 -0.26352862282E+02 -0.35391458584E+02 -0.84145003308E+02  0.95104588075E+02  0.41800000000E+01 0.  1.
        -11    1    1    2    0    0  0.20618116611E+02  0.20699228759E+02 -0.60377067533E+00  0.29222069448E+02  0.00000000000E+00 0.  1.
         11    1    1    2    0    0 -0.83270388059E+02  0.18015842205E+02 -0.53904617716E+02  0.10081783527E+03  0.00000000000E+00 0. -1.
</event>
<event>
 7    1  0.6992302E-006  0.1110225E+03  0.7561462E-02  0.1258688E+00
         -1   -1    0    0    0  501 -0.00000000000E+00  0.00000000000E+00  0.77171329684E+02  0.77171329684E+02  0.00000000000E+00 0.  1.
          1   -1    0    0  501    0  0.00000000000E+00 -0.00000000000E+00 -0.26316338049E+03  0.26316338049E+03  0.00000000000E+00 0. -1.
         23    2    1    2    0    0  0.62333514913E+02 -0.63228058692E+02 -0.73093442577E+02  0.16991964876E+03  0.12508709446E+03 0.  0.
          5    1    3    3  502    0  0.15108770130E+01 -0.21761579112E+02  0.33570317594E+02  0.40252797395E+02  0.41800000000E+01 0. -1.
         -5    1    3    3    0  502  0.60822637900E+02 -0.41466479580E+02 -0.10666376017E+03  0.12966685137E+03  0.41800000000E+01 0. -1.
        -11    1    1    2    0    0 -0.75259510395E+02  0.15741354386E+02 -0.81461430523E+02  0.11201673449E+03  0.00000000000E+00 0. -1.
         11    1    1    2    0    0  0.12925995483E+02  0.47486704306E+02 -0.31437177707E+02  0.58398326921E+02  0.00000000000E+00 0.  1.
</event>
<event>
 7    1  0.6992302E-006  0.8301808E+02  0.7561462E-02  0.1320698E+00
         -2   -1    0    0    0  501 -0.00000000000E+00  0.00000000000E+00  0.14422824545E+02  0.14422824545E+02  0.00000000000E+00 0.  1.
          2   -1    0    0  501    0  0.00000000000E+00 -0.00000000000E+00 -0.95150440312E+03  0.95150440312E+03  0.00000000000E+00 0. -1.
         23    2    1    2    0    0  0.45429443945E+02 -0.58045468278E+02 -0.60388146229E+03  0.62109031259E+03  0.12508894885E+03 0.  0.
          5    1    3    3  502    0 -0.78336016869E+00 -0.85686718021E+01  0.33094983270E+01  0.10122300568E+02  0.41800000000E+01 0.  1.
         -5    1    3    3    0  502  0.46212804113E+02 -0.49476796476E+02 -0.60719096062E+03  0.61096801202E+03  0.41800000000E+01 0.  1.
        -11    1    1    2    0    0 -0.25615735538E+02  0.63176259188E+02 -0.26533088194E+03  0.27394868596E+03  0.00000000000E+00 0. -1.
         11    1    1    2    0    0 -0.19813708407E+02 -0.51307909095E+01 -0.67869234339E+02  0.70888229108E+02  0.00000000000E+00 0.  1.
</event>
<event>
 7    1  0.6992302E-006  0.9830268E+02  0.7561462E-02  0.1283906E+00
          2   -1    0    0  501    0  0.00000000000E+00  0.00000000000E+00  0.22178685845E+03  0.22178685845E+03  0.00000000000E+00 0. -1.
         -2   -1    0    0    0  501 -0.00000000000E+00 -0.00000000000E+00 -0.75077070454E+02  0.75077070454E+02  0.00000000000E+00 0.  1.
         23    2    1    2    0    0 -0.28407231345E+02  0.42761021124E+02  0.27628700459E+02  0.13803547105E+03  0.12511982440E+03 0.  0.
          5    1    3    3  502    0 -0.71368311426E+02  0.19731441418E+01 -0.22558565812E+01  0.71553409860E+02  0.41800000000E+01 0.  1.
         -5    1    3    3    0  502  0.42961080081E+02  0.40787876983E+02  0.29884557040E+02  0.66482061189E+02  0.41800000000E+01 0.  1.
        -11    1    1    2    0    0  0.38968589592E+02 -0.30274000303E+02  0.13007604135E+03  0.13912168272E+03  0.00000000000E+00 0. -1.
         11    1    1    2    0    0 -0.10561358247E+02 -0.12487020822E+02 -0.10994953812E+02  0.19706775138E+02  0.00000000000E+00 0.  1.
</event>
<event>
 7    1  0.6992302E-006  0.1033655E+03  0.7561462E-02  0.1273374E+00
         -1   -1    0    0    0  501 -0.00000000000E+00  0.00000000000E+00  0.19578184428E+04  0.19578184428E+04  0.00000000000E+00 0.  1.
          1   -1    0    0  501    0  0.00000000000E+00 -0.00000000000E+00 -0.10040776013E+02  0.10040776013E+02  0.00000000000E+00 0. -1.
         23    2    1    2    0    0 -0.19596074508E+02  0.61633932231E+02  0.14938422531E+04  0.15004661584E+04  0.12510502661E+03 0.  0.
          5    1    3    3  502    0 -0.45536694044E+02  0.29807568125E+02  0.24780850587E+03  0.25374910759E+03  0.41800000000E+01 0.  1.
         -5    1    3    3    0  502  0.25940619536E+02  0.31826364106E+02  0.12460337472E+04  0.12467170508E+04  0.41800000000E+01 0.  1.
        -11    1    1    2    0    0 -0.34677769434E+02 -0.38672669936E+02  0.23432593948E+03  0.24001410168E+03  0.00000000000E+00 0.  1.
         11    1    1    2    0    0  0.54273843942E+02 -0.22961262295E+02  0.21960947418E+03  0.22737895869E+03  0.00000000000E+00 0. -1.
</event>
<event>
 6    1  0.6992302E-006  0.1074872E+03  0.7561462E-02  0.1265295E+00
         -1   -1    0    0    0  501 -0.00000000000E+00  0.00000000000E+00  0.41163086872E+02  0.41163086872E+02  0.00000000000E+00 0.  1.
          1   -1    0    0  501    0  0.00000000000E+00 -0.00000000000E+00 -0.45365423088E+03  0.45365423088E+03  0.00000000000E+00 0. -1.
          5    1    1    2  502    0  0.75036271986E+01  0.64806087112E+02 -0.45142634111E+02  0.79444717649E+02  0.41800000000E+01 0. -1.
         -5    1    1    2    0  502 -0.27716866763E+02 -0.70044500512E+02 -0.73811867100E+02  0.10554677105E+03  0.41800000000E+01 0.  1.
        -11    1    1    2    0    0 -0.26098871631E+02  0.92061588849E+01 -0.24996148235E+02  0.37292249709E+02  0.00000000000E+00 0.  1.
         11    1    1    2    0    0  0.46312111195E+02 -0.39677454842E+01 -0.26854049456E+03  0.27253357934E+03  0.00000000000E+00 0. -1.
</event>
<event>
 7    1  0.6992302E-006  0.8181013E+02  0.7561462E-02  0.1323992E+00
          1   -1    0    0  501    0  0.00000000000E+00  0.00000000000E+00  0.83268275802E+02  0.83268275802E+02  0.00000000000E+00 0. -1.
         -1   -1    0    0    0  501 -0.00000000000E+00 -0.00000000000E+00 -0.14699067809E+03  0.14699067809E+03  0.00000000000E+00 0.  1.
         23    2    1    2    0    0  0.20742080374E+02 -0.28243086171E+01 -0.25719887820E+02  0.12941193074E+03  0.12509086525E+03 0.  0.
          5    1    3    3  502    0 -0.25095605401E+02  0.85418055271E+00 -0.64354521121E+02  0.69206183420E+02  0.41800000000E+01 0. -1.
         -5    1    3    3    0  502  0.45837685774E+02 -0.36784891699E+01  0.38634633301E+02  0.60205747317E+02  0.41800000000E+01 0. -1.
        -11    1    1    2    0    0 -0.27319040891E+02  0.43182964431E+02 -0.29760466939E+02  0.59133609772E+02  0.00000000000E+00 0.  1.
         11    1    1    2    0    0  0.65769605167E+01 -0.40358655814E+02 -0.82420475324E+01  0.41713413386E+02  0.00000000000E+00 0. -1.
</event>
<event>
 7    1  0.6992302E-006  0.9164201E+02  0.7561462E-02  0.1298923E+00
         -2   -1    0    0    0  501 -0.00000000000E+00  0.00000000000E+00  0.17014895584E+03  0.17014895584E+03  0.00000000000E+00 0.  1.
          2   -1    0    0  501    0  0.00000000000E+00 -0.00000000000E+00 -0.10913558757E+03  0.10913558757E+03  0.00000000000E+00 0. -1.
         23    2    1    2    0    0 -0.32128463637E+02 -0.52017658743E+02  0.89442904089E+02  0.16548563466E+03  0.12508951671E+03 0.  0.
          5    1    3    3  502    0  0.19881324449E+02  0.15578947672E+02 -0.15702304135E+02  0.30033405194E+02  0.41800000000E+01 0. -1.
         -5    1    3    3    0  502 -0.52009788086E+02 -0.67596606415E+02  0.10514520822E+03  0.13545222947E+03  0.41800000000E+01 0. -1.
        -11    1    1    2    0    0  0.32842428726E+02  0.16479458806E+02  0.28624208139E+02  0.46578353113E+02  0.00000000000E+00 0.  1.
         11    1    1    2    0    0 -0.71396508926E+00  0.35538199937E+02 -0.57053743952E+02  0.67220555635E+02  0.00000000000E+00 0. -1.
</event>
<event>
 6    1  0.6992302E-006  0.5160811E+03  0.7561462E-02  0.1009665E+00
          3   -1    0    0  501    0  0.00000000000E+00  0.00000000000E+00  0.84621851546E+03  0.84621851546E+03  0.00000000000E+00 0. -1.
         -3   -1    0    0    0  501 -0.00000000000E+00 -0.00000000000E+00 -0.40433084576E+03  0.40433084576E+03  0.00000000000E+00 0.  1.
          5    1    1    2  502    0 -0.43711567702E+03 -0.18988965005E+03  0.41292248698E+03  0.63059547013E+03  0.41800000000E+01 0. -1.
         -5    1    1    2    0  502  0.28778111636E+03 -0.29703486685E+02 -0.10658838177E+03  0.30834854237E+03  0.41800000000E+01 0.  1.
        -11    1    1    2    0    0  0.14118350000E+03  0.19830646775E+03  0.14873708919E+03  0.28527347848E+03  0.00000000000E+00 0. -1.
         11    1    1    2    0    0  0.81510606580E+01  0.21286668991E+02 -0.13183524709E+02  0.26331870240E+02  0.00000000000E+00 0.  1.
</event>
<event>
 6    1  0.6992302E-006  0.2059477E+03  0.7561462E-02  0.1144816E+00
          2   -1    0    0  501    0  0.00000000000E+00  0.00000000000E+00  0.72511811129E+03  0.72511811129E+03  0.00000000000E+00 0. -1.
         -2   -1    0    0    0  501 -0.00000000000E+00 -0.00000000000E+00 -0.11398586207E+03  0.11398586207E+03  0.00000000000E+00 0.  1.
          5    1    1    2  502    0 -0.28142614424E+02 -0.85681480376E+01  0.16682913608E+03  0.16945457490E+03  0.41800000000E+01 0. -1.
         -5    1    1    2    0  502 -0.14730737634E+03  0.82000286285E+02 -0.86154762511E+01  0.16886446904E+03  0.41800000000E+01 0.  1.
        -11    1    1    2    0    0  0.18553535921E+03 -0.79408315717E+02  0.43168457543E+03  0.47652977114E+03  0.00000000000E+00 0. -1.
         11    1    1    2    0    0 -0.10085368444E+02  0.59761774696E+01  0.21234013966E+02  0.24255158274E+02  0.00000000000E+00 0.  1.
</event>
<event>
 7    1  0.6992302E-006  0.2064142E+03  0.7561462E-02  0.1144437E+00
          2   -1    0    0  501    0  0.00000000000E+00  0.00000000000E+00  0.29747252096E+03  0.29747252096E+03  0.00000000000E+00 0. -1.
         -2   -1    0    0    0  501 -0.00000000000E+00 -0.00000000000E+00 -0.16225094359E+03  0.16225094359E+03  0.00000000000E+00 0.  1.
         23    2    1    2    0    0 -0.15999868596E+03  0.97230045990E+02  0.10611009211E+03  0.24891837229E+03  0.12509093917E+03 0.  0.
          5    1    3    3  502    0 -0.80760292087E+02  0.11727161594E+03  0.77851051741E+02  0.16233642641E+03  0.41800000000E+01 0.  1.
         -5    1    3    3    0  502 -0.79238393873E+02 -0.20041569947E+02  0.28259040368E+02  0.86581945878E+02  0.41800000000E+01 0.  1.
        -11    1    1    2    0    0  0.69712962067E+02 -0.55333094338E+02 -0.31330760853E+02  0.94357114118E+02  0.00000000000E+00 0. -1.
         11    1    1    2    0    0  0.90285723893E+02 -0.41896951652E+02  0.60442246119E+02  0.11644797814E+03  0.00000000000E+00 0.  1.
</event>
<event>
 7    1  0.6992302E-006  0.1189331E+03  0.7561462E-02  0.1244868E+00
          1   -1    0    0  501    0  0.00000000000E+00  0.00000000000E+00  0.29211144066E+02  0.29211144066E+02  0.00000000000E+00 0. -1.
         -1   -1    0    0    0  501 -0.00000000000E+00 -0.00000000000E+00 -0.51090320690E+03  0.51090320690E+03  0.00000000000E+00 0.  1.
         23    2    1    2    0    0 -0.46162211747E+02  0.28932719162E+02 -0.29235062232E+03  0.32262396021E+03  0.12509708751E+03 0.  0.
          5    1    3    3  502    0  0.17345126656E+02  0.59064151850E+02 -0.17735819171E+03  0.18778399298E+03  0.41800000000E+01 0. -1.
         -5    1    3    3    0  502 -0.63507338403E+02 -0.30131432689E+02 -0.11499243061E+03  0.13483996724E+03  0.41800000000E+01 0. -1.
        -11    1    1    2    0    0 -0.21177160293E+02  0.14457023477E+02 -0.61402262187E+02  0.66541080902E+02  0.00000000000E+00 0. -1.
         11    1    1    2    0    0  0.67339372040E+02 -0.43389742638E+02 -0.12793917834E+03  0.15094930986E+03  0.00000000000E+00 0.  1.
</event>
<event>
 7    1  0.6992302E-006  0.1670427E+03  0.7561462E-02  0.1180967E+00
          1   -1    0    0  501    0  0.00000000000E+00  0.00000000000E+00  0.97474400872E+03  0.97474400872E+03  0.00000000000E+00 0. -1.
         -1   -1    0    0    0  501 -0.00000000000E+00 -0.00000000000E+00 -0.32688080665E+02  0.32688080665E+02  0.00000000000E+00 0.  1.
         23    2    1    2    0    0  0.11894430565E+03 -0.77178330549E+02  0.51706043983E+03  0.55054690947E+03  0.12508460550E+03 0.  0.
          5    1    3    3  502    0  0.12460312248E+03 -0.21689309626E+02  0.41858365741E+03  0.43729408290E+03  0.41800000000E+01 0. -1.
         -5    1    3    3    0  502 -0.56588168248E+01 -0.55489020923E+02  0.98476782419E+02  0.11325282657E+03  0.41800000000E+01 0. -1.
        -11    1    1    2    0    0 -0.50438238179E+02  0.28430245339E+01  0.61465938553E+02  0.79562304274E+02  0.00000000000E+00 0.  1.
         11    1    1    2    0    0 -0.68506067472E+02  0.74335306015E+02  0.36352954967E+03  0.37732287564E+03  0.00000000000E+00 0. -1.
</event>
<event>
 7    1  0.6992302E-006  0.1022367E+03  0.7561462E-02  0.1275662E+00
         -1   -1    0    0    0  501 -0.00000000000E+00  0.00000000000E+00  0.16491255250E+03  0.16491255250E+03  0.00000000000E+00 0.  1.
          1   -1    0    0  501    0  0.00000000000E+00 -0.00000000000E+00 -0.17045938060E+03  0.17045938060E+03  0.00000000000E+00 0. -1.
         23    2    1    2    0    0  0.22989153736E+02  0.40512592265E+02  0.11538984928E+03  0.17644401857E+03  0.12509157865E+03 0.  0.
          5    1    3    3  502    0  0.58170886122E+02  0.26785985550E+02  0.12202580735E+03  0.13787353290E+03  0.41800000000E+01 0.  1.
         -5    1    3    3    0  502 -0.35181732385E+02  0.13726606715E+02 -0.66359580676E+01  0.38570485673E+02  0.41800000000E+01 0.  1.
        -11    1    1    2    0    0 -0.19382554214E+02  0.27801344315E+02 -0.30998557356E+02  0.45929388323E+02  0.00000000000E+00 0.  1.
         11    1    1    2    0    0 -0.36065995219E+01 -0.68313936579E+02 -0.89938120029E+02  0.11299852621E+03  0.00000000000E+00 0. -1.
</event>
<event>
 7    1  0.6992302E-006  0.1853124E+03  0.7561462E-02  0.1162759E+00
          1   -1    0    0  501    0  0.00000000000E+00  0.00000000000E+00  0.80276443338E+03  0.80276443338E+03  0.00000000000E+00 0. -1.
         -1   -1    0    0    0  501 -0.00000000000E+00 -0.00000000000E+00 -0.51797940868E+02  0.51797940868E+02  0.00000000000E+00 0.  1.
         23    2    1    2    0    0  0.96210187673E+02  0.13650772222E+03  0.30200108484E+03  0.36705115957E+03  0.12502455785E+03 0.  0.
          5    1    3    3  502    0  0.74758297179E+02  0.32320699921E+02  0.55785779970E+02  0.98807673221E+02  0.41800000000E+01 0.  1.
         -5    1    3    3    0  502  0.21451890495E+02  0.10418702230E+03  0.24621530487E+03  0.26824348635E+03  0.41800000000E+01 0.  1.
        -11    1    1    2    0    0  0.12060965217E+02 -0.75283278760E+01  0.10082610439E+02  0.17429906363E+02  0.00000000000E+00 0. -1.
         11    1    1    2    0    0 -0.10827115289E+03 -0.12897939434E+03  0.43888279724E+03  0.47008130831E+03  0.00000000000E+00 0.  1.
</event>
<event>
 7    1  0.6992302E-006  0.2056514E+03  0.7561462E-02  0.1145057E+00
          1   -1    0    0  501    0  0.00000000000E+00  0.00000000000E+00  0.61044465072E+03  0.61044465072E+03  0.00000000000E+00 0. -1.
         -1   -1    0    0    0  501 -0.00000000000E+00 -0.00000000000E+00 -0.12798018427E+03  0.12798018427E+03  0.00000000000E+00 0.  1.
         23    2    1    2    0    0  0.21727587415E+02  0.19384838506E+03  0.24360343984E+02  0.23300636247E+03  0.12509697896E+03 0.  0.
          5    1    3    3  502    0  0.46234482278E+00 -0.85714589432E+01 -0.22206188197E+02  0.24171695542E+02  0.41800000000E+01 0.  1.
         -5    1    3    3    0  502  0.21265242592E+02  0.20241984401E+03  0.46566532180E+02  0.20883466693E+03  0.41800000000E+01 0.  1.
        -11    1    1    2    0    0 -0.30113049995E+02 -0.11469318968E+03  0.17540317077E+03  0.21172528393E+03  0.00000000000E+00 0. -1.
         11    1    1    2    0    0  0.83854625802E+01 -0.79155195388E+02  0.28270095170E+03  0.29369318860E+03  0.00000000000E+00 0.  1.
</event>
<event>
 7    1  0.6992302E-006  0.1093315E+03  0.7561462E-02  0.1261813E+00
         -2   -1    0    0    0  501 -0.00000000000E+00  0.00000000000E+00  0.52310930064E+02  0.52310930064E+02  0.00000000000E+00 0.  1.
          2   -1    0    0  501    0  0.00000000000E+00 -0.00000000000E+00 -0.29978309325E+03  0.29978309325E+03  0.00000000000E+00 0. -1.
         23    2    1    2    0    0 -0.69433762026E+02 -0.92151684044E+01 -0.10249998042E+03  0.17623073448E+03  0.12508021087E+03 0.  0.
          5    1    3    3  502    0 -0.53234821472E+02  0.41016785249E+02 -0.10326814466E+03  0.12328059454E+03  0.41800000000E+01 0.  1.
         -5    1    3    3    0  502 -0.16198940554E+02 -0.50231953654E+02  0.76816423542E+00  0.52950139936E+02  0.41800000000E+01 0.  1.
        -11    1    1    2    0    0  0.55971912185E+02  0.37285451465E+02 -0.85959614366E+02  0.10914263670E+03  0.00000000000E+00 0.  1.
         11    1    1    2    0    0  0.13461849841E+02 -0.28070283060E+02 -0.59012568395E+02  0.66720652131E+02  0.00000000000E+00 0. -1.
</event>
<event>
 7    1  0.6992302E-006  0.1580640E+03  0.7561462E-02  0.1190900E+00
         -1   -1    0    0    0  501 -0.00000000000E+00  0.00000000000E+00  0.37139458938E+02  0.37139458938E+02  0.00000000000E+00 0.  1.
          1   -1    0    0  501    0  0.00000000000E+00 -0.00000000000E+00 -0.90994886847E+03  0.90994886847E+03  0.00000000000E+00 0. -1.
         23    2    1    2    0    0  0.11364664116E+03  0.32834743713E+02 -0.23099570716E+03  0.28809742076E+03  0.12508967855E+03 0.  0.
          5    1    3    3  502    0  0.10357103204E+03 -0.29014823711E+02 -0.12565271820E+03  0.16545360880E+03  0.41800000000E+01 0.  1.
         -5    1    3    3    0  502  0.10075609122E+02  0.61849567424E+02 -0.10534298896E+03  0.12264381196E+03  0.41800000000E+01 0.  1.
        -11    1    1    2    0    0 -0.83138253262E+02 -0.61818843778E+02 -0.51687031944E+03  0.52715127404E+03  0.00000000000E+00 0. -1.
         11    1    1    2    0    0 -0.30508387899E+02  0.28984100065E+02 -0.12494338292E+03  0.13183963260E+03  0.00000000000E+00 0.  1.
</event>
<event>
 7    1  0.6992302E-006  0.9706806E+02  0.7561462E-02  0.1286585E+00
          2   -1    0    0  501    0  0.00000000000E+00  0.00000000000E+00  0.18292838540E+02  0.18292838540E+02  0.00000000000E+00 0. -1.
         -2   -1    0    0    0  501 -0.00000000000E+00 -0.00000000000E+00 -0.99797351213E+03  0.99797351213E+03  0.00000000000E+00 0.  1.
         23    2    1    2    0    0  0.45239017121E+02  0.58649100016E+02 -0.66203229861E+03  0.67780555871E+03  0.12508926981E+03 0.  0.
          5    1    3    3  502    0  0.41520005430E+02  0.12613511855E+02 -0.59325385952E+03  0.59485344898E+03  0.41800000000E+01 0. -1.
         -5    1    3    3    0  502  0.37190116909E+01  0.46035588162E+02 -0.68778439084E+02  0.82952109727E+02  0.41800000000E+01 0. -1.
        -11    1    1    2    0    0 -0.48504655411E+02 -0.31871654920E+01 -0.73849154479E+02  0.88411295871E+02  0.00000000000E+00 0. -1.
         11    1    1    2    0    0  0.32656382894E+01 -0.55461934524E+02 -0.24379922051E+03  0.25004949609E+03  0.00000000000E+00 0.  1.
</event>
<event>
 7    1  0.6992302E-006  0.7188151E+02  0.7561462E-02  0.1353809E+00
          3   -1    0    0  501    0  0.00000000000E+00  0.00000000000E+00  0.77445637890E+02  0.77445637890E+02  0.00000000000E+00 0. -1.
         -3   -1    0    0    0  501 -0.00000000000E+00 -0.00000000000E+00 -0.24909722132E+03  0.24909722132E+03  0.00000000000E+00 0.  1.
         23    2    1    2    0    0  0.62421575535E+01 -0.15062512009E+02 -0.19157014748E+03  0.22937090317E+03  0.12508415575E+03 0.  0.
          5    1    3    3  502    0  0.35344409768E+02  0.77011189810E+01 -0.23044117520E+01  0.36487220351E+02  0.41800000000E+01 0.  1.
         -5    1    3    3    0  502 -0.29102252214E+02 -0.22763630990E+02 -0.18926573573E+03  0.19288368282E+03  0.41800000000E+01 0.  1.
        -11    1    1    2    0    0  0.28922290295E+02  0.19264365699E+02 -0.22890890124E+02  0.41612588389E+02  0.00000000000E+00 0.  1.
         11    1    1    2    0    0 -0.35164447849E+02 -0.42018536900E+01  0.42809454171E+02  0.55559367647E+02  0.00000000000E+00 0. -1.
</event>
<event>
 7    1  0.6992302E-006  0.1012199E+03  0.7561462E-02  0.1277751E+00
         -2   -1    0    0    0  501 -0.00000000000E+00  0.00000000000E+00  0.11510263993E+03  0.11510263993E+03  0.00000000000E+00 0.  1.
          2   -1    0    0  501    0  0.00000000000E+00 -0.00000000000E+00 -0.14486370502E+03  0.14486370502E+03  0.00000000000E+00 0. -1.
         23    2    1    2    0    0 -0.28509026004E+02  0.20630844832E+02  0.44107627229E+02  0.13722899516E+03  0.12509163846E+03 0.  0.
          5    1    3    3  502    0 -0.60547876553E+02 -0.31679861858E+02  0.23214390847E+02  0.72291350415E+02  0.41800000000E+01 0. -1.
         -5    1    3    3    0  502  0.32038850549E+02  0.52310706691E+02  0.20893236382E+02  0.64937644749E+02  0.41800000000E+01 0. -1.
        -11    1    1    2    0    0 -0.61707855356E+01 -0.34569715537E+02  0.49905756395E+01  0.35468995921E+02  0.00000000000E+00 0.  1.
         11    1    1    2    0    0  0.34679811539E+02  0.13938870704E+02 -0.78859267954E+02  0.87268353870E+02  0.00000000000E+00 0. -1.
</event>
<event>
 7    1  0.6992302E-006  0.1090772E+03  0.7561462E-02  0.1262288E+00
          1   -1    0    0  501    0  0.00000000000E+00  0.00000000000E+00  0.21327395154E+02  0.21327395154E+02  0.00000000000E+00 0. -1.
         -1   -1    0    0    0  501 -0.00000000000E+00 -0.00000000000E+00 -0.10739433117E+04  0.10739433117E+04  0.00000000000E+00 0.  1.
         23    2    1    2    0    0  0.60798303051E+02  0.84160656757E+01 -0.87867201839E+03  0.88965137287E+03  0.12509110893E+03 0.  0.
          5    1    3    3  502    0  0.32138753641E+02 -0.52254335964E+02 -0.25242996698E+03  0.25981103853E+03  0.41800000000E+01 0. -1.
         -5    1    3    3    0  502  0.28659549410E+02  0.60670401640E+02 -0.62624205141E+03  0.62984033434E+03  0.41800000000E+01 0. -1.
        -11    1    1    2    0    0 -0.88501928858E+01 -0.31405456180E+02 -0.12934277151E+03  0.13339483173E+03  0.00000000000E+00 0.  1.
         11    1    1    2    0    0 -0.51948110165E+02  0.22989390505E+02 -0.44601126621E+02  0.72224502223E+02  0.00000000000E+00 0. -1.
</event>
<event>
 7    1  0.6992302E-006  0.1188108E+03  0.7561462E-02  0.1245072E+00
         -1   -1    0    0    0  501 -0.00000000000E+00  0.00000000000E+00  0.62519358322E+03  0.62519358322E+03  0.00000000000E+00 0.  1.
          1   -1    0    0  501    0  0.00000000000E+00 -0.00000000000E+00 -0.30525124354E+02  0.30525124354E+02  0.00000000000E+00 0. -1.
         23    2    1    2    0    0  0.81813633061E+02 -0.26925485941E+02  0.33439465550E+03  0.36726825934E+03  0.12509091230E+03 0.  0.
          5    1    3    3  502    0  0.31230889311E+02  0.50051683627E+02  0.11600188933E+03  0.13020925547E+03  0.41800000000E+01 0. -1.
         -5    1    3    3    0  502  0.50582743749E+02 -0.76977169568E+02  0.21839276617E+03  0.23705900387E+03  0.41800000000E+01 0. -1.
        -11    1    1    2    0    0 -0.15855832358E+02  0.73187089429E+01 -0.17417722405E+01  0.17550062418E+02  0.00000000000E+00 0. -1.
         11    1    1    2    0    0 -0.65957800703E+02  0.19606776998E+02  0.26201557561E+03  0.27090038582E+03  0.00000000000E+00 0.  1.
</event>
<event>
 7    1  0.6992302E-006  0.1977373E+03  0.7561462E-02  0.1151662E+00
          2   -1    0    0  501    0  0.00000000000E+00  0.00000000000E+00  0.12814279795E+04  0.12814279795E+04  0.00000000000E+00 0. -1.
         -2   -1    0    0    0  501 -0.00000000000E+00 -0.00000000000E+00 -0.34606411080E+02  0.34606411080E+02  0.00000000000E+00 0.  1.
         23    2    1    2    0    0  0.16810331274E+03 -0.80179526863E+01  0.44509764862E+03  0.49202084480E+03  0.12509829571E+03 0.  0.
          5    1    3    3  502    0  0.14747730739E+03  0.43609038142E+02  0.33325896093E+03  0.36705627885E+03  0.41800000000E+01 0.  1.
         -5    1    3    3    0  502  0.20626005354E+02 -0.51626990828E+02  0.11183868769E+03  0.12496456595E+03  0.41800000000E+01 0.  1.
        -11    1    1    2    0    0  0.85364611168E+00  0.16675791495E+02  0.34111069910E+02  0.37978623251E+02  0.00000000000E+00 0.  1.
         11    1    1    2    0    0 -0.16895695886E+03 -0.86578388089E+01  0.76761284988E+03  0.78603492252E+03  0.00000000000E+00 0. -1.
</event>
<event>
 7    1  0.6992302E-006  0.1235602E+03  0.7561462E-02  0.1237337E+00
         -1   -1    0    0    0  501 -0.00000000000E+00  0.00000000000E+00  0.46084273129E+02  0.46084273129E+02  0.00000000000E+00 0.  1.
          1   -1    0    0  501    0  0.00000000000E+00 -0.00000000000E+00 -0.48555561963E+03  0.48555561963E+03  0.00000000000E+00 0. -1.
         23    2    1    2    0    0  0.77687040961E+02 -0.47922441178E+02 -0.15720292096E+03  0.22066149710E+03  0.12508757429E+03 0.  0.
          5    1    3    3  502    0  0.14162732757E+02 -0.80980423237E+02 -0.95132329991E+02  0.12580160792E+03  0.41800000000E+01 0. -1.
         -5    1    3    3    0  502  0.63524308204E+02  0.33057982058E+02 -0.62070590970E+02  0.94859889173E+02  0.41800000000E+01 0. -1.
        -11    1    1    2    0    0 -0.38291113494E+02  0.13035918072E+02 -0.23222119360E+02  0.46641305301E+02  0.00000000000E+00 0.  1.
         11    1    1    2    0    0 -0.39395927467E+02  0.34886523107E+02 -0.25904630618E+03  0.26433709036E+03  0.00000000000E+00 0. -1.
</event>
<event>
 7    1  0.6992302E-006  0.1218134E+03  0.7561462E-02  0.1240135E+00
         -2   -1    0    0    0  501 -0.00000000000E+00  0.00000000000E+00  0.32317323536E+02  0.32317323536E+02  0.00000000000E+00 0.  1.
          2   -1    0    0  501    0  0.00000000000E+00 -0.00000000000E+00 -0.69500699371E+03  0.69500699371E+03  0.00000000000E+00 0. -1.
         23    2    1    2    0    0 -0.52570582481E+01 -0.83663308436E+02 -0.21125870271E+03  0.25942970432E+03  0.12508535555E+03 0.  0.
          5    1    3    3  502    0 -0.74081836652E+01 -0.10177059305E+03 -0.21702551066E+03  0.23985345416E+03  0.41800000000E+01 0. -1.
         -5    1    3    3    0  502  0.21511254171E+01  0.18107284616E+02  0.57668079438E+01  0.19576250167E+02  0.41800000000E+01 0. -1.
        -11    1    1    2    0    0 -0.38814409093E+02  0.15867939691E+02 -0.14079128436E+03  0.14690315046E+03  0.00000000000E+00 0.  1.
         11    1    1    2    0    0  0.44071467341E+02  0.67795368745E+02 -0.31063968310E+03  0.32099146246E+03  0.00000000000E+00 0. -1.
</event>
<event>
 7    1  0.6992302E-006  0.8991392E+02  0.7561462E-02  0.1303060E+00
          4   -1    0    0  501    0  0.00000000000E+00  0.00000000000E+00  0.85849037796E+02  0.85849037796E+02  0.00000000000E+00 0.  1.
         -4   -1    0    0    0  501 -0.00000000000E+00 -0.00000000000E+00 -0.19219165461E+03  0.19219165461E+03  0.00000000000E+00 0. -1.
         23    2    1    2    0    0  0.37032403329E+02 -0.57223256221E+02 -0.90494950030E+02  0.16875244314E+03  0.12506858573E+03 0.  0.
          5    1    3    3  502    0  0.55296820944E+01  0.74938774776E+01 -0.95909154166E+02  0.96450888210E+02  0.41800000000E+01 0. -1.
         -5    1    3    3    0  502  0.31502721234E+02 -0.64717133699E+02  0.54142041361E+01  0.72301554933E+02  0.41800000000E+01 0. -1.
        -11    1    1    2    0    0  0.14586485917E+02  0.40836711682E+02 -0.30700290097E+02  0.53131068166E+02  0.00000000000E+00 0. -1.
         11    1    1    2    0    0 -0.51618889246E+02  0.16386544539E+02  0.14852623317E+02  0.56157181093E+02  0.00000000000E+00 0.  1.
</event>
<event>
 7    1  0.6992302E-006  0.8526441E+02  0.7561462E-02  0.1314743E+00
         -1   -1    0    0    0  501 -0.00000000000E+00  0.00000000000E+00  0.52675046518E+02  0.52675046518E+02  0.00000000000E+00 0. -1.
          1   -1    0    0  501    0  0.00000000000E+00 -0.00000000000E+00 -0.28651967661E+03  0.28651967661E+03  0.00000000000E+00 0.  1.
         23    2    1    2    0    0 -0.20332229226E-01 -0.11057524370E+02 -0.52797285696E+02  0.13625184670E+03  0.12511891581E+03 0.  0.
          5    1    3    3  502    0 -0.83788357173E+01  0.44871763398E+02 -0.63730205793E+02  0.78502812490E+02  0.41800000000E+01 0. -1.
         -5    1    3    3    0  502  0.83585034881E+01 -0.55929287767E+02  0.10932920096E+02  0.57749034213E+02  0.41800000000E+01 0. -1.
        -11    1    1    2    0    0  0.32502412095E+02  0.13961523633E+02 -0.24488261278E+02  0.43023317801E+02  0.00000000000E+00 0. -1.
         11    1    1    2    0    0 -0.32482079866E+02 -0.29039992633E+01 -0.15655908311E+03  0.15991955862E+03  0.00000000000E+00 0.  1.
</event>
<event>
 7    1  0.6992302E-006  0.1881822E+03  0.7561462E-02  0.1160111E+00
          2   -1    0    0  501    0  0.00000000000E+00  0.00000000000E+00  0.63671451018E+03  0.63671451018E+03  0.00000000000E+00 0. -1.
         -2   -1    0    0    0  501 -0.00000000000E+00 -0.00000000000E+00 -0.83992332286E+02  0.83992332286E+02  0.00000000000E+00 0.  1.
         23    2    1    2    0    0  0.13338455026E+03 -0.52046879279E+02  0.84446541971E+02  0.20805995435E+03  0.12512957390E+03 0.  0.
          5    1    3    3  502    0 -0.59756130400E+01  0.14656321327E+02  0.45951770357E+02  0.48780665278E+02  0.41800000000E+01 0. -1.
         -5    1    3    3    0  502  0.13936016330E+03 -0.66703200606E+02  0.38494771615E+02  0.15927928908E+03  0.41800000000E+01 0. -1.
        -11    1    1    2    0    0 -0.15463073700E+03  0.60262125055E+01  0.38783577322E+03  0.41756863753E+03  0.00000000000E+00 0.  1.
         11    1    1    2    0    0  0.21246186739E+02  0.46020666773E+02  0.80439862700E+02  0.95078250575E+02  0.00000000000E+00 0. -1.
</event>
<event>
 7    1  0.6992302E-006  0.9457855E+02  0.7561462E-02  0.1292128E+00
         -1   -1    0    0    0  501 -0.00000000000E+00  0.00000000000E+00  0.45154368220E+02  0.45154368220E+02  0.00000000000E+00 0.  1.
          1   -1    0    0  501    0  0.00000000000E+00 -0.00000000000E+00 -0.38381599041E+03  0.38381599041E+03  0.00000000000E+00 0. -1.
         23    2    1    2    0    0 -0.45154319483E+02 -0.22899272803E+02 -0.16822526849E+03  0.21570123811E+03  0.12515587841E+03 0.  0.
          5    1    3    3  502    0 -0.38539802957E+02 -0.44285086475E+02 -0.18048478708E+03  0.18983865798E+03  0.41800000000E+01 0. -1.
         -5    1    3    3    0  502 -0.66145165254E+01  0.21385813672E+02  0.12259518583E+02  0.25862580134E+02  0.41800000000E+01 0. -1.
        -11    1    1    2    0    0  0.10316506585E+02 -0.36903985122E+02 -0.11643454241E+02  0.40048775920E+02  0.00000000000E+00 0.  1.
         11    1    1    2    0    0  0.34837812898E+02  0.59803257925E+02 -0.15879289946E+03  0.17322034460E+03  0.00000000000E+00 0. -1.
</event>
<event>
 7    1  0.6992302E-006  0.1370788E+03  0.7561462E-02  0.1217315E+00
          1   -1    0    0  501    0  0.00000000000E+00  0.00000000000E+00  0.10207604889E+03  0.10207604889E+03  0.00000000000E+00 0. -1.
         -1   -1    0    0    0  501 -0.00000000000E+00 -0.00000000000E+00 -0.19565225453E+03  0.19565225453E+03  0.00000000000E+00 0.  1.
         23    2    1    2    0    0  0.40135971118E+02  0.79865572478E+02 -0.65290810715E+02  0.16703180277E+03  0.12508927743E+03 0.  0.
          5    1    3    3  502    0 -0.42259661624E+02  0.22022044642E+02 -0.41903279513E+02  0.63594077434E+02  0.41800000000E+01 0.  1.
         -5    1    3    3    0  502  0.82395632743E+02  0.57843527837E+02 -0.23387531203E+02  0.10343772534E+03  0.41800000000E+01 0.  1.
        -11    1    1    2    0    0  0.28373402775E+02 -0.24004064991E+02 -0.19205973260E+02  0.41834370200E+02  0.00000000000E+00 0.  1.
         11    1    1    2    0    0 -0.68509373893E+02 -0.55861507487E+02 -0.90794216556E+01  0.88862130447E+02  0.00000000000E+00 0. -1.
</event>
<event>
 7    1  0.6992302E-006  0.7224191E+02  0.7561462E-02  0.1352631E+00
          1   -1    0    0  501    0  0.00000000000E+00  0.00000000000E+00  0.62975628469E+02  0.62975628469E+02  0.00000000000E+00 0. -1.
         -1   -1    0    0    0  501 -0.00000000000E+00 -0.00000000000E+00 -0.33323633693E+03  0.33323633693E+03  0.00000000000E+00 0.  1.
         23    2    1    2    0    0  0.10154773011E+02  0.29095751685E+02 -0.27394682813E+03  0.29963302329E+03  0.11740273344E+03 0.  0.
          5    1    3    3  502    0  0.40855411315E+02  0.33395172404E+02 -0.47763026482E+02  0.71296432396E+02  0.41800000000E+01 0. -1.
         -5    1    3    3    0  502 -0.30700638303E+02 -0.42994207194E+01 -0.22618380165E+03  0.22833659089E+03  0.41800000000E+01 0.  1.
        -11    1    1    2    0    0  0.17687608002E+02  0.28264426691E+01 -0.34933455387E+02  0.39257949008E+02  0.00000000000E+00 0. -1.
         11    1    1    2    0    0 -0.27842381013E+02 -0.31922194354E+02  0.38619575058E+02  0.57320993105E+02  0.00000000000E+00 0.  1.
</event>
<event>
 7    1  0.6992302E-006  0.9258496E+02  0.7561462E-02  0.1296710E+00
          1   -1    0    0  501    0  0.00000000000E+00  0.00000000000E+00  0.78985578987E+03  0.78985578987E+03  0.00000000000E+00 0. -1.
         -1   -1    0    0    0  501 -0.00000000000E+00 -0.00000000000E+00 -0.16038675965E+02  0.16038675965E+02  0.00000000000E+00 0.  1.
         23    2    1    2    0    0 -0.38488597991E+02 -0.17470930048E+02  0.46241663412E+03  0.48089805099E+03  0.12508871398E+03 0.  0.
          5    1    3    3  502    0  0.18415198951E+02  0.19546377672E+02  0.33811714453E+03  0.33920768897E+03  0.41800000000E+01 0. -1.
         -5    1    3    3    0  502 -0.56903796942E+02 -0.37017307720E+02  0.12429948959E+03  0.14169036202E+03  0.41800000000E+01 0. -1.
        -11    1    1    2    0    0  0.36878054097E+02  0.47372004042E+02  0.16543328452E+03  0.17598940101E+03  0.00000000000E+00 0. -1.
         11    1    1    2    0    0  0.16105438936E+01 -0.29901073994E+02  0.14596719527E+03  0.14900701383E+03  0.00000000000E+00 0.  1.
</event>
<event>
 7    1  0.6992302E-006  0.9200829E+02  0.7561462E-02  0.1298060E+00
          1   -1    0    0  501    0  0.00000000000E+00  0.00000000000E+00  0.13626439127E+03  0.13626439127E+03  0.00000000000E+00 0. -1.
         -1   -1    0    0    0  501 -0.00000000000E+00 -0.00000000000E+00 -0.88026943607E+02  0.88026943607E+02  0.00000000000E+00 0.  1.
         23    2    1    2    0    0  0.22919452343E+02  0.30006087956E+02  0.21106465616E+02  0.13234128333E+03  0.12507224222E+03 0.  0.
          5    1    3    3  502    0  0.67769667685E+02 -0.10887339421E+02  0.19519119643E+02  0.71482378594E+02  0.41800000000E+01 0.  1.
         -5    1    3    3    0  502 -0.44850215342E+02  0.40893427377E+02  0.15873459730E+01  0.60858904740E+02  0.41800000000E+01 0.  1.
        -11    1    1    2    0    0 -0.32958619621E+02 -0.29703974440E+02  0.50075199574E+02  0.66903828868E+02  0.00000000000E+00 0. -1.
         11    1    1    2    0    0  0.10039167278E+02 -0.30211351675E+00 -0.22944217529E+02  0.25046222674E+02  0.00000000000E+00 0.  1.
</event>
<event>
 7    1  0.6992302E-006  0.9828926E+02  0.7561462E-02  0.1283935E+00
         -2   -1    0    0    0  501 -0.00000000000E+00  0.00000000000E+00  0.14880068029E+03  0.14880068029E+03  0.00000000000E+00 0. -1.
          2   -1    0    0  501    0  0.00000000000E+00 -0.00000000000E+00 -0.83797333692E+02  0.83797333692E+02  0.00000000000E+00 0.  1.
         23    2    1    2    0    0  0.11337791897E+02 -0.19656894045E+02  0.53056452625E+02  0.13776875437E+03  0.12510117309E+03 0.  0.
          5    1    3    3  502    0 -0.25195605612E+02 -0.49738420094E+02 -0.12025799938E+02  0.57191094060E+02  0.41800000000E+01 0. -1.
         -5    1    3    3    0  502  0.36533397508E+02  0.30081526049E+02  0.65082252563E+02  0.80577660314E+02  0.41800000000E+01 0. -1.
        -11    1    1    2    0    0 -0.46529738372E+02  0.31313619046E+02  0.70408547937E+00  0.56089705180E+02  0.00000000000E+00 0.  1.
         11    1    1    2    0    0  0.35191946476E+02 -0.11656725001E+02  0.11242808493E+02  0.38739554428E+02  0.00000000000E+00 0. -1.
</event>
<event>
 7    1  0.6992302E-006  0.1132726E+03  0.7561462E-02  0.1254627E+00
          2   -1    0    0  501    0  0.00000000000E+00  0.00000000000E+00  0.94630944952E+03  0.94630944952E+03  0.00000000000E+00 0. -1.
         -2   -1    0    0    0  501 -0.00000000000E+00 -0.00000000000E+00 -0.14428935655E+02  0.14428935655E+02  0.00000000000E+00 0.  1.
         23    2    1    2    0    0  0.43424667937E+02  0.10341483626E+02  0.51502319248E+03  0.53187299156E+03  0.12508933722E+03 0.  0.
          5    1    3    3  502    0  0.80607038864E+01  0.64815906148E+02  0.30733738994E+03  0.31422892975E+03  0.41800000000E+01 0.  1.
         -5    1    3    3    0  502  0.35363964051E+02 -0.54474422523E+02  0.20768580254E+03  0.21764406181E+03  0.41800000000E+01 0.  1.
        -11    1    1    2    0    0 -0.41010343207E+02  0.32980193934E+02  0.29147680759E+03  0.29618958592E+03  0.00000000000E+00 0. -1.
         11    1    1    2    0    0 -0.24143247301E+01 -0.43321677559E+02  0.12538051379E+03  0.13267580770E+03  0.00000000000E+00 0.  1.
</event>
<event>
 6    1  0.6992302E-006  0.7944709E+02  0.7561462E-02  0.1330628E+00
          2   -1    0    0  501    0  0.00000000000E+00  0.00000000000E+00  0.21250875289E+03  0.21250875289E+03  0.00000000000E+00 0. -1.
         -2   -1    0    0    0  501 -0.00000000000E+00 -0.00000000000E+00 -0.14328475825E+03  0.14328475825E+03  0.00000000000E+00 0.  1.
          5    1    1    2  502    0 -0.17141870048E+02 -0.40600521793E+02  0.56455938380E+02  0.71742535898E+02  0.41800000000E+01 0. -1.
         -5    1    1    2    0  502 -0.20310138753E+02 -0.17347112555E+02 -0.11071611154E+03  0.11396909144E+03  0.41800000000E+01 0.  1.
        -11    1    1    2    0    0  0.12606604347E+02  0.61243297750E+02  0.23166854043E+02  0.66681115158E+02  0.00000000000E+00 0.  1.
         11    1    1    2    0    0  0.24845404454E+02 -0.32956634018E+01  0.10031731375E+03  0.10340076865E+03  0.00000000000E+00 0. -1.
</event>
<event>
 7    1  0.6992302E-006  0.9943565E+02  0.7561462E-02  0.1281487E+00
          1   -1    0    0  501    0  0.00000000000E+00  0.00000000000E+00  0.62844828469E+02  0.62844828469E+02  0.00000000000E+00 0. -1.
         -1   -1    0    0    0  501 -0.00000000000E+00 -0.00000000000E+00 -0.69110440856E+03  0.69110440856E+03  0.00000000000E+00 0.  1.
         23    2    1    2    0    0  0.78017964269E+02 -0.34723287324E+02 -0.57430132365E+03  0.59393650521E+03  0.12508418143E+03 0.  0.
          5    1    3    3  502    0  0.84319691803E+02 -0.31075887396E+02 -0.57785790093E+03  0.58481855927E+03  0.41800000000E+01 0.  1.
         -5    1    3    3    0  502 -0.63017275334E+01 -0.36473999277E+01  0.35565772814E+01  0.91179459363E+01  0.41800000000E+01 0.  1.
        -11    1    1    2    0    0 -0.26315652145E+02 -0.13707739207E+02 -0.79381955184E+02  0.84746153133E+02  0.00000000000E+00 0.  1.
         11    1    1    2    0    0 -0.51702312124E+02  0.48431026531E+02  0.25423698739E+02  0.75266578688E+02  0.00000000000E+00 0. -1.
</event>
<event>
 7    1  0.6992302E-006  0.1327806E+03  0.7561462E-02  0.1223387E+00
          1   -1    0    0  501    0  0.00000000000E+00  0.00000000000E+00  0.26452955884E+03  0.26452955884E+03  0.00000000000E+00 0. -1.
         -1   -1    0    0    0  501 -0.00000000000E+00 -0.00000000000E+00 -0.98213474805E+02  0.98213474805E+02  0.00000000000E+00 0.  1.
         23    2    1    2    0    0 -0.65184893260E+02  0.94520622543E+02  0.63788548514E+02  0.18138007352E+03  0.12508610536E+03 0.  0.
          5    1    3    3  502    0 -0.53712389105E+02  0.67934931331E+02 -0.23074858929E+02  0.89722333635E+02  0.41800000000E+01 0. -1.
         -5    1    3    3    0  502 -0.11472504155E+02  0.26585691212E+02  0.86863407443E+02  0.91657739888E+02  0.41800000000E+01 0. -1.
        -11    1    1    2    0    0  0.89034996397E+02 -0.58974807310E+02  0.73382073973E+02  0.12957695498E+03  0.00000000000E+00 0. -1.
         11    1    1    2    0    0 -0.23850103137E+02 -0.35545815233E+02  0.29145461551E+02  0.51786005149E+02  0.00000000000E+00 0.  1.
</event>
<event>
 7    1  0.6992302E-006  0.1205012E+03  0.7561462E-02  0.1242273E+00
         -2   -1    0    0    0  501 -0.00000000000E+00  0.00000000000E+00  0.20850753759E+03  0.20850753759E+03  0.00000000000E+00 0. -1.
          2   -1    0    0  501    0  0.00000000000E+00 -0.00000000000E+00 -0.94307506642E+02  0.94307506642E+02  0.00000000000E+00 0.  1.
         23    2    1    2    0    0 -0.87468054170E+02 -0.11442532968E+02  0.51069434213E+02  0.16136710781E+03  0.12509861835E+03 0.  0.
          5    1    3    3  502    0  0.25953722484E+02  0.21565846285E+02  0.18739527203E+02  0.38824267109E+02  0.41800000000E+01 0.  1.
         -5    1    3    3    0  502 -0.11342177665E+03 -0.33008379253E+02  0.32329907010E+02  0.12254284070E+03  0.41800000000E+01 0.  1.
        -11    1    1    2    0    0  0.49921577962E+02  0.14375025595E+01 -0.16702127522E+02  0.52661099719E+02  0.00000000000E+00 0.  1.
         11    1    1    2    0    0  0.37546476208E+02  0.10005030408E+02  0.79832724256E+02  0.88786836700E+02  0.00000000000E+00 0. -1.
</event>
<event>
 7    1  0.6992302E-006  0.1025982E+03  0.7561462E-02  0.1274925E+00
          1   -1    0    0  501    0  0.00000000000E+00  0.00000000000E+00  0.98329379880E+02  0.98329379880E+02  0.00000000000E+00 0. -1.
         -1   -1    0    0    0  501 -0.00000000000E+00 -0.00000000000E+00 -0.15755078606E+03  0.15755078606E+03  0.00000000000E+00 0.  1.
         23    2    1    2    0    0  0.29099113068E+02 -0.13837276613E+02 -0.87392941507E+02  0.15595607569E+03  0.12508614118E+03 0.  0.
          5    1    3    3  502    0  0.62338645467E+02  0.33085017679E+02 -0.56793369560E+02  0.90684531975E+02  0.41800000000E+01 0. -1.
         -5    1    3    3    0  502 -0.33239532399E+02 -0.46922294291E+02 -0.30599571947E+02  0.65271543716E+02  0.41800000000E+01 0. -1.
        -11    1    1    2    0    0 -0.47811180388E+02 -0.75749937487E+01  0.45656863507E+02  0.66542006926E+02  0.00000000000E+00 0.  1.
         11    1    1    2    0    0  0.18712067320E+02  0.21412270361E+02 -0.17485328178E+02  0.33382083322E+02  0.00000000000E+00 0. -1.
</event>
<event>
 7    1  0.6992302E-006  0.8701426E+02  0.7561462E-02  0.1310248E+00
          2   -1    0    0  501    0  0.00000000000E+00  0.00000000000E+00  0.16429314665E+03  0.16429314665E+03  0.00000000000E+00 0. -1.
         -2   -1    0    0    0  501 -0.00000000000E+00 -0.00000000000E+00 -0.17787204261E+03  0.17787204261E+03  0.00000000000E+00 0.  1.
         23    2    1    2    0    0  0.49604709204E+02 -0.33413074935E+02 -0.12487120599E+03  0.18659394163E+03  0.12508964872E+03 0.  0.
          5    1    3    3  502    0  0.13949479569E+02  0.15027936889E+02 -0.12455402691E+03  0.12629966305E+03  0.41800000000E+01 0. -1.
         -5    1    3    3    0  502  0.35655229635E+02 -0.48441011824E+02 -0.31717907570E+00  0.60294278580E+02  0.41800000000E+01 0. -1.
        -11    1    1    2    0    0 -0.54402527584E+02 -0.45048903101E+01  0.10283593883E+03  0.11642662650E+03  0.00000000000E+00 0. -1.
         11    1    1    2    0    0  0.47978183794E+01  0.37917965245E+02  0.84563711936E+01  0.39144621129E+02  0.00000000000E+00 0.  1.
</event>
<event>
 7    1  0.6992302E-006  0.9976869E+02  0.7561462E-02  0.1280783E+00
         -2   -1    0    0    0  501 -0.00000000000E+00  0.00000000000E+00  0.91443288691E+02  0.91443288691E+02  0.00000000000E+00 0.  1.
          2   -1    0    0  501    0  0.00000000000E+00 -0.00000000000E+00 -0.12778956715E+03  0.12778956715E+03  0.00000000000E+00 0. -1.
         23    2    1    2    0    0 -0.12103631563E+02 -0.99151075175E+01 -0.26189462641E+02  0.12875583404E+03  0.12508944636E+03 0.  0.
          5    1    3    3  502    0  0.47801963432E+02  0.35893600171E+01  0.19685785141E+02  0.51989554239E+02  0.41800000000E+01 0. -1.
         -5    1    3    3    0  502 -0.59905594995E+02 -0.13504467535E+02 -0.45875247783E+02  0.76766279799E+02  0.41800000000E+01 0. -1.
        -11    1    1    2    0    0 -0.12593395445E+02  0.45131024255E+02 -0.39960387958E+01  0.47025219672E+02  0.00000000000E+00 0.  1.
         11    1    1    2    0    0  0.24697027007E+02 -0.35215916737E+02 -0.61607770183E+01  0.43451802127E+02  0.00000000000E+00 0. -1.
</event>
<event>
 7    1  0.6992302E-006  0.1162437E+03  0.7561462E-02  0.1249426E+00
         -2   -1    0    0    0  501 -0.00000000000E+00  0.00000000000E+00  0.16298040127E+03  0.16298040127E+03  0.00000000000E+00 0. -1.
          2   -1    0    0  501    0  0.00000000000E+00 -0.00000000000E+00 -0.92759938665E+02  0.92759938665E+02  0.00000000000E+00 0.  1.
         23    2    1    2    0    0  0.30021530181E+02 -0.45583226375E+02  0.62042954836E+02  0.14991970605E+03  0.12508983658E+03 0.  0.
          5    1    3    3  502    0 -0.46551047859E+02 -0.32808986032E+02  0.37810042593E+02  0.68487234884E+02  0.41800000000E+01 0. -1.
         -5    1    3    3    0  502  0.76572578039E+02 -0.12774240343E+02  0.24232912243E+02  0.81432471163E+02  0.41800000000E+01 0. -1.
        -11    1    1    2    0    0  0.59103279427E+01  0.58992213222E+02 -0.14806695745E+02  0.61108521796E+02  0.00000000000E+00 0.  1.
         11    1    1    2    0    0 -0.35931858123E+02 -0.13408986847E+02  0.22984203512E+02  0.44712112090E+02  0.00000000000E+00 0. -1.
</event>
<event>
 6    1  0.6992302E-006  0.1233338E+03  0.7561462E-02  0.1237697E+00
         -1   -1    0    0    0  501 -0.00000000000E+00  0.00000000000E+00  0.26258991627E+03  0.26258991627E+03  0.00000000000E+00 0.  1.
          1   -1    0    0  501    0  0.00000000000E+00 -0.00000000000E+00 -0.87257337020E+02  0.87257337020E+02  0.00000000000E+00 0. -1.
          5    1    1    2  502    0 -0.25821281757E+02  0.97920843281E+02  0.46055340547E+02  0.11132743118E+03  0.41800000000E+01 0. -1.
         -5    1    1    2    0  502  0.42714340638E+02 -0.50563199066E+02  0.11643535334E+03  0.13399931307E+03  0.41800000000E+01 0.  1.
        -11    1    1    2    0    0 -0.52207564003E+01 -0.60893873597E+02  0.39247796756E+02  0.72634080770E+02  0.00000000000E+00 0.  1.
         11    1    1    2    0    0 -0.11672302481E+02  0.13536229382E+02 -0.26405911395E+02  0.31886428268E+02  0.00000000000E+00 0. -1.
</event>
<event>
 7    1  0.6992302E-006  0.1002145E+03  0.7561462E-02  0.1279846E+00
         -1   -1    0    0    0  501 -0.00000000000E+00  0.00000000000E+00  0.33651932406E+03  0.33651932406E+03  0.00000000000E+00 0.  1.
          1   -1    0    0  501    0  0.00000000000E+00 -0.00000000000E+00 -0.68913278399E+02  0.68913278399E+02  0.00000000000E+00 0. -1.
         23    2    1    2    0    0  0.25678099505E+02 -0.43640467188E+02  0.26846760212E+03  0.30048615686E+03  0.12511283670E+03 0.  0.
          5    1    3    3  502    0 -0.52357296931E+01 -0.83756978633E+02  0.17357140886E+03  0.19283970211E+03  0.41800000000E+01 0.  1.
         -5    1    3    3    0  502  0.30913829198E+02  0.40116511445E+02  0.94896193261E+02  0.10764645476E+03  0.41800000000E+01 0.  1.
        -11    1    1    2    0    0 -0.37315501569E+02  0.32787039267E+02 -0.39302921139E+02  0.63341583587E+02  0.00000000000E+00 0. -1.
         11    1    1    2    0    0  0.11637402064E+02  0.10853427921E+02  0.38441364673E+02  0.41604862004E+02  0.00000000000E+00 0.  1.
</event>
<event>
 7    1  0.6992302E-006  0.9924312E+02  0.7561462E-02  0.1281896E+00
          4   -1    0    0  501    0  0.00000000000E+00  0.00000000000E+00  0.12431210081E+03  0.12431210081E+03  0.00000000000E+00 0. -1.
         -4   -1    0    0    0  501 -0.00000000000E+00 -0.00000000000E+00 -0.12255552754E+03  0.12255552754E+03  0.00000000000E+00 0.  1.
         23    2    1    2    0    0  0.20755480168E+02  0.53788531885E+02 -0.21167185583E+02  0.13935369024E+03  0.12508958836E+03 0.  0.
          5    1    3    3  502    0  0.58984642084E+02  0.28359387560E+02 -0.52164917290E+02  0.83797934702E+02  0.41800000000E+01 0. -1.
         -5    1    3    3    0  502 -0.38229161916E+02  0.25429144325E+02  0.30997731706E+02  0.55555755533E+02  0.41800000000E+01 0. -1.
        -11    1    1    2    0    0 -0.44391141937E+02 -0.32843893196E+02 -0.15903752323E+02  0.57464981865E+02  0.00000000000E+00 0.  1.
         11    1    1    2    0    0  0.23635661769E+02 -0.20944638689E+02  0.38827511177E+02  0.50048956246E+02  0.00000000000E+00 0. -1.
</event>
<event>
 7    1  0.6992302E-006  0.1047740E+03  0.7561462E-02  0.1270566E+00
          1   -1    0    0  501    0  0.00000000000E+00  0.00000000000E+00  0.50686016016E+03  0.50686016016E+03  0.00000000000E+00 0. -1.
         -1   -1    0    0    0  501 -0.00000000000E+00 -0.00000000000E+00 -0.27932288643E+02  0.27932288643E+02  0.00000000000E+00 0.  1.
         23    2    1    2    0    0 -0.35575270273E+02 -0.33803132637E+01  0.18389991252E+03  0.22454640929E+03  0.12379372248E+03 0.  0.
          5    1    3    3  502    0 -0.70747840799E+02 -0.29760422052E+02  0.76619197500E+02  0.10853070314E+03  0.41800000000E+01 0. -1.
         -5    1    3    3    0  502  0.35172570526E+02  0.26380108789E+02  0.10728071502E+03  0.11601570615E+03  0.41800000000E+01 0.  1.
        -11    1    1    2    0    0  0.69181804902E+00  0.38798809403E+02  0.72489406986E+02  0.82222505122E+02  0.00000000000E+00 0. -1.
         11    1    1    2    0    0  0.34883452224E+02 -0.35418496139E+02  0.22253855200E+03  0.22802353439E+03  0.00000000000E+00 0.  1.
</event>
<event>
 7    1  0.6992302E-006  0.1086562E+03  0.7561462E-02  0.1263079E+00
          2   -1    0    0  501    0  0.00000000000E+00  0.00000000000E+00  0.36194614838E+03  0.36194614838E+03  0.00000000000E+00 0.  1.
         -2   -1    0    0    0  501 -0.00000000000E+00 -0.00000000000E+00 -0.48398047352E+02  0.48398047352E+02  0.00000000000E+00 0. -1.
         23    2    1    2    0    0  0.62453802098E+02  0.39402101399E+01  0.10794773622E+03  0.17668062777E+03  0.12508927941E+03 0.  0.
          5    1    3    3  502    0  0.35784580514E+02  0.56752132584E+02  0.94320833065E+02  0.11582414561E+03  0.41800000000E+01 0.  1.
         -5    1    3    3    0  502  0.26669221584E+02 -0.52811922444E+02  0.13626903151E+02  0.60856482166E+02  0.41800000000E+01 0.  1.
        -11    1    1    2    0    0 -0.74333281678E+02  0.69576780977E+01  0.20427230355E+03  0.21748797679E+03  0.00000000000E+00 0.  1.
         11    1    1    2    0    0  0.11879479580E+02 -0.10897888238E+02  0.13280612661E+01  0.16175591175E+02  0.00000000000E+00 0. -1.
</event>
<event>
 6    1  0.6992302E-006  0.2020705E+03  0.7561462E-02  0.1148004E+00
         -2   -1    0    0    0  501 -0.00000000000E+00  0.00000000000E+00  0.26274295718E+02  0.26274295718E+02  0.00000000000E+00 0.  1.
          2   -1    0    0  501    0  0.00000000000E+00 -0.00000000000E+00 -0.16138513797E+04  0.16138513797E+04  0.00000000000E+00 0. -1.
          5    1    1    2  502    0  0.98397154992E+02  0.13923576491E+03 -0.60963821123E+03  0.63304408957E+03  0.41800000000E+01 0. -1.
         -5    1    1    2    0  502 -0.62000009893E+02 -0.11398593250E+03 -0.65880111451E+03  0.67147090399E+03  0.41800000000E+01 0.  1.
        -11    1    1    2    0    0  0.31112736954E+02  0.15128359307E+01 -0.89741232825E+02  0.94993578427E+02  0.00000000000E+00 0. -1.
         11    1    1    2    0    0 -0.67509882053E+02 -0.26762668339E+02 -0.22939652545E+03  0.24061710347E+03  0.00000000000E+00 0.  1.
</event>
<event>
 7    1  0.6992302E-006  0.1277098E+03  0.7561462E-02  0.1230894E+00
         -2   -1    0    0    0  501 -0.00000000000E+00  0.00000000000E+00  0.72462937249E+02  0.72462937249E+02  0.00000000000E+00 0.  1.
          2   -1    0    0  501    0  0.00000000000E+00 -0.00000000000E+00 -0.35795362273E+03  0.35795362273E+03  0.00000000000E+00 0. -1.
         23    2    1    2    0    0  0.46240941073E+02  0.58870134817E+02 -0.29473806866E+02  0.14872342006E+03  0.12508410362E+03 0.  0.
          5    1    3    3  502    0 -0.23296461560E+02  0.67700527850E+02 -0.31827384811E+02  0.78463631169E+02  0.41800000000E+01 0. -1.
         -5    1    3    3    0  502  0.69537402633E+02 -0.88303930325E+01  0.23535779446E+01  0.70259788892E+02  0.41800000000E+01 0. -1.
        -11    1    1    2    0    0 -0.42606384600E+02  0.10608398129E+02 -0.13664707851E+03  0.14352792824E+03  0.00000000000E+00 0. -1.
         11    1    1    2    0    0 -0.36345564727E+01 -0.69478532946E+02 -0.11936980011E+03  0.13816521169E+03  0.00000000000E+00 0.  1.
</event>
<event>
 7    1  0.6992302E-006  0.1130564E+03  0.7561462E-02  0.1255012E+00
          2   -1    0    0  501    0  0.00000000000E+00  0.00000000000E+00  0.33688358380E+03  0.33688358380E+03  0.00000000000E+00 0.  1.
         -2   -1    0    0    0  501 -0.00000000000E+00 -0.00000000000E+00 -0.83444306852E+02  0.83444306852E+02  0.00000000000E+00 0. -1.
         23    2    1    2    0    0  0.45985820383E+02  0.67515186972E+02  0.11568177442E+02  0.14985106308E+03  0.12509405353E+03 0.  0.
          5    1    3    3  502    0  0.56408543665E+02  0.90357303251E+01  0.52413031478E+02  0.77641267955E+02  0.41800000000E+01 0.  1.
         -5    1    3    3    0  502 -0.10422723282E+02  0.58479456647E+02 -0.40844854036E+02  0.72209795122E+02  0.41800000000E+01 0.  1.
        -11    1    1    2    0    0 -0.76646274739E+01 -0.70436287037E+02  0.94110114474E+02  0.11779953604E+03  0.00000000000E+00 0. -1.
         11    1    1    2    0    0 -0.38321192909E+02  0.29211000647E+01  0.14776098503E+03  0.15267729153E+03  0.00000000000E+00 0.  1.
</event>
<event>
 6    1  0.6992302E-006  0.9141695E+02  0.7561462E-02  0.1299456E+00
         -3   -1    0    0    0  501 -0.00000000000E+00  0.00000000000E+00  0.36115747969E+03  0.36115747969E+03  0.00000000000E+00 0.  1.
          3   -1    0    0  501    0  0.00000000000E+00 -0.00000000000E+00 -0.17558366631E+03  0.17558366631E+03  0.00000000000E+00 0. -1.
          5    1    1    2  502    0 -0.92368458504E+01 -0.58256771201E+02 -0.11937319219E+03  0.13321637334E+03  0.41800000000E+01 0. -1.
         -5    1    1    2    0  502 -0.48505410027E+01  0.33783232503E+02  0.30679324605E+03  0.30871411171E+03  0.41800000000E+01 0.  1.
        -11    1    1    2    0    0  0.45037218544E+02 -0.65311487943E+01 -0.16814965771E+02  0.48515461789E+02  0.00000000000E+00 0. -1.
         11    1    1    2    0    0 -0.30949831691E+02  0.31004687493E+02  0.14968725287E+02  0.46295199156E+02  0.00000000000E+00 0.  1.
</event>
<event>
 7    1  0.6992302E-006  0.1286605E+03  0.7561462E-02  0.1229457E+00
          1   -1    0    0  501    0  0.00000000000E+00  0.00000000000E+00  0.96071229123E+03  0.96071229123E+03  0.00000000000E+00 0.  1.
         -1   -1    0    0    0  501 -0.00000000000E+00 -0.00000000000E+00 -0.22231865990E+02  0.22231865990E+02  0.00000000000E+00 0. -1.
         23    2    1    2    0    0 -0.48338269159E+02  0.80871752212E+02  0.58093497410E+03  0.60167276258E+03  0.12509132878E+03 0.  0.
          5    1    3    3  502    0 -0.63274032136E+02 -0.98741712797E+01  0.21864901951E+03  0.22787270248E+03  0.41800000000E+01 0.  1.
         -5    1    3    3    0  502  0.14935762977E+02  0.90745923492E+02  0.36228595458E+03  0.37380006010E+03  0.41800000000E+01 0.  1.
        -11    1    1    2    0    0  0.51107297229E+02 -0.55061458990E+02  0.34377285707E+03  0.35188563107E+03  0.00000000000E+00 0.  1.
         11    1    1    2    0    0 -0.27690280704E+01 -0.25810293222E+02  0.13772594070E+02  0.29385763562E+02  0.00000000000E+00 0. -1.
</event>
<event>
 7    1  0.6992302E-006  0.6675634E+02  0.7561462E-02  0.1371484E+00
         -1   -1    0    0    0  501 -0.00000000000E+00  0.00000000000E+00  0.12476422882E+03  0.12476422882E+03  0.00000000000E+00 0. -1.
          1   -1    0    0  501    0  0.00000000000E+00 -0.00000000000E+00 -0.11086685700E+03  0.11086685700E+03  0.00000000000E+00 0.  1.
         23    2    1    2    0    0 -0.15106452121E+02 -0.35524262815E+02  0.30955292925E+02  0.13450488733E+03  0.12507260456E+03 0.  0.
          5    1    3    3  502    0  0.68989682244E+01  0.28022344038E+01 -0.45392883154E+02  0.46189116913E+02  0.41800000000E+01 0.  1.
         -5    1    3    3    0  502 -0.22005420345E+02 -0.38326497219E+02  0.76348176079E+02  0.88315770416E+02  0.41800000000E+01 0.  1.
        -11    1    1    2    0    0 -0.16884915644E+02  0.44299631534E+02 -0.38969991065E+02  0.61369519583E+02  0.00000000000E+00 0.  1.
         11    1    1    2    0    0  0.31991367765E+02 -0.87753687184E+01  0.21912069964E+02  0.39756678907E+02  0.00000000000E+00 0. -1.
</event>
<event>
 7    1  0.6992302E-006  0.7418328E+02  0.7561462E-02  0.1346419E+00
         -2   -1    0    0    0  501 -0.00000000000E+00  0.00000000000E+00  0.49679626786E+02  0.49679626786E+02  0.00000000000E+00 0.  1.
          2   -1    0    0  501    0  0.00000000000E+00 -0.00000000000E+00 -0.32558252908E+03  0.32558252908E+03  0.00000000000E+00 0. -1.
         23    2    1    2    0    0 -0.17391606251E+02 -0.54822500513E+02 -0.11147043018E+03  0.17713959341E+03  0.12507919179E+03 0.  0.
          5    1    3    3  502    0  0.78574167982E+01 -0.46226718334E+02 -0.13396700914E+03  0.14199746626E+03  0.41800000000E+01 0.  1.
         -5    1    3    3    0  502 -0.25249023049E+02 -0.85957821789E+01  0.22496578953E+02  0.35142127152E+02  0.41800000000E+01 0.  1.
        -11    1    1    2    0    0  0.33669721713E+02  0.33838944872E+02 -0.16478810857E+03  0.17156294786E+03  0.00000000000E+00 0. -1.
         11    1    1    2    0    0 -0.16278115462E+02  0.20983555641E+02  0.35563646325E+00  0.26559614599E+02  0.00000000000E+00 0.  1.
</event>
<event>
 7    1  0.6992302E-006  0.1445423E+03  0.7561462E-02  0.1207344E+00
         -1   -1    0    0    0  501 -0.00000000000E+00  0.00000000000E+00  0.23240850674E+02  0.23240850674E+02  0.00000000000E+00 0.  1.
          1   -1    0    0  501    0  0.00000000000E+00 -0.00000000000E+00 -0.97476720104E+03  0.97476720104E+03  0.00000000000E+00 0. -1.
         23    2    1    2    0    0 -0.21926776889E+02  0.98910594002E+02 -0.41956549365E+03  0.44946288427E+03  0.12536981983E+03 0.  0.
          5    1    3    3  502    0 -0.44682754262E+02 -0.91563045129E+01 -0.17831631947E+03  0.18410477623E+03  0.41800000000E+01 0. -1.
         -5    1    3    3    0  502  0.22755977373E+02  0.10806689852E+03 -0.24124917418E+03  0.26535810804E+03  0.41800000000E+01 0.  1.
        -11    1    1    2    0    0 -0.24894561138E+02 -0.18023181738E+01 -0.75189769371E+02  0.79224295157E+02  0.00000000000E+00 0. -1.
         11    1    1    2    0    0  0.46821338027E+02 -0.97108275828E+02 -0.45677108734E+03  0.46932087229E+03  0.00000000000E+00 0.  1.
</event>
<event>
 7    1  0.6992302E-006  0.8263320E+02  0.7561462E-02  0.1321741E+00
          1   -1    0    0  501    0  0.00000000000E+00  0.00000000000E+00  0.73767652137E+02  0.73767652137E+02  0.00000000000E+00 0. -1.
         -1   -1    0    0    0  501 -0.00000000000E+00 -0.00000000000E+00 -0.19294754085E+03  0.19294754085E+03  0.00000000000E+00 0.  1.
         23    2    1    2    0    0 -0.60370468428E+01  0.26324685312E+02 -0.24011067883E+02  0.13020343993E+03  0.12508784672E+03 0.  0.
          5    1    3    3  502    0 -0.53750216852E+00  0.69447620696E+02 -0.43844745319E+02  0.82238038772E+02  0.41800000000E+01 0. -1.
         -5    1    3    3    0  502 -0.54995446743E+01 -0.43122935384E+02  0.19833677435E+02  0.47965401159E+02  0.41800000000E+01 0. -1.
        -11    1    1    2    0    0  0.74035491233E+01 -0.38783988497E+02 -0.11012998558E+03  0.11699411963E+03  0.00000000000E+00 0.  1.
         11    1    1    2    0    0 -0.13665022805E+01  0.12459303185E+02  0.14961164745E+02  0.19517633434E+02  0.00000000000E+00 0. -1.
</event>
<event>
 7    1  0.6992302E-006  0.6614698E+02  0.7561462E-02  0.1373708E+00
          1   -1    0    0  501    0  0.00000000000E+00  0.00000000000E+00  0.11347519413E+03  0.11347519413E+03  0.00000000000E+00 0.  1.
         -1   -1    0    0    0  501 -0.00000000000E+00 -0.00000000000E+00 -0.99445575193E+02  0.99445575193E+02  0.00000000000E+00 0. -1.
         23    2    1    2    0    0 -0.52170861364E+01  0.12190764477E+02  0.25293202947E+01  0.12582404094E+03  0.12509779811E+03 0.  0.
          5    1    3    3  502    0 -0.38112196350E+02 -0.10080607871E+02  0.49983261519E+02  0.63796214604E+02  0.41800000000E+01 0. -1.
         -5    1    3    3    0  502  0.32895110214E+02  0.22271372348E+02 -0.47453941225E+02  0.62027826336E+02  0.41800000000E+01 0. -1.
        -11    1    1    2    0    0  0.28243423358E+02 -0.71336046239E+01  0.40396132530E+02  0.49803883396E+02  0.00000000000E+00 0.  1.
         11    1    1    2    0    0 -0.23026337222E+02 -0.50571598531E+01 -0.28895833885E+02  0.37292844991E+02  0.00000000000E+00 0. -1.
</event>
<event>
 7    1  0.6992302E-006  0.1081163E+03  0.7561462E-02  0.1264098E+00
          3   -1    0    0  501    0  0.00000000000E+00  0.00000000000E+00  0.21164672766E+02  0.21164672766E+02  0.00000000000E+00 0. -1.
         -3   -1    0    0    0  501 -0.00000000000E+00 -0.00000000000E+00 -0.11368311074E+04  0.11368311074E+04  0.00000000000E+00 0.  1.
         23    2    1    2    0    0 -0.70255870914E+02 -0.32030734333E+02 -0.89853210962E+03  0.91047737943E+03  0.12508897270E+03 0.  0.
          5    1    3    3  502    0 -0.70386030820E+02 -0.53897239229E+02 -0.86886538331E+03  0.87338630196E+03  0.41800000000E+01 0.  1.
         -5    1    3    3    0  502  0.13015990618E+00  0.21866504896E+02 -0.29666726306E+02  0.37091077467E+02  0.41800000000E+01 0.  1.
        -11    1    1    2    0    0  0.51324250132E+02  0.55150586878E+02 -0.19846666826E+03  0.21228467748E+03  0.00000000000E+00 0. -1.
         11    1    1    2    0    0  0.18931620782E+02 -0.23119852545E+02 -0.18667656801E+02  0.35233723300E+02  0.00000000000E+00 0.  1.
</event>
<event>
 7    1  0.6992302E-006  0.1882912E+03  0.7561462E-02  0.1160012E+00
          3   -1    0    0  501    0  0.00000000000E+00  0.00000000000E+00  0.71605829459E+03  0.71605829459E+03  0.00000000000E+00 0. -1.
         -3   -1    0    0    0  501 -0.00000000000E+00 -0.00000000000E+00 -0.56926612689E+02  0.56926612689E+02  0.00000000000E+00 0.  1.
         23    2    1    2    0    0 -0.75108626203E+02  0.15213279529E+03  0.32359464042E+03  0.38619503351E+03  0.12508964573E+03 0.  0.
          5    1    3    3  502    0  0.27232227666E+02  0.71241753317E+02  0.15670930632E+03  0.17433376244E+03  0.41800000000E+01 0.  1.
         -5    1    3    3    0  502 -0.10234085387E+03  0.80891041968E+02  0.16688533410E+03  0.21186127107E+03  0.41800000000E+01 0.  1.
        -11    1    1    2    0    0  0.44756585663E+02 -0.87822460038E+02  0.98634709970E+02  0.13944440634E+03  0.00000000000E+00 0.  1.
         11    1    1    2    0    0  0.30352040540E+02 -0.64310335248E+02  0.23690233151E+03  0.24734546743E+03  0.00000000000E+00 0. -1.
</event>
<event>
 7    1  0.6992302E-006  0.2444161E+03  0.7561462E-02  0.1116885E+00
          1   -1    0    0  501    0  0.00000000000E+00  0.00000000000E+00  0.15804507308E+03  0.15804507308E+03  0.00000000000E+00 0. -1.
         -1   -1    0    0    0  501 -0.00000000000E+00 -0.00000000000E+00 -0.47334124215E+03  0.47334124215E+03  0.00000000000E+00 0.  1.
         23    2    1    2    0    0  0.43913651161E+01  0.22774082717E+03 -0.28327004780E+03  0.38441171800E+03  0.12508109570E+03 0.  0.
          5    1    3    3  502    0  0.57841360602E+02  0.16837548499E+03 -0.17386094234E+03  0.24887954238E+03  0.41800000000E+01 0.  1.
         -5    1    3    3    0  502 -0.53449995485E+02  0.59365342180E+02 -0.10940910546E+03  0.13553217562E+03  0.41800000000E+01 0.  1.
        -11    1    1    2    0    0 -0.19702332630E+02 -0.87861790705E+02 -0.53337455748E+02  0.10465543637E+03  0.00000000000E+00 0. -1.
         11    1    1    2    0    0  0.15310967513E+02 -0.13987903647E+03  0.21311334484E+02  0.14231916086E+03  0.00000000000E+00 0.  1.
</event>
<event>
 7    1  0.6992302E-006  0.1336920E+03  0.7561462E-02  0.1222078E+00
         -2   -1    0    0    0  501 -0.00000000000E+00  0.00000000000E+00  0.25395512696E+02  0.25395512696E+02  0.00000000000E+00 0.  1.
          2   -1    0    0  501    0  0.00000000000E+00 -0.00000000000E+00 -0.88507617922E+03  0.88507617922E+03  0.00000000000E+00 0. -1.
         23    2    1    2    0    0  0.52850608614E+02  0.78213340223E+02 -0.33633043839E+03  0.37104749449E+03  0.12509023127E+03 0.  0.
          5    1    3    3  502    0  0.45323937070E+01 -0.30721270939E+02 -0.34975243309E+02  0.46958270042E+02  0.41800000000E+01 0.  1.
         -5    1    3    3    0  502  0.48318214907E+02  0.10893461116E+03 -0.30135519508E+03  0.32408922445E+03  0.41800000000E+01 0.  1.
        -11    1    1    2    0    0 -0.13369315758E+02 -0.76104201594E+02 -0.44504937159E+03  0.45170735134E+03  0.00000000000E+00 0. -1.
         11    1    1    2    0    0 -0.39481292855E+02 -0.21091386282E+01 -0.78300856535E+02  0.87716846075E+02  0.00000000000E+00 0.  1.
</event>
<event>
 7    1  0.6992302E-006  0.1834085E+03  0.7561462E-02  0.1164544E+00
          1   -1    0    0  501    0  0.00000000000E+00  0.00000000000E+00  0.15012321743E+03  0.15012321743E+03  0.00000000000E+00 0. -1.
         -1   -1    0    0    0  501 -0.00000000000E+00 -0.00000000000E+00 -0.34999136373E+03  0.34999136373E+03  0.00000000000E+00 0.  1.
         23    2    1    2    0    0 -0.85874447984E+02 -0.14814839739E+03 -0.21782749709E+03  0.30400613915E+03  0.12509414728E+03 0.  0.
          5    1    3    3  502    0 -0.46266572727E+02 -0.85532268166E+02 -0.20735273842E+03  0.22906111669E+03  0.41800000000E+01 0.  1.
         -5    1    3    3    0  502 -0.39607875257E+02 -0.62616129224E+02 -0.10474758670E+02  0.74945022454E+02  0.41800000000E+01 0.  1.
        -11    1    1    2    0    0 -0.17980581745E+02  0.46915150763E+02  0.55088407844E+01  0.50543842531E+02  0.00000000000E+00 0.  1.
         11    1    1    2    0    0  0.10385502973E+03  0.10123324663E+03  0.12450510017E+02  0.14556459948E+03  0.00000000000E+00 0. -1.
</event>
<event>
 7    1  0.6992302E-006  0.2220744E+03  0.7561462E-02  0.1132346E+00
         -2   -1    0    0    0  501 -0.00000000000E+00  0.00000000000E+00  0.48550414896E+03  0.48550414896E+03  0.00000000000E+00 0.  1.
          2   -1    0    0  501    0  0.00000000000E+00 -0.00000000000E+00 -0.13328541869E+03  0.13328541869E+03  0.00000000000E+00 0. -1.
         23    2    1    2    0    0 -0.18971204378E+03  0.37423087041E+01  0.32315896163E+03  0.39507577078E+03  0.12509390771E+03 0.  0.
          5    1    3    3  502    0 -0.16682530011E+03  0.49960097399E+02  0.26613197060E+03  0.31807293230E+03  0.41800000000E+01 0.  1.
         -5    1    3    3    0  502 -0.22886743670E+02 -0.46217788695E+02  0.57026991030E+02  0.77002838477E+02  0.41800000000E+01 0.  1.
        -11    1    1    2    0    0  0.20147979783E+03  0.79290421640E+01  0.37533211409E+02  0.20509929449E+03  0.00000000000E+00 0.  1.
         11    1    1    2    0    0 -0.11767754050E+02 -0.11671350868E+02 -0.84734427719E+01  0.18614502380E+02  0.00000000000E+00 0. -1.
</event>
<event>
 7    1  0.6992302E-006  0.2402981E+03  0.7561462E-02  0.1119594E+00
          1   -1    0    0  501    0  0.00000000000E+00  0.00000000000E+00  0.34874050394E+03  0.34874050394E+03  0.00000000000E+00 0. -1.
         -1   -1    0    0    0  501 -0.00000000000E+00 -0.00000000000E+00 -0.28147684247E+03  0.28147684247E+03  0.00000000000E+00 0.  1.
         23    2    1    2    0    0  0.23370535106E+03  0.54618757120E+02 -0.12791124814E+03  0.29935112241E+03  0.12509359434E+03 0.  0.
          5    1    3    3  502    0  0.11490943586E+03  0.33255078675E+02 -0.13240977385E+03  0.17849341534E+03  0.41800000000E+01 0.  1.
         -5    1    3    3    0  502  0.11879591520E+03  0.21363678445E+02  0.44985257153E+01  0.12085770707E+03  0.41800000000E+01 0.  1.
        -11    1    1    2    0    0 -0.94984421048E+02 -0.26058566913E+02  0.15500238490E+03  0.18364865498E+03  0.00000000000E+00 0. -1.
         11    1    1    2    0    0 -0.13872093001E+03 -0.28560190207E+02  0.40172524698E+02  0.14721756902E+03  0.00000000000E+00 0.  1.
</event>
<event>
 7    1  0.6992302E-006  0.1352461E+03  0.7561462E-02  0.1219873E+00
         -4   -1    0    0    0  501 -0.00000000000E+00  0.00000000000E+00  0.22328575327E+03  0.22328575327E+03  0.00000000000E+00 0.  1.
          4   -1    0    0  501    0  0.00000000000E+00 -0.00000000000E+00 -0.10922577147E+03  0.10922577147E+03  0.00000000000E+00 0. -1.
         23    2    1    2    0    0  0.17980194678E+01  0.11120209125E+03  0.81910438530E+02  0.18637094553E+03  0.12512262555E+03 0.  0.
          5    1    3    3  502    0  0.43140559183E+02  0.85471057457E+02  0.59140305101E+01  0.96014882525E+02  0.41800000000E+01 0. -1.
         -5    1    3    3    0  502 -0.41342539715E+02  0.25731033795E+02  0.75996408020E+02  0.90356063008E+02  0.41800000000E+01 0. -1.
        -11    1    1    2    0    0  0.26032068264E+02 -0.28856611783E+02  0.43670430887E+02  0.58459209331E+02  0.00000000000E+00 0.  1.
         11    1    1    2    0    0 -0.27830087732E+02 -0.82345479469E+02 -0.11520887610E+02  0.87681369877E+02  0.00000000000E+00 0. -1.
</event>
<event>
 7    1  0.6992302E-006  0.1042248E+03  0.7561462E-02  0.1271655E+00
         -1   -1    0    0    0  501 -0.00000000000E+00  0.00000000000E+00  0.68101941254E+02  0.68101941254E+02  0.00000000000E+00 0.  1.
          1   -1    0    0  501    0  0.00000000000E+00 -0.00000000000E+00 -0.25861207763E+03  0.25861207763E+03  0.00000000000E+00 0. -1.
         23    2    1    2    0    0 -0.54723896491E+02 -0.53127331357E+02 -0.99919502063E+02  0.17734275253E+03  0.12509726934E+03 0.  0.
          5    1    3    3  502    0 -0.14946071089E+02  0.32592506658E+02  0.45815752474E+01  0.36388456452E+02  0.41800000000E+01 0. -1.
         -5    1    3    3    0  502 -0.39777825403E+02 -0.85719838014E+02 -0.10450107731E+03  0.14095429608E+03  0.41800000000E+01 0. -1.
        -11    1    1    2    0    0  0.43611718775E+02  0.32717416611E+02 -0.10756525587E+03  0.12059309945E+03  0.00000000000E+00 0. -1.
         11    1    1    2    0    0  0.11112177717E+02  0.20409914746E+02  0.16974621557E+02  0.28778166907E+02  0.00000000000E+00 0.  1.
</event>
<event>
 7    1  0.6992302E-006  0.1048226E+03  0.7561462E-02  0.1270470E+00
          2   -1    0    0  501    0  0.00000000000E+00  0.00000000000E+00  0.39774592964E+03  0.39774592964E+03  0.00000000000E+00 0. -1.
         -2   -1    0    0    0  501 -0.00000000000E+00 -0.00000000000E+00 -0.37953507856E+02  0.37953507856E+02  0.00000000000E+00 0.  1.
         23    2    1    2    0    0 -0.54779619869E+02 -0.12323401147E+02  0.17820889129E+03  0.22484965429E+03  0.12508511155E+03 0.  0.
          5    1    3    3  502    0  0.30843083077E+02 -0.35360385944E+02  0.47928190729E+02  0.67202950339E+02  0.41800000000E+01 0. -1.
         -5    1    3    3    0  502 -0.85622702946E+02  0.23036984797E+02  0.13028070056E+03  0.15764670395E+03  0.41800000000E+01 0. -1.
        -11    1    1    2    0    0  0.51844824935E+01  0.22545463467E+02  0.84246698876E+00  0.23149223146E+02  0.00000000000E+00 0.  1.
         11    1    1    2    0    0  0.49595137375E+02 -0.10222062320E+02  0.18074106350E+03  0.18770056006E+03  0.00000000000E+00 0. -1.
</event>
<event>
 7    1  0.6992302E-006  0.1952272E+03  0.7561462E-02  0.1153829E+00
          1   -1    0    0  501    0  0.00000000000E+00  0.00000000000E+00  0.34270954413E+03  0.34270954413E+03  0.00000000000E+00 0. -1.
         -1   -1    0    0    0  501 -0.00000000000E+00 -0.00000000000E+00 -0.12895880008E+03  0.12895880008E+03  0.00000000000E+00 0.  1.
         23    2    1    2    0    0  0.12083217474E+03  0.12766820929E+03  0.15290784297E+03  0.26443878236E+03  0.12508986792E+03 0.  0.
          5    1    3    3  502    0 -0.16570629774E+02  0.52639545451E+02  0.63001005328E+02  0.83857656709E+02  0.41800000000E+01 0.  1.
         -5    1    3    3    0  502  0.13740280451E+03  0.75028663834E+02  0.89906837647E+02  0.18058112565E+03  0.41800000000E+01 0.  1.
        -11    1    1    2    0    0 -0.36619362499E+02 -0.60771258546E+02 -0.18801552156E+02  0.73400421924E+02  0.00000000000E+00 0.  1.
         11    1    1    2    0    0 -0.84212812237E+02 -0.66896950739E+02  0.79644453232E+02  0.13382913993E+03  0.00000000000E+00 0. -1.
</event>
<event>
 7    1  0.1308917E-005  0.2857293E+03  0.7561462E-02  0.1092600E+00
          1   -1    0    0  501    0  0.00000000000E+00  0.00000000000E+00  0.97473811313E+03  0.97473811313E+03  0.00000000000E+00 0. -1.
         -1   -1    0    0    0  501 -0.00000000000E+00 -0.00000000000E+00 -0.90933418122E+02  0.90933418122E+02  0.00000000000E+00 0.  1.
         23    2    1    2    0    0  0.24458616710E+03 -0.12220256074E+03  0.37270959769E+03  0.47886932994E+03  0.12509009538E+03 0.  0.
          5    1    3    3  502    0  0.22085566719E+03 -0.13605301150E+03  0.36864348773E+03  0.45078059088E+03  0.41800000000E+01 0. -1.
         -5    1    3    3    0  502  0.23730499909E+02  0.13850450754E+02  0.40661099572E+01  0.28088739064E+02  0.41800000000E+01 0. -1.
        -11    1    1    2    0    0 -0.11697466054E+03  0.10166430645E+03  0.22910098474E+03  0.27659711427E+03  0.00000000000E+00 0. -1.
         11    1    1    2    0    0 -0.12761150656E+03  0.20538254294E+02  0.28199411258E+03  0.31020508704E+03  0.00000000000E+00 0.  1.
</event>
<event>
 6    1  0.6992302E-006  0.1192394E+03  0.7561462E-02  0.1244357E+00
         -2   -1    0    0    0  501 -0.00000000000E+00  0.00000000000E+00  0.10293280045E+03  0.10293280045E+03  0.00000000000E+00 0.  1.
          2   -1    0    0  501    0  0.00000000000E+00 -0.00000000000E+00 -0.43786493356E+03  0.43786493356E+03  0.00000000000E+00 0. -1.
          5    1    1    2  502    0  0.18666778207E+01 -0.60553192433E+01 -0.50496271711E+02  0.51063658642E+02  0.41800000000E+01 0. -1.
         -5    1    1    2    0  502  0.10996780964E+03 -0.13817956692E+02  0.52736194029E+02  0.12281055998E+03  0.41800000000E+01 0.  1.
        -11    1    1    2    0    0 -0.61976647236E+02  0.30382223601E+02 -0.84220656621E+02  0.10889124536E+03  0.00000000000E+00 0.  1.
         11    1    1    2    0    0 -0.49857840220E+02 -0.10508947665E+02 -0.25295139881E+03  0.25803227003E+03  0.00000000000E+00 0. -1.
</event>
<event>
 7    1  0.6992302E-006  0.1429751E+03  0.7561462E-02  0.1209381E+00
          1   -1    0    0  501    0  0.00000000000E+00  0.00000000000E+00  0.11416197927E+03  0.11416197927E+03  0.00000000000E+00 0. -1.
         -1   -1    0    0    0  501 -0.00000000000E+00 -0.00000000000E+00 -0.20397324689E+03  0.20397324689E+03  0.00000000000E+00 0.  1.
         23    2    1    2    0    0 -0.74257815109E+02  0.73062470303E+02 -0.81257244682E+02  0.18194031485E+03  0.12508873124E+03 0.  0.
          5    1    3    3  502    0 -0.10420165395E+03  0.63759180149E+02 -0.86678328625E+02  0.14984599692E+03  0.41800000000E+01 0.  1.
         -5    1    3    3    0  502  0.29943838845E+02  0.93032901541E+01  0.54210839430E+01  0.32094317933E+02  0.41800000000E+01 0.  1.
        -11    1    1    2    0    0  0.91187137165E+02 -0.51685899490E+02  0.65534044606E+01  0.10502129927E+03  0.00000000000E+00 0. -1.
         11    1    1    2    0    0 -0.16929322055E+02 -0.21376570813E+02 -0.15107427391E+02  0.31173612035E+02  0.00000000000E+00 0.  1.
</event>
<event>
 7    1  0.6992302E-006  0.7730267E+02  0.7561462E-02  0.1336885E+00
          1   -1    0    0  501    0  0.00000000000E+00  0.00000000000E+00  0.12485870184E+03  0.12485870184E+03  0.00000000000E+00 0. -1.
         -1   -1    0    0    0  501 -0.00000000000E+00 -0.00000000000E+00 -0.15269289741E+03  0.15269289741E+03  0.00000000000E+00 0.  1.
         23    2    1    2    0    0 -0.28974415030E+02  0.27357345050E+01 -0.96501559819E+02  0.16063454492E+03  0.12507559715E+03 0.  0.
          5    1    3    3  502    0 -0.10721560305E+02 -0.32797396821E+02  0.18107294311E+02  0.39191422542E+02  0.41800000000E+01 0. -1.
         -5    1    3    3    0  502 -0.18252854725E+02  0.35533131326E+02 -0.11460885413E+03  0.12144312238E+03  0.41800000000E+01 0. -1.
        -11    1    1    2    0    0 -0.13793047962E+02 -0.27138691178E+02 -0.23122122335E+01  0.30530362860E+02  0.00000000000E+00 0.  1.
         11    1    1    2    0    0  0.42767462992E+02  0.24402956673E+02  0.70979576487E+02  0.86386691472E+02  0.00000000000E+00 0. -1.
</event>
<event>
 7    1  0.6992302E-006  0.1574866E+03  0.7561462E-02  0.1191564E+00
         -2   -1    0    0    0  501 -0.00000000000E+00  0.00000000000E+00  0.12864408652E+03  0.12864408652E+03  0.00000000000E+00 0.  1.
          2   -1    0    0  501    0  0.00000000000E+00 -0.00000000000E+00 -0.21139817970E+03  0.21139817970E+03  0.00000000000E+00 0. -1.
         23    2    1    2    0    0 -0.10530085454E+03  0.62035785757E+02 -0.63539802822E+02  0.18606996189E+03  0.12509202810E+03 0.  0.
          5    1    3    3  502    0 -0.86715368552E+02 -0.21254539553E+02 -0.34998493214E+02  0.95987902998E+02  0.41800000000E+01 0. -1.
         -5    1    3    3    0  502 -0.18585485984E+02  0.83290325310E+02 -0.28541309607E+02  0.90082058889E+02  0.41800000000E+01 0. -1.
        -11    1    1    2    0    0  0.27209881910E+02 -0.55471753461E+02  0.21803810926E+02  0.65520220364E+02  0.00000000000E+00 0.  1.
         11    1    1    2    0    0  0.78090972627E+02 -0.65640322958E+01 -0.41018101287E+02  0.88452083972E+02  0.00000000000E+00 0. -1.
</event>
<event>
 7    1  0.6992302E-006  0.9919699E+02  0.7561462E-02  0.1281994E+00
          1   -1    0    0  501    0  0.00000000000E+00  0.00000000000E+00  0.63232279280E+02  0.63232279280E+02  0.00000000000E+00 0. -1.
         -1   -1    0    0    0  501 -0.00000000000E+00 -0.00000000000E+00 -0.25147522394E+03  0.25147522394E+03  0.00000000000E+00 0.  1.
         23    2    1    2    0    0 -0.49324247517E+02  0.12432856122E+02 -0.15462462469E+03  0.20529034304E+03  0.12509153881E+03 0.  0.
          5    1    3    3  502    0 -0.23596059059E+00  0.38878132082E+02  0.18284977390E+01  0.39145633672E+02  0.41800000000E+01 0.  1.
         -5    1    3    3    0  502 -0.49088286927E+02 -0.26445275960E+02 -0.15645312242E+03  0.16614470937E+03  0.41800000000E+01 0.  1.
        -11    1    1    2    0    0 -0.19073370985E+02  0.20036167852E+02 -0.14917019362E+02  0.31428632957E+02  0.00000000000E+00 0. -1.
         11    1    1    2    0    0  0.68397618502E+02 -0.32469023974E+02 -0.18701300616E+02  0.77988527229E+02  0.00000000000E+00 0.  1.
</event>
<event>
 7    1  0.6992302E-006  0.9903935E+02  0.7561462E-02  0.1282329E+00
         -2   -1    0    0    0  501 -0.00000000000E+00  0.00000000000E+00  0.11694846231E+02  0.11694846231E+02  0.00000000000E+00 0.  1.
          2   -1    0    0  501    0  0.00000000000E+00 -0.00000000000E+00 -0.10240064556E+04  0.10240064556E+04  0.00000000000E+00 0. -1.
         23    2    1    2    0    0  0.26640623055E+02 -0.28455828234E+01 -0.54075768318E+03  0.55473002222E+03  0.12078371370E+03 0.  0.
          5    1    3    3  502    0 -0.29038473507E+01 -0.48936653951E+02 -0.40958430174E+03  0.41252878816E+03  0.41800000000E+01 0. -1.
         -5    1    3    3    0  502  0.29544470406E+02  0.46091071128E+02 -0.13117338145E+03  0.14220123406E+03  0.41800000000E+01 0.  1.
        -11    1    1    2    0    0  0.32469689689E+02 -0.89827243629E+01 -0.19889014722E+03  0.20172322808E+03  0.00000000000E+00 0. -1.
         11    1    1    2    0    0 -0.59110312745E+02  0.11828307186E+02 -0.27266377899E+03  0.27924805156E+03  0.00000000000E+00 0.  1.
</event>
<event>
 7    1  0.6992302E-006  0.7917280E+02  0.7561462E-02  0.1331415E+00
         -2   -1    0    0    0  501 -0.00000000000E+00  0.00000000000E+00  0.13369896763E+03  0.13369896763E+03  0.00000000000E+00 0. -1.
          2   -1    0    0  501    0  0.00000000000E+00 -0.00000000000E+00 -0.15234488453E+03  0.15234488453E+03  0.00000000000E+00 0.  1.
         23    2    1    2    0    0 -0.34274099631E+02 -0.60441162224E+02  0.51067404379E+02  0.15192979404E+03  0.12508770735E+03 0.  0.
          5    1    3    3  502    0 -0.41582606054E+02 -0.25273660362E+02 -0.33990807236E+02  0.59503936096E+02  0.41800000000E+01 0. -1.
         -5    1    3    3    0  502  0.73085064226E+01 -0.35167501862E+02  0.85058211615E+02  0.92425857943E+02  0.41800000000E+01 0. -1.
        -11    1    1    2    0    0  0.14750387426E+02  0.47947989425E+02  0.99538096341E+01  0.51143542558E+02  0.00000000000E+00 0. -1.
         11    1    1    2    0    0  0.19523712205E+02  0.12493172798E+02 -0.79667130910E+02  0.82970515560E+02  0.00000000000E+00 0.  1.
</event>
<event>
 7    1  0.6992302E-006  0.1194857E+03  0.7561462E-02  0.1243948E+00
         -1   -1    0    0    0  501 -0.00000000000E+00  0.00000000000E+00  0.40332223985E+02  0.40332223985E+02  0.00000000000E+00 0.  1.
          1   -1    0    0  501    0  0.00000000000E+00 -0.00000000000E+00 -0.46153342510E+03  0.46153342510E+03  0.00000000000E+00 0. -1.
         23    2    1    2    0    0 -0.27622596698E+02 -0.75884961003E+02 -0.23456003953E+03  0.27782610346E+03  0.12508955379E+03 0.  0.
          5    1    3    3  502    0 -0.57194519327E+02  0.97425340492E+01 -0.94699590082E+02  0.11113781882E+03  0.41800000000E+01 0.  1.
         -5    1    3    3    0  502  0.29571922629E+02 -0.85627495053E+02 -0.13986044945E+03  0.16668828464E+03  0.41800000000E+01 0.  1.
        -11    1    1    2    0    0  0.37768223433E+02  0.65426469569E+02 -0.19365487387E+03  0.20786840018E+03  0.00000000000E+00 0. -1.
         11    1    1    2    0    0 -0.10145626735E+02  0.10458491434E+02  0.70137122805E+01  0.16171145441E+02  0.00000000000E+00 0.  1.
</event>
<event>
 7    1  0.6992302E-006  0.1187465E+03  0.7561462E-02  0.1245179E+00
          2   -1    0    0  501    0  0.00000000000E+00  0.00000000000E+00  0.15589805639E+03  0.15589805639E+03  0.00000000000E+00 0. -1.
         -2   -1    0    0    0  501 -0.00000000000E+00 -0.00000000000E+00 -0.12066927220E+03  0.12066927220E+03  0.00000000000E+00 0.  1.
         23    2    1    2    0    0  0.77686240748E+02 -0.83832222197E+00 -0.15401862139E+02  0.14805674285E+03  0.12509087480E+03 0.  0.
          5    1    3    3  502    0 -0.21364328502E+02  0.34741111799E+02  0.30959597644E+01  0.41114921236E+02  0.41800000000E+01 0. -1.
         -5    1    3    3    0  502  0.99050569250E+02 -0.35579434021E+02 -0.18497821903E+02  0.10694182161E+03  0.41800000000E+01 0. -1.
        -11    1    1    2    0    0 -0.11722787151E+02  0.19375924805E+02 -0.19921929780E+02  0.30161788521E+02  0.00000000000E+00 0.  1.
         11    1    1    2    0    0 -0.65963453597E+02 -0.18537602583E+02  0.70552576114E+02  0.98348797228E+02  0.00000000000E+00 0. -1.
</event>
<event>
 7    1  0.6992302E-006  0.8681357E+02  0.7561462E-02  0.1310757E+00
          2   -1    0    0  501    0  0.00000000000E+00  0.00000000000E+00  0.45304289807E+03  0.45304289807E+03  0.00000000000E+00 0. -1.
         -2   -1    0    0    0  501 -0.00000000000E+00 -0.00000000000E+00 -0.27453794962E+02  0.27453794962E+02  0.00000000000E+00 0.  1.
         23    2    1    2    0    0 -0.13715991454E+02  0.18134365612E+02  0.23079841334E+03  0.26350187905E+03  0.12509336123E+03 0.  0.
          5    1    3    3  502    0 -0.43343665532E+02 -0.36469884404E+02  0.64582097619E+02  0.86006078524E+02  0.41800000000E+01 0. -1.
         -5    1    3    3    0  502  0.29627674078E+02  0.54604250016E+02  0.16621631573E+03  0.17749580053E+03  0.41800000000E+01 0. -1.
        -11    1    1    2    0    0  0.30384453204E+02 -0.21924757046E+02  0.19629100587E+03  0.19983510441E+03  0.00000000000E+00 0. -1.
         11    1    1    2    0    0 -0.16668461750E+02  0.37903914337E+01 -0.15003161051E+01  0.17159709576E+02  0.00000000000E+00 0.  1.
</event>
<event>
 7    1  0.6992302E-006  0.1778704E+03  0.7561462E-02  0.1169880E+00
          1   -1    0    0  501    0  0.00000000000E+00  0.00000000000E+00  0.38775272508E+03  0.38775272508E+03  0.00000000000E+00 0. -1.
         -1   -1    0    0    0  501 -0.00000000000E+00 -0.00000000000E+00 -0.11324626165E+03  0.11324626165E+03  0.00000000000E+00 0.  1.
         23    2    1    2    0    0  0.13221128062E+03 -0.11340236855E+03  0.95511424750E+02  0.23475429504E+03  0.12508887587E+03 0.  0.
          5    1    3    3  502    0  0.62328518717E+02 -0.48791013066E+02 -0.23156161295E+02  0.82577765817E+02  0.41800000000E+01 0. -1.
         -5    1    3    3    0  502  0.69882761901E+02 -0.64611355482E+02  0.11866758605E+03  0.15217652922E+03  0.41800000000E+01 0. -1.
        -11    1    1    2    0    0 -0.71441657688E+02  0.92647624926E+02  0.16198034445E+03  0.19981272443E+03  0.00000000000E+00 0. -1.
         11    1    1    2    0    0 -0.60769622929E+02  0.20754743622E+02  0.17014694225E+02  0.66431967255E+02  0.00000000000E+00 0.  1.
</event>
<event>
 6    1  0.6992302E-006  0.1261537E+03  0.7561462E-02  0.1233277E+00
         -2   -1    0    0    0  501 -0.00000000000E+00  0.00000000000E+00  0.40355541932E+02  0.40355541932E+02  0.00000000000E+00 0.  1.
          2   -1    0    0  501    0  0.00000000000E+00 -0.00000000000E+00 -0.77569360037E+03  0.77569360037E+03  0.00000000000E+00 0. -1.
          5    1    1    2  502    0  0.71186875435E+01 -0.46815464534E+02 -0.16768322487E+03  0.17429142186E+03  0.41800000000E+01 0. -1.
         -5    1    1    2    0  502  0.61964037628E+02  0.85986718814E+02 -0.64388186435E+02  0.12408291068E+03  0.41800000000E+01 0.  1.
        -11    1    1    2    0    0 -0.74117939986E+02 -0.48164859887E+02 -0.49857505748E+03  0.50635008709E+03  0.00000000000E+00 0. -1.
         11    1    1    2    0    0  0.50352148147E+01  0.89936056067E+01 -0.46915896578E+01  0.11324722670E+02  0.00000000000E+00 0.  1.
</event>
<event>
 7    1  0.6992302E-006  0.2081699E+03  0.7561462E-02  0.1143023E+00
         -1   -1    0    0    0  501 -0.00000000000E+00  0.00000000000E+00  0.12931471962E+03  0.12931471962E+03  0.00000000000E+00 0.  1.
          1   -1    0    0  501    0  0.00000000000E+00 -0.00000000000E+00 -0.48282790352E+03  0.48282790352E+03  0.00000000000E+00 0. -1.
         23    2    1    2    0    0 -0.99156620655E+02  0.17113613180E+03 -0.54593790723E+02  0.24030802498E+03  0.12509138202E+03 0.  0.
          5    1    3    3  502    0 -0.23264008431E+02  0.67885642289E+02 -0.82161083588E+02  0.10916771763E+03  0.41800000000E+01 0. -1.
         -5    1    3    3    0  502 -0.75892612224E+02  0.10325048951E+03  0.27567292865E+02  0.13114030734E+03  0.41800000000E+01 0. -1.
        -11    1    1    2    0    0 -0.14381809186E+02 -0.54251849741E+01 -0.48071257563E+02  0.50468949574E+02  0.00000000000E+00 0. -1.
         11    1    1    2    0    0  0.11353842984E+03 -0.16571094683E+03 -0.25084813562E+03  0.32136564859E+03  0.00000000000E+00 0.  1.
</event>
<event>
 7    1  0.6992302E-006  0.1291548E+03  0.7561462E-02  0.1228715E+00
         -2   -1    0    0    0  501 -0.00000000000E+00  0.00000000000E+00  0.41531124502E+02  0.41531124502E+02  0.00000000000E+00 0.  1.
          2   -1    0    0  501    0  0.00000000000E+00 -0.00000000000E+00 -0.59382220514E+03  0.59382220514E+03  0.00000000000E+00 0. -1.
         23    2    1    2    0    0  0.10770255735E+03 -0.35212184557E+02 -0.29622278019E+03  0.34093315607E+03  0.12509093735E+03 0.  0.
          5    1    3    3  502    0  0.74248156098E+02 -0.26663573740E+02 -0.52761416413E+02  0.94999864792E+02  0.41800000000E+01 0. -1.
         -5    1    3    3    0  502  0.33454401256E+02 -0.85486108169E+01 -0.24346136377E+03  0.24593329128E+03  0.41800000000E+01 0. -1.
        -11    1    1    2    0    0 -0.10898544775E+03 -0.30564480611E+00 -0.17931590974E+03  0.20983831092E+03  0.00000000000E+00 0.  1.
         11    1    1    2    0    0  0.12828904001E+01  0.35517829363E+02 -0.76752390706E+02  0.84581862651E+02  0.00000000000E+00 0. -1.
</event>
<event>
 7    1  0.6992302E-006  0.1193341E+03  0.7561462E-02  0.1244200E+00
          4   -1    0    0  501    0  0.00000000000E+00  0.00000000000E+00  0.62192031784E+02  0.62192031784E+02  0.00000000000E+00 0. -1.
         -4   -1    0    0    0  501 -0.00000000000E+00 -0.00000000000E+00 -0.28309207392E+03  0.28309207392E+03  0.00000000000E+00 0.  1.
         23    2    1    2    0    0 -0.77285842662E+02 -0.80016401523E+01 -0.13572636024E+03  0.20026806362E+03  0.12509406348E+03 0.  0.
          5    1    3    3  502    0  0.29306531286E+02  0.20043268884E+02 -0.44842735303E+02  0.57349356693E+02  0.41800000000E+01 0. -1.
         -5    1    3    3    0  502 -0.10659237395E+03 -0.28044909036E+02 -0.90883624939E+02  0.14291870692E+03  0.41800000000E+01 0. -1.
        -11    1    1    2    0    0  0.61459306276E+02 -0.16330944567E+02 -0.99236016463E+01  0.64361665205E+02  0.00000000000E+00 0. -1.
         11    1    1    2    0    0  0.15826536386E+02  0.24332584719E+02 -0.75250080243E+02  0.80654376878E+02  0.00000000000E+00 0.  1.
</event>
<event>
 6    1  0.6992302E-006  0.1358789E+03  0.7561462E-02  0.1218984E+00
         -2   -1    0    0    0  501 -0.00000000000E+00  0.00000000000E+00  0.71609728016E+02  0.71609728016E+02  0.00000000000E+00 0.  1.
          2   -1    0    0  501    0  0.00000000000E+00 -0.00000000000E+00 -0.34614444038E+03  0.34614444038E+03  0.00000000000E+00 0. -1.
          5    1    1    2  502    0  0.44465842139E+02  0.43791689040E+02 -0.16222602814E+03  0.17386684489E+03  0.41800000000E+01 0. -1.
         -5    1    1    2    0  502 -0.20961511729E+02  0.72487238345E+02 -0.11958342569E+02  0.76513129944E+02  0.41800000000E+01 0.  1.
        -11    1    1    2    0    0 -0.31897122380E+02 -0.21455772784E+02 -0.34198791684E+02  0.51452249266E+02  0.00000000000E+00 0. -1.
         11    1    1    2    0    0  0.83927919704E+01 -0.94823154601E+02 -0.66151549973E+02  0.11592194430E+03  0.00000000000E+00 0.  1.
</event>
<event>
 7    1  0.6992302E-006  0.8576667E+02  0.7561462E-02  0.1313440E+00
          1   -1    0    0  501    0  0.00000000000E+00  0.00000000000E+00  0.38288702343E+02  0.38288702343E+02  0.00000000000E+00 0. -1.
         -1   -1    0    0    0  501 -0.00000000000E+00 -0.00000000000E+00 -0.39618685657E+03  0.39618685657E+03  0.00000000000E+00 0.  1.
         23    2    1    2    0    0 -0.80358440770E+01 -0.57858183816E+02 -0.22667793088E+03  0.26532763553E+03  0.12491487342E+03 0.  0.
          5    1    3    3  502    0 -0.25052063750E+02 -0.68661729203E+02 -0.52866777499E+02  0.90301758113E+02  0.41800000000E+01 0.  1.
         -5    1    3    3    0  502  0.17016219673E+02  0.10803545387E+02 -0.17381115338E+03  0.17502587741E+03  0.41800000000E+01 0.  1.
        -11    1    1    2    0    0  0.27349887672E+02  0.49791970256E+02 -0.27094609358E+02  0.62939451172E+02  0.00000000000E+00 0. -1.
         11    1    1    2    0    0 -0.19314043595E+02  0.80662135600E+01 -0.10412561399E+03  0.10620847222E+03  0.00000000000E+00 0.  1.
</event>
<event>
 7    1  0.6992302E-006  0.1589837E+03  0.7561462E-02  0.1189849E+00
          2   -1    0    0  501    0  0.00000000000E+00  0.00000000000E+00  0.30728856098E+03  0.30728856098E+03  0.00000000000E+00 0. -1.
         -2   -1    0    0    0  501 -0.00000000000E+00 -0.00000000000E+00 -0.11005302623E+03  0.11005302623E+03  0.00000000000E+00 0.  1.
         23    2    1    2    0    0  0.88322281546E+01 -0.11964438136E+03  0.87561647427E+01  0.17354349050E+03  0.12509151222E+03 0.  0.
          5    1    3    3  502    0 -0.57814703471E+02 -0.48680380054E+02 -0.13496962255E+00  0.75695508166E+02  0.41800000000E+01 0.  1.
         -5    1    3    3    0  502  0.66646931626E+02 -0.70964001302E+02  0.88911343653E+01  0.97847982331E+02  0.41800000000E+01 0.  1.
        -11    1    1    2    0    0  0.22495402090E+02  0.14377768687E+01  0.46596706567E+01  0.23017881052E+02  0.00000000000E+00 0.  1.
         11    1    1    2    0    0 -0.31327630244E+02  0.11820660449E+03  0.18381969935E+03  0.22078021567E+03  0.00000000000E+00 0. -1.
</event>
<event>
 7    1  0.6992302E-006  0.1269398E+03  0.7561462E-02  0.1232068E+00
         -1   -1    0    0    0  501 -0.00000000000E+00  0.00000000000E+00  0.41662029748E+03  0.41662029748E+03  0.00000000000E+00 0.  1.
          1   -1    0    0  501    0  0.00000000000E+00 -0.00000000000E+00 -0.53929689700E+02  0.53929689700E+02  0.00000000000E+00 0. -1.
         23    2    1    2    0    0 -0.17395361422E+01  0.85603975361E+02  0.29839480078E+03  0.33469187311E+03  0.12509247063E+03 0.  0.
          5    1    3    3  502    0  0.34358842640E+02  0.10381656349E+03  0.19525411024E+03  0.22383040206E+03  0.41800000000E+01 0. -1.
         -5    1    3    3    0  502 -0.36098378782E+02 -0.18212588127E+02  0.10314069055E+03  0.11086147105E+03  0.41800000000E+01 0. -1.
        -11    1    1    2    0    0 -0.20075353035E+02 -0.55559832884E+01  0.46573131842E+02  0.51019068585E+02  0.00000000000E+00 0.  1.
         11    1    1    2    0    0  0.21814889177E+02 -0.80047992072E+02  0.17722675159E+02  0.84839045488E+02  0.00000000000E+00 0. -1.
</event>
<event>
 6    1  0.6992302E-006  0.2224872E+03  0.7561462E-02  0.1132042E+00
          1   -1    0    0  501    0  0.00000000000E+00  0.00000000000E+00  0.38329249374E+03  0.38329249374E+03  0.00000000000E+00 0. -1.
         -1   -1    0    0    0  501 -0.00000000000E+00 -0.00000000000E+00 -0.18722599786E+03  0.18722599786E+03  0.00000000000E+00 0.  1.
          5    1    1    2  502    0 -0.65036054904E+02 -0.74920053073E+02  0.13320968092E+03  0.16614750760E+03  0.41800000000E+01 0. -1.
         -5    1    1    2    0  502  0.94533312188E+01  0.19312083134E+03 -0.61428934202E+02  0.20291872098E+03  0.41800000000E+01 0.  1.
        -11    1    1    2    0    0 -0.19872122990E+02 -0.32504040839E+02  0.89032353808E+01  0.39123925458E+02  0.00000000000E+00 0. -1.
         11    1    1    2    0    0  0.75454846675E+02 -0.85696737424E+02  0.11538251378E+03  0.16232833757E+03  0.00000000000E+00 0.  1.
</event>
<event>
 7    1  0.6992302E-006  0.9594825E+02  0.7561462E-02  0.1289055E+00
         -2   -1    0    0    0  501 -0.00000000000E+00  0.00000000000E+00  0.44840674061E+02  0.44840674061E+02  0.00000000000E+00 0. -1.
          2   -1    0    0  501    0  0.00000000000E+00 -0.00000000000E+00 -0.36758357152E+03  0.36758357152E+03  0.00000000000E+00 0.  1.
         23    2    1    2    0    0  0.46288083607E+02  0.20428835825E+02 -0.10392612496E+03  0.17031747143E+03  0.12508987812E+03 0.  0.
          5    1    3    3  502    0 -0.32944608970E+02  0.21170753690E+02  0.22675865342E+00  0.39383650053E+02  0.41800000000E+01 0. -1.
         -5    1    3    3    0  502  0.79232692577E+02 -0.74191786443E+00 -0.10415288361E+03  0.13093382138E+03  0.41800000000E+01 0. -1.
        -11    1    1    2    0    0 -0.37591153596E+02 -0.38068222052E+02 -0.21564911904E+03  0.22218646877E+03  0.00000000000E+00 0.  1.
         11    1    1    2    0    0 -0.86969300107E+01  0.17639386227E+02 -0.31676534521E+01  0.19920305381E+02  0.00000000000E+00 0. -1.
</event>
<event>
 7    1  0.6992302E-006  0.1451692E+03  0.7561462E-02  0.1206538E+00
          1   -1    0    0  501    0  0.00000000000E+00  0.00000000000E+00  0.21520205826E+03  0.21520205826E+03  0.00000000000E+00 0. -1.
         -1   -1    0    0    0  501 -0.00000000000E+00 -0.00000000000E+00 -0.14566614661E+03  0.14566614661E+03  0.00000000000E+00 0.  1.
         23    2    1    2    0    0  0.72856089157E+01 -0.11699794515E+03 -0.44564582722E+02  0.17712977584E+03  0.12508939278E+03 0.  0.
          5    1    3    3  502    0 -0.39135928448E+02 -0.11839468309E+03 -0.34061265482E+02  0.12933121852E+03  0.41800000000E+01 0. -1.
         -5    1    3    3    0  502  0.46421537364E+02  0.13967379301E+01 -0.10503317241E+02  0.47798557312E+02  0.41800000000E+01 0. -1.
        -11    1    1    2    0    0  0.25612422676E+01  0.92561328440E+02  0.32733171136E+02  0.98212117262E+02  0.00000000000E+00 0.  1.
         11    1    1    2    0    0 -0.98468511833E+01  0.24436616715E+02  0.81367323238E+02  0.85526311774E+02  0.00000000000E+00 0. -1.
</event>
<event>
 7    1  0.6992302E-006  0.1081297E+03  0.7561462E-02  0.1264073E+00
         -2   -1    0    0    0  501 -0.00000000000E+00  0.00000000000E+00  0.41575466475E+02  0.41575466475E+02  0.00000000000E+00 0.  1.
          2   -1    0    0  501    0  0.00000000000E+00 -0.00000000000E+00 -0.32125636034E+03  0.32125636034E+03  0.00000000000E+00 0. -1.
         23    2    1    2    0    0 -0.40291082900E+02 -0.70762527301E+01 -0.17593463128E+03  0.21971109357E+03  0.12508607212E+03 0.  0.
          5    1    3    3  502    0 -0.26292022495E+02  0.51300646630E+02 -0.37861628999E+02  0.69094154181E+02  0.41800000000E+01 0. -1.
         -5    1    3    3    0  502 -0.13999060404E+02 -0.58376899360E+02 -0.13807300228E+03  0.15061693939E+03  0.41800000000E+01 0. -1.
        -11    1    1    2    0    0  0.64273844807E+02  0.24347177734E+02 -0.67248922794E+02  0.96157837989E+02  0.00000000000E+00 0.  1.
         11    1    1    2    0    0 -0.23982761907E+02 -0.17270925003E+02 -0.36497339789E+02  0.46962895256E+02  0.00000000000E+00 0. -1.
</event>
<event>
 7    1  0.6992302E-006  0.2333366E+03  0.7561462E-02  0.1124313E+00
         -3   -1    0    0    0  501 -0.00000000000E+00  0.00000000000E+00  0.18121647479E+03  0.18121647479E+03  0.00000000000E+00 0.  1.
          3   -1    0    0  501    0  0.00000000000E+00 -0.00000000000E+00 -0.38604914484E+03  0.38604914484E+03  0.00000000000E+00 0. -1.
         23    2    1    2    0    0 -0.20216501394E+03  0.77806943027E+02  0.79456131321E+01  0.25027132495E+03  0.12509192653E+03 0.  0.
          5    1    3    3  502    0  0.99460034613E+01  0.28622486162E+02  0.10900050517E+02  0.32472345161E+02  0.41800000000E+01 0. -1.
         -5    1    3    3    0  502 -0.21211101740E+03  0.49184456865E+02 -0.29544373849E+01  0.21779897979E+03  0.41800000000E+01 0. -1.
        -11    1    1    2    0    0  0.54228038834E+02 -0.34055912282E+02 -0.12255893732E+03  0.13827934941E+03  0.00000000000E+00 0. -1.
         11    1    1    2    0    0  0.14793697510E+03 -0.43751030745E+02 -0.90219345867E+02  0.17871494527E+03  0.00000000000E+00 0.  1.
</event>
<event>
 7    1  0.6992302E-006  0.1371141E+03  0.7561462E-02  0.1217266E+00
          2   -1    0    0  501    0  0.00000000000E+00  0.00000000000E+00  0.61060530412E+03  0.61060530412E+03  0.00000000000E+00 0. -1.
         -2   -1    0    0    0  501 -0.00000000000E+00 -0.00000000000E+00 -0.42396154007E+02  0.42396154007E+02  0.00000000000E+00 0.  1.
         23    2    1    2    0    0 -0.10280645810E+03  0.35229509469E+02  0.20749221119E+03  0.26554035539E+03  0.12509347095E+03 0.  0.
          5    1    3    3  502    0  0.67909509474E+01  0.49033977229E+02  0.98413724968E+02  0.11024146951E+03  0.41800000000E+01 0.  1.
         -5    1    3    3    0  502 -0.10959740905E+03 -0.13804467760E+02  0.10907848622E+03  0.15529888588E+03  0.41800000000E+01 0.  1.
        -11    1    1    2    0    0  0.84354825823E+02 -0.13380274448E+02  0.34376503136E+03  0.35421626892E+03  0.00000000000E+00 0. -1.
         11    1    1    2    0    0  0.18451632281E+02 -0.21849235021E+02  0.16951907566E+02  0.33244833809E+02  0.00000000000E+00 0.  1.
</event>
<event>
 7    1  0.6992302E-006  0.1193480E+03  0.7561462E-02  0.1244176E+00
          3   -1    0    0  501    0  0.00000000000E+00  0.00000000000E+00  0.25072711134E+03  0.25072711134E+03  0.00000000000E+00 0. -1.
         -3   -1    0    0    0  501 -0.00000000000E+00 -0.00000000000E+00 -0.69607254929E+02  0.69607254929E+02  0.00000000000E+00 0.  1.
         23    2    1    2    0    0  0.22912639902E+02  0.77968178514E+02  0.76920262583E+02  0.16779625769E+03  0.12503931930E+03 0.  0.
          5    1    3    3  502    0  0.65395676667E+02  0.21634714857E+02  0.86846842429E+01  0.69552509329E+02  0.41800000000E+01 0. -1.
         -5    1    3    3    0  502 -0.42483036765E+02  0.56333463658E+02  0.68235578340E+02  0.98243748360E+02  0.41800000000E+01 0. -1.
        -11    1    1    2    0    0  0.15301515285E+02 -0.41022589053E+01 -0.37383465159E+01  0.16276981686E+02  0.00000000000E+00 0.  1.
         11    1    1    2    0    0 -0.38214155186E+02 -0.73865919609E+02  0.10793794034E+03  0.13626112689E+03  0.00000000000E+00 0. -1.
</event>
<event>
 7    1  0.6992302E-006  0.2047471E+03  0.7561462E-02  0.1145795E+00
         -4   -1    0    0    0  501 -0.00000000000E+00  0.00000000000E+00  0.25355800702E+03  0.25355800702E+03  0.00000000000E+00 0.  1.
          4   -1    0    0  501    0  0.00000000000E+00 -0.00000000000E+00 -0.18959456457E+03  0.18959456457E+03  0.00000000000E+00 0. -1.
         23    2    1    2    0    0 -0.87851710674E+02  0.15984129494E+03  0.91682982845E+02  0.23941836736E+03  0.12509285611E+03 0.  0.
          5    1    3    3  502    0 -0.10677775585E+03  0.75387330781E+02  0.33342401003E+02  0.13495898225E+03  0.41800000000E+01 0. -1.
         -5    1    3    3    0  502  0.18926045172E+02  0.84453964156E+02  0.58340581841E+02  0.10445938511E+03  0.41800000000E+01 0. -1.
        -11    1    1    2    0    0  0.93063751769E+02 -0.11984893972E+03 -0.47247893809E+02  0.15892449061E+03  0.00000000000E+00 0. -1.
         11    1    1    2    0    0 -0.52120410954E+01 -0.39992355217E+02  0.19528353409E+02  0.44809713624E+02  0.00000000000E+00 0.  1.
</event>
<event>
 7    1  0.6992302E-006  0.1222401E+03  0.7561462E-02  0.1239447E+00
          2   -1    0    0  501    0  0.00000000000E+00  0.00000000000E+00  0.93733133980E+02  0.93733133980E+02  0.00000000000E+00 0. -1.
         -2   -1    0    0    0  501 -0.00000000000E+00 -0.00000000000E+00 -0.25544776126E+03  0.25544776126E+03  0.00000000000E+00 0.  1.
         23    2    1    2    0    0 -0.88854414608E+02 -0.38823999279E+02 -0.14555507359E+03  0.21501734504E+03  0.12507505468E+03 0.  0.
          5    1    3    3  502    0 -0.99457997146E+02 -0.41527998054E+02 -0.16212397144E+03  0.19472576186E+03  0.41800000000E+01 0. -1.
         -5    1    3    3    0  502  0.10603582538E+02  0.27039987744E+01  0.16568897844E+02  0.20291583176E+02  0.41800000000E+01 0. -1.
        -11    1    1    2    0    0  0.25815605577E+01 -0.20206174027E+02 -0.21338157407E+02  0.29500353985E+02  0.00000000000E+00 0. -1.
         11    1    1    2    0    0  0.86272854051E+02  0.59030173306E+02  0.51786037151E+01  0.10466319622E+03  0.00000000000E+00 0.  1.
</event>
<event>
 7    1  0.6992302E-006  0.1337284E+03  0.7561462E-02  0.1222026E+00
          1   -1    0    0  501    0  0.00000000000E+00  0.00000000000E+00  0.17372265754E+03  0.17372265754E+03  0.00000000000E+00 0. -1.
         -1   -1    0    0    0  501 -0.00000000000E+00 -0.00000000000E+00 -0.10329854855E+03  0.10329854855E+03  0.00000000000E+00 0.  1.
         23    2    1    2    0    0  0.34973125775E+01  0.77868410262E+02  0.30998179533E+02  0.15061419694E+03  0.12509208078E+03 0.  0.
          5    1    3    3  502    0 -0.32239098753E+02 -0.23304784246E+02  0.91919207885E+01  0.41041884276E+02  0.41800000000E+01 0. -1.
         -5    1    3    3    0  502  0.35736411331E+02  0.10117319451E+03  0.21806258745E+02  0.10957231266E+03  0.41800000000E+01 0. -1.
        -11    1    1    2    0    0  0.42691615081E+02 -0.51489651977E+02  0.23226449624E+02  0.70804139858E+02  0.00000000000E+00 0. -1.
         11    1    1    2    0    0 -0.46188927659E+02 -0.26378758286E+02  0.16199479830E+02  0.55602869294E+02  0.00000000000E+00 0.  1.
</event>
<event>
 7    1  0.6992302E-006  0.9802697E+02  0.7561462E-02  0.1284501E+00
          2   -1    0    0  501    0  0.00000000000E+00  0.00000000000E+00  0.45271498733E+03  0.45271498733E+03  0.00000000000E+00 0. -1.
         -2   -1    0    0    0  501 -0.00000000000E+00 -0.00000000000E+00 -0.44566943414E+02  0.44566943414E+02  0.00000000000E+00 0.  1.
         23    2    1    2    0    0  0.79524181650E+02  0.44188564609E+02  0.22844073565E+03  0.27587597871E+03  0.12508261756E+03 0.  0.
          5    1    3    3  502    0  0.39420725274E+02 -0.23914890507E+01  0.20679930442E+03  0.21057810311E+03  0.41800000000E+01 0.  1.
         -5    1    3    3    0  502  0.40103456375E+02  0.46580053660E+02  0.21641431229E+02  0.65297875600E+02  0.41800000000E+01 0.  1.
        -11    1    1    2    0    0 -0.37844035457E+02 -0.62204202730E+01  0.60509576895E+01  0.38826263495E+02  0.00000000000E+00 0.  1.
         11    1    1    2    0    0 -0.41680146192E+02 -0.37968144336E+02  0.17365635057E+03  0.18257968853E+03  0.00000000000E+00 0. -1.
</event>
<event>
 7    1  0.6992302E-006  0.1642036E+03  0.7561462E-02  0.1184031E+00
         -3   -1    0    0    0  501 -0.00000000000E+00  0.00000000000E+00  0.35414596761E+03  0.35414596761E+03  0.00000000000E+00 0.  1.
          3   -1    0    0  501    0  0.00000000000E+00 -0.00000000000E+00 -0.88134020735E+02  0.88134020735E+02  0.00000000000E+00 0. -1.
         23    2    1    2    0    0  0.13325594370E+03 -0.44379467030E+02  0.11511401022E+03  0.22054360498E+03  0.12514616544E+03 0.  0.
          5    1    3    3  502    0  0.27126029075E+02  0.39685233662E+02  0.52538264066E+02  0.71333588268E+02  0.41800000000E+01 0.  1.
         -5    1    3    3    0  502  0.10612991463E+03 -0.84064700692E+02  0.62575746155E+02  0.14921001672E+03  0.41800000000E+01 0.  1.
        -11    1    1    2    0    0 -0.63736865321E+02  0.39558703383E+02  0.12804137918E+03  0.14839768797E+03  0.00000000000E+00 0. -1.
         11    1    1    2    0    0 -0.69519078383E+02  0.48207636467E+01  0.22856557477E+02  0.73338695387E+02  0.00000000000E+00 0.  1.
</event>
<event>
 7    1  0.6992302E-006  0.1056278E+03  0.7561462E-02  0.1268888E+00
         -2   -1    0    0    0  501 -0.00000000000E+00  0.00000000000E+00  0.27874961649E+02  0.27874961649E+02  0.00000000000E+00 0.  1.
          2   -1    0    0  501    0  0.00000000000E+00 -0.00000000000E+00 -0.49706544636E+03  0.49706544636E+03  0.00000000000E+00 0. -1.
         23    2    1    2    0    0 -0.12962119483E+02 -0.17794909155E+02 -0.16998961214E+03  0.21219865781E+03  0.12508847592E+03 0.  0.
          5    1    3    3  502    0  0.23780774675E+02  0.42866404593E+02 -0.10481731831E+03  0.11578944902E+03  0.41800000000E+01 0.  1.
         -5    1    3    3    0  502 -0.36742894158E+02 -0.60661313748E+02 -0.65172293836E+02  0.96409208795E+02  0.41800000000E+01 0.  1.
        -11    1    1    2    0    0 -0.94005831011E+01 -0.33638747354E+02 -0.11771765383E+03  0.12278999271E+03  0.00000000000E+00 0. -1.
         11    1    1    2    0    0  0.22362702584E+02  0.51433656510E+02 -0.18148321874E+03  0.18995175749E+03  0.00000000000E+00 0.  1.
</event>
<event>
 7    1  0.6992302E-006  0.7979676E+02  0.7561462E-02  0.1329629E+00
          2   -1    0    0  501    0  0.00000000000E+00  0.00000000000E+00  0.14643444458E+03  0.14643444458E+03  0.00000000000E+00 0. -1.
         -2   -1    0    0    0  501 -0.00000000000E+00 -0.00000000000E+00 -0.83522256432E+02  0.83522256432E+02  0.00000000000E+00 0.  1.
         23    2    1    2    0    0 -0.33112609278E+01 -0.82988429921E+01  0.13590539185E+02  0.12615363994E+03  0.12510077087E+03 0.  0.
          5    1    3    3  502    0  0.47350256524E+02 -0.60866697263E+01  0.45509863272E+02  0.66088685842E+02  0.41800000000E+01 0.  1.
         -5    1    3    3    0  502 -0.50661517452E+02 -0.22121732659E+01 -0.31919324087E+02  0.60064954101E+02  0.41800000000E+01 0.  1.
        -11    1    1    2    0    0  0.12578681466E+02 -0.24049046580E+02  0.62129573662E+02  0.67798700520E+02  0.00000000000E+00 0. -1.
         11    1    1    2    0    0 -0.92674205384E+01  0.32347889572E+02 -0.12807924702E+02  0.36004360546E+02  0.00000000000E+00 0.  1.
</event>
<event>
 7    1  0.6992302E-006  0.1293459E+03  0.7561462E-02  0.1228430E+00
          2   -1    0    0  501    0  0.00000000000E+00  0.00000000000E+00  0.17976009115E+03  0.17976009115E+03  0.00000000000E+00 0. -1.
         -2   -1    0    0    0  501 -0.00000000000E+00 -0.00000000000E+00 -0.94242878215E+02  0.94242878215E+02  0.00000000000E+00 0.  1.
         23    2    1    2    0    0  0.63740094669E+02  0.35419123791E+02  0.42491014243E+02  0.15089486541E+03  0.12508581102E+03 0.  0.
          5    1    3    3  502    0 -0.31564746406E+02  0.35987990473E+02  0.24037066983E+02  0.53728220361E+02  0.41800000000E+01 0.  1.
         -5    1    3    3    0  502  0.95304841075E+02 -0.56886668226E+00  0.18453947260E+02  0.97166645054E+02  0.41800000000E+01 0.  1.
        -11    1    1    2    0    0 -0.41676432012E+02  0.26582189038E+02  0.21026082778E+02  0.53718096730E+02  0.00000000000E+00 0. -1.
         11    1    1    2    0    0 -0.22063662657E+02 -0.62001312829E+02  0.22000115918E+02  0.69390007225E+02  0.00000000000E+00 0.  1.
</event>
<event>
 7    1  0.6992302E-006  0.1671887E+03  0.7561462E-02  0.1180812E+00
         -2   -1    0    0    0  501 -0.00000000000E+00  0.00000000000E+00  0.15268778555E+03  0.15268778555E+03  0.00000000000E+00 0.  1.
          2   -1    0    0  501    0  0.00000000000E+00 -0.00000000000E+00 -0.29217781598E+03  0.29217781598E+03  0.00000000000E+00 0. -1.
         23    2    1    2    0    0  0.15187029919E+03  0.35445521642E+02  0.23928204979E+02  0.20134663732E+03  0.12508771557E+03 0.  0.
          5    1    3    3  502    0  0.87678968519E+01  0.31305819215E+02 -0.33656542553E+02  0.46980480931E+02  0.41800000000E+01 0.  1.
         -5    1    3    3    0  502  0.14310240234E+03  0.41397024277E+01  0.57584747533E+02  0.15436615639E+03  0.41800000000E+01 0.  1.
        -11    1    1    2    0    0 -0.12017470012E+03 -0.39321543770E+02 -0.16903737692E+03  0.21109660620E+03  0.00000000000E+00 0. -1.
         11    1    1    2    0    0 -0.31695599064E+02  0.38760221275E+01  0.56191415162E+01  0.32422358010E+02  0.00000000000E+00 0.  1.
</event>
<event>
 6    1  0.6992302E-006  0.1385090E+03  0.7561462E-02  0.1215349E+00
          2   -1    0    0  501    0  0.00000000000E+00  0.00000000000E+00  0.67396021171E+03  0.67396021171E+03  0.00000000000E+00 0. -1.
         -2   -1    0    0    0  501 -0.00000000000E+00 -0.00000000000E+00 -0.42279766893E+02  0.42279766893E+02  0.00000000000E+00 0.  1.
          5    1    1    2  502    0  0.70158472222E+01  0.22253498528E+02  0.10403908057E+03  0.10670540284E+03  0.41800000000E+01 0. -1.
         -5    1    1    2    0  502 -0.20221635438E+02 -0.11893753704E+03  0.86118405068E+02  0.14828656159E+03  0.41800000000E+01 0.  1.
        -11    1    1    2    0    0  0.46980132622E+02  0.84518613740E+02  0.34380021535E+03  0.35714019237E+03  0.00000000000E+00 0. -1.
         11    1    1    2    0    0 -0.33774344405E+02  0.12165424773E+02  0.97722743827E+02  0.10410782181E+03  0.00000000000E+00 0.  1.
</event>
<event>
 7    1  0.6992302E-006  0.1085118E+03  0.7561462E-02  0.1263351E+00
         -2   -1    0    0    0  501 -0.00000000000E+00  0.00000000000E+00  0.12354019469E+02  0.12354019469E+02  0.00000000000E+00 0.  1.
          2   -1    0    0  501    0  0.00000000000E+00 -0.00000000000E+00 -0.10355763406E+04  0.10355763406E+04  0.00000000000E+00 0. -1.
         23    2    1    2    0    0 -0.46981312885E+01  0.25015523925E+02 -0.67169873991E+03  0.68372135314E+03  0.12509133732E+03 0.  0.
          5    1    3    3  502    0  0.16889245935E+02  0.69849004225E+02 -0.49105185877E+03  0.49629983923E+03  0.41800000000E+01 0.  1.
         -5    1    3    3    0  502 -0.21587377224E+02 -0.44833480300E+02 -0.18064688114E+03  0.18742151391E+03  0.41800000000E+01 0.  1.
        -11    1    1    2    0    0 -0.35636593921E+02 -0.38608697668E+02 -0.20527949308E+03  0.21189683490E+03  0.00000000000E+00 0.  1.
         11    1    1    2    0    0  0.40334725210E+02  0.13593173743E+02 -0.14624408810E+03  0.15231217199E+03  0.00000000000E+00 0. -1.
</event>
<event>
 7    1  0.6992302E-006  0.1195581E+03  0.7561462E-02  0.1243828E+00
          1   -1    0    0  501    0  0.00000000000E+00  0.00000000000E+00  0.21159025587E+03  0.21159025587E+03  0.00000000000E+00 0. -1.
         -1   -1    0    0    0  501 -0.00000000000E+00 -0.00000000000E+00 -0.17487202063E+03  0.17487202063E+03  0.00000000000E+00 0.  1.
         23    2    1    2    0    0 -0.60093028522E+02 -0.79081200465E+02 -0.10507507780E+03  0.18919517221E+03  0.12202062476E+03 0.  0.
          5    1    3    3  502    0 -0.76721504601E+02 -0.70992161752E+02 -0.25883518208E+02  0.10776597428E+03  0.41800000000E+01 0. -1.
         -5    1    3    3    0  502  0.16628476079E+02 -0.80890387121E+01 -0.79191559589E+02  0.81429197921E+02  0.41800000000E+01 0.  1.
        -11    1    1    2    0    0  0.54513813593E+02  0.22964823770E+02  0.18977550225E+02  0.62123155231E+02  0.00000000000E+00 0. -1.
         11    1    1    2    0    0  0.55792149287E+01  0.56116376694E+02  0.12281576282E+03  0.13514394906E+03  0.00000000000E+00 0.  1.
</event>
<event>
 7    1  0.6992302E-006  0.7822962E+02  0.7561462E-02  0.1334152E+00
         -1   -1    0    0    0  501 -0.00000000000E+00  0.00000000000E+00  0.11641610460E+03  0.11641610460E+03  0.00000000000E+00 0.  1.
          1   -1    0    0  501    0  0.00000000000E+00 -0.00000000000E+00 -0.10117996042E+03  0.10117996042E+03  0.00000000000E+00 0. -1.
         23    2    1    2    0    0  0.34575822442E+01 -0.86353510735E+01  0.97913080006E+01  0.12582485982E+03  0.12509796750E+03 0.  0.
          5    1    3    3  502    0  0.35382077317E+02 -0.22569700393E+01 -0.47726386159E+02  0.59600886275E+02  0.41800000000E+01 0.  1.
         -5    1    3    3    0  502 -0.31924495073E+02 -0.63783810342E+01  0.57517694159E+02  0.66223973542E+02  0.41800000000E+01 0.  1.
        -11    1    1    2    0    0  0.33752350078E+02 -0.21531080978E+02 -0.10316454923E+02  0.41342929577E+02  0.00000000000E+00 0.  1.
         11    1    1    2    0    0 -0.37209932322E+02  0.30166432051E+02  0.15761291103E+02  0.50428275633E+02  0.00000000000E+00 0. -1.
</event>
<event>
 7    1  0.6992302E-006  0.1206243E+03  0.7561462E-02  0.1242071E+00
          2   -1    0    0  501    0  0.00000000000E+00  0.00000000000E+00  0.30930923362E+03  0.30930923362E+03  0.00000000000E+00 0. -1.
         -2   -1    0    0    0  501 -0.00000000000E+00 -0.00000000000E+00 -0.55405923403E+02  0.55405923403E+02  0.00000000000E+00 0.  1.
         23    2    1    2    0    0 -0.36595565077E+02  0.61514442881E+02  0.13046060917E+03  0.19439812614E+03  0.12508956325E+03 0.  0.
          5    1    3    3  502    0 -0.39127178663E+01  0.93358281559E+02  0.10949922226E+03  0.14400913225E+03  0.41800000000E+01 0.  1.
         -5    1    3    3    0  502 -0.32682847211E+02 -0.31843838677E+02  0.20961386913E+02  0.50388993886E+02  0.41800000000E+01 0.  1.
        -11    1    1    2    0    0 -0.22246934091E+02 -0.19585965764E+02  0.81614987297E+02  0.86830537732E+02  0.00000000000E+00 0. -1.
         11    1    1    2    0    0  0.58842499168E+02 -0.41928477117E+02  0.41827713750E+02  0.83486493155E+02  0.00000000000E+00 0.  1.
</event>
<event>
 7    1  0.6992302E-006  0.2641030E+03  0.7561462E-02  0.1104703E+00
         -1   -1    0    0    0  501 -0.00000000000E+00  0.00000000000E+00  0.33070872023E+03  0.33070872023E+03  0.00000000000E+00 0.  1.
          1   -1    0    0  501    0  0.00000000000E+00 -0.00000000000E+00 -0.23231972836E+03  0.23231972836E+03  0.00000000000E+00 0. -1.
         23    2    1    2    0    0 -0.23683483526E+03 -0.79765265952E+02  0.33696024821E+01  0.27949244494E+03  0.12510569814E+03 0.  0.
          5    1    3    3  502    0 -0.20452244343E+03 -0.14310270634E+02 -0.93517860430E+01  0.20527820638E+03  0.41800000000E+01 0. -1.
         -5    1    3    3    0  502 -0.32312391833E+02 -0.65454995319E+02  0.12721388525E+02  0.74214238554E+02  0.41800000000E+01 0. -1.
        -11    1    1    2    0    0  0.19801747936E+03  0.63654736632E+02  0.11425862013E+03  0.23731388477E+03  0.00000000000E+00 0.  1.
         11    1    1    2    0    0  0.38817355900E+02  0.16110529321E+02 -0.19239230743E+02  0.46222118879E+02  0.00000000000E+00 0. -1.
</event>
<event>
 7    1  0.6992302E-006  0.1146665E+03  0.7561462E-02  0.1252164E+00
          1   -1    0    0  501    0  0.00000000000E+00  0.00000000000E+00  0.18402889477E+03  0.18402889477E+03  0.00000000000E+00 0. -1.
         -1   -1    0    0    0  501 -0.00000000000E+00 -0.00000000000E+00 -0.92410125396E+02  0.92410125396E+02  0.00000000000E+00 0.  1.
         23    2    1    2    0    0  0.52800790189E+02  0.64623190039E+02  0.57454891160E+02  0.15037220372E+03  0.11111550295E+03 0.  0.
          5    1    3    3  502    0  0.52788598280E+02  0.90743700126E+02  0.24085666533E+02  0.10778982769E+03  0.41800000000E+01 0. -1.
         -5    1    3    3    0  502  0.12191909024E-01 -0.26120510087E+02  0.33369224627E+02  0.42582376026E+02  0.41800000000E+01 0.  1.
        -11    1    1    2    0    0 -0.48479242048E+02 -0.19128949537E+02 -0.19442333060E+02  0.55625155593E+02  0.00000000000E+00 0.  1.
         11    1    1    2    0    0 -0.43215481413E+01 -0.45494240502E+02  0.53606211275E+02  0.70441660858E+02  0.00000000000E+00 0. -1.
</event>
<event>
 7    1  0.6992302E-006  0.8300165E+02  0.7561462E-02  0.1320743E+00
         -2   -1    0    0    0  501 -0.00000000000E+00  0.00000000000E+00  0.47187876503E+02  0.47187876503E+02  0.00000000000E+00 0.  1.
          2   -1    0    0  501    0  0.00000000000E+00 -0.00000000000E+00 -0.46402563955E+03  0.46402563955E+03  0.00000000000E+00 0. -1.
         23    2    1    2    0    0  0.31995645786E+02 -0.22564928298E+02 -0.66569982108E+02  0.14700959281E+03  0.12508941011E+03 0.  0.
          5    1    3    3  502    0  0.31441106048E+02 -0.42610675494E+02  0.20966991833E+02  0.57107792482E+02  0.41800000000E+01 0.  1.
         -5    1    3    3    0  502  0.55453973724E+00  0.20045747196E+02 -0.87536973941E+02  0.89901800325E+02  0.41800000000E+01 0.  1.
        -11    1    1    2    0    0 -0.61816591980E+00  0.50430702674E+02 -0.25740426035E+03  0.26229866783E+03  0.00000000000E+00 0.  1.
         11    1    1    2    0    0 -0.31377479866E+02 -0.27865774375E+02 -0.92863520591E+02  0.10190525541E+03  0.00000000000E+00 0. -1.
</event>
<event>
 7    1  0.6992302E-006  0.1339352E+03  0.7561462E-02  0.1221731E+00
         -1   -1    0    0    0  501 -0.00000000000E+00  0.00000000000E+00  0.38476504126E+03  0.38476504126E+03  0.00000000000E+00 0.  1.
          1   -1    0    0  501    0  0.00000000000E+00 -0.00000000000E+00 -0.67855104571E+02  0.67855104571E+02  0.00000000000E+00 0. -1.
         23    2    1    2    0    0 -0.11247969020E+03  0.44069485368E+01  0.22780360588E+03  0.28321895797E+03  0.12508954151E+03 0.  0.
          5    1    3    3  502    0 -0.12480842785E+03  0.18316015327E+02  0.12139866091E+03  0.17512203559E+03  0.41800000000E+01 0. -1.
         -5    1    3    3    0  502  0.12328737653E+02 -0.13909066790E+02  0.10640494498E+03  0.10809692237E+03  0.41800000000E+01 0. -1.
        -11    1    1    2    0    0  0.55374854578E+02  0.22133091832E+02  0.88145301110E+02  0.10642294105E+03  0.00000000000E+00 0.  1.
         11    1    1    2    0    0  0.57104835622E+02 -0.26540040368E+02  0.96102969949E+00  0.62978246818E+02  0.00000000000E+00 0. -1.
</event>
<event>
 7    1  0.6992302E-006  0.2417591E+03  0.7561462E-02  0.1118626E+00
          1   -1    0    0  501    0  0.00000000000E+00  0.00000000000E+00  0.46966622034E+02  0.46966622034E+02  0.00000000000E+00 0. -1.
         -1   -1    0    0    0  501 -0.00000000000E+00 -0.00000000000E+00 -0.14937305286E+04  0.14937305286E+04  0.00000000000E+00 0.  1.
         23    2    1    2    0    0 -0.18118579157E+03 -0.14668555823E+03 -0.93933440098E+03  0.97587978985E+03  0.12508918147E+03 0.  0.
          5    1    3    3  502    0 -0.20328114171E+02 -0.32147012881E+02 -0.39445241825E+03  0.39630398097E+03  0.41800000000E+01 0.  1.
         -5    1    3    3    0  502 -0.16085767740E+03 -0.11453854535E+03 -0.54488198272E+03  0.57957580889E+03  0.41800000000E+01 0.  1.
        -11    1    1    2    0    0  0.39576378234E+02  0.84040979096E+02 -0.20431832063E+03  0.22444409554E+03  0.00000000000E+00 0. -1.
         11    1    1    2    0    0  0.14160941334E+03  0.62644579130E+02 -0.30311118498E+03  0.34037326525E+03  0.00000000000E+00 0.  1.
</event>
<event>
 7    1  0.6992302E-006  0.1000142E+03  0.7561462E-02  0.1280266E+00
          1   -1    0    0  501    0  0.00000000000E+00  0.00000000000E+00  0.31339010425E+03  0.31339010425E+03  0.00000000000E+00 0. -1.
         -1   -1    0    0    0  501 -0.00000000000E+00 -0.00000000000E+00 -0.44070512013E+02  0.44070512013E+02  0.00000000000E+00 0.  1.
         23    2    1    2    0    0 -0.48355213544E+01  0.32511673425E+02  0.12907167333E+03  0.18272457119E+03  0.12509348858E+03 0.  0.
          5    1    3    3  502    0 -0.49417808010E+02  0.47562985550E+02  0.34230150747E+02  0.76769349112E+02  0.41800000000E+01 0.  1.
         -5    1    3    3    0  502  0.44582286655E+02 -0.15051312125E+02  0.94841522580E+02  0.10595522208E+03  0.41800000000E+01 0.  1.
        -11    1    1    2    0    0  0.40873233381E+02 -0.11960324230E+02  0.19085862503E+02  0.46668412338E+02  0.00000000000E+00 0.  1.
         11    1    1    2    0    0 -0.36037712026E+02 -0.20551349195E+02  0.12116205640E+03  0.12806763273E+03  0.00000000000E+00 0. -1.
</event>
<event>
 7    1  0.6992302E-006  0.1151163E+03  0.7561462E-02  0.1251378E+00
          1   -1    0    0  501    0  0.00000000000E+00  0.00000000000E+00  0.45315443749E+02  0.45315443749E+02  0.00000000000E+00 0. -1.
         -1   -1    0    0    0  501 -0.00000000000E+00 -0.00000000000E+00 -0.55308560374E+03  0.55308560374E+03  0.00000000000E+00 0.  1.
         23    2    1    2    0    0 -0.69937556372E+02  0.40335443704E+02 -0.42190611468E+03  0.44740449729E+03  0.12509118587E+03 0.  0.
          5    1    3    3  502    0 -0.39686374620E+02 -0.41249377051E+02 -0.11732541527E+03  0.13061104435E+03  0.41800000000E+01 0. -1.
         -5    1    3    3    0  502 -0.30251181752E+02  0.81584820755E+02 -0.30458069940E+03  0.31679345294E+03  0.41800000000E+01 0. -1.
        -11    1    1    2    0    0  0.15627912472E+02 -0.24668127109E+02 -0.89708378129E+02  0.94341619923E+02  0.00000000000E+00 0.  1.
         11    1    1    2    0    0  0.54309643899E+02 -0.15667316595E+02  0.38443328150E+01  0.56654930276E+02  0.00000000000E+00 0. -1.
</event>
<event>
 7    1  0.6992302E-006  0.1188450E+03  0.7561462E-02  0.1245015E+00
         -3   -1    0    0    0  501 -0.00000000000E+00  0.00000000000E+00  0.20495202524E+02  0.20495202524E+02  0.00000000000E+00 0.  1.
          3   -1    0    0  501    0  0.00000000000E+00 -0.00000000000E+00 -0.70424586201E+03  0.70424586201E+03  0.00000000000E+00 0. -1.
         23    2    1    2    0    0  0.40578161283E+02  0.36401768483E+02 -0.35410579184E+03  0.37948604560E+03  0.12508825310E+03 0.  0.
          5    1    3    3  502    0 -0.32981246773E+02  0.51441689410E+02 -0.15756075267E+03  0.16904695570E+03  0.41800000000E+01 0. -1.
         -5    1    3    3    0  502  0.73559408056E+02 -0.15039920927E+02 -0.19654503917E+03  0.21043908990E+03  0.41800000000E+01 0. -1.
        -11    1    1    2    0    0  0.23158519042E+02 -0.28948952296E+02 -0.14928982535E+03  0.15382396041E+03  0.00000000000E+00 0.  1.
         11    1    1    2    0    0 -0.63736680324E+02 -0.74528161875E+01 -0.18035504229E+03  0.19143105853E+03  0.00000000000E+00 0. -1.
</event>
<event>
 7    1  0.6992302E-006  0.1133410E+03  0.7561462E-02  0.1254505E+00
         -1   -1    0    0    0  501 -0.00000000000E+00  0.00000000000E+00  0.15479416794E+02  0.15479416794E+02  0.00000000000E+00 0.  1.
          1   -1    0    0  501    0  0.00000000000E+00 -0.00000000000E+00 -0.10890369770E+04  0.10890369770E+04  0.00000000000E+00 0. -1.
         23    2    1    2    0    0  0.70157951171E+02  0.54210752293E+01 -0.79114530173E+03  0.80391128932E+03  0.12414083324E+03 0.  0.
          5    1    3    3  502    0  0.90118254968E+01  0.48335744958E+02 -0.52903465837E+03  0.53133106384E+03  0.41800000000E+01 0. -1.
         -5    1    3    3    0  502  0.61146125675E+02 -0.42914669728E+02 -0.26211064336E+03  0.27258022549E+03  0.41800000000E+01 0. -1.
        -11    1    1    2    0    0 -0.24149498889E+02 -0.38781474636E+02 -0.14029674430E+03  0.14754788217E+03  0.00000000000E+00 0.  1.
         11    1    1    2    0    0 -0.46008452282E+02  0.33360399407E+02 -0.14211551416E+03  0.15305722229E+03  0.00000000000E+00 0. -1.
</event>
<event>
 7    1  0.6992302E-006  0.1450009E+03  0.7561462E-02  0.1206754E+00
          1   -1    0    0  501    0  0.00000000000E+00  0.00000000000E+00  0.55890382598E+03  0.55890382598E+03  0.00000000000E+00 0. -1.
         -1   -1    0    0    0  501 -0.00000000000E+00 -0.00000000000E+00 -0.45893598030E+02  0.45893598030E+02  0.00000000000E+00 0.  1.
         23    2    1    2    0    0 -0.10826703532E+03  0.37808720812E+02  0.22948595307E+03  0.28539839821E+03  0.12504876144E+03 0.  0.
          5    1    3    3  502    0 -0.45449059910E+02 -0.45421997334E+02  0.10228790874E+03  0.12086795921E+03  0.41800000000E+01 0.  1.
         -5    1    3    3    0  502 -0.62817975407E+02  0.83230718145E+02  0.12719804433E+03  0.16453043900E+03  0.41800000000E+01 0.  1.
        -11    1    1    2    0    0  0.22702546648E+02 -0.26575204666E+02  0.16263350979E+02  0.38550534528E+02  0.00000000000E+00 0.  1.
         11    1    1    2    0    0  0.85564488669E+02 -0.11233516146E+02  0.26726092390E+03  0.28084849127E+03  0.00000000000E+00 0. -1.
</event>
<event>
 7    1  0.6992302E-006  0.9135354E+02  0.7561462E-02  0.1299607E+00
          3   -1    0    0  501    0  0.00000000000E+00  0.00000000000E+00  0.73807927987E+02  0.73807927987E+02  0.00000000000E+00 0. -1.
         -3   -1    0    0    0  501 -0.00000000000E+00 -0.00000000000E+00 -0.17721625828E+03  0.17721625828E+03  0.00000000000E+00 0.  1.
         23    2    1    2    0    0  0.47460301040E+01  0.35942366621E+02 -0.76003300491E+02  0.15079178413E+03  0.12508909606E+03 0.  0.
          5    1    3    3  502    0 -0.43003208823E+02  0.54076227222E+02 -0.71232148533E+02  0.99322735083E+02  0.41800000000E+01 0. -1.
         -5    1    3    3    0  502  0.47749238927E+02 -0.18133860600E+02 -0.47711519577E+01  0.51469049043E+02  0.41800000000E+01 0. -1.
        -11    1    1    2    0    0 -0.25777733716E+02 -0.31577033807E+02 -0.52971711579E+02  0.66840129018E+02  0.00000000000E+00 0.  1.
         11    1    1    2    0    0  0.21031703612E+02 -0.43653328143E+01  0.25566681776E+02  0.33392273124E+02  0.00000000000E+00 0. -1.
</event>
<event>
 7    1  0.6992302E-006  0.1491027E+03  0.7561462E-02  0.1201580E+00
          2   -1    0    0  501    0  0.00000000000E+00  0.00000000000E+00  0.11139415041E+04  0.11139415041E+04  0.00000000000E+00 0.  1.
         -2   -1    0    0    0  501 -0.00000000000E+00 -0.00000000000E+00 -0.24948484927E+02  0.24948484927E+02  0.00000000000E+00 0. -1.
         23    2    1    2    0    0  0.12295851844E+03 -0.19520257223E+02  0.55545692471E+03  0.58282008902E+03  0.12508806200E+03 0.  0.
          5    1    3    3  502    0 -0.86415596936E+01 -0.11050219677E+02  0.31499595740E+01  0.14972593435E+02  0.41800000000E+01 0. -1.
         -5    1    3    3    0  502  0.13160007813E+03 -0.84700375450E+01  0.55230696514E+03  0.56784749558E+03  0.41800000000E+01 0. -1.
        -11    1    1    2    0    0 -0.10401169705E+03  0.50260943559E+02  0.33714358087E+03  0.35638517042E+03  0.00000000000E+00 0. -1.
         11    1    1    2    0    0 -0.18946821393E+02 -0.30740686336E+02  0.19639251358E+03  0.19968472958E+03  0.00000000000E+00 0.  1.
</event>
<event>
 7    1  0.6992302E-006  0.8929397E+02  0.7561462E-02  0.1304571E+00
          1   -1    0    0  501    0  0.00000000000E+00  0.00000000000E+00  0.49113352694E+03  0.49113352694E+03  0.00000000000E+00 0. -1.
         -1   -1    0    0    0  501 -0.00000000000E+00 -0.00000000000E+00 -0.43774389553E+02  0.43774389553E+02  0.00000000000E+00 0.  1.
         23    2    1    2    0    0 -0.62206039781E+02  0.29332405833E+00  0.98474064878E+02  0.17092177676E+03  0.12508970739E+03 0.  0.
          5    1    3    3  502    0 -0.11776956650E+02  0.29755618401E+02 -0.20559684535E+02  0.38265736143E+02  0.41800000000E+01 0.  1.
         -5    1    3    3    0  502 -0.50429083130E+02 -0.29462294343E+02  0.11903374941E+03  0.13265604062E+03  0.41800000000E+01 0.  1.
        -11    1    1    2    0    0  0.13662170076E+02 -0.28507991597E+02  0.45223257361E+02  0.55177019514E+02  0.00000000000E+00 0.  1.
         11    1    1    2    0    0  0.48543869705E+02  0.28214667539E+02  0.30366181515E+03  0.30880912022E+03  0.00000000000E+00 0. -1.
</event>
<event>
 7    1  0.6992302E-006  0.1235544E+03  0.7561462E-02  0.1237346E+00
         -2   -1    0    0    0  501 -0.00000000000E+00  0.00000000000E+00  0.59315942227E+03  0.59315942227E+03  0.00000000000E+00 0.  1.
          2   -1    0    0  501    0  0.00000000000E+00 -0.00000000000E+00 -0.28301512749E+02  0.28301512749E+02  0.00000000000E+00 0. -1.
         23    2    1    2    0    0  0.53274970798E+02  0.30031938537E+02  0.40324090271E+03  0.42660376358E+03  0.12508959046E+03 0.  0.
          5    1    3    3  502    0  0.12593120350E+02  0.76310417926E+02  0.22833640150E+03  0.24111584604E+03  0.41800000000E+01 0. -1.
         -5    1    3    3    0  502  0.40681850448E+02 -0.46278479389E+02  0.17490450121E+03  0.18548791754E+03  0.41800000000E+01 0. -1.
        -11    1    1    2    0    0 -0.28595139934E+02  0.30931898754E+02  0.50807453721E+02  0.65998952583E+02  0.00000000000E+00 0. -1.
         11    1    1    2    0    0 -0.24679830864E+02 -0.60963837291E+02  0.11080955309E+03  0.12885821885E+03  0.00000000000E+00 0.  1.
</event>
<event>
 7    1  0.6992302E-006  0.1076988E+03  0.7561462E-02  0.1264892E+00
          2   -1    0    0  501    0  0.00000000000E+00  0.00000000000E+00  0.35556702801E+03  0.35556702801E+03  0.00000000000E+00 0. -1.
         -2   -1    0    0    0  501 -0.00000000000E+00 -0.00000000000E+00 -0.46545982606E+02  0.46545982606E+02  0.00000000000E+00 0.  1.
         23    2    1    2    0    0 -0.36441646876E+02 -0.53123363900E+02  0.13011144946E+03  0.19163900982E+03  0.12508571215E+03 0.  0.
          5    1    3    3  502    0 -0.64791022174E+02 -0.30271783536E+01  0.11481133115E+03  0.13193238618E+03  0.41800000000E+01 0. -1.
         -5    1    3    3    0  502  0.28349375298E+02 -0.50096185546E+02  0.15300118310E+02  0.59706623639E+02  0.41800000000E+01 0. -1.
        -11    1    1    2    0    0 -0.29187547937E+01 -0.14311947384E+02 -0.70298073527E+00  0.14623445196E+02  0.00000000000E+00 0.  1.
         11    1    1    2    0    0  0.39360401670E+02  0.67435311284E+02  0.17961257669E+03  0.19585055561E+03  0.00000000000E+00 0. -1.
</event>
<event>
 7    1  0.6992302E-006  0.8222205E+02  0.7561462E-02  0.1322861E+00
          3   -1    0    0  501    0  0.00000000000E+00  0.00000000000E+00  0.78908753698E+02  0.78908753698E+02  0.00000000000E+00 0. -1.
         -3   -1    0    0    0  501 -0.00000000000E+00 -0.00000000000E+00 -0.16131251233E+03  0.16131251233E+03  0.00000000000E+00 0.  1.
         23    2    1    2    0    0  0.32506898917E+02  0.55850129694E+01 -0.51712896692E+02  0.13922443499E+03  0.12498531420E+03 0.  0.
          5    1    3    3  502    0  0.39166585894E+01  0.54956820542E+02 -0.59835416505E+02  0.81445330172E+02  0.41800000000E+01 0.  1.
         -5    1    3    3    0  502  0.28590240328E+02 -0.49371807573E+02  0.81225198126E+01  0.57779104814E+02  0.41800000000E+01 0.  1.
        -11    1    1    2    0    0 -0.22831605140E+02 -0.22781131364E+02  0.25708600721E+02  0.41245536613E+02  0.00000000000E+00 0. -1.
         11    1    1    2    0    0 -0.96752937776E+01  0.17196118394E+02 -0.56399462657E+02  0.59751294426E+02  0.00000000000E+00 0.  1.
</event>
<event>
 7    1  0.6992302E-006  0.1278095E+03  0.7561462E-02  0.1230743E+00
          1   -1    0    0  501    0  0.00000000000E+00  0.00000000000E+00  0.10528371086E+03  0.10528371086E+03  0.00000000000E+00 0. -1.
         -1   -1    0    0    0  501 -0.00000000000E+00 -0.00000000000E+00 -0.20622068791E+03  0.20622068791E+03  0.00000000000E+00 0.  1.
         23    2    1    2    0    0 -0.44299132691E+02 -0.65681390438E+02 -0.11716874855E+03  0.18882103679E+03  0.12509360532E+03 0.  0.
          5    1    3    3  502    0 -0.73421348318E+02 -0.73094827496E+02 -0.11971365225E+03  0.15837417444E+03  0.41800000000E+01 0. -1.
         -5    1    3    3    0  502  0.29122215627E+02  0.74134370579E+01  0.25449037007E+01  0.30446862348E+02  0.41800000000E+01 0. -1.
        -11    1    1    2    0    0  0.72897233732E+02  0.53908789333E+02  0.12891534431E+02  0.91577049053E+02  0.00000000000E+00 0. -1.
         11    1    1    2    0    0 -0.28598101041E+02  0.11772601105E+02  0.33402370737E+01  0.31106312922E+02  0.00000000000E+00 0.  1.
</event>
<event>
 6    1  0.6992302E-006  0.1742858E+03  0.7561462E-02  0.1173451E+00
          2   -1    0    0  501    0  0.00000000000E+00  0.00000000000E+00  0.54723724191E+03  0.54723724191E+03  0.00000000000E+00 0. -1.
         -2   -1    0    0    0  501 -0.00000000000E+00 -0.00000000000E+00 -0.87815388692E+02  0.87815388692E+02  0.00000000000E+00 0.  1.
          5    1    1    2  502    0 -0.16886406736E+02  0.10309324802E+03  0.22922429692E+03  0.25194169805E+03  0.41800000000E+01 0. -1.
         -5    1    1    2    0  502 -0.14610351971E+02 -0.15290766866E+03  0.30904228000E+02  0.15673787426E+03  0.41800000000E+01 0.  1.
        -11    1    1    2    0    0 -0.21939578971E+02  0.13747160228E+02  0.12655656080E+03  0.12917775591E+03  0.00000000000E+00 0. -1.
         11    1    1    2    0    0  0.53436337678E+02  0.36067260410E+02  0.72736767501E+02  0.97195302378E+02  0.00000000000E+00 0.  1.
</event>
<event>
 7    1  0.6992302E-006  0.1152287E+03  0.7561462E-02  0.1251182E+00
          1   -1    0    0  501    0  0.00000000000E+00  0.00000000000E+00  0.26707711114E+03  0.26707711114E+03  0.00000000000E+00 0. -1.
         -1   -1    0    0    0  501 -0.00000000000E+00 -0.00000000000E+00 -0.79677437538E+02  0.79677437538E+02  0.00000000000E+00 0.  1.
         23    2    1    2    0    0 -0.42342790445E+02  0.16843501732E+02  0.80952226478E+01  0.13338134613E+03  0.12509370653E+03 0.  0.
          5    1    3    3  502    0  0.76444379187E+00 -0.50666687600E+02 -0.82922708702E+01  0.51516325207E+02  0.41800000000E+01 0. -1.
         -5    1    3    3    0  502 -0.43107234237E+02  0.67510189332E+02  0.16387493518E+02  0.81865020925E+02  0.41800000000E+01 0. -1.
        -11    1    1    2    0    0  0.98893462728E+01  0.36031845575E+02  0.19926206311E+02  0.42345563678E+02  0.00000000000E+00 0.  1.
         11    1    1    2    0    0  0.32453444172E+02 -0.52875347307E+02  0.15937824465E+03  0.17102763887E+03  0.00000000000E+00 0. -1.
</event>
<event>
 7    1  0.6992302E-006  0.2091814E+03  0.7561462E-02  0.1142216E+00
          3   -1    0    0  501    0  0.00000000000E+00  0.00000000000E+00  0.48423362774E+03  0.48423362774E+03  0.00000000000E+00 0. -1.
         -3   -1    0    0    0  501 -0.00000000000E+00 -0.00000000000E+00 -0.10098896207E+03  0.10098896207E+03  0.00000000000E+00 0.  1.
         23    2    1    2    0    0 -0.63693854835E+02 -0.17574164176E+03  0.25879939344E+03  0.34287960897E+03  0.12508904193E+03 0.  0.
          5    1    3    3  502    0 -0.88317747825E+02 -0.81199849744E+02  0.99306815413E+02  0.15579716354E+03  0.41800000000E+01 0.  1.
         -5    1    3    3    0  502  0.24623892989E+02 -0.94541792015E+02  0.15949257802E+03  0.18708244543E+03  0.41800000000E+01 0.  1.
        -11    1    1    2    0    0 -0.84717070349E+01  0.80970958111E+02  0.19797696361E+02  0.83785527740E+02  0.00000000000E+00 0.  1.
         11    1    1    2    0    0  0.72165561870E+02  0.94770683648E+02  0.10464757588E+03  0.15855745311E+03  0.00000000000E+00 0. -1.
</event>
<event>
 7    1  0.6992302E-006  0.9939051E+02  0.7561462E-02  0.1281583E+00
         -2   -1    0    0    0  501 -0.00000000000E+00  0.00000000000E+00  0.54885755881E+03  0.54885755881E+03  0.00000000000E+00 0.  1.
          2   -1    0    0  501    0  0.00000000000E+00 -0.00000000000E+00 -0.75760645891E+02  0.75760645891E+02  0.00000000000E+00 0. -1.
         23    2    1    2    0    0  0.39335685179E+02 -0.26201315907E+02  0.50081334207E+03  0.51835687593E+03  0.12508414027E+03 0.  0.
          5    1    3    3  502    0  0.83664908141E+02 -0.13661151000E+02  0.27280622183E+03  0.28570465689E+03  0.41800000000E+01 0.  1.
         -5    1    3    3    0  502 -0.44329222962E+02 -0.12540164907E+02  0.22800712024E+03  0.23265221904E+03  0.41800000000E+01 0.  1.
        -11    1    1    2    0    0 -0.91651599118E+01 -0.14396311560E+02  0.26877145949E+02  0.31837633661E+02  0.00000000000E+00 0.  1.
         11    1    1    2    0    0 -0.30170525267E+02  0.40597627467E+02 -0.54593575101E+02  0.74423695105E+02  0.00000000000E+00 0. -1.
</event>
<event>
 7    1  0.6992302E-006  0.8199248E+02  0.7561462E-02  0.1323490E+00
         -1   -1    0    0    0  501 -0.00000000000E+00  0.00000000000E+00  0.17334473238E+03  0.17334473238E+03  0.00000000000E+00 0.  1.
          1   -1    0    0  501    0  0.00000000000E+00 -0.00000000000E+00 -0.84349630221E+02  0.84349630221E+02  0.00000000000E+00 0. -1.
         23    2    1    2    0    0  0.43009695113E+02 -0.12350870618E+02  0.83628662702E+02  0.15697726924E+03  0.12508290032E+03 0.  0.
          5    1    3    3  502    0  0.22348524965E+02  0.23801034552E+02 -0.24500166667E+02  0.41032625806E+02  0.41800000000E+01 0.  1.
         -5    1    3    3    0  502  0.20661170148E+02 -0.36151905170E+02  0.10812882937E+03  0.11594464343E+03  0.41800000000E+01 0.  1.
        -11    1    1    2    0    0 -0.61604489889E+02  0.25262377964E+02  0.24629866713E+02  0.70992473187E+02  0.00000000000E+00 0.  1.
         11    1    1    2    0    0  0.18594794776E+02 -0.12911507346E+02 -0.19263427260E+02  0.29724620174E+02  0.00000000000E+00 0. -1.
</event>
<event>
 7    1  0.6992302E-006  0.9905547E+02  0.7561462E-02  0.1282295E+00
          2   -1    0    0  501    0  0.00000000000E+00  0.00000000000E+00  0.19224802119E+03  0.19224802119E+03  0.00000000000E+00 0. -1.
         -2   -1    0    0    0  501 -0.00000000000E+00 -0.00000000000E+00 -0.93257388469E+02  0.93257388469E+02  0.00000000000E+00 0.  1.
         23    2    1    2    0    0  0.59170663508E+02  0.40798330427E+02 -0.36391825949E+01  0.14431526446E+03  0.12509188911E+03 0.  0.
          5    1    3    3  502    0  0.70295496012E+02  0.13186553034E+02 -0.51194869966E+02  0.88055261350E+02  0.41800000000E+01 0.  1.
         -5    1    3    3    0  502 -0.11124832505E+02  0.27611777393E+02  0.47555687371E+02  0.56260003114E+02  0.41800000000E+01 0.  1.
        -11    1    1    2    0    0 -0.15263691114E+02  0.17630162399E+02  0.18647949490E+02  0.29858816333E+02  0.00000000000E+00 0.  1.
         11    1    1    2    0    0 -0.43906972393E+02 -0.58428492826E+02  0.83981865825E+02  0.11133132886E+03  0.00000000000E+00 0. -1.
</event>
<event>
 7    1  0.6992302E-006  0.1216347E+03  0.7561462E-02  0.1240424E+00
         -2   -1    0    0    0  501 -0.00000000000E+00  0.00000000000E+00  0.73576284257E+02  0.73576284257E+02  0.00000000000E+00 0.  1.
          2   -1    0    0  501    0  0.00000000000E+00 -0.00000000000E+00 -0.22071883846E+03  0.22071883846E+03  0.00000000000E+00 0. -1.
         23    2    1    2    0    0  0.18105887641E+02  0.60348270603E+02 -0.86147471663E+02  0.16443398688E+03  0.12508961682E+03 0.  0.
          5    1    3    3  502    0 -0.49059369259E+02  0.28369249865E+02 -0.96325427180E+01  0.57635877101E+02  0.41800000000E+01 0. -1.
         -5    1    3    3    0  502  0.67165256900E+02  0.31979020738E+02 -0.76514928945E+02  0.10679810978E+03  0.41800000000E+01 0. -1.
        -11    1    1    2    0    0 -0.10602561033E+02  0.24532374262E+02 -0.27373089000E+02  0.38256211115E+02  0.00000000000E+00 0. -1.
         11    1    1    2    0    0 -0.75033266080E+01 -0.84880644866E+02 -0.33621993540E+02  0.91604924718E+02  0.00000000000E+00 0.  1.
</event>
<event>
 7    1  0.6992302E-006  0.1210174E+03  0.7561462E-02  0.1241428E+00
          1   -1    0    0  501    0  0.00000000000E+00  0.00000000000E+00  0.72725068132E+03  0.72725068132E+03  0.00000000000E+00 0. -1.
         -1   -1    0    0    0  501 -0.00000000000E+00 -0.00000000000E+00 -0.21217644782E+02  0.21217644782E+02  0.00000000000E+00 0.  1.
         23    2    1    2    0    0  0.49409706724E+02  0.28950555746E+02  0.33605015913E+03  0.36312028177E+03  0.12508867170E+03 0.  0.
          5    1    3    3  502    0  0.58634209129E+02 -0.35853292099E+02  0.21041489591E+03  0.22139406012E+03  0.41800000000E+01 0.  1.
         -5    1    3    3    0  502 -0.92245024051E+01  0.64803847845E+02  0.12563526321E+03  0.14172622165E+03  0.41800000000E+01 0.  1.
        -11    1    1    2    0    0 -0.74996058645E+02 -0.98062240451E+01  0.25092188806E+03  0.26207320495E+03  0.00000000000E+00 0.  1.
         11    1    1    2    0    0  0.25586351921E+02 -0.19144331701E+02  0.11906098935E+03  0.12327483939E+03  0.00000000000E+00 0. -1.
</event>
<event>
 7    1  0.6992302E-006  0.1011749E+03  0.7561462E-02  0.1277845E+00
         -1   -1    0    0    0  501 -0.00000000000E+00  0.00000000000E+00  0.67599326807E+02  0.67599326807E+02  0.00000000000E+00 0.  1.
          1   -1    0    0  501    0  0.00000000000E+00 -0.00000000000E+00 -0.38896332958E+03  0.38896332958E+03  0.00000000000E+00 0. -1.
         23    2    1    2    0    0 -0.59338809842E+01  0.31827690832E+02  0.35532036886E+01  0.11728605982E+03  0.11267289703E+03 0.  0.
          5    1    3    3  502    0 -0.24404349207E+02 -0.33034467153E+02 -0.19810608922E+02  0.45790620286E+02  0.41800000000E+01 0. -1.
         -5    1    3    3    0  502  0.18470468223E+02  0.64862157986E+02  0.23363812610E+02  0.71495439537E+02  0.41800000000E+01 0.  1.
        -11    1    1    2    0    0 -0.19422537165E+02 -0.55504147258E+02 -0.24834735873E+03  0.25521433326E+03  0.00000000000E+00 0. -1.
         11    1    1    2    0    0  0.25356418149E+02  0.23676456426E+02 -0.76569847736E+02  0.84062263308E+02  0.00000000000E+00 0.  1.
</event>
<event>
 7    1  0.6992302E-006  0.9931347E+02  0.7561462E-02  0.1281746E+00
          2   -1    0    0  501    0  0.00000000000E+00  0.00000000000E+00  0.31534016034E+03  0.31534016034E+03  0.00000000000E+00 0. -1.
         -2   -1    0    0    0  501 -0.00000000000E+00 -0.00000000000E+00 -0.52234039827E+02  0.52234039827E+02  0.00000000000E+00 0.  1.
         23    2    1    2    0    0  0.15889581805E+02  0.54680159385E+02  0.92780588024E+02  0.16582572975E+03  0.12509011348E+03 0.  0.
          5    1    3    3  502    0 -0.14568881976E+02 -0.26901436841E+02 -0.86599177797E+01  0.32068773006E+02  0.41800000000E+01 0. -1.
         -5    1    3    3    0  502  0.30458463781E+02  0.81581596226E+02  0.10144050580E+03  0.13375695674E+03  0.41800000000E+01 0. -1.
        -11    1    1    2    0    0  0.17930135374E+02 -0.39733905233E+02  0.15619703087E+03  0.16216591945E+03  0.00000000000E+00 0. -1.
         11    1    1    2    0    0 -0.33819717179E+02 -0.14946254151E+02  0.14128501622E+02  0.39582550970E+02  0.00000000000E+00 0.  1.
</event>
<event>
 7    1  0.6992302E-006  0.1222075E+03  0.7561462E-02  0.1239499E+00
         -2   -1    0    0    0  501 -0.00000000000E+00  0.00000000000E+00  0.50933801019E+03  0.50933801019E+03  0.00000000000E+00 0.  1.
          2   -1    0    0  501    0  0.00000000000E+00 -0.00000000000E+00 -0.34725750929E+02  0.34725750929E+02  0.00000000000E+00 0. -1.
         23    2    1    2    0    0 -0.39142905271E+02 -0.53120941550E+02  0.35300045551E+03  0.38027541252E+03  0.12508423687E+03 0.  0.
          5    1    3    3  502    0  0.34344589771E+02  0.17436706285E+02  0.11509309003E+03  0.12143920843E+03  0.41800000000E+01 0.  1.
         -5    1    3    3    0  502 -0.73487495042E+02 -0.70557647836E+02  0.23790736548E+03  0.25883620409E+03  0.41800000000E+01 0.  1.
        -11    1    1    2    0    0  0.13268117417E+02  0.71018895165E+02  0.10697948798E+03  0.12909042280E+03  0.00000000000E+00 0.  1.
         11    1    1    2    0    0  0.25874787854E+02 -0.17897953615E+02  0.14632315774E+02  0.34697925803E+02  0.00000000000E+00 0. -1.
</event>
<event>
 7    1  0.6992302E-006  0.1049714E+03  0.7561462E-02  0.1270176E+00
         -1   -1    0    0    0  501 -0.00000000000E+00  0.00000000000E+00  0.42001429472E+02  0.42001429472E+02  0.00000000000E+00 0. -1.
          1   -1    0    0  501    0  0.00000000000E+00 -0.00000000000E+00 -0.36177796754E+03  0.36177796754E+03  0.00000000000E+00 0.  1.
         23    2    1    2    0    0  0.29254950751E+02 -0.50817582016E+02 -0.17687278579E+03  0.22443239282E+03  0.12509051846E+03 0.  0.
          5    1    3    3  502    0  0.30295731384E+02  0.17637431765E+02 -0.14419790292E+03  0.14845678814E+03  0.41800000000E+01 0.  1.
         -5    1    3    3    0  502 -0.10407806332E+01 -0.68455013781E+02 -0.32674882873E+02  0.75975604683E+02  0.41800000000E+01 0.  1.
        -11    1    1    2    0    0 -0.40809366776E+02 -0.11714725484E+02 -0.39711754348E+02  0.58134865986E+02  0.00000000000E+00 0. -1.
         11    1    1    2    0    0  0.11554416025E+02  0.62532307500E+02 -0.10319199793E+03  0.12121213820E+03  0.00000000000E+00 0.  1.
</event>
<event>
 7    1  0.6992302E-006  0.1046293E+03  0.7561462E-02  0.1270852E+00
          1   -1    0    0  501    0  0.00000000000E+00  0.00000000000E+00  0.14605119057E+03  0.14605119057E+03  0.00000000000E+00 0. -1.
         -1   -1    0    0    0  501 -0.00000000000E+00 -0.00000000000E+00 -0.12480948495E+03  0.12480948495E+03  0.00000000000E+00 0.  1.
         23    2    1    2    0    0 -0.59974375259E+01 -0.29439494478E+02 -0.58307684150E+02  0.14124499671E+03  0.12509080691E+03 0.  0.
          5    1    3    3  502    0 -0.38695140048E+01 -0.70459109084E+02 -0.68803262609E+02  0.98644921497E+02  0.41800000000E+01 0.  1.
         -5    1    3    3    0  502 -0.21279235210E+01  0.41019614606E+02  0.10495578459E+02  0.42600075212E+02  0.41800000000E+01 0.  1.
        -11    1    1    2    0    0  0.42569543585E+02  0.40822644002E+02  0.67108579109E+02  0.89343246495E+02  0.00000000000E+00 0. -1.
         11    1    1    2    0    0 -0.36572106059E+02 -0.11383149524E+02  0.12440810654E+02  0.40272432313E+02  0.00000000000E+00 0.  1.
</event>
<event>
 7    1  0.6992302E-006  0.1308128E+03  0.7561462E-02  0.1226255E+00
          1   -1    0    0  501    0  0.00000000000E+00  0.00000000000E+00  0.22941740672E+03  0.22941740672E+03  0.00000000000E+00 0. -1.
         -1   -1    0    0    0  501 -0.00000000000E+00 -0.00000000000E+00 -0.82322473948E+02  0.82322473948E+02  0.00000000000E+00 0.  1.
         23    2    1    2    0    0  0.36625282217E+02 -0.68136907892E+02  0.42622538034E+02  0.15312908559E+03  0.12509111316E+03 0.  0.
          5    1    3    3  502    0 -0.36564321311E+01 -0.95576791900E+02  0.41098672064E+02  0.10418668769E+03  0.41800000000E+01 0.  1.
         -5    1    3    3    0  502  0.40281714348E+02  0.27439884008E+02  0.15238659702E+01  0.48942397905E+02  0.41800000000E+01 0.  1.
        -11    1    1    2    0    0 -0.25394464642E+02 -0.17344878895E+02  0.14504782200E+02  0.34001652386E+02  0.00000000000E+00 0.  1.
         11    1    1    2    0    0 -0.11230817575E+02  0.85481786787E+02  0.89967612535E+02  0.12460914269E+03  0.00000000000E+00 0. -1.
</event>
<event>
 7    1  0.6992302E-006  0.1293803E+03  0.7561462E-02  0.1228378E+00
          1   -1    0    0  501    0  0.00000000000E+00  0.00000000000E+00  0.14079650673E+03  0.14079650673E+03  0.00000000000E+00 0. -1.
         -1   -1    0    0    0  501 -0.00000000000E+00 -0.00000000000E+00 -0.12798861261E+03  0.12798861261E+03  0.00000000000E+00 0.  1.
         23    2    1    2    0    0 -0.31269328479E+01 -0.78744481487E+02  0.98226784771E+01  0.14816752062E+03  0.12508660233E+03 0.  0.
          5    1    3    3  502    0 -0.19949672354E+02 -0.11000841986E+03  0.40300685562E+01  0.11195336404E+03  0.41800000000E+01 0. -1.
         -5    1    3    3    0  502  0.16822739506E+02  0.31263938376E+02  0.57926099209E+01  0.36214156582E+02  0.41800000000E+01 0. -1.
        -11    1    1    2    0    0  0.40643102377E+02  0.45457005227E+02 -0.21692010328E+02  0.64720509942E+02  0.00000000000E+00 0.  1.
         11    1    1    2    0    0 -0.37516169529E+02  0.33287476259E+02  0.24677225978E+02  0.55897088777E+02  0.00000000000E+00 0. -1.
</event>
<event>
 7    1  0.6992302E-006  0.1056224E+03  0.7561462E-02  0.1268898E+00
         -2   -1    0    0    0  501 -0.00000000000E+00  0.00000000000E+00  0.92839461142E+02  0.92839461142E+02  0.00000000000E+00 0.  1.
          2   -1    0    0  501    0  0.00000000000E+00 -0.00000000000E+00 -0.16894975856E+03  0.16894975856E+03  0.00000000000E+00 0. -1.
         23    2    1    2    0    0  0.56914544439E+02 -0.31508496482E+02 -0.39082292247E+02  0.14631112067E+03  0.12508983870E+03 0.  0.
          5    1    3    3  502    0  0.28104941117E+02 -0.60436586090E+02 -0.68615004495E+02  0.95749464204E+02  0.41800000000E+01 0. -1.
         -5    1    3    3    0  502  0.28809603322E+02  0.28928089609E+02  0.29532712249E+02  0.50561656468E+02  0.41800000000E+01 0. -1.
        -11    1    1    2    0    0 -0.46470423599E+00  0.45307517062E+02 -0.35133278652E+02  0.57335279900E+02  0.00000000000E+00 0. -1.
         11    1    1    2    0    0 -0.56449840203E+02 -0.13799020580E+02 -0.18947265201E+01  0.58142819131E+02  0.00000000000E+00 0.  1.
</event>
<event>
 7    1  0.6992302E-006  0.2193841E+03  0.7561462E-02  0.1134343E+00
          2   -1    0    0  501    0  0.00000000000E+00  0.00000000000E+00  0.58970648768E+03  0.58970648768E+03  0.00000000000E+00 0. -1.
         -2   -1    0    0    0  501 -0.00000000000E+00 -0.00000000000E+00 -0.92890256424E+02  0.92890256424E+02  0.00000000000E+00 0.  1.
         23    2    1    2    0    0  0.61653784225E+02 -0.19646242836E+03  0.21571002268E+03  0.32338467343E+03  0.12509259874E+03 0.  0.
          5    1    3    3  502    0  0.52715110103E+02 -0.20010215358E+03  0.22751660044E+03  0.30757280533E+03  0.41800000000E+01 0. -1.
         -5    1    3    3    0  502  0.89386741221E+01  0.36397252238E+01 -0.11806577755E+02  0.15811868108E+02  0.41800000000E+01 0. -1.
        -11    1    1    2    0    0 -0.61355896694E+02  0.63440053033E+02  0.87238864194E+02  0.12409595406E+03  0.00000000000E+00 0. -1.
         11    1    1    2    0    0 -0.29788753156E+00  0.13302237532E+03  0.19386734438E+03  0.23511611661E+03  0.00000000000E+00 0.  1.
</event>
<event>
 7    1  0.6992302E-006  0.1593877E+03  0.7561462E-02  0.1189390E+00
          2   -1    0    0  501    0  0.00000000000E+00  0.00000000000E+00  0.12154341259E+03  0.12154341259E+03  0.00000000000E+00 0. -1.
         -2   -1    0    0    0  501 -0.00000000000E+00 -0.00000000000E+00 -0.22051838546E+03  0.22051838546E+03  0.00000000000E+00 0.  1.
         23    2    1    2    0    0  0.99434309013E+02 -0.68194662508E+02 -0.72214895149E+02  0.18814953742E+03  0.12509022162E+03 0.  0.
          5    1    3    3  502    0 -0.11164413444E+02 -0.55458607239E+02 -0.47608745276E+02  0.74056507284E+02  0.41800000000E+01 0. -1.
         -5    1    3    3    0  502  0.11059872246E+03 -0.12736055269E+02 -0.24606149873E+02  0.11409303013E+03  0.41800000000E+01 0. -1.
        -11    1    1    2    0    0  0.17313690079E+02  0.57519031894E+01  0.22233877010E+01  0.18379110623E+02  0.00000000000E+00 0.  1.
         11    1    1    2    0    0 -0.11674799909E+03  0.62442759319E+02 -0.28983465424E+02  0.13553315001E+03  0.00000000000E+00 0. -1.
</event>
<event>
 7    1  0.6992302E-006  0.2462121E+03  0.7561462E-02  0.1115722E+00
         -2   -1    0    0    0  501 -0.00000000000E+00  0.00000000000E+00  0.12081156267E+03  0.12081156267E+03  0.00000000000E+00 0. -1.
          2   -1    0    0  501    0  0.00000000000E+00 -0.00000000000E+00 -0.54434594360E+03  0.54434594360E+03  0.00000000000E+00 0.  1.
         23    2    1    2    0    0  0.21853988076E+03 -0.76745494833E+02 -0.23473842190E+03  0.35270632915E+03  0.12510026959E+03 0.  0.
          5    1    3    3  502    0  0.44544843127E+02  0.31736862172E+02 -0.74117910822E+02  0.92208505976E+02  0.41800000000E+01 0.  1.
         -5    1    3    3    0  502  0.17399503763E+03 -0.10848235700E+03 -0.16062051107E+03  0.26049782318E+03  0.41800000000E+01 0.  1.
        -11    1    1    2    0    0 -0.14052769409E+03  0.59407287740E+02 -0.17357946630E+03  0.23109973986E+03  0.00000000000E+00 0.  1.
         11    1    1    2    0    0 -0.78012186667E+02  0.17338207093E+02 -0.15216492731E+02  0.81351437263E+02  0.00000000000E+00 0. -1.
</event>
<event>
 7    1  0.6992302E-006  0.1122156E+03  0.7561462E-02  0.1256521E+00
         -1   -1    0    0    0  501 -0.00000000000E+00  0.00000000000E+00  0.21850246528E+03  0.21850246528E+03  0.00000000000E+00 0. -1.
          1   -1    0    0  501    0  0.00000000000E+00 -0.00000000000E+00 -0.73720112167E+02  0.73720112167E+02  0.00000000000E+00 0.  1.
         23    2    1    2    0    0 -0.47191622491E+02 -0.43591320356E+02  0.68676178960E+02  0.15649603370E+03  0.12508932234E+03 0.  0.
          5    1    3    3  502    0 -0.66473711963E+02 -0.61649876035E+02  0.91262175396E+01  0.91215250062E+02  0.41800000000E+01 0. -1.
         -5    1    3    3    0  502  0.19282089472E+02  0.18058555679E+02  0.59549961420E+02  0.65280783641E+02  0.41800000000E+01 0. -1.
        -11    1    1    2    0    0  0.69922783237E+02  0.46555250402E+02  0.75262334553E+02  0.11278743706E+03  0.00000000000E+00 0. -1.
         11    1    1    2    0    0 -0.22731160746E+02 -0.29639300460E+01  0.84383959818E+00  0.22939106684E+02  0.00000000000E+00 0.  1.
</event>
<event>
 7    1  0.6992302E-006  0.9637127E+02  0.7561462E-02  0.1288117E+00
          1   -1    0    0  501    0  0.00000000000E+00  0.00000000000E+00  0.55318920416E+02  0.55318920416E+02  0.00000000000E+00 0. -1.
         -1   -1    0    0    0  501 -0.00000000000E+00 -0.00000000000E+00 -0.24065898698E+03  0.24065898698E+03  0.00000000000E+00 0.  1.
         23    2    1    2    0    0  0.45868929664E+00  0.32606297198E+02 -0.13303882651E+03  0.18549859640E+03  0.12508804458E+03 0.  0.
          5    1    3    3  502    0 -0.36803119258E+02  0.48245246837E+02 -0.13145140450E+03  0.14484135312E+03  0.41800000000E+01 0.  1.
         -5    1    3    3    0  502  0.37261808554E+02 -0.15638949639E+02 -0.15874220045E+01  0.40657243280E+02  0.41800000000E+01 0.  1.
        -11    1    1    2    0    0  0.33917667679E+02 -0.43564990350E+02 -0.12215014019E+02  0.56546645634E+02  0.00000000000E+00 0. -1.
         11    1    1    2    0    0 -0.34376356975E+02  0.10958693152E+02 -0.40086226036E+02  0.53932665355E+02  0.00000000000E+00 0.  1.
</event>
<event>
 7    1  0.6992302E-006  0.1136658E+03  0.7561462E-02  0.1253928E+00
          1   -1    0    0  501    0  0.00000000000E+00  0.00000000000E+00  0.30835042043E+03  0.30835042043E+03  0.00000000000E+00 0. -1.
         -1   -1    0    0    0  501 -0.00000000000E+00 -0.00000000000E+00 -0.80916840796E+02  0.80916840796E+02  0.00000000000E+00 0.  1.
         23    2    1    2    0    0  0.21802463766E+02  0.51848117625E+02  0.21748402964E+01  0.13717049252E+03  0.12508972524E+03 0.  0.
          5    1    3    3  502    0  0.68374133399E+02  0.46211859686E+02 -0.20144947706E+02  0.85052039433E+02  0.41800000000E+01 0.  1.
         -5    1    3    3    0  502 -0.46571669633E+02  0.56362579388E+01  0.22319788002E+02  0.52118453089E+02  0.41800000000E+01 0.  1.
        -11    1    1    2    0    0 -0.49460763278E+02 -0.15309408133E+02  0.53994358700E+02  0.74807324861E+02  0.00000000000E+00 0.  1.
         11    1    1    2    0    0  0.27658299512E+02 -0.36538709492E+02  0.17126438064E+03  0.17728944385E+03  0.00000000000E+00 0. -1.
</event>
<event>
 7    1  0.6992302E-006  0.1233658E+03  0.7561462E-02  0.1237646E+00
          1   -1    0    0  501    0  0.00000000000E+00  0.00000000000E+00  0.14736729558E+03  0.14736729558E+03  0.00000000000E+00 0. -1.
         -1   -1    0    0    0  501 -0.00000000000E+00 -0.00000000000E+00 -0.11756405396E+03  0.11756405396E+03  0.00000000000E+00 0.  1.
         23    2    1    2    0    0  0.39607818069E+02  0.53680124125E+02 -0.16973257274E+02  0.14277954794E+03  0.12509025889E+03 0.  0.
          5    1    3    3  502    0 -0.33846308178E+02  0.50097936763E+02  0.15073074900E+02  0.62450346934E+02  0.41800000000E+01 0. -1.
         -5    1    3    3    0  502  0.73454126247E+02  0.35821873615E+01 -0.32046332173E+02  0.80329201009E+02  0.41800000000E+01 0. -1.
        -11    1    1    2    0    0  0.29082998437E+02 -0.86866669346E+01  0.82841699859E+01  0.31462778849E+02  0.00000000000E+00 0. -1.
         11    1    1    2    0    0 -0.68690816506E+02 -0.44993457190E+02  0.38492328905E+02  0.90689022747E+02  0.00000000000E+00 0.  1.
</event>
<event>
 7    1  0.6992302E-006  0.1018345E+03  0.7561462E-02  0.1276485E+00
         -1   -1    0    0    0  501 -0.00000000000E+00  0.00000000000E+00  0.18347891339E+03  0.18347891339E+03  0.00000000000E+00 0.  1.
          1   -1    0    0  501    0  0.00000000000E+00 -0.00000000000E+00 -0.10766682932E+03  0.10766682932E+03  0.00000000000E+00 0. -1.
         23    2    1    2    0    0  0.64736358023E+02 -0.42368651583E+02  0.91617558569E+02  0.17147073205E+03  0.12256645636E+03 0.  0.
          5    1    3    3  502    0 -0.26133468278E+02 -0.88607394851E+01  0.65309835862E+02  0.71023361852E+02  0.41800000000E+01 0. -1.
         -5    1    3    3    0  502  0.90869826301E+02 -0.33507912098E+02  0.26307722707E+02  0.10044737020E+03  0.41800000000E+01 0.  1.
        -11    1    1    2    0    0 -0.15152017605E+02  0.18126154134E+02  0.36601968509E+02  0.43564265171E+02  0.00000000000E+00 0.  1.
         11    1    1    2    0    0 -0.49584340418E+02  0.24242497449E+02 -0.52407443000E+02  0.76110745490E+02  0.00000000000E+00 0. -1.
</event>
<event>
 7    1  0.6992302E-006  0.8852191E+02  0.7561462E-02  0.1306471E+00
         -2   -1    0    0    0  501 -0.00000000000E+00  0.00000000000E+00  0.41351558099E+02  0.41351558099E+02  0.00000000000E+00 0.  1.
          2   -1    0    0  501    0  0.00000000000E+00 -0.00000000000E+00 -0.35960061228E+03  0.35960061228E+03  0.00000000000E+00 0. -1.
         23    2    1    2    0    0 -0.25098282664E+02 -0.17098736322E+02 -0.12784843227E+03  0.18142148877E+03  0.12508494865E+03 0.  0.
          5    1    3    3  502    0 -0.55330189342E+02  0.83246157811E+01 -0.13005161509E+03  0.14163906265E+03  0.41800000000E+01 0.  1.
         -5    1    3    3    0  502  0.30231906678E+02 -0.25423352103E+02  0.22031828279E+01  0.39782426121E+02  0.41800000000E+01 0.  1.
        -11    1    1    2    0    0  0.49476712509E+02 -0.30725760131E+01 -0.17925548915E+03  0.18598364496E+03  0.00000000000E+00 0. -1.
         11    1    1    2    0    0 -0.24378429845E+02  0.20171312335E+02 -0.11145132767E+02  0.33547036642E+02  0.00000000000E+00 0.  1.
</event>
<event>
 7    1  0.6992302E-006  0.7857636E+02  0.7561462E-02  0.1333141E+00
         -2   -1    0    0    0  501 -0.00000000000E+00  0.00000000000E+00  0.13152249968E+03  0.13152249968E+03  0.00000000000E+00 0.  1.
          2   -1    0    0  501    0  0.00000000000E+00 -0.00000000000E+00 -0.10292207303E+03  0.10292207303E+03  0.00000000000E+00 0. -1.
         23    2    1    2    0    0  0.16913510011E+02 -0.23064184883E+02  0.47859781729E+02  0.13695312698E+03  0.12509027475E+03 0.  0.
          5    1    3    3  502    0 -0.40908369789E+02 -0.90000198860E+01 -0.19996739400E+02  0.46602972688E+02  0.41800000000E+01 0.  1.
         -5    1    3    3    0  502  0.57821879800E+02 -0.14064164997E+02  0.67856521129E+02  0.90350154291E+02  0.41800000000E+01 0.  1.
        -11    1    1    2    0    0  0.15828575595E+02  0.14719278182E+02  0.30476773641E+02  0.37363547571E+02  0.00000000000E+00 0.  1.
         11    1    1    2    0    0 -0.32742085605E+02  0.83449067016E+01 -0.49736128722E+02  0.60127898166E+02  0.00000000000E+00 0. -1.
</event>
<event>
 7    1  0.6992302E-006  0.9922697E+02  0.7561462E-02  0.1281930E+00
         -4   -1    0    0    0  501 -0.00000000000E+00  0.00000000000E+00  0.78995768618E+02  0.78995768618E+02  0.00000000000E+00 0.  1.
          4   -1    0    0  501    0  0.00000000000E+00 -0.00000000000E+00 -0.21969873525E+03  0.21969873525E+03  0.00000000000E+00 0. -1.
         23    2    1    2    0    0 -0.49243807418E+02  0.47243898961E+02 -0.43194514429E+02  0.14889786154E+03  0.12509144070E+03 0.  0.
          5    1    3    3  502    0 -0.28993717188E+02  0.63486743406E+02  0.26217283294E+02  0.74672756531E+02  0.41800000000E+01 0.  1.
         -5    1    3    3    0  502 -0.20250090230E+02 -0.16242844445E+02 -0.69411797723E+02  0.74225105006E+02  0.41800000000E+01 0.  1.
        -11    1    1    2    0    0 -0.20483348899E+02 -0.15178648925E+02  0.27018351163E+00  0.25495724434E+02  0.00000000000E+00 0.  1.
         11    1    1    2    0    0  0.69727156317E+02 -0.32065250035E+02 -0.97778635717E+02  0.12430091790E+03  0.00000000000E+00 0. -1.
</event>
<event>
 7    1  0.6992302E-006  0.3607686E+03  0.7561462E-02  0.1058280E+00
         -2   -1    0    0    0  501 -0.00000000000E+00  0.00000000000E+00  0.95917122851E+02  0.95917122851E+02  0.00000000000E+00 0.  1.
          2   -1    0    0  501    0  0.00000000000E+00 -0.00000000000E+00 -0.14564243415E+04  0.14564243415E+04  0.00000000000E+00 0. -1.
         23    2    1    2    0    0  0.34765022795E+03  0.58656910076E+02 -0.54842545556E+03  0.66386671089E+03  0.12508883014E+03 0.  0.
          5    1    3    3  502    0  0.41910674643E+02  0.46306039950E+02 -0.55401898566E+02  0.83591846191E+02  0.41800000000E+01 0.  1.
         -5    1    3    3    0  502  0.30573955331E+03  0.12350870126E+02 -0.49302355699E+03  0.58027486470E+03  0.41800000000E+01 0.  1.
        -11    1    1    2    0    0 -0.15140516884E+03 -0.17539888586E+02 -0.26360662023E+03  0.30449897056E+03  0.00000000000E+00 0. -1.
         11    1    1    2    0    0 -0.19624505912E+03 -0.41117021490E+02 -0.54847514289E+03  0.58397578293E+03  0.00000000000E+00 0.  1.
</event>
<event>
 7    1  0.6992302E-006  0.1125560E+03  0.7561462E-02  0.1255908E+00
         -3   -1    0    0    0  501 -0.00000000000E+00  0.00000000000E+00  0.22237407583E+03  0.22237407583E+03  0.00000000000E+00 0.  1.
          3   -1    0    0  501    0  0.00000000000E+00 -0.00000000000E+00 -0.74259678127E+02  0.74259678127E+02  0.00000000000E+00 0. -1.
         23    2    1    2    0    0  0.37670898595E+02 -0.36330039550E+02  0.13392571167E+03  0.19059279044E+03  0.12510214684E+03 0.  0.
          5    1    3    3  502    0 -0.40279847524E+02  0.13689296181E+02  0.38186224197E+02  0.57319482420E+02  0.41800000000E+01 0.  1.
         -5    1    3    3    0  502  0.77950746119E+02 -0.50019335731E+02  0.95739487474E+02  0.13327330802E+03  0.41800000000E+01 0.  1.
        -11    1    1    2    0    0 -0.44619631558E+02 -0.75247006927E+01  0.34804397736E+02  0.57086589867E+02  0.00000000000E+00 0.  1.
         11    1    1    2    0    0  0.69487329621E+01  0.43854740243E+02 -0.20615711698E+02  0.48954373659E+02  0.00000000000E+00 0. -1.
</event>
<event>
 7    1  0.6992302E-006  0.1738064E+03  0.7561462E-02  0.1173935E+00
          2   -1    0    0  501    0  0.00000000000E+00  0.00000000000E+00  0.91423517647E+02  0.91423517647E+02  0.00000000000E+00 0.  1.
         -2   -1    0    0    0  501 -0.00000000000E+00 -0.00000000000E+00 -0.71157758332E+03  0.71157758332E+03  0.00000000000E+00 0. -1.
         23    2    1    2    0    0 -0.12514541130E+03 -0.94559813698E+02 -0.58556417090E+03  0.61898002527E+03  0.12509173076E+03 0.  0.
          5    1    3    3  502    0 -0.89499290327E+01 -0.38258540299E+02 -0.32896047292E+02  0.51414389648E+02  0.41800000000E+01 0.  1.
         -5    1    3    3    0  502 -0.11619548226E+03 -0.56301273399E+02 -0.55266812361E+03  0.56756563563E+03  0.41800000000E+01 0.  1.
        -11    1    1    2    0    0  0.13444935707E+03  0.67786351692E+02 -0.19262077689E+02  0.15179804587E+03  0.00000000000E+00 0. -1.
         11    1    1    2    0    0 -0.93039457727E+01  0.26773462006E+02 -0.15327817074E+02  0.32223029823E+02  0.00000000000E+00 0.  1.
</event>
<event>
 7    1  0.6992302E-006  0.9502174E+02  0.7561462E-02  0.1291127E+00
          1   -1    0    0  501    0  0.00000000000E+00  0.00000000000E+00  0.64093468166E+03  0.64093468166E+03  0.00000000000E+00 0. -1.
         -1   -1    0    0    0  501 -0.00000000000E+00 -0.00000000000E+00 -0.22887588786E+02  0.22887588786E+02  0.00000000000E+00 0.  1.
         23    2    1    2    0    0  0.19787795270E+02 -0.17746610095E+02  0.30477340215E+03  0.33051636321E+03  0.12509092965E+03 0.  0.
          5    1    3    3  502    0 -0.30178954423E+02 -0.15148571071E+02  0.26302989230E+03  0.26522150203E+03  0.41800000000E+01 0. -1.
         -5    1    3    3    0  502  0.49966749693E+02 -0.25980390240E+01  0.41743509845E+02  0.65294861175E+02  0.41800000000E+01 0. -1.
        -11    1    1    2    0    0 -0.23488007282E+02 -0.40836649364E+02  0.80750132743E+02  0.93487444908E+02  0.00000000000E+00 0.  1.
         11    1    1    2    0    0  0.37002120119E+01  0.58583259459E+02  0.23252355798E+03  0.23981846233E+03  0.00000000000E+00 0. -1.
</event>
<event>
 7    1  0.6992302E-006  0.1253755E+03  0.7561462E-02  0.1234484E+00
         -2   -1    0    0    0  501 -0.00000000000E+00  0.00000000000E+00  0.32073502078E+03  0.32073502078E+03  0.00000000000E+00 0.  1.
          2   -1    0    0  501    0  0.00000000000E+00 -0.00000000000E+00 -0.87583970118E+02  0.87583970118E+02  0.00000000000E+00 0. -1.
         23    2    1    2    0    0  0.61022255424E+02  0.68341402011E+02  0.23379953029E+03  0.27949103753E+03  0.12271412637E+03 0.  0.
          5    1    3    3  502    0  0.67290705964E+02  0.57718382158E+01  0.47109630189E+02  0.82450851312E+02  0.41800000000E+01 0. -1.
         -5    1    3    3    0  502 -0.62684505396E+01  0.62569563795E+02  0.18668990010E+03  0.19704018622E+03  0.41800000000E+01 0.  1.
        -11    1    1    2    0    0 -0.22123244830E+02 -0.77081545692E+02 -0.22597558751E+02  0.83316578839E+02  0.00000000000E+00 0. -1.
         11    1    1    2    0    0 -0.38899010595E+02  0.87401436808E+01  0.21949079118E+02  0.45511374523E+02  0.00000000000E+00 0.  1.
</event>
<event>
 7    1  0.6992302E-006  0.1351822E+03  0.7561462E-02  0.1219963E+00
          1   -1    0    0  501    0  0.00000000000E+00  0.00000000000E+00  0.50266687788E+03  0.50266687788E+03  0.00000000000E+00 0. -1.
         -1   -1    0    0    0  501 -0.00000000000E+00 -0.00000000000E+00 -0.56919004849E+02  0.56919004849E+02  0.00000000000E+00 0.  1.
         23    2    1    2    0    0  0.13887071147E+02  0.10543332152E+03  0.11682856728E+03  0.20150999675E+03  0.12509327970E+03 0.  0.
          5    1    3    3  502    0 -0.11751453305E+02 -0.22680019398E+02 -0.45505864850E+00  0.25887437359E+02  0.41800000000E+01 0. -1.
         -5    1    3    3    0  502  0.25638524452E+02  0.12811334092E+03  0.11728362593E+03  0.17562255939E+03  0.41800000000E+01 0. -1.
        -11    1    1    2    0    0 -0.26650943138E+02 -0.89280179826E+02  0.32369250498E+03  0.33683536195E+03  0.00000000000E+00 0. -1.
         11    1    1    2    0    0  0.12763871990E+02 -0.16153141693E+02  0.52268007748E+01  0.21240524030E+02  0.00000000000E+00 0.  1.
</event>
<event>
 7    1  0.6992302E-006  0.9505618E+02  0.7561462E-02  0.1291050E+00
         -2   -1    0    0    0  501 -0.00000000000E+00  0.00000000000E+00  0.37079922807E+02  0.37079922807E+02  0.00000000000E+00 0.  1.
          2   -1    0    0  501    0  0.00000000000E+00 -0.00000000000E+00 -0.45426226689E+03  0.45426226689E+03  0.00000000000E+00 0. -1.
         23    2    1    2    0    0  0.50429693223E+01 -0.52989200942E+02 -0.14451193805E+03  0.19840631793E+03  0.12509228512E+03 0.  0.
          5    1    3    3  502    0 -0.18605873845E+02  0.23671172287E+02  0.28906682052E+01  0.30534100636E+02  0.41800000000E+01 0.  1.
         -5    1    3    3    0  502  0.23648843167E+02 -0.76660373229E+02 -0.14740260626E+03  0.16787221729E+03  0.41800000000E+01 0.  1.
        -11    1    1    2    0    0  0.10920115605E+02  0.60685256163E+02 -0.26744386245E+03  0.27445977629E+03  0.00000000000E+00 0. -1.
         11    1    1    2    0    0 -0.15963084927E+02 -0.76960552204E+01 -0.52265435818E+01  0.18476095479E+02  0.00000000000E+00 0.  1.
</event>
<event>
 7    1  0.6992302E-006  0.1193964E+03  0.7561462E-02  0.1244096E+00
          2   -1    0    0  501    0  0.00000000000E+00  0.00000000000E+00  0.97529012413E+03  0.97529012413E+03  0.00000000000E+00 0.  1.
         -2   -1    0    0    0  501 -0.00000000000E+00 -0.00000000000E+00 -0.19318117273E+02  0.19318117273E+02  0.00000000000E+00 0. -1.
         23    2    1    2    0    0  0.38966552518E+02  0.75213192795E+02  0.55606143499E+03  0.57621792508E+03  0.12508941248E+03 0.  0.
          5    1    3    3  502    0  0.65639315384E+02  0.72252222486E+02  0.52874630697E+03  0.53769790116E+03  0.41800000000E+01 0.  1.
         -5    1    3    3    0  502 -0.26672762865E+02  0.29609703094E+01  0.27315128021E+02  0.38520023920E+02  0.41800000000E+01 0.  1.
        -11    1    1    2    0    0 -0.48372666352E+02 -0.11761549395E+02  0.10011290050E+03  0.11180716319E+03  0.00000000000E+00 0.  1.
         11    1    1    2    0    0  0.94061138337E+01 -0.63451643400E+02  0.29979767137E+03  0.30658315314E+03  0.00000000000E+00 0. -1.
</event>
<event>
 7    1  0.6992302E-006  0.2792451E+03  0.7561462E-02  0.1096102E+00
          2   -1    0    0  501    0  0.00000000000E+00  0.00000000000E+00  0.35484320474E+02  0.35484320474E+02  0.00000000000E+00 0. -1.
         -2   -1    0    0    0  501 -0.00000000000E+00 -0.00000000000E+00 -0.25497036632E+04  0.25497036632E+04  0.00000000000E+00 0.  1.
         23    2    1    2    0    0  0.25495227505E+03 -0.70711236557E+02 -0.16791742827E+04  0.17044868711E+04  0.12509388642E+03 0.  0.
          5    1    3    3  502    0  0.95754508464E+01  0.22565213968E+02 -0.76196594252E+02  0.80151553422E+02  0.41800000000E+01 0. -1.
         -5    1    3    3    0  502  0.24537682420E+03 -0.93276450524E+02 -0.16029776885E+04  0.16243353176E+04  0.41800000000E+01 0. -1.
        -11    1    1    2    0    0 -0.17785741863E+03  0.20399721741E+02 -0.43904470726E+03  0.47414097586E+03  0.00000000000E+00 0. -1.
         11    1    1    2    0    0 -0.77094856419E+02  0.50311514815E+02 -0.39600035275E+03  0.40656013674E+03  0.00000000000E+00 0.  1.
</event>
<event>
 7    1  0.6992302E-006  0.1187418E+03  0.7561462E-02  0.1245187E+00
         -1   -1    0    0    0  501 -0.00000000000E+00  0.00000000000E+00  0.70601284815E+02  0.70601284815E+02  0.00000000000E+00 0.  1.
          1   -1    0    0  501    0  0.00000000000E+00 -0.00000000000E+00 -0.31119128651E+03  0.31119128651E+03  0.00000000000E+00 0. -1.
         23    2    1    2    0    0  0.93778123695E+02  0.16260172927E+02 -0.86306563831E+02  0.17932183925E+03  0.12509504133E+03 0.  0.
          5    1    3    3  502    0  0.28049799097E+01 -0.12060876722E+02  0.27733387565E+02  0.30658536257E+02  0.41800000000E+01 0. -1.
         -5    1    3    3    0  502  0.90973143785E+02  0.28321049649E+02 -0.11403995140E+03  0.14866330300E+03  0.41800000000E+01 0. -1.
        -11    1    1    2    0    0  0.31560460724E+01 -0.30855400752E+02 -0.53744611774E+02  0.62052394612E+02  0.00000000000E+00 0.  1.
         11    1    1    2    0    0 -0.96934169767E+02  0.14595227825E+02 -0.10053882609E+03  0.14041833746E+03  0.00000000000E+00 0. -1.
</event>
<event>
 7    1  0.6992302E-006  0.1144929E+03  0.7561462E-02  0.1252469E+00
          2   -1    0    0  501    0  0.00000000000E+00  0.00000000000E+00  0.40610770740E+03  0.40610770740E+03  0.00000000000E+00 0.  1.
         -2   -1    0    0    0  501 -0.00000000000E+00 -0.00000000000E+00 -0.36874112824E+02  0.36874112824E+02  0.00000000000E+00 0. -1.
         23    2    1    2    0    0 -0.29849365742E+02 -0.30143971694E+02  0.13876570068E+03  0.19158084693E+03  0.12509059741E+03 0.  0.
          5    1    3    3  502    0  0.45238243191E+02 -0.29424664028E+02  0.77748282639E+02  0.94734245938E+02  0.41800000000E+01 0. -1.
         -5    1    3    3    0  502 -0.75087608933E+02 -0.71930766650E+00  0.61017418040E+02  0.96846600989E+02  0.41800000000E+01 0. -1.
        -11    1    1    2    0    0 -0.29796731621E+02 -0.53058623457E+01  0.85128405737E+02  0.90348452415E+02  0.00000000000E+00 0. -1.
         11    1    1    2    0    0  0.59646097363E+02  0.35449834040E+02  0.14533948816E+03  0.16105252089E+03  0.00000000000E+00 0.  1.
</event>
<event>
 7    1  0.6992302E-006  0.1926827E+03  0.7561462E-02  0.1156064E+00
          1   -1    0    0  501    0  0.00000000000E+00  0.00000000000E+00  0.36666767419E+03  0.36666767419E+03  0.00000000000E+00 0. -1.
         -1   -1    0    0    0  501 -0.00000000000E+00 -0.00000000000E+00 -0.11341528682E+03  0.11341528682E+03  0.00000000000E+00 0.  1.
         23    2    1    2    0    0 -0.20094880463E+02  0.16078272706E+03  0.65735480994E+02  0.21499648063E+03  0.12508974251E+03 0.  0.
          5    1    3    3  502    0  0.34470152652E+02  0.57052000107E+01 -0.57965224702E+01  0.35662484543E+02  0.41800000000E+01 0.  1.
         -5    1    3    3    0  502 -0.54565033115E+02  0.15507752705E+03  0.71532003464E+02  0.17933399609E+03  0.41800000000E+01 0.  1.
        -11    1    1    2    0    0  0.51460929793E+02 -0.54690058618E+02  0.93338413749E+02  0.11979686677E+03  0.00000000000E+00 0. -1.
         11    1    1    2    0    0 -0.31366049330E+02 -0.10609266844E+03  0.94178492636E+02  0.14528961361E+03  0.00000000000E+00 0.  1.
</event>
<event>
 7    1  0.6992302E-006  0.6565803E+02  0.7561462E-02  0.1375513E+00
         -2   -1    0    0    0  501 -0.00000000000E+00  0.00000000000E+00  0.22317970313E+02  0.22317970313E+02  0.00000000000E+00 0.  1.
          2   -1    0    0  501    0  0.00000000000E+00 -0.00000000000E+00 -0.59463014599E+03  0.59463014599E+03  0.00000000000E+00 0. -1.
         23    2    1    2    0    0 -0.19192949827E+02 -0.11684692188E+02 -0.23975696676E+03  0.27135866247E+03  0.12508884536E+03 0.  0.
          5    1    3    3  502    0 -0.18434237193E+02 -0.28489824667E+02 -0.33908826913E+01  0.34357847661E+02  0.41800000000E+01 0. -1.
         -5    1    3    3    0  502 -0.75871263425E+00  0.16805132479E+02 -0.23636608407E+03  0.23700081481E+03  0.41800000000E+01 0. -1.
        -11    1    1    2    0    0 -0.10234229602E+01 -0.31811188509E+02 -0.52026333544E+02  0.60989658886E+02  0.00000000000E+00 0.  1.
         11    1    1    2    0    0  0.20216372788E+02  0.43495880697E+02 -0.28052887537E+03  0.28459979494E+03  0.00000000000E+00 0. -1.
</event>
<event>
 7    1  0.6992302E-006  0.1826701E+03  0.7561462E-02  0.1165244E+00
         -2   -1    0    0    0  501 -0.00000000000E+00  0.00000000000E+00  0.19687785852E+03  0.19687785852E+03  0.00000000000E+00 0.  1.
          2   -1    0    0  501    0  0.00000000000E+00 -0.00000000000E+00 -0.17906303577E+03  0.17906303577E+03  0.00000000000E+00 0. -1.
         23    2    1    2    0    0 -0.20992971024E+02  0.14596748234E+03  0.50271598957E+02  0.19980595624E+03  0.12509186927E+03 0.  0.
          5    1    3    3  502    0  0.50564861141E+02  0.84011863418E+02  0.18471320300E+02  0.99867214093E+02  0.41800000000E+01 0. -1.
         -5    1    3    3    0  502 -0.71557832165E+02  0.61955618917E+02  0.31800278657E+02  0.99938742149E+02  0.41800000000E+01 0. -1.
        -11    1    1    2    0    0  0.31669519197E+02 -0.61921203743E+01 -0.11244427455E+00  0.32269388662E+02  0.00000000000E+00 0.  1.
         11    1    1    2    0    0 -0.10676548173E+02 -0.13977536196E+03 -0.32344331924E+02  0.14386554939E+03  0.00000000000E+00 0. -1.
</event>
<event>
 7    1  0.6992302E-006  0.1026023E+03  0.7561462E-02  0.1274917E+00
         -1   -1    0    0    0  501 -0.00000000000E+00  0.00000000000E+00  0.18136429227E+03  0.18136429227E+03  0.00000000000E+00 0.  1.
          1   -1    0    0  501    0  0.00000000000E+00 -0.00000000000E+00 -0.95888148705E+02  0.95888148705E+02  0.00000000000E+00 0. -1.
         23    2    1    2    0    0  0.58091664490E+02  0.25024837203E+02  0.82965666926E+02  0.16288506629E+03  0.12508940392E+03 0.  0.
          5    1    3    3  502    0  0.87229543963E+02  0.19936704293E+02  0.17981223178E+02  0.91363353184E+02  0.41800000000E+01 0.  1.
         -5    1    3    3    0  502 -0.29137879473E+02  0.50881329099E+01  0.64984443748E+02  0.71521713108E+02  0.41800000000E+01 0.  1.
        -11    1    1    2    0    0 -0.52214139714E+02 -0.42496215061E+02  0.35849169086E+02  0.76271931959E+02  0.00000000000E+00 0.  1.
         11    1    1    2    0    0 -0.58775247758E+01  0.17471377858E+02 -0.33338692450E+02  0.38095442720E+02  0.00000000000E+00 0. -1.
</event>
<event>
 7    1  0.6992302E-006  0.1110973E+03  0.7561462E-02  0.1258551E+00
         -1   -1    0    0    0  501 -0.00000000000E+00  0.00000000000E+00  0.45236268601E+02  0.45236268601E+02  0.00000000000E+00 0.  1.
          1   -1    0    0  501    0  0.00000000000E+00 -0.00000000000E+00 -0.36823162904E+03  0.36823162904E+03  0.00000000000E+00 0. -1.
         23    2    1    2    0    0  0.59978080503E+02  0.72350690659E+01 -0.12393127729E+03  0.18617006806E+03  0.12510242357E+03 0.  0.
          5    1    3    3  502    0  0.73591146512E+02 -0.30505246961E+02 -0.12202582393E+03  0.14578752019E+03  0.41800000000E+01 0.  1.
         -5    1    3    3    0  502 -0.13613066009E+02  0.37740316027E+02 -0.19054533651E+01  0.40382547871E+02  0.41800000000E+01 0.  1.
        -11    1    1    2    0    0 -0.42418838293E+02  0.35862348473E+02 -0.14864417360E+03  0.15868382472E+03  0.00000000000E+00 0. -1.
         11    1    1    2    0    0 -0.17559242210E+02 -0.43097417539E+02 -0.50419909545E+02  0.68614004868E+02  0.00000000000E+00 0.  1.
</event>
<event>
 7    1  0.6992302E-006  0.9978607E+02  0.7561462E-02  0.1280746E+00
         -2   -1    0    0    0  501 -0.00000000000E+00  0.00000000000E+00  0.46659907831E+02  0.46659907831E+02  0.00000000000E+00 0.  1.
          2   -1    0    0  501    0  0.00000000000E+00 -0.00000000000E+00 -0.42198422813E+03  0.42198422813E+03  0.00000000000E+00 0. -1.
         23    2    1    2    0    0 -0.58864499313E+02 -0.38917026393E+02 -0.11510525189E+03  0.18405626753E+03  0.12509167192E+03 0.  0.
          5    1    3    3  502    0  0.17493538677E+02  0.92210244495E+01  0.15337367804E+02  0.25372395206E+02  0.41800000000E+01 0.  1.
         -5    1    3    3    0  502 -0.76358037990E+02 -0.48138050843E+02 -0.13044261969E+03  0.15868387233E+03  0.41800000000E+01 0.  1.
        -11    1    1    2    0    0  0.53940245127E+01  0.34968522650E+02 -0.20344308713E+03  0.20649693165E+03  0.00000000000E+00 0. -1.
         11    1    1    2    0    0  0.53470474800E+02  0.39485037429E+01 -0.56775981276E+02  0.78090936779E+02  0.00000000000E+00 0.  1.
</event>
<event>
 7    1  0.6992302E-006  0.1384722E+03  0.7561462E-02  0.1215400E+00
         -4   -1    0    0    0  501 -0.00000000000E+00  0.00000000000E+00  0.12682746273E+03  0.12682746273E+03  0.00000000000E+00 0.  1.
          4   -1    0    0  501    0  0.00000000000E+00 -0.00000000000E+00 -0.24509791315E+03  0.24509791315E+03  0.00000000000E+00 0. -1.
         23    2    1    2    0    0  0.10246458990E+03 -0.69819267422E+02  0.26944251503E+01  0.17615008284E+03  0.12509144443E+03 0.  0.
          5    1    3    3  502    0  0.50512948877E+02 -0.26658923833E+02 -0.60680278259E+02  0.83437550263E+02  0.41800000000E+01 0.  1.
         -5    1    3    3    0  502  0.51951641023E+02 -0.43160343589E+02  0.63374703410E+02  0.92712532572E+02  0.41800000000E+01 0.  1.
        -11    1    1    2    0    0 -0.11873643542E+03  0.62097552976E+02 -0.95328400639E+02  0.16444437099E+03  0.00000000000E+00 0. -1.
         11    1    1    2    0    0  0.16271845516E+02  0.77217144456E+01 -0.25636474924E+02  0.31330922058E+02  0.00000000000E+00 0.  1.
</event>
<event>
 7    1  0.6992302E-006  0.1107732E+03  0.7561462E-02  0.1259145E+00
          2   -1    0    0  501    0  0.00000000000E+00  0.00000000000E+00  0.21970693010E+03  0.21970693010E+03  0.00000000000E+00 0. -1.
         -2   -1    0    0    0  501 -0.00000000000E+00 -0.00000000000E+00 -0.92095679608E+02  0.92095679608E+02  0.00000000000E+00 0.  1.
         23    2    1    2    0    0  0.80782115022E+01 -0.89251541698E+02  0.53762585524E+02  0.16300075213E+03  0.12509090453E+03 0.  0.
          5    1    3    3  502    0  0.36948949317E+02 -0.84042854190E+02  0.81185795890E+02  0.12262557666E+03  0.41800000000E+01 0.  1.
         -5    1    3    3    0  502 -0.28870737815E+02 -0.52086875080E+01 -0.27423210366E+02  0.40375175471E+02  0.41800000000E+01 0.  1.
        -11    1    1    2    0    0  0.15978353647E+02  0.14834888265E+02  0.66809562884E+02  0.70277303504E+02  0.00000000000E+00 0. -1.
         11    1    1    2    0    0 -0.24056565149E+02  0.74416653433E+02  0.70391020864E+01  0.78524554077E+02  0.00000000000E+00 0.  1.
</event>
<event>
 7    1  0.6992302E-006  0.1078947E+03  0.7561462E-02  0.1264519E+00
         -3   -1    0    0    0  501 -0.00000000000E+00  0.00000000000E+00  0.11742963793E+03  0.11742963793E+03  0.00000000000E+00 0.  1.
          3   -1    0    0  501    0  0.00000000000E+00 -0.00000000000E+00 -0.11351136120E+03  0.11351136120E+03  0.00000000000E+00 0. -1.
         23    2    1    2    0    0 -0.33138127563E+02  0.10895662039E+02  0.28977780449E+02  0.13305639828E+03  0.12508973745E+03 0.  0.
          5    1    3    3  502    0 -0.31241360597E+01  0.64913939313E+02  0.28576625121E+02  0.71117337173E+02  0.41800000000E+01 0. -1.
         -5    1    3    3    0  502 -0.30013991503E+02 -0.54018277274E+02  0.40115532871E+00  0.61939061110E+02  0.41800000000E+01 0. -1.
        -11    1    1    2    0    0  0.23957735786E+02 -0.46311745882E+02  0.23112508946E+01  0.52192842338E+02  0.00000000000E+00 0.  1.
         11    1    1    2    0    0  0.91803917766E+01  0.35416083844E+02 -0.27370754616E+02  0.45691758516E+02  0.00000000000E+00 0. -1.
</event>
<event>
 7    1  0.6992302E-006  0.1849609E+03  0.7561462E-02  0.1163086E+00
          2   -1    0    0  501    0  0.00000000000E+00  0.00000000000E+00  0.90411365538E+03  0.90411365538E+03  0.00000000000E+00 0. -1.
         -2   -1    0    0    0  501 -0.00000000000E+00 -0.00000000000E+00 -0.44248665717E+02  0.44248665717E+02  0.00000000000E+00 0.  1.
         23    2    1    2    0    0 -0.14129809802E+03 -0.82611609117E+02  0.35419091875E+03  0.40974204503E+03  0.12508999190E+03 0.  0.
          5    1    3    3  502    0 -0.12623144831E+03 -0.58300008820E+01  0.19661765842E+03  0.23376129589E+03  0.41800000000E+01 0. -1.
         -5    1    3    3    0  502 -0.15066649712E+02 -0.76781608235E+02  0.15757326033E+03  0.17598074914E+03  0.41800000000E+01 0. -1.
        -11    1    1    2    0    0  0.90548306109E+02  0.40544462287E+02  0.41391160893E+03  0.42563560609E+03  0.00000000000E+00 0.  1.
         11    1    1    2    0    0  0.50749791915E+02  0.42067146830E+02  0.91762461984E+02  0.11298466998E+03  0.00000000000E+00 0. -1.
</event>
<event>
 7    1  0.6992302E-006  0.1540541E+03  0.7561462E-02  0.1195578E+00
         -2   -1    0    0    0  501 -0.00000000000E+00  0.00000000000E+00  0.55964602155E+02  0.55964602155E+02  0.00000000000E+00 0.  1.
          2   -1    0    0  501    0  0.00000000000E+00 -0.00000000000E+00 -0.50864458966E+03  0.50864458966E+03  0.00000000000E+00 0. -1.
         23    2    1    2    0    0  0.82256015379E+02 -0.99151663767E+02 -0.23656829002E+03  0.29700045395E+03  0.12509040455E+03 0.  0.
          5    1    3    3  502    0 -0.92981199983E+01 -0.86088104214E+02 -0.12302705910E+03  0.15050164914E+03  0.41800000000E+01 0. -1.
         -5    1    3    3    0  502  0.91554135377E+02 -0.13063559553E+02 -0.11354123092E+03  0.14649880481E+03  0.41800000000E+01 0. -1.
        -11    1    1    2    0    0 -0.45971725965E+02  0.56833430171E+02 -0.19456826320E+03  0.20784669210E+03  0.00000000000E+00 0. -1.
         11    1    1    2    0    0 -0.36284289414E+02  0.42318233596E+02 -0.21543434288E+02  0.59762045764E+02  0.00000000000E+00 0.  1.
</event>
<event>
 7    1  0.6992302E-006  0.1690529E+03  0.7561462E-02  0.1178839E+00
         -1   -1    0    0    0  501 -0.00000000000E+00  0.00000000000E+00  0.22239113722E+03  0.22239113722E+03  0.00000000000E+00 0.  1.
          1   -1    0    0  501    0  0.00000000000E+00 -0.00000000000E+00 -0.20972242796E+03  0.20972242796E+03  0.00000000000E+00 0. -1.
         23    2    1    2    0    0  0.84490710415E+02 -0.13766238337E+03  0.99896668213E+02  0.22741185813E+03  0.12508875632E+03 0.  0.
          5    1    3    3  502    0  0.83842296660E+02 -0.14309427680E+03  0.44740249287E+02  0.17182742816E+03  0.41800000000E+01 0.  1.
         -5    1    3    3    0  502  0.64841375582E+00  0.54318934309E+01  0.55156418926E+02  0.55584429972E+02  0.41800000000E+01 0.  1.
        -11    1    1    2    0    0 -0.12933849176E+02  0.52582357945E+02  0.12253440143E+02  0.55518786162E+02  0.00000000000E+00 0.  1.
         11    1    1    2    0    0 -0.71556861239E+02  0.85080025422E+02 -0.99481399094E+02  0.14918292088E+03  0.00000000000E+00 0. -1.
</event>
<event>
 7    1  0.6992302E-006  0.6519733E+02  0.7561462E-02  0.1377231E+00
         -2   -1    0    0    0  501 -0.00000000000E+00  0.00000000000E+00  0.14339777716E+03  0.14339777716E+03  0.00000000000E+00 0.  1.
          2   -1    0    0  501    0  0.00000000000E+00 -0.00000000000E+00 -0.98556715928E+02  0.98556715928E+02  0.00000000000E+00 0. -1.
         23    2    1    2    0    0  0.19372565249E+02 -0.14945860800E+02  0.68245083381E+02  0.14458558835E+03  0.12509566704E+03 0.  0.
          5    1    3    3  502    0 -0.36616889775E+02 -0.19436855509E+02  0.77033192022E+02  0.87579524102E+02  0.41800000000E+01 0.  1.
         -5    1    3    3    0  502  0.55989455024E+02  0.44909947094E+01 -0.87881086409E+01  0.57006064246E+02  0.41800000000E+01 0.  1.
        -11    1    1    2    0    0 -0.14479256340E+02 -0.21352074174E+01  0.34139567957E+02  0.37144556467E+02  0.00000000000E+00 0.  1.
         11    1    1    2    0    0 -0.48933089092E+01  0.17081068217E+02 -0.57543590102E+02  0.60224348277E+02  0.00000000000E+00 0. -1.
</event>
<event>
 7    1  0.6992302E-006  0.1384177E+03  0.7561462E-02  0.1215474E+00
          2   -1    0    0  501    0  0.00000000000E+00  0.00000000000E+00  0.18031483343E+03  0.18031483343E+03  0.00000000000E+00 0. -1.
         -2   -1    0    0    0  501 -0.00000000000E+00 -0.00000000000E+00 -0.11867302806E+03  0.11867302806E+03  0.00000000000E+00 0.  1.
         23    2    1    2    0    0 -0.91003258418E+02  0.14391665145E+02  0.65548420742E+00  0.15535834780E+03  0.12508826285E+03 0.  0.
          5    1    3    3  502    0 -0.76078471549E+02  0.61846004736E+02 -0.21947269104E+02  0.10055852602E+03  0.41800000000E+01 0. -1.
         -5    1    3    3    0  502 -0.14924786869E+02 -0.47454339591E+02  0.22602753312E+02  0.54799821773E+02  0.41800000000E+01 0. -1.
        -11    1    1    2    0    0  0.28415974796E+02  0.37797966246E+02  0.32168214244E+02  0.57192201248E+02  0.00000000000E+00 0. -1.
         11    1    1    2    0    0  0.62587283623E+02 -0.52189631391E+02  0.28818106920E+02  0.86437312443E+02  0.00000000000E+00 0.  1.
</event>
<event>
 7    1  0.6992302E-006  0.1051298E+03  0.7561462E-02  0.1269864E+00
         -1   -1    0    0    0  501 -0.00000000000E+00  0.00000000000E+00  0.21369913960E+02  0.21369913960E+02  0.00000000000E+00 0.  1.
          1   -1    0    0  501    0  0.00000000000E+00 -0.00000000000E+00 -0.61672317278E+03  0.61672317278E+03  0.00000000000E+00 0. -1.
         23    2    1    2    0    0  0.11378462520E+02 -0.46565944359E+02 -0.33039365630E+03  0.35651817279E+03  0.12508949924E+03 0.  0.
          5    1    3    3  502    0 -0.71412269480E+01  0.38244470820E+02 -0.53342928079E+02  0.66155703054E+02  0.41800000000E+01 0.  1.
         -5    1    3    3    0  502  0.18519689468E+02 -0.84810415179E+02 -0.27705072822E+03  0.29036246974E+03  0.41800000000E+01 0.  1.
        -11    1    1    2    0    0 -0.38997323655E+02  0.13799104000E+02 -0.64792027723E+02  0.76871408078E+02  0.00000000000E+00 0. -1.
         11    1    1    2    0    0  0.27618861135E+02  0.32766840359E+02 -0.20016757479E+03  0.20470350587E+03  0.00000000000E+00 0.  1.
</event>
<event>
 6    1  0.6992302E-006  0.1182782E+03  0.7561462E-02  0.1245965E+00
          1   -1    0    0  501    0  0.00000000000E+00  0.00000000000E+00  0.59718331065E+02  0.59718331065E+02  0.00000000000E+00 0. -1.
         -1   -1    0    0    0  501 -0.00000000000E+00 -0.00000000000E+00 -0.30286266800E+03  0.30286266800E+03  0.00000000000E+00 0.  1.
          5    1    1    2  502    0 -0.55530154623E+02  0.12892674080E+02 -0.58188605270E+02  0.81567182743E+02  0.41800000000E+01 0. -1.
         -5    1    1    2    0  502  0.85220721972E+02 -0.31536540024E+02 -0.15377526172E+03  0.17866568873E+03  0.41800000000E+01 0.  1.
        -11    1    1    2    0    0  0.21998701004E+02 -0.15118132417E+02 -0.30600868323E+02  0.40606821050E+02  0.00000000000E+00 0.  1.
         11    1    1    2    0    0 -0.51689268353E+02  0.33761998361E+02 -0.57960162206E+00  0.61741306548E+02  0.00000000000E+00 0. -1.
</event>
<event>
 7    1  0.6992302E-006  0.4151589E+02  0.7561462E-02  0.1497343E+00
         -1   -1    0    0    0  501 -0.00000000000E+00  0.00000000000E+00  0.44046379815E+02  0.44046379815E+02  0.00000000000E+00 0.  1.
          1   -1    0    0  501    0  0.00000000000E+00 -0.00000000000E+00 -0.27440563823E+03  0.27440563823E+03  0.00000000000E+00 0. -1.
         23    2    1    2    0    0  0.11286264811E+01 -0.85631259570E+01 -0.10048030085E+03  0.16068474511E+03  0.12509474621E+03 0.  0.
          5    1    3    3  502    0 -0.25466657253E+01 -0.17257356050E+02 -0.12905850517E+03  0.13029916347E+03  0.41800000000E+01 0. -1.
         -5    1    3    3    0  502  0.36752922064E+01  0.86942300926E+01  0.28578204318E+02  0.30385581642E+02  0.41800000000E+01 0. -1.
        -11    1    1    2    0    0 -0.94087098934E+01  0.30184994781E+02 -0.65562580582E+01  0.32289971377E+02  0.00000000000E+00 0.  1.
         11    1    1    2    0    0  0.82800834123E+01 -0.21621868824E+02 -0.12332269950E+03  0.12547730155E+03  0.00000000000E+00 0. -1.
</event>
<event>
 6    1  0.6992302E-006  0.1244934E+03  0.7561462E-02  0.1235863E+00
          2   -1    0    0  501    0  0.00000000000E+00  0.00000000000E+00  0.12681955712E+03  0.12681955712E+03  0.00000000000E+00 0. -1.
         -2   -1    0    0    0  501 -0.00000000000E+00 -0.00000000000E+00 -0.17650501817E+03  0.17650501817E+03  0.00000000000E+00 0.  1.
          5    1    1    2  502    0  0.48614822375E+02 -0.92540138462E+02  0.41730906001E+02  0.11263222939E+03  0.41800000000E+01 0. -1.
         -5    1    1    2    0  502  0.65188491699E+01  0.21404676689E+02 -0.52757824848E+02  0.57458820570E+02  0.41800000000E+01 0.  1.
        -11    1    1    2    0    0  0.17420904265E+02 -0.32237027327E+01 -0.21623668784E+02  0.27954663589E+02  0.00000000000E+00 0. -1.
         11    1    1    2    0    0 -0.72554575810E+02  0.74359164506E+02 -0.17034873418E+02  0.10527886174E+03  0.00000000000E+00 0.  1.
</event>
<event>
 7    1  0.6992302E-006  0.1431883E+03  0.7561462E-02  0.1209102E+00
         -2   -1    0    0    0  501 -0.00000000000E+00  0.00000000000E+00  0.30116403885E+02  0.30116403885E+02  0.00000000000E+00 0.  1.
          2   -1    0    0  501    0  0.00000000000E+00 -0.00000000000E+00 -0.80111082871E+03  0.80111082871E+03  0.00000000000E+00 0. -1.
         23    2    1    2    0    0  0.95036050724E+02 -0.54898164104E+02 -0.37058381423E+03  0.40623461286E+03  0.12509411640E+03 0.  0.
          5    1    3    3  502    0  0.58476221424E+02 -0.89788859546E+02 -0.18484111638E+03  0.21369421723E+03  0.41800000000E+01 0.  1.
         -5    1    3    3    0  502  0.36559829300E+02  0.34890695442E+02 -0.18574269784E+03  0.19254039563E+03  0.41800000000E+01 0.  1.
        -11    1    1    2    0    0 -0.33672115183E+02  0.57918871032E+02 -0.11542006749E+03  0.13345485732E+03  0.00000000000E+00 0.  1.
         11    1    1    2    0    0 -0.61363935541E+02 -0.30207069277E+01 -0.28499054311E+03  0.29153776242E+03  0.00000000000E+00 0. -1.
</event>
<event>
 7    1  0.6992302E-006  0.1168044E+03  0.7561462E-02  0.1248464E+00
          2   -1    0    0  501    0  0.00000000000E+00  0.00000000000E+00  0.26943361724E+03  0.26943361724E+03  0.00000000000E+00 0.  1.
         -2   -1    0    0    0  501 -0.00000000000E+00 -0.00000000000E+00 -0.62927856867E+02  0.62927856867E+02  0.00000000000E+00 0. -1.
         23    2    1    2    0    0  0.66760476468E+02 -0.22792640141E+02  0.10823837222E+03  0.17983369166E+03  0.12509254884E+03 0.  0.
          5    1    3    3  502    0 -0.22614581314E+02 -0.15136401324E+02  0.81670473118E+02  0.86186243173E+02  0.41800000000E+01 0. -1.
         -5    1    3    3    0  502  0.89375057782E+02 -0.76562388171E+01  0.26567899099E+02  0.93647448491E+02  0.41800000000E+01 0. -1.
        -11    1    1    2    0    0 -0.90371291072E+02  0.16828858038E+02  0.82497515620E+02  0.12351526544E+03  0.00000000000E+00 0. -1.
         11    1    1    2    0    0  0.23610814604E+02  0.59637821023E+01  0.15769872540E+02  0.29012517008E+02  0.00000000000E+00 0.  1.
</event>
<event>
 7    1  0.6992302E-006  0.9123816E+02  0.7561462E-02  0.1299881E+00
          2   -1    0    0  501    0  0.00000000000E+00  0.00000000000E+00  0.19310115221E+03  0.19310115221E+03  0.00000000000E+00 0. -1.
         -2   -1    0    0    0  501 -0.00000000000E+00 -0.00000000000E+00 -0.60097920011E+02  0.60097920011E+02  0.00000000000E+00 0.  1.
         23    2    1    2    0    0  0.69514632821E+01 -0.18350716610E+02  0.52506312617E+02  0.13707416817E+03  0.12508934036E+03 0.  0.
          5    1    3    3  502    0  0.35633447485E+02  0.27796336716E+02 -0.17251672010E+02  0.48553800074E+02  0.41800000000E+01 0. -1.
         -5    1    3    3    0  502 -0.28681984203E+02 -0.46147053326E+02  0.69757984627E+02  0.88520368095E+02  0.41800000000E+01 0. -1.
        -11    1    1    2    0    0 -0.13707601519E+01  0.50221537990E+02  0.39564289835E+02  0.63948533147E+02  0.00000000000E+00 0.  1.
         11    1    1    2    0    0 -0.55807031302E+01 -0.31870821380E+02  0.40932629748E+02  0.52176370906E+02  0.00000000000E+00 0. -1.
</event>
<event>
 7    1  0.6992302E-006  0.1780996E+03  0.7561462E-02  0.1169655E+00
         -1   -1    0    0    0  501 -0.00000000000E+00  0.00000000000E+00  0.25048548515E+04  0.25048548515E+04  0.00000000000E+00 0.  1.
          1   -1    0    0  501    0  0.00000000000E+00 -0.00000000000E+00 -0.18214934027E+02  0.18214934027E+02  0.00000000000E+00 0. -1.
         23    2    1    2    0    0  0.78030904299E+02  0.14044271303E+03  0.18292925034E+04  0.18404094739E+04  0.12240502845E+03 0.  0.
          5    1    3    3  502    0  0.18815642162E+02  0.12751299642E+03  0.90754011371E+03  0.91665703676E+03  0.41800000000E+01 0. -1.
         -5    1    3    3    0  502  0.59215262138E+02  0.12929716605E+02  0.92175238968E+03  0.92375243714E+03  0.41800000000E+01 0.  1.
        -11    1    1    2    0    0 -0.38821192588E+02 -0.29329878377E+02  0.81807534254E+02  0.95182978627E+02  0.00000000000E+00 0.  1.
         11    1    1    2    0    0 -0.39209711711E+02 -0.11111283465E+03  0.57553987983E+03  0.58747733301E+03  0.00000000000E+00 0. -1.
</event>
<event>
 7    1  0.6992302E-006  0.8029274E+02  0.7561462E-02  0.1328223E+00
          1   -1    0    0  501    0  0.00000000000E+00  0.00000000000E+00  0.39083386678E+03  0.39083386678E+03  0.00000000000E+00 0. -1.
         -1   -1    0    0    0  501 -0.00000000000E+00 -0.00000000000E+00 -0.40641172823E+02  0.40641172823E+02  0.00000000000E+00 0.  1.
         23    2    1    2    0    0  0.45262435772E+01  0.25823340205E+02  0.72844862159E+02  0.13821420095E+03  0.11449654851E+03 0.  0.
          5    1    3    3  502    0 -0.10500897843E+02 -0.17921818807E+02  0.87094390393E+02  0.89634623236E+02  0.41800000000E+01 0. -1.
         -5    1    3    3    0  502  0.15027141421E+02  0.43745159012E+02 -0.14249528233E+02  0.48579577716E+02  0.41800000000E+01 0.  1.
        -11    1    1    2    0    0 -0.12270865232E+02  0.32178160121E+02  0.73278986601E+02  0.80968006024E+02  0.00000000000E+00 0.  1.
         11    1    1    2    0    0  0.77446216545E+01 -0.58001500326E+02  0.20406884520E+03  0.21229283263E+03  0.00000000000E+00 0. -1.
</event>
<event>
 7    1  0.6992302E-006  0.1170726E+03  0.7561462E-02  0.1248006E+00
         -4   -1    0    0    0  501 -0.00000000000E+00  0.00000000000E+00  0.42187864145E+03  0.42187864145E+03  0.00000000000E+00 0.  1.
          4   -1    0    0  501    0  0.00000000000E+00 -0.00000000000E+00 -0.36936481174E+02  0.36936481174E+02  0.00000000000E+00 0. -1.
         23    2    1    2    0    0 -0.35717563537E+02  0.29279897996E+02  0.27921677861E+03  0.30942363040E+03  0.12509163368E+03 0.  0.
          5    1    3    3  502    0  0.31233342940E+02 -0.28808164942E+02  0.11660707200E+03  0.12417775050E+03  0.41800000000E+01 0. -1.
         -5    1    3    3    0  502 -0.66950906477E+02  0.58088062938E+02  0.16260970662E+03  0.18524587990E+03  0.41800000000E+01 0. -1.
        -11    1    1    2    0    0  0.60754808978E+02 -0.42744985519E+02  0.90695263513E+02  0.11723442935E+03  0.00000000000E+00 0.  1.
         11    1    1    2    0    0 -0.25037245442E+02  0.13465087523E+02  0.15030118145E+02  0.32157062875E+02  0.00000000000E+00 0. -1.
</event>
<event>
 7    1  0.6992302E-006  0.8976318E+02  0.7561462E-02  0.1303426E+00
         -1   -1    0    0    0  501 -0.00000000000E+00  0.00000000000E+00  0.50050889855E+02  0.50050889855E+02  0.00000000000E+00 0.  1.
          1   -1    0    0  501    0  0.00000000000E+00 -0.00000000000E+00 -0.24215641977E+03  0.24215641977E+03  0.00000000000E+00 0. -1.
         23    2    1    2    0    0  0.41304155118E+02 -0.52891040825E+01 -0.94827143550E+02  0.16240911467E+03  0.12510206042E+03 0.  0.
          5    1    3    3  502    0  0.40951895337E+02  0.34514838564E+02 -0.10770959055E+03  0.12036261924E+03  0.41800000000E+01 0. -1.
         -5    1    3    3    0  502  0.35225978049E+00 -0.39803942647E+02  0.12882447003E+02  0.42046495430E+02  0.41800000000E+01 0. -1.
        -11    1    1    2    0    0 -0.60144593559E+02  0.18321948006E+02 -0.74621464212E+02  0.97577809128E+02  0.00000000000E+00 0. -1.
         11    1    1    2    0    0  0.18840438441E+02 -0.13032843924E+02 -0.22656922149E+02  0.32220385824E+02  0.00000000000E+00 0.  1.
</event>
<event>
 7    1  0.6992302E-006  0.1103147E+03  0.7561462E-02  0.1259988E+00
         -1   -1    0    0    0  501 -0.00000000000E+00  0.00000000000E+00  0.36109849198E+03  0.36109849198E+03  0.00000000000E+00 0.  1.
          1   -1    0    0  501    0  0.00000000000E+00 -0.00000000000E+00 -0.69946151761E+02  0.69946151761E+02  0.00000000000E+00 0. -1.
         23    2    1    2    0    0 -0.54084385307E+02 -0.70327980640E+02  0.25740521407E+03  0.29960713717E+03  0.12504337976E+03 0.  0.
          5    1    3    3  502    0 -0.81362144457E+02 -0.62472556100E+02  0.11423222862E+03  0.15358741248E+03  0.41800000000E+01 0.  1.
         -5    1    3    3    0  502  0.27277759150E+02 -0.78554245405E+01  0.14317298545E+03  0.14601972470E+03  0.41800000000E+01 0.  1.
        -11    1    1    2    0    0  0.94036991651E+01  0.19148726299E+02  0.56017129582E+02  0.59941822490E+02  0.00000000000E+00 0.  1.
         11    1    1    2    0    0  0.44680686142E+02  0.51179254342E+02 -0.22270003428E+02  0.71495684078E+02  0.00000000000E+00 0. -1.
</event>
<event>
 7    1  0.6992302E-006  0.1441623E+03  0.7561462E-02  0.1207835E+00
         -1   -1    0    0    0  501 -0.00000000000E+00  0.00000000000E+00  0.13399261668E+04  0.13399261668E+04  0.00000000000E+00 0.  1.
          1   -1    0    0  501    0  0.00000000000E+00 -0.00000000000E+00 -0.19880798710E+02  0.19880798710E+02  0.00000000000E+00 0. -1.
         23    2    1    2    0    0 -0.14628711511E+02  0.11472463955E+03  0.84119720604E+03  0.85827669322E+03  0.12510156095E+03 0.  0.
          5    1    3    3  502    0  0.44467670266E+02  0.59911984984E+02  0.23154607279E+03  0.24330613611E+03  0.41800000000E+01 0. -1.
         -5    1    3    3    0  502 -0.59096381777E+02  0.54812654565E+02  0.60965113324E+03  0.61497055710E+03  0.41800000000E+01 0. -1.
        -11    1    1    2    0    0  0.38740756651E+02 -0.46489890166E+02  0.33589031223E+03  0.34129819508E+03  0.00000000000E+00 0.  1.
         11    1    1    2    0    0 -0.24112045140E+02 -0.68234749382E+02  0.14295784986E+03  0.16023207725E+03  0.00000000000E+00 0. -1.
</event>
<event>
 7    1  0.6992302E-006  0.1345809E+03  0.7561462E-02  0.1220813E+00
         -4   -1    0    0    0  501 -0.00000000000E+00  0.00000000000E+00  0.60898714964E+03  0.60898714964E+03  0.00000000000E+00 0.  1.
          4   -1    0    0  501    0  0.00000000000E+00 -0.00000000000E+00 -0.37190870227E+02  0.37190870227E+02  0.00000000000E+00 0. -1.
         23    2    1    2    0    0 -0.74663154530E+01  0.10603166852E+03  0.31298201656E+03  0.35341691810E+03  0.12508922702E+03 0.  0.
          5    1    3    3  502    0 -0.19116722951E+02  0.13222902741E+03  0.27379077538E+03  0.30467823333E+03  0.41800000000E+01 0.  1.
         -5    1    3    3    0  502  0.11650407498E+02 -0.26197358890E+02  0.39191241179E+02  0.48738684767E+02  0.41800000000E+01 0.  1.
        -11    1    1    2    0    0  0.12389956447E+01 -0.65444606198E+02  0.56950672399E+02  0.86763533107E+02  0.00000000000E+00 0. -1.
         11    1    1    2    0    0  0.62273198083E+01 -0.40587062321E+02  0.20186359045E+03  0.20599756865E+03  0.00000000000E+00 0.  1.
</event>
<event>
 7    1  0.6992302E-006  0.1546387E+03  0.7561462E-02  0.1194886E+00
          1   -1    0    0  501    0  0.00000000000E+00  0.00000000000E+00  0.17670441410E+03  0.17670441410E+03  0.00000000000E+00 0. -1.
         -1   -1    0    0    0  501 -0.00000000000E+00 -0.00000000000E+00 -0.14640172864E+03  0.14640172864E+03  0.00000000000E+00 0.  1.
         23    2    1    2    0    0 -0.73467804662E+02 -0.84281138466E+02 -0.21745790363E+02  0.16917869495E+03  0.12509085820E+03 0.  0.
          5    1    3    3  502    0 -0.52751792027E+02 -0.11603800992E+03 -0.53171354502E+01  0.12764527268E+03  0.41800000000E+01 0.  1.
         -5    1    3    3    0  502 -0.20716012635E+02  0.31756871451E+02 -0.16428654913E+02  0.41533422277E+02  0.41800000000E+01 0.  1.
        -11    1    1    2    0    0 -0.54429421859E+01  0.61113481236E+02  0.32343359299E+02  0.69358316727E+02  0.00000000000E+00 0.  1.
         11    1    1    2    0    0  0.78910746848E+02  0.23167657230E+02  0.19705116523E+02  0.84569131052E+02  0.00000000000E+00 0. -1.
</event>
<event>
 7    1  0.6992302E-006  0.1841314E+03  0.7561462E-02  0.1163863E+00
          2   -1    0    0  501    0  0.00000000000E+00  0.00000000000E+00  0.81016512566E+03  0.81016512566E+03  0.00000000000E+00 0. -1.
         -2   -1    0    0    0  501 -0.00000000000E+00 -0.00000000000E+00 -0.44706664337E+02  0.44706664337E+02  0.00000000000E+00 0.  1.
         23    2    1    2    0    0  0.88006871295E+02 -0.12565995729E+03  0.46533047962E+03  0.50568350077E+03  0.12509082069E+03 0.  0.
          5    1    3    3  502    0  0.35545051742E+02 -0.13259291314E+03  0.26544090921E+03  0.29886565543E+03  0.41800000000E+01 0. -1.
         -5    1    3    3    0  502  0.52461819553E+02  0.69329558479E+01  0.19988957041E+03  0.20681784533E+03  0.41800000000E+01 0. -1.
        -11    1    1    2    0    0 -0.81977484992E+02  0.38665121378E+02  0.13817527344E+03  0.16525043373E+03  0.00000000000E+00 0.  1.
         11    1    1    2    0    0 -0.60293863029E+01  0.86994835910E+02  0.16195270826E+03  0.18393785550E+03  0.00000000000E+00 0. -1.
</event>
<event>
 7    1  0.7142024E-006  0.2136925E+03  0.7561462E-02  0.1138675E+00
         -1   -1    0    0    0  501 -0.00000000000E+00  0.00000000000E+00  0.49471498105E+03  0.49471498105E+03  0.00000000000E+00 0.  1.
          1   -1    0    0  501    0  0.00000000000E+00 -0.00000000000E+00 -0.99505435518E+02  0.99505435518E+02  0.00000000000E+00 0. -1.
         23    2    1    2    0    0 -0.14248885526E+03  0.12341462124E+03  0.22619416967E+03  0.31991506080E+03  0.12509037183E+03 0.  0.
          5    1    3    3  502    0 -0.51824942881E+01  0.77882502405E+02  0.54114555961E+02  0.95070500129E+02  0.41800000000E+01 0. -1.
         -5    1    3    3    0  502 -0.13730636097E+03  0.45532118830E+02  0.17207961371E+03  0.22484456067E+03  0.41800000000E+01 0. -1.
        -11    1    1    2    0    0  0.11776899882E+03 -0.51651617550E+02  0.61110781204E+02  0.14237961321E+03  0.00000000000E+00 0. -1.
         11    1    1    2    0    0  0.24719856438E+02 -0.71763003685E+02  0.10790459467E+03  0.13192574256E+03  0.00000000000E+00 0.  1.
</event>
<event>
 7    1  0.6992302E-006  0.6032231E+02  0.7561462E-02  0.1396484E+00
         -1   -1    0    0    0  501 -0.00000000000E+00  0.00000000000E+00  0.14871967896E+04  0.14871967896E+04  0.00000000000E+00 0.  1.
          1   -1    0    0  501    0  0.00000000000E+00 -0.00000000000E+00 -0.14436537706E+02  0.14436537706E+02  0.00000000000E+00 0. -1.
         23    2    1    2    0    0 -0.21641668182E+02 -0.88810909858E+01  0.12851250572E+04  0.12914105279E+04  0.12508998157E+03 0.  0.
          5    1    3    3  502    0 -0.10719285148E+02 -0.13872350638E+02  0.22994066118E+02  0.29215486697E+02  0.41800000000E+01 0. -1.
         -5    1    3    3    0  502 -0.10922383035E+02  0.49912596524E+01  0.12621309911E+04  0.12621950412E+04  0.41800000000E+01 0. -1.
        -11    1    1    2    0    0  0.19273371884E+02  0.47475979200E+02  0.13865096572E+03  0.14781583731E+03  0.00000000000E+00 0.  1.
         11    1    1    2    0    0  0.23682962982E+01 -0.38594888215E+02  0.48984228997E+02  0.62406962064E+02  0.00000000000E+00 0. -1.
</event>
<event>
 7    1  0.6992302E-006  0.1644257E+03  0.7561462E-02  0.1183789E+00
          2   -1    0    0  501    0  0.00000000000E+00  0.00000000000E+00  0.95748511226E+03  0.95748511226E+03  0.00000000000E+00 0.  1.
         -2   -1    0    0    0  501 -0.00000000000E+00 -0.00000000000E+00 -0.66785747480E+02  0.66785747480E+02  0.00000000000E+00 0. -1.
         23    2    1    2    0    0 -0.83288645064E+02  0.12956255584E+03  0.11759935600E+03  0.23065225655E+03  0.12508957050E+03 0.  0.
          5    1    3    3  502    0 -0.92525218764E+01  0.53972954649E+02  0.11185115385E+03  0.12460674947E+03  0.41800000000E+01 0. -1.
         -5    1    3    3    0  502 -0.74036123188E+02  0.75589601195E+02  0.57482021501E+01  0.10604550709E+03  0.41800000000E+01 0. -1.
        -11    1    1    2    0    0  0.84747456704E+02 -0.74140142686E+02  0.63319276135E+03  0.64312671006E+03  0.00000000000E+00 0.  1.
         11    1    1    2    0    0 -0.14588116393E+01 -0.55422413158E+02  0.13990724743E+03  0.15049189312E+03  0.00000000000E+00 0. -1.
</event>
<event>
 7    1  0.6992302E-006  0.1631126E+03  0.7561462E-02  0.1185227E+00
         -2   -1    0    0    0  501 -0.00000000000E+00  0.00000000000E+00  0.40595864823E+02  0.40595864823E+02  0.00000000000E+00 0.  1.
          2   -1    0    0  501    0  0.00000000000E+00 -0.00000000000E+00 -0.86909273849E+03  0.86909273849E+03  0.00000000000E+00 0. -1.
         23    2    1    2    0    0  0.54121645395E+02  0.14516540377E+03 -0.43235631953E+03  0.47690774814E+03  0.12847904981E+03 0.  0.
          5    1    3    3  502    0  0.14328738875E+02  0.49040988826E+02 -0.31859230754E+03  0.32269004039E+03  0.41800000000E+01 0. -1.
         -5    1    3    3    0  502  0.39792906520E+02  0.96124414948E+02 -0.11376401199E+03  0.15421770775E+03  0.41800000000E+01 0.  1.
        -11    1    1    2    0    0 -0.33588134812E+02 -0.14646698985E+03 -0.37111299203E+03  0.40038181124E+03  0.00000000000E+00 0.  1.
         11    1    1    2    0    0 -0.20533510583E+02  0.13015860793E+01 -0.25027562108E+02  0.32399043941E+02  0.00000000000E+00 0. -1.
</event>
<event>
 7    1  0.6992302E-006  0.1281717E+03  0.7561462E-02  0.1230194E+00
          1   -1    0    0  501    0  0.00000000000E+00  0.00000000000E+00  0.77588915004E+02  0.77588915004E+02  0.00000000000E+00 0. -1.
         -1   -1    0    0    0  501 -0.00000000000E+00 -0.00000000000E+00 -0.25228164679E+03  0.25228164679E+03  0.00000000000E+00 0.  1.
         23    2    1    2    0    0  0.51551745581E+02  0.55915066542E+02 -0.13572425625E+03  0.19961333745E+03  0.12506131942E+03 0.  0.
          5    1    3    3  502    0 -0.15290642913E+02 -0.25784122492E+02 -0.36491849159E+01  0.30486286818E+02  0.41800000000E+01 0. -1.
         -5    1    3    3    0  502  0.66842388494E+02  0.81699189034E+02 -0.13207507133E+03  0.16912705063E+03  0.41800000000E+01 0. -1.
        -11    1    1    2    0    0  0.14928933194E+02 -0.51709141419E+02 -0.33554312237E+02  0.63423971984E+02  0.00000000000E+00 0.  1.
         11    1    1    2    0    0 -0.66480678775E+02 -0.42059251232E+01 -0.54141632995E+01  0.66833252358E+02  0.00000000000E+00 0. -1.
</event>
<event>
 7    1  0.6992302E-006  0.1008047E+03  0.7561462E-02  0.1278613E+00
          2   -1    0    0  501    0  0.00000000000E+00  0.00000000000E+00  0.25644842009E+03  0.25644842009E+03  0.00000000000E+00 0. -1.
         -2   -1    0    0    0  501 -0.00000000000E+00 -0.00000000000E+00 -0.72258766251E+02  0.72258766251E+02  0.00000000000E+00 0.  1.
         23    2    1    2    0    0 -0.70247544479E+01 -0.90595218992E+01  0.26596632287E+01  0.12564259013E+03  0.12509022557E+03 0.  0.
          5    1    3    3  502    0  0.51894282305E+02 -0.35900395698E+01  0.30142487361E+02  0.60265635849E+02  0.41800000000E+01 0. -1.
         -5    1    3    3    0  502 -0.58919036753E+02 -0.54694823295E+01 -0.27482824132E+02  0.65376954281E+02  0.41800000000E+01 0. -1.
        -11    1    1    2    0    0  0.78567017227E+01  0.49265981789E+02  0.86135065796E+02  0.99539511166E+02  0.00000000000E+00 0. -1.
         11    1    1    2    0    0 -0.83194727480E+00 -0.40206459890E+02  0.95394924814E+02  0.10352508504E+03  0.00000000000E+00 0.  1.
</event>
<event>
 7    1  0.6992302E-006  0.1370679E+03  0.7561462E-02  0.1217330E+00
          2   -1    0    0  501    0  0.00000000000E+00  0.00000000000E+00  0.20501097468E+02  0.20501097468E+02  0.00000000000E+00 0. -1.
         -2   -1    0    0    0  501 -0.00000000000E+00 -0.00000000000E+00 -0.99293102185E+03  0.99293102185E+03  0.00000000000E+00 0.  1.
         23    2    1    2    0    0 -0.60613614164E+02  0.64499419731E+02 -0.64441728032E+03  0.66174269186E+03  0.12163705721E+03 0.  0.
          5    1    3    3  502    0  0.41767387689E+01 -0.32868392370E+02 -0.14029917353E+03  0.14421895457E+03  0.41800000000E+01 0. -1.
         -5    1    3    3    0  502 -0.64790352933E+02  0.97367812101E+02 -0.50411810679E+03  0.51752373729E+03  0.41800000000E+01 0.  1.
        -11    1    1    2    0    0 -0.21610567396E+02 -0.23173215707E+02 -0.12217433528E+03  0.12621641236E+03  0.00000000000E+00 0.  1.
         11    1    1    2    0    0  0.82224181560E+02 -0.41326204024E+02 -0.20583830879E+03  0.22547301510E+03  0.00000000000E+00 0. -1.
</event>
<event>
 7    1  0.6992302E-006  0.1102875E+03  0.7561462E-02  0.1260038E+00
          3   -1    0    0  501    0  0.00000000000E+00  0.00000000000E+00  0.28626761048E+03  0.28626761048E+03  0.00000000000E+00 0. -1.
         -3   -1    0    0    0  501 -0.00000000000E+00 -0.00000000000E+00 -0.51957498117E+02  0.51957498117E+02  0.00000000000E+00 0.  1.
         23    2    1    2    0    0 -0.33064901595E+02  0.42472869388E+02  0.13380561628E+03  0.19091430154E+03  0.12508834971E+03 0.  0.
          5    1    3    3  502    0 -0.57084489091E+02  0.70338120719E+02  0.12208112326E+03  0.15207683314E+03  0.41800000000E+01 0.  1.
         -5    1    3    3    0  502  0.24019587496E+02 -0.27865251331E+02  0.11724493019E+02  0.38837468400E+02  0.41800000000E+01 0.  1.
        -11    1    1    2    0    0  0.35732083914E+02 -0.62859326157E+02  0.38354560281E+02  0.81848329244E+02  0.00000000000E+00 0.  1.
         11    1    1    2    0    0 -0.26671823185E+01  0.20386456769E+02  0.62149935801E+02  0.65462477811E+02  0.00000000000E+00 0. -1.
</event>
<event>
 7    1  0.6992302E-006  0.7670956E+02  0.7561462E-02  0.1338657E+00
         -1   -1    0    0    0  501 -0.00000000000E+00  0.00000000000E+00  0.14823263479E+03  0.14823263479E+03  0.00000000000E+00 0.  1.
          1   -1    0    0  501    0  0.00000000000E+00 -0.00000000000E+00 -0.35951081666E+03  0.35951081666E+03  0.00000000000E+00 0. -1.
         23    2    1    2    0    0 -0.13101083634E+02 -0.19354453643E+02  0.11838614559E+03  0.16366214983E+03  0.11056123439E+03 0.  0.
          5    1    3    3  502    0 -0.30322877823E+02 -0.31565137495E+02  0.64895043830E+00  0.43974178346E+02  0.41800000000E+01 0. -1.
         -5    1    3    3    0  502  0.17221794189E+02  0.12210683851E+02  0.11773719515E+03  0.11968797148E+03  0.41800000000E+01 0.  1.
        -11    1    1    2    0    0 -0.14491080125E+02 -0.28907246958E+02 -0.54612772958E+02  0.63467907639E+02  0.00000000000E+00 0.  1.
         11    1    1    2    0    0  0.27592163759E+02  0.48261700602E+02 -0.27505155450E+03  0.28061339398E+03  0.00000000000E+00 0. -1.
</event>
<event>
 7    1  0.6992302E-006  0.1209369E+03  0.7561462E-02  0.1241559E+00
         -4   -1    0    0    0  501 -0.00000000000E+00  0.00000000000E+00  0.37218409171E+03  0.37218409171E+03  0.00000000000E+00 0.  1.
          4   -1    0    0  501    0  0.00000000000E+00 -0.00000000000E+00 -0.52742209931E+02  0.52742209931E+02  0.00000000000E+00 0. -1.
         23    2    1    2    0    0 -0.67083220533E+02 -0.52561312906E+02  0.19687062923E+03  0.24832934409E+03  0.12508624382E+03 0.  0.
          5    1    3    3  502    0 -0.13946225000E+02 -0.85201573323E+02  0.91912788662E+02  0.12617146432E+03  0.41800000000E+01 0.  1.
         -5    1    3    3    0  502 -0.53136995533E+02  0.32640260416E+02  0.10495784057E+03  0.12215787978E+03  0.41800000000E+01 0.  1.
        -11    1    1    2    0    0  0.41693547240E+02  0.92127548129E+01  0.11877496652E+03  0.12621695372E+03  0.00000000000E+00 0.  1.
         11    1    1    2    0    0  0.25389673293E+02  0.43348558093E+02  0.37962860260E+01  0.50380003834E+02  0.00000000000E+00 0. -1.
</event>
<event>
 7    1  0.6992302E-006  0.1366029E+03  0.7561462E-02  0.1217974E+00
          1   -1    0    0  501    0  0.00000000000E+00  0.00000000000E+00  0.14857042068E+03  0.14857042068E+03  0.00000000000E+00 0. -1.
         -1   -1    0    0    0  501 -0.00000000000E+00 -0.00000000000E+00 -0.27740515365E+03  0.27740515365E+03  0.00000000000E+00 0.  1.
         23    2    1    2    0    0  0.72528746019E+02  0.83709500923E+02 -0.20473179893E+03  0.26425438010E+03  0.12509024088E+03 0.  0.
          5    1    3    3  502    0  0.36347237892E+02  0.97720163149E+02 -0.19915425231E+03  0.22483380663E+03  0.41800000000E+01 0. -1.
         -5    1    3    3    0  502  0.36181508127E+02 -0.14010662226E+02 -0.55775466195E+01  0.39420573469E+02  0.41800000000E+01 0. -1.
        -11    1    1    2    0    0 -0.97841535359E+01 -0.63011682006E+02  0.71056673753E+02  0.95473832092E+02  0.00000000000E+00 0.  1.
         11    1    1    2    0    0 -0.62744592483E+02 -0.20697818917E+02  0.48403922120E+01  0.66247362141E+02  0.00000000000E+00 0. -1.
</event>
<event>
 7    1  0.6992302E-006  0.1635517E+03  0.7561462E-02  0.1184744E+00
          1   -1    0    0  501    0  0.00000000000E+00  0.00000000000E+00  0.62789406637E+03  0.62789406637E+03  0.00000000000E+00 0. -1.
         -1   -1    0    0    0  501 -0.00000000000E+00 -0.00000000000E+00 -0.63679444324E+02  0.63679444324E+02  0.00000000000E+00 0.  1.
         23    2    1    2    0    0 -0.11968804542E+03  0.86420823383E+02  0.15870424336E+03  0.25025574513E+03  0.12508842543E+03 0.  0.
          5    1    3    3  502    0 -0.12363888486E+03  0.80585943167E+02  0.73986597478E+02  0.16514283845E+03  0.41800000000E+01 0.  1.
         -5    1    3    3    0  502  0.39508394352E+01  0.58348802163E+01  0.84717645880E+02  0.85112906676E+02  0.41800000000E+01 0.  1.
        -11    1    1    2    0    0  0.11173963813E+03 -0.31945901043E+02  0.23547316962E+03  0.26259074800E+03  0.00000000000E+00 0.  1.
         11    1    1    2    0    0  0.79484072925E+01 -0.54474922340E+02  0.17003720907E+03  0.17872701757E+03  0.00000000000E+00 0. -1.
</event>
<event>
 7    1  0.6992302E-006  0.1058256E+03  0.7561462E-02  0.1268501E+00
          1   -1    0    0  501    0  0.00000000000E+00  0.00000000000E+00  0.22250560194E+03  0.22250560194E+03  0.00000000000E+00 0. -1.
         -1   -1    0    0    0  501 -0.00000000000E+00 -0.00000000000E+00 -0.12392306305E+03  0.12392306305E+03  0.00000000000E+00 0.  1.
         23    2    1    2    0    0  0.64336577081E+01 -0.65959165449E+02 -0.59862785710E+02  0.15369809240E+03  0.12509015563E+03 0.  0.
          5    1    3    3  502    0  0.35525628673E+02 -0.66968181779E+02  0.11243121067E+02  0.76750816508E+02  0.41800000000E+01 0. -1.
         -5    1    3    3    0  502 -0.29091970965E+02  0.10090163294E+01 -0.71105906777E+02  0.76947275892E+02  0.41800000000E+01 0. -1.
        -11    1    1    2    0    0 -0.81071022498E+00  0.85746087911E+02  0.10565198972E+03  0.13607127461E+03  0.00000000000E+00 0.  1.
         11    1    1    2    0    0 -0.56229474831E+01 -0.19786922462E+02  0.52793334881E+02  0.56659297973E+02  0.00000000000E+00 0. -1.
</event>
<event>
 7    1  0.6992302E-006  0.9292316E+02  0.7561462E-02  0.1295923E+00
         -2   -1    0    0    0  501 -0.00000000000E+00  0.00000000000E+00  0.67124743240E+02  0.67124743240E+02  0.00000000000E+00 0.  1.
          2   -1    0    0  501    0  0.00000000000E+00 -0.00000000000E+00 -0.24571758958E+03  0.24571758958E+03  0.00000000000E+00 0. -1.
         23    2    1    2    0    0 -0.27007893150E+02  0.58669940801E+02 -0.77426292592E+02  0.16066837898E+03  0.12509160233E+03 0.  0.
          5    1    3    3  502    0  0.67915762185E+01  0.11131794658E+02  0.32991793775E+02  0.35720767297E+02  0.41800000000E+01 0. -1.
         -5    1    3    3    0  502 -0.33799469369E+02  0.47538146143E+02 -0.11041808637E+03  0.12494761168E+03  0.41800000000E+01 0. -1.
        -11    1    1    2    0    0 -0.26130318783E+02 -0.54417435129E+02 -0.54169896750E+02  0.81107512104E+02  0.00000000000E+00 0.  1.
         11    1    1    2    0    0  0.53138211933E+02 -0.42525056724E+01 -0.46996656994E+02  0.71066441733E+02  0.00000000000E+00 0. -1.
</event>
<event>
 7    1  0.6992302E-006  0.1974375E+03  0.7561462E-02  0.1151919E+00
         -1   -1    0    0    0  501 -0.00000000000E+00  0.00000000000E+00  0.19718251740E+03  0.19718251740E+03  0.00000000000E+00 0.  1.
          1   -1    0    0  501    0  0.00000000000E+00 -0.00000000000E+00 -0.31165719937E+03  0.31165719937E+03  0.00000000000E+00 0. -1.
         23    2    1    2    0    0  0.16032536475E+03  0.81065104396E+02  0.76431038051E+02  0.23187416375E+03  0.12509256774E+03 0.  0.
          5    1    3    3  502    0 -0.95975606331E+01  0.29332055979E+02  0.39676161811E+02  0.50439596491E+02  0.41800000000E+01 0. -1.
         -5    1    3    3    0  502  0.16992292539E+03  0.51733048417E+02  0.36754876239E+02  0.18143456726E+03  0.41800000000E+01 0. -1.
        -11    1    1    2    0    0 -0.15095451112E+03 -0.58980592262E+02 -0.19398664017E+03  0.25277814632E+03  0.00000000000E+00 0.  1.
         11    1    1    2    0    0 -0.93708536312E+01 -0.22084512134E+02  0.30809201510E+01  0.24187406702E+02  0.00000000000E+00 0. -1.
</event>
<event>
 7    1  0.6992302E-006  0.1475376E+03  0.7561462E-02  0.1203532E+00
         -1   -1    0    0    0  501 -0.00000000000E+00  0.00000000000E+00  0.13010822665E+03  0.13010822665E+03  0.00000000000E+00 0.  1.
          1   -1    0    0  501    0  0.00000000000E+00 -0.00000000000E+00 -0.18820548804E+03  0.18820548804E+03  0.00000000000E+00 0. -1.
         23    2    1    2    0    0 -0.44128844018E+02 -0.10334302730E+03 -0.34135370406E+02  0.17157739522E+03  0.12508574208E+03 0.  0.
          5    1    3    3  502    0 -0.45325181432E+02  0.69797527338E+01  0.18045593271E+02  0.49459123088E+02  0.41800000000E+01 0.  1.
         -5    1    3    3    0  502  0.11963374141E+01 -0.11032278004E+03 -0.52180963677E+02  0.12211827213E+03  0.41800000000E+01 0.  1.
        -11    1    1    2    0    0  0.68204143346E+02  0.79233204713E+02  0.91473405466E+00  0.10454923547E+03  0.00000000000E+00 0.  1.
         11    1    1    2    0    0 -0.24075299328E+02  0.24109822591E+02 -0.24876625036E+02  0.42187083998E+02  0.00000000000E+00 0. -1.
</event>
<event>
 7    1  0.6992302E-006  0.7169791E+02  0.7561462E-02  0.1354413E+00
          2   -1    0    0  501    0  0.00000000000E+00  0.00000000000E+00  0.61653740017E+02  0.61653740017E+02  0.00000000000E+00 0.  1.
         -2   -1    0    0    0  501 -0.00000000000E+00 -0.00000000000E+00 -0.21678722613E+03  0.21678722613E+03  0.00000000000E+00 0. -1.
         23    2    1    2    0    0  0.19713429889E+02 -0.34755420058E+02 -0.97534725344E+02  0.16357621682E+03  0.12509035742E+03 0.  0.
          5    1    3    3  502    0  0.54187192992E+02 -0.32351857271E+02 -0.10976272932E+03  0.12668158391E+03  0.41800000000E+01 0.  1.
         -5    1    3    3    0  502 -0.34473763103E+02 -0.24035627865E+01  0.12228003978E+02  0.36894632914E+02  0.41800000000E+01 0.  1.
        -11    1    1    2    0    0 -0.22162641090E+02  0.18414337636E+02  0.20290779492E+02  0.35241824911E+02  0.00000000000E+00 0.  1.
         11    1    1    2    0    0  0.24492112007E+01  0.16341082422E+02 -0.77889540262E+02  0.79622924415E+02  0.00000000000E+00 0. -1.
</event>
<event>
 7    1  0.6992302E-006  0.1003514E+03  0.7561462E-02  0.1279559E+00
         -1   -1    0    0    0  501 -0.00000000000E+00  0.00000000000E+00  0.35507082315E+02  0.35507082315E+02  0.00000000000E+00 0.  1.
          1   -1    0    0  501    0  0.00000000000E+00 -0.00000000000E+00 -0.35265588392E+03  0.35265588392E+03  0.00000000000E+00 0. -1.
         23    2    1    2    0    0 -0.10693465563E+02 -0.20918737046E+02 -0.15218537584E+03  0.19839336091E+03  0.12509034043E+03 0.  0.
          5    1    3    3  502    0 -0.44190437149E+02  0.28064877748E+02 -0.11946857370E+03  0.13050151187E+03  0.41800000000E+01 0.  1.
         -5    1    3    3    0  502  0.33496971586E+02 -0.48983614794E+02 -0.32716802141E+02  0.67891849040E+02  0.41800000000E+01 0.  1.
        -11    1    1    2    0    0  0.36222764336E+02  0.42091305925E+02 -0.71083789332E+02  0.90203502129E+02  0.00000000000E+00 0.  1.
         11    1    1    2    0    0 -0.25529298774E+02 -0.21172568879E+02 -0.93879636435E+02  0.99566103198E+02  0.00000000000E+00 0. -1.
</event>
<event>
 7    1  0.6992302E-006  0.8352495E+02  0.7561462E-02  0.1319336E+00
          2   -1    0    0  501    0  0.00000000000E+00  0.00000000000E+00  0.51068880319E+03  0.51068880319E+03  0.00000000000E+00 0. -1.
         -2   -1    0    0    0  501 -0.00000000000E+00 -0.00000000000E+00 -0.29504895369E+02  0.29504895369E+02  0.00000000000E+00 0.  1.
         23    2    1    2    0    0 -0.99319532683E+01  0.26278658580E+02  0.15400436255E+03  0.19137960984E+03  0.11008905388E+03 0.  0.
          5    1    3    3  502    0 -0.36791765558E+01  0.44203111931E+02  0.16370202092E+03  0.16965634529E+03  0.41800000000E+01 0. -1.
         -5    1    3    3    0  502 -0.62527767125E+01 -0.17924453351E+02 -0.96976583704E+01  0.21723264544E+02  0.41800000000E+01 0.  1.
        -11    1    1    2    0    0  0.19093403552E+02  0.35658115192E+02  0.22774886370E+03  0.23131278424E+03  0.00000000000E+00 0.  1.
         11    1    1    2    0    0 -0.91614502833E+01 -0.61936773772E+02  0.99430681571E+02  0.11750130448E+03  0.00000000000E+00 0. -1.
</event>
<event>
 7    1  0.6992302E-006  0.1093720E+03  0.7561462E-02  0.1261737E+00
         -2   -1    0    0    0  501 -0.00000000000E+00  0.00000000000E+00  0.30783775230E+02  0.30783775230E+02  0.00000000000E+00 0. -1.
          2   -1    0    0  501    0  0.00000000000E+00 -0.00000000000E+00 -0.51970954330E+03  0.51970954330E+03  0.00000000000E+00 0.  1.
         23    2    1    2    0    0  0.24648154278E+01 -0.59919333747E+02 -0.21192075796E+03  0.25328521151E+03  0.12508632557E+03 0.  0.
          5    1    3    3  502    0 -0.15776527415E+02  0.30260908420E+02 -0.18470065939E+02  0.39028670634E+02  0.41800000000E+01 0.  1.
         -5    1    3    3    0  502  0.18241342843E+02 -0.90180242167E+02 -0.19345069202E+03  0.21425654088E+03  0.41800000000E+01 0.  1.
        -11    1    1    2    0    0  0.31854398025E+02  0.44276653104E+02 -0.23277750610E+03  0.23908260504E+03  0.00000000000E+00 0.  1.
         11    1    1    2    0    0 -0.34319213452E+02  0.15642680643E+02 -0.44227504008E+02  0.58125501980E+02  0.00000000000E+00 0. -1.
</event>
<event>
 7    1  0.8198871E-006  0.2549171E+03  0.7561462E-02  0.1110236E+00
         -2   -1    0    0    0  501 -0.00000000000E+00  0.00000000000E+00  0.40247775481E+03  0.40247775481E+03  0.00000000000E+00 0.  1.
          2   -1    0    0  501    0  0.00000000000E+00 -0.00000000000E+00 -0.18224564357E+03  0.18224564357E+03  0.00000000000E+00 0. -1.
         23    2    1    2    0    0 -0.66781705888E+02  0.23235429208E+03  0.17354454219E+03  0.32282147970E+03  0.12509071248E+03 0.  0.
          5    1    3    3  502    0  0.20590381761E+02  0.14112639971E+02 -0.71371747131E+01  0.26297187890E+02  0.41800000000E+01 0. -1.
         -5    1    3    3    0  502 -0.87372087649E+02  0.21824165210E+03  0.18068171690E+03  0.29652429181E+03  0.41800000000E+01 0. -1.
        -11    1    1    2    0    0 -0.10609508150E+02 -0.53236697567E+02 -0.16613452995E+02  0.56768956759E+02  0.00000000000E+00 0. -1.
         11    1    1    2    0    0  0.77391214038E+02 -0.17911759451E+03  0.63301022047E+02  0.20513296192E+03  0.00000000000E+00 0.  1.
</event>
<event>
 7    1  0.6992302E-006  0.7908526E+02  0.7561462E-02  0.1331668E+00
          1   -1    0    0  501    0  0.00000000000E+00  0.00000000000E+00  0.23233205762E+03  0.23233205762E+03  0.00000000000E+00 0. -1.
         -1   -1    0    0    0  501 -0.00000000000E+00 -0.00000000000E+00 -0.66172738631E+02  0.66172738631E+02  0.00000000000E+00 0.  1.
         23    2    1    2    0    0  0.86723844562E+01  0.60524013451E+02  0.80109223669E+02  0.16063888135E+03  0.12509594729E+03 0.  0.
          5    1    3    3  502    0  0.48947541355E+01  0.73163405038E+01  0.10226478252E+03  0.10272801760E+03  0.41800000000E+01 0.  1.
         -5    1    3    3    0  502  0.37776303207E+01  0.53207672947E+02 -0.22155558854E+02  0.57910863743E+02  0.41800000000E+01 0.  1.
        -11    1    1    2    0    0 -0.40859250225E+02 -0.35988633088E+02  0.80253664143E+02  0.96980980861E+02  0.00000000000E+00 0. -1.
         11    1    1    2    0    0  0.32186865769E+02 -0.24535380363E+02  0.57964311810E+01  0.40884934047E+02  0.00000000000E+00 0.  1.
</event>
<event>
 7    1  0.6992302E-006  0.1350036E+03  0.7561462E-02  0.1220215E+00
          2   -1    0    0  501    0  0.00000000000E+00  0.00000000000E+00  0.30833677005E+03  0.30833677005E+03  0.00000000000E+00 0.  1.
         -2   -1    0    0    0  501 -0.00000000000E+00 -0.00000000000E+00 -0.83137288819E+02  0.83137288819E+02  0.00000000000E+00 0. -1.
         23    2    1    2    0    0 -0.71045936017E+02  0.67565320648E+02  0.38554260274E+02  0.16359408535E+03  0.12515588759E+03 0.  0.
          5    1    3    3  502    0 -0.90469940169E+02  0.83516390101E+02  0.74990220105E+01  0.12342408687E+03  0.41800000000E+01 0.  1.
         -5    1    3    3    0  502  0.19424004152E+02 -0.15951069453E+02  0.31055238263E+02  0.40169998476E+02  0.41800000000E+01 0.  1.
        -11    1    1    2    0    0  0.74329178148E+02 -0.24677800931E+02  0.75847174562E+02  0.10902575142E+03  0.00000000000E+00 0. -1.
         11    1    1    2    0    0 -0.32832421311E+01 -0.42887519717E+02  0.11079804639E+03  0.11885422210E+03  0.00000000000E+00 0.  1.
</event>
<event>
 7    1  0.6992302E-006  0.2616447E+03  0.7561462E-02  0.1106159E+00
         -2   -1    0    0    0  501 -0.00000000000E+00  0.00000000000E+00  0.59397878572E+02  0.59397878572E+02  0.00000000000E+00 0.  1.
          2   -1    0    0  501    0  0.00000000000E+00 -0.00000000000E+00 -0.13253181112E+04  0.13253181112E+04  0.00000000000E+00 0. -1.
         23    2    1    2    0    0  0.24651288414E+03 -0.71478659903E+02 -0.72598592511E+03  0.78011634105E+03  0.12509253073E+03 0.  0.
          5    1    3    3  502    0  0.15544023081E+03 -0.56454021194E+02 -0.60885420620E+03  0.63092760176E+03  0.41800000000E+01 0. -1.
         -5    1    3    3    0  502  0.91072653337E+02 -0.15024638710E+02 -0.11713171891E+03  0.14918873928E+03  0.41800000000E+01 0. -1.
        -11    1    1    2    0    0 -0.45499047066E+02  0.42705290272E+02 -0.77167355034E+02  0.99240645826E+02  0.00000000000E+00 0.  1.
         11    1    1    2    0    0 -0.20101383708E+03  0.28773369631E+02 -0.46276695247E+03  0.50535900288E+03  0.00000000000E+00 0. -1.
</event>
<event>
 7    1  0.6992302E-006  0.1037908E+03  0.7561462E-02  0.1272521E+00
         -2   -1    0    0    0  501 -0.00000000000E+00  0.00000000000E+00  0.78716291470E+03  0.78716291470E+03  0.00000000000E+00 0.  1.
          2   -1    0    0  501    0  0.00000000000E+00 -0.00000000000E+00 -0.18807358041E+02  0.18807358041E+02  0.00000000000E+00 0. -1.
         23    2    1    2    0    0  0.16778583021E+02  0.49533810544E+02  0.52949665667E+03  0.54658067044E+03  0.12509436693E+03 0.  0.
          5    1    3    3  502    0 -0.16389166767E+01  0.79244820969E+02  0.47578078221E+03  0.48235593997E+03  0.41800000000E+01 0.  1.
         -5    1    3    3    0  502  0.18417499698E+02 -0.29711010425E+02  0.53715874456E+02  0.64224730471E+02  0.41800000000E+01 0.  1.
        -11    1    1    2    0    0 -0.32339934736E+02  0.80732592730E+01  0.14003543725E+03  0.14394781200E+03  0.00000000000E+00 0.  1.
         11    1    1    2    0    0  0.15561351715E+02 -0.57607069816E+02  0.98823462747E+02  0.11544179031E+03  0.00000000000E+00 0. -1.
</event>
<event>
 7    1  0.6992302E-006  0.1102314E+03  0.7561462E-02  0.1260142E+00
         -1   -1    0    0    0  501 -0.00000000000E+00  0.00000000000E+00  0.55860197251E+03  0.55860197251E+03  0.00000000000E+00 0.  1.
          1   -1    0    0  501    0  0.00000000000E+00 -0.00000000000E+00 -0.31385435329E+02  0.31385435329E+02  0.00000000000E+00 0. -1.
         23    2    1    2    0    0 -0.29506174619E+02 -0.54170948003E+01  0.39455360349E+03  0.41499229466E+03  0.12508436889E+03 0.  0.
          5    1    3    3  502    0 -0.58056717240E+02  0.35614380769E+02  0.30308869042E+03  0.31067538234E+03  0.41800000000E+01 0. -1.
         -5    1    3    3    0  502  0.28550542621E+02 -0.41031475569E+02  0.91464913077E+02  0.10431691232E+03  0.41800000000E+01 0. -1.
        -11    1    1    2    0    0  0.57539394009E+02  0.29899425178E+02  0.42708992936E+02  0.77645447815E+02  0.00000000000E+00 0. -1.
         11    1    1    2    0    0 -0.28033219390E+02 -0.24482330377E+02  0.89953940756E+02  0.97349665369E+02  0.00000000000E+00 0.  1.
</event>
<event>
 6    1  0.6992302E-006  0.9341892E+02  0.7561462E-02  0.1294777E+00
         -2   -1    0    0    0  501 -0.00000000000E+00  0.00000000000E+00  0.16851882910E+02  0.16851882910E+02  0.00000000000E+00 0.  1.
          2   -1    0    0  501    0  0.00000000000E+00 -0.00000000000E+00 -0.10995564432E+04  0.10995564432E+04  0.00000000000E+00 0. -1.
          5    1    1    2  502    0 -0.54897532177E+02 -0.40477705129E+02 -0.73166108761E+03  0.73484529200E+03  0.41800000000E+01 0. -1.
         -5    1    1    2    0  502 -0.27365471726E+02  0.13319318416E+02 -0.15017571030E+02  0.34194635917E+02  0.41800000000E+01 0.  1.
        -11    1    1    2    0    0  0.71391654995E+02  0.28415216366E+02 -0.30222900856E+03  0.31184381754E+03  0.00000000000E+00 0. -1.
         11    1    1    2    0    0  0.10871348909E+02 -0.12568296529E+01 -0.33796893074E+02  0.35524580636E+02  0.00000000000E+00 0.  1.
</event>
<event>
 7    1  0.6992302E-006  0.1579237E+03  0.7561462E-02  0.1191061E+00
         -2   -1    0    0    0  501 -0.00000000000E+00  0.00000000000E+00  0.14178430098E+04  0.14178430098E+04  0.00000000000E+00 0. -1.
          2   -1    0    0  501    0  0.00000000000E+00 -0.00000000000E+00 -0.22834552942E+02  0.22834552942E+02  0.00000000000E+00 0.  1.
         23    2    1    2    0    0  0.12602458325E+02 -0.13370815501E+03  0.94101673568E+03  0.95874766247E+03  0.12509152966E+03 0.  0.
          5    1    3    3  502    0  0.45663410379E+02 -0.14019875544E+03  0.70184306303E+03  0.71717640479E+03  0.41800000000E+01 0.  1.
         -5    1    3    3    0  502 -0.33060952054E+02  0.64906004344E+01  0.23917367265E+03  0.24157125768E+03  0.41800000000E+01 0.  1.
        -11    1    1    2    0    0 -0.12632735557E+02  0.11666552513E+03  0.44913044153E+03  0.46420747976E+03  0.00000000000E+00 0. -1.
         11    1    1    2    0    0  0.30277232711E-01  0.17042629879E+02  0.48612796920E+01  0.17722420550E+02  0.00000000000E+00 0.  1.
</event>
<event>
 7    1  0.6992302E-006  0.1000624E+03  0.7561462E-02  0.1280165E+00
          2   -1    0    0  501    0  0.00000000000E+00  0.00000000000E+00  0.45310431507E+03  0.45310431507E+03  0.00000000000E+00 0. -1.
         -2   -1    0    0    0  501 -0.00000000000E+00 -0.00000000000E+00 -0.38469637623E+02  0.38469637623E+02  0.00000000000E+00 0.  1.
         23    2    1    2    0    0 -0.20995704107E+02  0.17836511620E+02  0.71189870703E+02  0.13506813174E+03  0.11142908858E+03 0.  0.
          5    1    3    3  502    0 -0.31497965935E+02  0.61710385296E+02  0.45328244850E+02  0.82900034334E+02  0.41800000000E+01 0. -1.
         -5    1    3    3    0  502  0.10502261828E+02 -0.43873873676E+02  0.25861625854E+02  0.52168097403E+02  0.41800000000E+01 0.  1.
        -11    1    1    2    0    0  0.51171386884E+02 -0.17246994252E+01  0.27784072861E+03  0.28251894786E+03  0.00000000000E+00 0. -1.
         11    1    1    2    0    0 -0.30175682777E+02 -0.16111812195E+02  0.65604078132E+02  0.73986873098E+02  0.00000000000E+00 0.  1.
</event>
<event>
 7    1  0.6992302E-006  0.9014989E+02  0.7561462E-02  0.1302489E+00
         -2   -1    0    0    0  501 -0.00000000000E+00  0.00000000000E+00  0.10000599224E+03  0.10000599224E+03  0.00000000000E+00 0.  1.
          2   -1    0    0  501    0  0.00000000000E+00 -0.00000000000E+00 -0.12911250139E+03  0.12911250139E+03  0.00000000000E+00 0. -1.
         23    2    1    2    0    0  0.12817608321E+02  0.47935408577E+01  0.65710553737E+01  0.12600765284E+03  0.12508989043E+03 0.  0.
          5    1    3    3  502    0  0.49528327638E+02 -0.38564873650E+02  0.22571400242E+02  0.66837453775E+02  0.41800000000E+01 0.  1.
         -5    1    3    3    0  502 -0.36710719317E+02  0.43358414508E+02 -0.16000344869E+02  0.59170199064E+02  0.41800000000E+01 0.  1.
        -11    1    1    2    0    0  0.13384473452E+02 -0.24310246710E+02 -0.57482640875E+02  0.63830919050E+02  0.00000000000E+00 0. -1.
         11    1    1    2    0    0 -0.26202081773E+02  0.19516705853E+02  0.21805076352E+02  0.39279921732E+02  0.00000000000E+00 0.  1.
</event>
<event>
 7    1  0.6992302E-006  0.1096104E+03  0.7561462E-02  0.1261293E+00
         -3   -1    0    0    0  501 -0.00000000000E+00  0.00000000000E+00  0.36813728501E+03  0.36813728501E+03  0.00000000000E+00 0.  1.
          3   -1    0    0  501    0  0.00000000000E+00 -0.00000000000E+00 -0.45312361438E+02  0.45312361438E+02  0.00000000000E+00 0. -1.
         23    2    1    2    0    0 -0.10311644247E+02 -0.70946508788E+02  0.18493930929E+03  0.23449663241E+03  0.12508551225E+03 0.  0.
          5    1    3    3  502    0 -0.47746862108E+02 -0.43909050961E+02  0.17553744108E+03  0.18718609248E+03  0.41800000000E+01 0. -1.
         -5    1    3    3    0  502  0.37435217861E+02 -0.27037457827E+02  0.94018682033E+01  0.47310539922E+02  0.41800000000E+01 0. -1.
        -11    1    1    2    0    0 -0.27354289903E+02 -0.19450495869E+00  0.12793442453E+02  0.30198794315E+02  0.00000000000E+00 0. -1.
         11    1    1    2    0    0  0.37665934150E+02  0.71141013747E+02  0.12509217183E+03  0.14875421972E+03  0.00000000000E+00 0.  1.
</event>
<event>
 7    1  0.6992302E-006  0.1015836E+03  0.7561462E-02  0.1277001E+00
          2   -1    0    0  501    0  0.00000000000E+00  0.00000000000E+00  0.39924233517E+03  0.39924233517E+03  0.00000000000E+00 0. -1.
         -2   -1    0    0    0  501 -0.00000000000E+00 -0.00000000000E+00 -0.36724221036E+02  0.36724221036E+02  0.00000000000E+00 0.  1.
         23    2    1    2    0    0 -0.27313616496E+02 -0.44658351129E+02  0.13349797868E+03  0.18389394187E+03  0.11512979445E+03 0.  0.
          5    1    3    3  502    0 -0.36738801785E+02 -0.65399578560E+02  0.14081493680E+03  0.15960314301E+03  0.41800000000E+01 0. -1.
         -5    1    3    3    0  502  0.94251852890E+01  0.20741227431E+02 -0.73169581167E+01  0.24290798858E+02  0.41800000000E+01 0.  1.
        -11    1    1    2    0    0 -0.17981707149E+02  0.55466991754E+02  0.11585393169E+03  0.12969989381E+03  0.00000000000E+00 0.  1.
         11    1    1    2    0    0  0.45295323645E+02 -0.10808640625E+02  0.11316620376E+03  0.12237272053E+03  0.00000000000E+00 0. -1.
</event>
<event>
 7    1  0.6992302E-006  0.8501652E+02  0.7561462E-02  0.1315389E+00
         -1   -1    0    0    0  501 -0.00000000000E+00  0.00000000000E+00  0.12224066128E+03  0.12224066128E+03  0.00000000000E+00 0.  1.
          1   -1    0    0  501    0  0.00000000000E+00 -0.00000000000E+00 -0.15707215700E+03  0.15707215700E+03  0.00000000000E+00 0. -1.
         23    2    1    2    0    0  0.35371162324E+02 -0.10623929650E+02  0.60156184820E+02  0.14363194414E+03  0.12508949517E+03 0.  0.
          5    1    3    3  502    0 -0.54636103983E+01 -0.32207095094E+02  0.84902445867E+02  0.91066161263E+02  0.41800000000E+01 0. -1.
         -5    1    3    3    0  502  0.40834772723E+02  0.21583165444E+02 -0.24746261047E+02  0.52565782879E+02  0.41800000000E+01 0. -1.
        -11    1    1    2    0    0 -0.62598343646E+02  0.41445657322E+01 -0.41220798174E+02  0.75065866107E+02  0.00000000000E+00 0.  1.
         11    1    1    2    0    0  0.27227181322E+02  0.64793639180E+01 -0.53766882370E+02  0.60615008037E+02  0.00000000000E+00 0. -1.
</event>
<event>
 7    1  0.6992302E-006  0.2212852E+03  0.7561462E-02  0.1132929E+00
         -2   -1    0    0    0  501 -0.00000000000E+00  0.00000000000E+00  0.75540654622E+02  0.75540654622E+02  0.00000000000E+00 0.  1.
          2   -1    0    0  501    0  0.00000000000E+00 -0.00000000000E+00 -0.66054110012E+03  0.66054110012E+03  0.00000000000E+00 0. -1.
         23    2    1    2    0    0  0.89173670839E+02 -0.17353853461E+03 -0.32873811935E+03  0.40222529762E+03  0.12509545301E+03 0.  0.
          5    1    3    3  502    0  0.64721235295E+02 -0.13005913606E+02 -0.66805234147E+02  0.94012785280E+02  0.41800000000E+01 0.  1.
         -5    1    3    3    0  502  0.24452435544E+02 -0.16053262100E+03 -0.26193288521E+03  0.30821251234E+03  0.41800000000E+01 0.  1.
        -11    1    1    2    0    0 -0.66455019439E+02  0.37993378124E+02 -0.91980875952E+02  0.11966723834E+03  0.00000000000E+00 0. -1.
         11    1    1    2    0    0 -0.22718651400E+02  0.13554515648E+03 -0.16428145020E+03  0.21418921879E+03  0.00000000000E+00 0.  1.
</event>
<event>
 7    1  0.6992302E-006  0.1122148E+03  0.7561462E-02  0.1256522E+00
          2   -1    0    0  501    0  0.00000000000E+00  0.00000000000E+00  0.50203327816E+02  0.50203327816E+02  0.00000000000E+00 0. -1.
         -2   -1    0    0    0  501 -0.00000000000E+00 -0.00000000000E+00 -0.10300486705E+04  0.10300486705E+04  0.00000000000E+00 0.  1.
         23    2    1    2    0    0  0.62770449664E+02  0.88238583584E+00 -0.95681575084E+03  0.96699775221E+03  0.12508942313E+03 0.  0.
          5    1    3    3  502    0  0.44638747071E+02  0.57640892301E+02 -0.67392891789E+03  0.67787369692E+03  0.41800000000E+01 0. -1.
         -5    1    3    3    0  502  0.18131702593E+02 -0.56758506465E+02 -0.28288683295E+03  0.28912405530E+03  0.41800000000E+01 0. -1.
        -11    1    1    2    0    0 -0.67963858274E+02 -0.20812298718E+02  0.12516438488E+02  0.72172702886E+02  0.00000000000E+00 0. -1.
         11    1    1    2    0    0  0.51934086100E+01  0.19929912882E+02 -0.35546030330E+02  0.41081543212E+02  0.00000000000E+00 0.  1.
</event>
<event>
 7    1  0.6992302E-006  0.1063763E+03  0.7561462E-02  0.1267432E+00
         -1   -1    0    0    0  501 -0.00000000000E+00  0.00000000000E+00  0.62400223571E+03  0.62400223571E+03  0.00000000000E+00 0.  1.
          1   -1    0    0  501    0  0.00000000000E+00 -0.00000000000E+00 -0.26403029663E+02  0.26403029663E+02  0.00000000000E+00 0. -1.
         23    2    1    2    0    0 -0.14988063663E+02  0.64816686234E+02  0.37069990698E+03  0.39685408133E+03  0.12509554733E+03 0.  0.
          5    1    3    3  502    0  0.37660086633E+02  0.29841636785E+02  0.48183031420E+02  0.68175379192E+02  0.41800000000E+01 0.  1.
         -5    1    3    3    0  502 -0.52648150295E+02  0.34975049449E+02  0.32251687556E+03  0.32867870213E+03  0.41800000000E+01 0.  1.
        -11    1    1    2    0    0  0.32067823327E+02 -0.74806094446E+02  0.12104569156E+03  0.14586417143E+03  0.00000000000E+00 0. -1.
         11    1    1    2    0    0 -0.17079759664E+02  0.99894082119E+01  0.10585360750E+03  0.10768701262E+03  0.00000000000E+00 0.  1.
</event>
<event>
 7    1  0.6992302E-006  0.9385082E+02  0.7561462E-02  0.1293785E+00
          2   -1    0    0  501    0  0.00000000000E+00  0.00000000000E+00  0.18165832107E+03  0.18165832107E+03  0.00000000000E+00 0. -1.
         -2   -1    0    0    0  501 -0.00000000000E+00 -0.00000000000E+00 -0.79301060172E+02  0.79301060172E+02  0.00000000000E+00 0.  1.
         23    2    1    2    0    0 -0.42459807160E+02 -0.26967733985E+02  0.64939257821E+02  0.14964738894E+03  0.12508852828E+03 0.  0.
          5    1    3    3  502    0 -0.61004642232E+02 -0.63888390296E+02  0.24693379406E+02  0.91817907703E+02  0.41800000000E+01 0.  1.
         -5    1    3    3    0  502  0.18544835072E+02  0.36920656310E+02  0.40245878415E+02  0.57829481232E+02  0.41800000000E+01 0.  1.
        -11    1    1    2    0    0 -0.11317848388E+01  0.11392670009E+02  0.59097563554E+02  0.60196311223E+02  0.00000000000E+00 0. -1.
         11    1    1    2    0    0  0.43591591999E+02  0.15575063976E+02 -0.21679560472E+02  0.51115681089E+02  0.00000000000E+00 0.  1.
</event>
<event>
 7    1  0.6992302E-006  0.8374076E+02  0.7561462E-02  0.1318759E+00
          2   -1    0    0  501    0  0.00000000000E+00  0.00000000000E+00  0.18954731600E+03  0.18954731600E+03  0.00000000000E+00 0. -1.
         -2   -1    0    0    0  501 -0.00000000000E+00 -0.00000000000E+00 -0.92969661269E+02  0.92969661269E+02  0.00000000000E+00 0.  1.
         23    2    1    2    0    0  0.30907834427E+02 -0.65582332117E+02  0.29457656121E+02  0.14755310009E+03  0.12509127598E+03 0.  0.
          5    1    3    3  502    0  0.21803001786E+02 -0.64477381868E+02  0.74733141878E+02  0.10116925696E+03  0.41800000000E+01 0.  1.
         -5    1    3    3    0  502  0.91048326419E+01 -0.11049502489E+01 -0.45275485757E+02  0.46383843125E+02  0.41800000000E+01 0.  1.
        -11    1    1    2    0    0 -0.43074868222E+01  0.62253393043E+02 -0.30715730184E+00  0.62402994589E+02  0.00000000000E+00 0.  1.
         11    1    1    2    0    0 -0.26600347605E+02  0.33289390744E+01  0.67427155909E+02  0.72560882589E+02  0.00000000000E+00 0. -1.
</event>
<event>
 7    1  0.6992302E-006  0.1375556E+03  0.7561462E-02  0.1216656E+00
          2   -1    0    0  501    0  0.00000000000E+00  0.00000000000E+00  0.12886922590E+04  0.12886922590E+04  0.00000000000E+00 0. -1.
         -2   -1    0    0    0  501 -0.00000000000E+00 -0.00000000000E+00 -0.18415721703E+02  0.18415721703E+02  0.00000000000E+00 0.  1.
         23    2    1    2    0    0  0.72478615069E+02 -0.76653772170E+02  0.54469518080E+03  0.56874359674E+03  0.12508992135E+03 0.  0.
          5    1    3    3  502    0 -0.17825146506E+02 -0.36021027030E+02  0.32773961575E+03  0.33022110528E+03  0.41800000000E+01 0. -1.
         -5    1    3    3    0  502  0.90303761576E+02 -0.40632745140E+02  0.21695556504E+03  0.23852249147E+03  0.41800000000E+01 0. -1.
        -11    1    1    2    0    0 -0.27409034309E+02  0.85391938809E+02  0.52419958828E+03  0.53181598954E+03  0.00000000000E+00 0.  1.
         11    1    1    2    0    0 -0.45069580760E+02 -0.87381666386E+01  0.20138176821E+03  0.20654839441E+03  0.00000000000E+00 0. -1.
</event>
<event>
 7    1  0.6992302E-006  0.6341206E+02  0.7561462E-02  0.1384046E+00
          2   -1    0    0  501    0  0.00000000000E+00  0.00000000000E+00  0.53222413065E+03  0.53222413065E+03  0.00000000000E+00 0. -1.
         -2   -1    0    0    0  501 -0.00000000000E+00 -0.00000000000E+00 -0.32131442037E+02  0.32131442037E+02  0.00000000000E+00 0.  1.
         23    2    1    2    0    0 -0.55639077656E+01  0.30862387698E+02  0.13542611111E+03  0.18700587935E+03  0.12509006074E+03 0.  0.
          5    1    3    3  502    0 -0.79098697792E+01  0.33805097637E+02 -0.13858824435E+02  0.37615024669E+02  0.41800000000E+01 0.  1.
         -5    1    3    3    0  502  0.23459620136E+01 -0.29427099388E+01  0.14928493555E+03  0.14939085468E+03  0.41800000000E+01 0.  1.
        -11    1    1    2    0    0  0.31607395436E+02  0.13832462770E+02  0.68485834350E+02  0.76685552611E+02  0.00000000000E+00 0.  1.
         11    1    1    2    0    0 -0.26043487671E+02 -0.44694850468E+02  0.29618074315E+03  0.30066414073E+03  0.00000000000E+00 0. -1.
</event>
<event>
 7    1  0.6992302E-006  0.1018177E+03  0.7561462E-02  0.1276519E+00
          2   -1    0    0  501    0  0.00000000000E+00  0.00000000000E+00  0.43264019651E+02  0.43264019651E+02  0.00000000000E+00 0. -1.
         -2   -1    0    0    0  501 -0.00000000000E+00 -0.00000000000E+00 -0.30237516094E+03  0.30237516094E+03  0.00000000000E+00 0.  1.
         23    2    1    2    0    0 -0.29538752497E+02 -0.19258064632E+02 -0.15915861160E+03  0.20547727103E+03  0.12508410894E+03 0.  0.
          5    1    3    3  502    0 -0.30492901508E+02 -0.63168172649E+02 -0.14144087689E+03  0.15793362256E+03  0.41800000000E+01 0.  1.
         -5    1    3    3    0  502  0.95414901062E+00  0.43910108017E+02 -0.17717734708E+02  0.47543648468E+02  0.41800000000E+01 0.  1.
        -11    1    1    2    0    0  0.51901648867E+02  0.34377948039E+02 -0.93628688858E+02  0.11243645247E+03  0.00000000000E+00 0.  1.
         11    1    1    2    0    0 -0.22362896370E+02 -0.15119883406E+02 -0.63238408276E+01  0.27725457094E+02  0.00000000000E+00 0. -1.
</event>
<event>
 7    1  0.6992302E-006  0.1967204E+03  0.7561462E-02  0.1152536E+00
          1   -1    0    0  501    0  0.00000000000E+00  0.00000000000E+00  0.74953098534E+03  0.74953098534E+03  0.00000000000E+00 0.  1.
         -1   -1    0    0    0  501 -0.00000000000E+00 -0.00000000000E+00 -0.68184958306E+02  0.68184958306E+02  0.00000000000E+00 0. -1.
         23    2    1    2    0    0  0.19398759079E+01 -0.18428070615E+03  0.22812526164E+03  0.31882813157E+03  0.12508837158E+03 0.  0.
          5    1    3    3  502    0 -0.54439546706E+01 -0.90979828073E+02  0.20187294295E+03  0.22153357139E+03  0.41800000000E+01 0.  1.
         -5    1    3    3    0  502  0.73838305785E+01 -0.93300878073E+02  0.26252318690E+02  0.97294560176E+02  0.41800000000E+01 0.  1.
        -11    1    1    2    0    0 -0.45640081949E+02  0.51918586553E+02  0.15126181305E+03  0.16630902801E+03  0.00000000000E+00 0.  1.
         11    1    1    2    0    0  0.43700206042E+02  0.13236211959E+03  0.30195895234E+03  0.33257878407E+03  0.00000000000E+00 0. -1.
</event>
<event>
 7    1  0.6992302E-006  0.1199463E+03  0.7561462E-02  0.1243186E+00
         -1   -1    0    0    0  501 -0.00000000000E+00  0.00000000000E+00  0.22677256695E+02  0.22677256695E+02  0.00000000000E+00 0.  1.
          1   -1    0    0  501    0  0.00000000000E+00 -0.00000000000E+00 -0.77273743308E+03  0.77273743308E+03  0.00000000000E+00 0. -1.
         23    2    1    2    0    0  0.63125235414E+02  0.70845259857E+01 -0.28976873328E+03  0.32194432473E+03  0.12508894270E+03 0.  0.
          5    1    3    3  502    0  0.11323139074E+00  0.56062875273E+02 -0.82798941653E+02  0.10008094696E+03  0.41800000000E+01 0.  1.
         -5    1    3    3    0  502  0.63012004024E+02 -0.48978349288E+02 -0.20696979163E+03  0.22186337777E+03  0.41800000000E+01 0.  1.
        -11    1    1    2    0    0 -0.15009346084E+02 -0.41807130476E+02 -0.11819795711E+03  0.12626905280E+03  0.00000000000E+00 0.  1.
         11    1    1    2    0    0 -0.48115889330E+02  0.34722604490E+02 -0.34209348599E+03  0.34720131225E+03  0.00000000000E+00 0. -1.
</event>
<event>
 7    1  0.6992302E-006  0.9768776E+02  0.7561462E-02  0.1285235E+00
         -2   -1    0    0    0  501 -0.00000000000E+00  0.00000000000E+00  0.50184156114E+02  0.50184156114E+02  0.00000000000E+00 0.  1.
          2   -1    0    0  501    0  0.00000000000E+00 -0.00000000000E+00 -0.24679193815E+03  0.24679193815E+03  0.00000000000E+00 0. -1.
         23    2    1    2    0    0  0.33621957714E+02  0.48101478304E+01 -0.90776501334E+02  0.15824749119E+03  0.12509325205E+03 0.  0.
          5    1    3    3  502    0  0.62200876327E+02  0.29523171218E+02 -0.10963239065E+02  0.69844338821E+02  0.41800000000E+01 0.  1.
         -5    1    3    3    0  502 -0.28578918613E+02 -0.24713023388E+02 -0.79813262269E+02  0.88403152365E+02  0.41800000000E+01 0.  1.
        -11    1    1    2    0    0 -0.17102025360E+02 -0.43269741829E+02 -0.67432816229E+02  0.81926397052E+02  0.00000000000E+00 0.  1.
         11    1    1    2    0    0 -0.16519932354E+02  0.38459593998E+02 -0.38398464471E+02  0.56802206024E+02  0.00000000000E+00 0. -1.
</event>
<event>
 7    1  0.6992302E-006  0.1915993E+03  0.7561462E-02  0.1157027E+00
         -2   -1    0    0    0  501 -0.00000000000E+00  0.00000000000E+00  0.15795083248E+03  0.15795083248E+03  0.00000000000E+00 0.  1.
          2   -1    0    0  501    0  0.00000000000E+00 -0.00000000000E+00 -0.33440304520E+03  0.33440304520E+03  0.00000000000E+00 0. -1.
         23    2    1    2    0    0 -0.51204263710E+02  0.16107852725E+03  0.27141153014E+02  0.21201834167E+03  0.12508783495E+03 0.  0.
          5    1    3    3  502    0  0.16060960660E+01  0.14514704397E+03 -0.97232466743E+01  0.14554125822E+03  0.41800000000E+01 0. -1.
         -5    1    3    3    0  502 -0.52810359776E+02  0.15931483276E+02  0.36864399688E+02  0.66477083445E+02  0.41800000000E+01 0. -1.
        -11    1    1    2    0    0 -0.12476111661E+02 -0.72524713734E+02 -0.40123850769E+02  0.83817724050E+02  0.00000000000E+00 0. -1.
         11    1    1    2    0    0  0.63680375371E+02 -0.88553813516E+02 -0.16346951497E+03  0.19651781196E+03  0.00000000000E+00 0.  1.
</event>
<event>
 7    1  0.6992302E-006  0.1116949E+03  0.7561462E-02  0.1257463E+00
          2   -1    0    0  501    0  0.00000000000E+00  0.00000000000E+00  0.40476194208E+02  0.40476194208E+02  0.00000000000E+00 0. -1.
         -2   -1    0    0    0  501 -0.00000000000E+00 -0.00000000000E+00 -0.49933905602E+03  0.49933905602E+03  0.00000000000E+00 0.  1.
         23    2    1    2    0    0 -0.24506033280E+02 -0.33252363803E+02 -0.40689868145E+03  0.42738019348E+03  0.12402027030E+03 0.  0.
          5    1    3    3  502    0  0.37261675743E+02  0.19824485581E+02 -0.80982680342E+02  0.91417228262E+02  0.41800000000E+01 0. -1.
         -5    1    3    3    0  502 -0.61767709023E+02 -0.53076849384E+02 -0.32591600111E+03  0.33596296522E+03  0.41800000000E+01 0.  1.
        -11    1    1    2    0    0  0.28008279768E+02  0.63278374163E+02 -0.39963440021E+02  0.79910530662E+02  0.00000000000E+00 0. -1.
         11    1    1    2    0    0 -0.35022464888E+01 -0.30026010360E+02 -0.12000740344E+02  0.32524526091E+02  0.00000000000E+00 0.  1.
</event>
<event>
 7    1  0.6992302E-006  0.8967812E+02  0.7561462E-02  0.1303633E+00
         -1   -1    0    0    0  501 -0.00000000000E+00  0.00000000000E+00  0.14539345980E+03  0.14539345980E+03  0.00000000000E+00 0.  1.
          1   -1    0    0  501    0  0.00000000000E+00 -0.00000000000E+00 -0.14131174025E+03  0.14131174025E+03  0.00000000000E+00 0. -1.
         23    2    1    2    0    0  0.37931933844E+02  0.26585223118E+02  0.83790304863E+02  0.15751863415E+03  0.12508276948E+03 0.  0.
          5    1    3    3  502    0  0.46395920944E+02  0.52281055855E+02  0.69203348266E+00  0.70027434567E+02  0.41800000000E+01 0. -1.
         -5    1    3    3    0  502 -0.84639871007E+01 -0.25695832737E+02  0.83098271380E+02  0.87491199581E+02  0.41800000000E+01 0. -1.
        -11    1    1    2    0    0 -0.51175289894E+02 -0.38580765602E+02 -0.88503114762E+02  0.10927116313E+03  0.00000000000E+00 0. -1.
         11    1    1    2    0    0  0.13243356051E+02  0.11995542484E+02  0.87945294559E+01  0.19915402766E+02  0.00000000000E+00 0.  1.
</event>
<event>
 7    1  0.6992302E-006  0.1792404E+03  0.7561462E-02  0.1168540E+00
          1   -1    0    0  501    0  0.00000000000E+00  0.00000000000E+00  0.38021313365E+03  0.38021313365E+03  0.00000000000E+00 0. -1.
         -1   -1    0    0    0  501 -0.00000000000E+00 -0.00000000000E+00 -0.15583868253E+03  0.15583868253E+03  0.00000000000E+00 0.  1.
         23    2    1    2    0    0  0.93513037530E+02  0.13427372642E+03 -0.42435898878E+02  0.21029268908E+03  0.12509231700E+03 0.  0.
          5    1    3    3  502    0  0.53528998058E+02  0.13615026070E+02  0.30957296187E+02  0.63455095581E+02  0.41800000000E+01 0.  1.
         -5    1    3    3    0  502  0.39984039472E+02  0.12065870035E+03 -0.73393195065E+02  0.14683759350E+03  0.41800000000E+01 0.  1.
        -11    1    1    2    0    0 -0.46696652375E+01 -0.59796871292E+02  0.43311719793E+02  0.73982272614E+02  0.00000000000E+00 0.  1.
         11    1    1    2    0    0 -0.88843372292E+02 -0.74476855133E+02  0.22349863021E+03  0.25177685449E+03  0.00000000000E+00 0. -1.
</event>
<event>
 7    1  0.6992302E-006  0.1505355E+03  0.7561462E-02  0.1199816E+00
          2   -1    0    0  501    0  0.00000000000E+00  0.00000000000E+00  0.43277446172E+02  0.43277446172E+02  0.00000000000E+00 0. -1.
         -2   -1    0    0    0  501 -0.00000000000E+00 -0.00000000000E+00 -0.67935078405E+03  0.67935078405E+03  0.00000000000E+00 0.  1.
         23    2    1    2    0    0 -0.12919467543E+03 -0.23659709176E+02 -0.35451293375E+03  0.39821849041E+03  0.12508996727E+03 0.  0.
          5    1    3    3  502    0 -0.13067037525E+03  0.10835643688E+02 -0.33150415690E+03  0.35651737206E+03  0.41800000000E+01 0.  1.
         -5    1    3    3    0  502  0.14756998198E+01 -0.34495352864E+02 -0.23008776851E+02  0.41701118346E+02  0.41800000000E+01 0.  1.
        -11    1    1    2    0    0  0.98352336923E+02  0.38046329674E+01 -0.26766034730E+03  0.28518365824E+03  0.00000000000E+00 0.  1.
         11    1    1    2    0    0  0.30842338505E+02  0.19855076208E+02 -0.13900056828E+02  0.39226081572E+02  0.00000000000E+00 0. -1.
</event>
<event>
 7    1  0.6992302E-006  0.2763322E+03  0.7561462E-02  0.1097709E+00
          2   -1    0    0  501    0  0.00000000000E+00  0.00000000000E+00  0.15661676202E+04  0.15661676202E+04  0.00000000000E+00 0. -1.
         -2   -1    0    0    0  501 -0.00000000000E+00 -0.00000000000E+00 -0.56834659752E+02  0.56834659752E+02  0.00000000000E+00 0.  1.
         23    2    1    2    0    0  0.64160421704E+02 -0.25941168060E+03  0.95240379849E+03  0.99706090796E+03  0.12508588672E+03 0.  0.
          5    1    3    3  502    0  0.62947707517E+02 -0.22061182403E+03  0.59795582935E+03  0.64046907579E+03  0.41800000000E+01 0.  1.
         -5    1    3    3    0  502  0.12127141871E+01 -0.38799856567E+02  0.35444796914E+03  0.35659183217E+03  0.41800000000E+01 0.  1.
        -11    1    1    2    0    0 -0.61735055683E+02  0.64656121906E+02  0.20655572692E+03  0.22507087666E+03  0.00000000000E+00 0.  1.
         11    1    1    2    0    0 -0.24253660207E+01  0.19475555869E+03  0.35037343502E+03  0.40087049531E+03  0.00000000000E+00 0. -1.
</event>
<event>
 7    1  0.6992302E-006  0.1389785E+03  0.7561462E-02  0.1214710E+00
          3   -1    0    0  501    0  0.00000000000E+00  0.00000000000E+00  0.25464670658E+03  0.25464670658E+03  0.00000000000E+00 0. -1.
         -3   -1    0    0    0  501 -0.00000000000E+00 -0.00000000000E+00 -0.89993392892E+02  0.89993392892E+02  0.00000000000E+00 0.  1.
         23    2    1    2    0    0 -0.25977403802E+02  0.93295647455E+02  0.34391428419E+02  0.16189130943E+03  0.12508845821E+03 0.  0.
          5    1    3    3  502    0 -0.42234375899E+02  0.11963874107E+03  0.26676135331E+02  0.12971607251E+03  0.41800000000E+01 0.  1.
         -5    1    3    3    0  502  0.16256972097E+02 -0.26343093614E+02  0.77152930877E+01  0.32175236912E+02  0.41800000000E+01 0.  1.
        -11    1    1    2    0    0 -0.24559700937E+02 -0.29242013269E+02  0.13911876517E+02  0.40642521556E+02  0.00000000000E+00 0.  1.
         11    1    1    2    0    0  0.50537104739E+02 -0.64053634186E+02  0.11635000876E+03  0.14210626849E+03  0.00000000000E+00 0. -1.
</event>
<event>
 7    1  0.6992302E-006  0.1131569E+03  0.7561462E-02  0.1254833E+00
         -3   -1    0    0    0  501 -0.00000000000E+00  0.00000000000E+00  0.34378423543E+03  0.34378423543E+03  0.00000000000E+00 0.  1.
          3   -1    0    0  501    0  0.00000000000E+00 -0.00000000000E+00 -0.42804348075E+02  0.42804348075E+02  0.00000000000E+00 0. -1.
         23    2    1    2    0    0  0.47744027441E+02 -0.21872254177E+02  0.20354295159E+03  0.24461276986E+03  0.12509111230E+03 0.  0.
          5    1    3    3  502    0  0.60043134776E+02  0.36007241952E+02  0.73047070017E+02  0.10126720271E+03  0.41800000000E+01 0.  1.
         -5    1    3    3    0  502 -0.12299107335E+02 -0.57879496129E+02  0.13049588157E+03  0.14334556714E+03  0.41800000000E+01 0.  1.
        -11    1    1    2    0    0  0.14278264741E+02 -0.18112618627E+02  0.47705876888E+02  0.52988550530E+02  0.00000000000E+00 0.  1.
         11    1    1    2    0    0 -0.62022292182E+02  0.39984872804E+02  0.49731058883E+02  0.88987263124E+02  0.00000000000E+00 0. -1.
</event>
<event>
 7    1  0.6992302E-006  0.8234526E+02  0.7561462E-02  0.1322525E+00
         -2   -1    0    0    0  501 -0.00000000000E+00  0.00000000000E+00  0.70249525008E+02  0.70249525008E+02  0.00000000000E+00 0.  1.
          2   -1    0    0  501    0  0.00000000000E+00 -0.00000000000E+00 -0.18492790514E+03  0.18492790514E+03  0.00000000000E+00 0. -1.
         23    2    1    2    0    0  0.26894981884E+02  0.27581592054E+02 -0.64899161080E+02  0.14609492506E+03  0.12509093392E+03 0.  0.
          5    1    3    3  502    0  0.39459157624E+02  0.41815186195E+02 -0.94492135831E+02  0.11068771861E+03  0.41800000000E+01 0. -1.
         -5    1    3    3    0  502 -0.12564175740E+02 -0.14233594141E+02  0.29592974751E+02  0.35407206453E+02  0.41800000000E+01 0. -1.
        -11    1    1    2    0    0 -0.18121218370E+02  0.26892706690E+02  0.32042621438E+01  0.32586247471E+02  0.00000000000E+00 0.  1.
         11    1    1    2    0    0 -0.87737635138E+01 -0.54474298744E+02 -0.52983481201E+02  0.76496257621E+02  0.00000000000E+00 0. -1.
</event>
<event>
 7    1  0.6992302E-006  0.1684149E+03  0.7561462E-02  0.1179511E+00
          2   -1    0    0  501    0  0.00000000000E+00  0.00000000000E+00  0.16213420424E+03  0.16213420424E+03  0.00000000000E+00 0. -1.
         -2   -1    0    0    0  501 -0.00000000000E+00 -0.00000000000E+00 -0.24206163257E+03  0.24206163257E+03  0.00000000000E+00 0.  1.
         23    2    1    2    0    0  0.14373857194E+03  0.25380657381E+02 -0.12042815054E+03  0.22683095649E+03  0.12507753013E+03 0.  0.
          5    1    3    3  502    0  0.92027648827E+02  0.70727356167E+02 -0.10421712424E+03  0.15604527691E+03  0.41800000000E+01 0. -1.
         -5    1    3    3    0  502  0.51710923112E+02 -0.45346698786E+02 -0.16211026301E+02  0.70785679580E+02  0.41800000000E+01 0. -1.
        -11    1    1    2    0    0 -0.90202082506E+02  0.47931694872E+01  0.64918300841E+02  0.11123747546E+03  0.00000000000E+00 0. -1.
         11    1    1    2    0    0 -0.53536489432E+02 -0.30173826868E+02 -0.24417578627E+02  0.66127404868E+02  0.00000000000E+00 0.  1.
</event>
<event>
 6    1  0.6992302E-006  0.1290128E+03  0.7561462E-02  0.1228928E+00
          2   -1    0    0  501    0  0.00000000000E+00  0.00000000000E+00  0.41387402465E+03  0.41387402465E+03  0.00000000000E+00 0. -1.
         -2   -1    0    0    0  501 -0.00000000000E+00 -0.00000000000E+00 -0.89565295985E+02  0.89565295985E+02  0.00000000000E+00 0.  1.
          5    1    1    2  502    0 -0.10170461389E+03 -0.20496778016E+02  0.88779809749E+02  0.13661359162E+03  0.41800000000E+01 0. -1.
         -5    1    1    2    0  502  0.72555842129E+02  0.58717278309E+00 -0.33868984842E+02  0.80182763317E+02  0.41800000000E+01 0.  1.
        -11    1    1    2    0    0 -0.24940852696E+02  0.70000072698E+01  0.25007864604E+02  0.36006104025E+02  0.00000000000E+00 0.  1.
         11    1    1    2    0    0  0.54089624456E+02  0.12909597963E+02  0.24439003915E+03  0.25063686167E+03  0.00000000000E+00 0. -1.
</event>
<event>
 7    1  0.6992302E-006  0.7507777E+02  0.7561462E-02  0.1343630E+00
         -3   -1    0    0    0  501 -0.00000000000E+00  0.00000000000E+00  0.10049680255E+03  0.10049680255E+03  0.00000000000E+00 0.  1.
          3   -1    0    0  501    0  0.00000000000E+00 -0.00000000000E+00 -0.12109996081E+03  0.12109996081E+03  0.00000000000E+00 0. -1.
         23    2    1    2    0    0  0.18595620868E+02  0.12149758010E+02 -0.18555066302E+02  0.12837932778E+03  0.12507416832E+03 0.  0.
          5    1    3    3  502    0  0.30184645761E+02  0.54426253629E+02  0.24291194144E+02  0.66939259309E+02  0.41800000000E+01 0.  1.
         -5    1    3    3    0  502 -0.11589024893E+02 -0.42276495619E+02 -0.42846260447E+02  0.61440068474E+02  0.41800000000E+01 0.  1.
        -11    1    1    2    0    0 -0.54403337705E+01 -0.24862119272E+02 -0.42094647384E+02  0.49190258635E+02  0.00000000000E+00 0. -1.
         11    1    1    2    0    0 -0.13155287098E+02  0.12712361262E+02  0.40046555429E+02  0.44027176939E+02  0.00000000000E+00 0.  1.
</event>
<event>
 7    1  0.6992302E-006  0.1172872E+03  0.7561462E-02  0.1247641E+00
          2   -1    0    0  501    0  0.00000000000E+00  0.00000000000E+00  0.30965106528E+03  0.30965106528E+03  0.00000000000E+00 0. -1.
         -2   -1    0    0    0  501 -0.00000000000E+00 -0.00000000000E+00 -0.63566310274E+02  0.63566310274E+02  0.00000000000E+00 0.  1.
         23    2    1    2    0    0  0.70575249331E+02  0.35419911061E+02  0.82523397901E+02  0.16940028064E+03  0.12510358893E+03 0.  0.
          5    1    3    3  502    0 -0.16653232667E+02  0.20439817244E+02 -0.20396387941E+02  0.33594662199E+02  0.41800000000E+01 0.  1.
         -5    1    3    3    0  502  0.87228481998E+02  0.14980093818E+02  0.10291978584E+03  0.13580561844E+03  0.41800000000E+01 0.  1.
        -11    1    1    2    0    0 -0.41870107720E+02  0.27516470997E+02  0.49576268556E+02  0.70484526674E+02  0.00000000000E+00 0. -1.
         11    1    1    2    0    0 -0.28705141611E+02 -0.62936382058E+02  0.11398508855E+03  0.13333256824E+03  0.00000000000E+00 0.  1.
</event>
<event>
 7    1  0.6992302E-006  0.1122991E+03  0.7561462E-02  0.1256371E+00
          2   -1    0    0  501    0  0.00000000000E+00  0.00000000000E+00  0.11630294732E+03  0.11630294732E+03  0.00000000000E+00 0. -1.
         -2   -1    0    0    0  501 -0.00000000000E+00 -0.00000000000E+00 -0.21254594421E+03  0.21254594421E+03  0.00000000000E+00 0.  1.
         23    2    1    2    0    0  0.58922856678E+02  0.59534411834E+02 -0.13211588720E+03  0.20030213513E+03  0.12510031358E+03 0.  0.
          5    1    3    3  502    0  0.75012131847E+02 -0.25324941929E+01 -0.32805389952E+02  0.82017677735E+02  0.41800000000E+01 0. -1.
         -5    1    3    3    0  502 -0.16089275169E+02  0.62066906027E+02 -0.99310497243E+02  0.11828445740E+03  0.41800000000E+01 0. -1.
        -11    1    1    2    0    0 -0.39931332129E+02 -0.49798045350E+02 -0.21483020926E+02  0.67348918287E+02  0.00000000000E+00 0.  1.
         11    1    1    2    0    0 -0.18991524549E+02 -0.97363664838E+01  0.57355911228E+02  0.61197838113E+02  0.00000000000E+00 0. -1.
</event>
<event>
 7    1  0.6992302E-006  0.1696065E+03  0.7561462E-02  0.1178259E+00
          2   -1    0    0  501    0  0.00000000000E+00  0.00000000000E+00  0.93829354094E+03  0.93829354094E+03  0.00000000000E+00 0. -1.
         -2   -1    0    0    0  501 -0.00000000000E+00 -0.00000000000E+00 -0.40592735331E+02  0.40592735331E+02  0.00000000000E+00 0.  1.
         23    2    1    2    0    0  0.27523863404E+02 -0.13742989108E+03  0.26777640852E+03  0.32710444759E+03  0.12509427107E+03 0.  0.
          5    1    3    3  502    0  0.68274030132E+02 -0.36478835099E+02  0.13129277724E+03  0.15247069999E+03  0.41800000000E+01 0.  1.
         -5    1    3    3    0  502 -0.40750166728E+02 -0.10095105599E+03  0.13648363128E+03  0.17463374760E+03  0.41800000000E+01 0.  1.
        -11    1    1    2    0    0 -0.35728573305E+02  0.35091487796E+02  0.98154618304E+02  0.11019198047E+03  0.00000000000E+00 0.  1.
         11    1    1    2    0    0  0.82047099006E+01  0.10233840329E+03  0.53176977879E+03  0.54158984821E+03  0.00000000000E+00 0. -1.
</event>
<event>
 7    1  0.6992302E-006  0.1126673E+03  0.7561462E-02  0.1255709E+00
          1   -1    0    0  501    0  0.00000000000E+00  0.00000000000E+00  0.23561105064E+03  0.23561105064E+03  0.00000000000E+00 0. -1.
         -1   -1    0    0    0  501 -0.00000000000E+00 -0.00000000000E+00 -0.70640418980E+02  0.70640418980E+02  0.00000000000E+00 0.  1.
         23    2    1    2    0    0  0.34785461320E+02  0.22614837792E+02  0.25690718030E+02  0.13426911720E+03  0.12508686435E+03 0.  0.
          5    1    3    3  502    0  0.55491055448E+02 -0.36485042586E+02  0.23754560880E+00  0.66542801227E+02  0.41800000000E+01 0. -1.
         -5    1    3    3    0  502 -0.20705594128E+02  0.59099880378E+02  0.25453172421E+02  0.67726315972E+02  0.41800000000E+01 0. -1.
        -11    1    1    2    0    0 -0.31774204525E+02 -0.54993234335E+02  0.11509660111E+03  0.13145753491E+03  0.00000000000E+00 0. -1.
         11    1    1    2    0    0 -0.30112567945E+01  0.32378396543E+02  0.24183312514E+02  0.40524817511E+02  0.00000000000E+00 0.  1.
</event>
<event>
 7    1  0.6992302E-006  0.1594736E+03  0.7561462E-02  0.1189292E+00
         -1   -1    0    0    0  501 -0.00000000000E+00  0.00000000000E+00  0.43914498120E+03  0.43914498120E+03  0.00000000000E+00 0.  1.
          1   -1    0    0  501    0  0.00000000000E+00 -0.00000000000E+00 -0.75546775186E+02  0.75546775186E+02  0.00000000000E+00 0. -1.
         23    2    1    2    0    0 -0.29704443199E+02  0.12433559577E+03  0.28945964306E+03  0.34025846581E+03  0.12508894543E+03 0.  0.
          5    1    3    3  502    0  0.40083712438E+02  0.10902738858E+02  0.42090669912E+02  0.59284657467E+02  0.41800000000E+01 0.  1.
         -5    1    3    3    0  502 -0.69788155637E+02  0.11343285691E+03  0.24736897315E+03  0.28097380834E+03  0.41800000000E+01 0.  1.
        -11    1    1    2    0    0  0.51080260535E+02 -0.90776484701E+02  0.83569902591E+02  0.13354209752E+03  0.00000000000E+00 0. -1.
         11    1    1    2    0    0 -0.21375817336E+02 -0.33559111069E+02 -0.94313396401E+01  0.40891193061E+02  0.00000000000E+00 0.  1.
</event>
<event>
 7    1  0.6992302E-006  0.9859005E+02  0.7561462E-02  0.1283289E+00
          1   -1    0    0  501    0  0.00000000000E+00  0.00000000000E+00  0.40952443204E+03  0.40952443204E+03  0.00000000000E+00 0. -1.
         -1   -1    0    0    0  501 -0.00000000000E+00 -0.00000000000E+00 -0.34875549208E+02  0.34875549208E+02  0.00000000000E+00 0.  1.
         23    2    1    2    0    0 -0.37422255851E+02 -0.64961282647E+01  0.19041588441E+03  0.23097039197E+03  0.12508592252E+03 0.  0.
          5    1    3    3  502    0 -0.51259244429E+02  0.27427829022E+02  0.18467059743E+03  0.19365045288E+03  0.41800000000E+01 0.  1.
         -5    1    3    3    0  502  0.13836988578E+02 -0.33923957287E+02  0.57452869773E+01  0.37319939086E+02  0.41800000000E+01 0.  1.
        -11    1    1    2    0    0  0.33947879165E+02 -0.41658540999E+02  0.62235653557E+02  0.82226328579E+02  0.00000000000E+00 0.  1.
         11    1    1    2    0    0  0.34743766868E+01  0.48154669264E+02  0.12199734487E+03  0.13120326071E+03  0.00000000000E+00 0. -1.
</event>
<event>
 7    1  0.6992302E-006  0.1343682E+03  0.7561462E-02  0.1221114E+00
          4   -1    0    0  501    0  0.00000000000E+00  0.00000000000E+00  0.91890751829E+02  0.91890751829E+02  0.00000000000E+00 0.  1.
         -4   -1    0    0    0  501 -0.00000000000E+00 -0.00000000000E+00 -0.38375039734E+03  0.38375039734E+03  0.00000000000E+00 0. -1.
         23    2    1    2    0    0  0.10269198361E+03 -0.41566969680E+02 -0.28815523477E+03  0.33309570957E+03  0.12508339593E+03 0.  0.
          5    1    3    3  502    0  0.46601183898E+02 -0.51060633054E+02 -0.43285533112E+02  0.81669874282E+02  0.41800000000E+01 0.  1.
         -5    1    3    3    0  502  0.56090799709E+02  0.94936633734E+01 -0.24486970166E+03  0.25142583528E+03  0.41800000000E+01 0.  1.
        -11    1    1    2    0    0  0.13387541583E+02  0.20468002890E+02  0.90266813575E+00  0.24474072438E+02  0.00000000000E+00 0. -1.
         11    1    1    2    0    0 -0.11607952519E+03  0.21098966790E+02 -0.46070788701E+01  0.11807136716E+03  0.00000000000E+00 0.  1.
</event>
<event>
 7    1  0.6992302E-006  0.1128197E+03  0.7561462E-02  0.1255436E+00
         -1   -1    0    0    0  501 -0.00000000000E+00  0.00000000000E+00  0.28496034313E+02  0.28496034313E+02  0.00000000000E+00 0.  1.
          1   -1    0    0  501    0  0.00000000000E+00 -0.00000000000E+00 -0.65734183115E+03  0.65734183115E+03  0.00000000000E+00 0. -1.
         23    2    1    2    0    0 -0.37597067170E+02  0.67382071486E+02 -0.21071034884E+03  0.25070474211E+03  0.11180399629E+03 0.  0.
          5    1    3    3  502    0  0.21664335114E+02 -0.69534043441E+01 -0.10896971628E+03  0.11139822581E+03  0.41800000000E+01 0. -1.
         -5    1    3    3    0  502 -0.59261402284E+02  0.74335475830E+02 -0.10174063257E+03  0.13930651630E+03  0.41800000000E+01 0.  1.
        -11    1    1    2    0    0 -0.22422413630E+02 -0.10904630856E+02 -0.33458906942E+02  0.41727377834E+02  0.00000000000E+00 0.  1.
         11    1    1    2    0    0  0.60019480800E+02 -0.56477440630E+02 -0.38467654106E+03  0.39340574553E+03  0.00000000000E+00 0. -1.
</event>
<event>
 7    1  0.6992302E-006  0.2021465E+03  0.7561462E-02  0.1147941E+00
         -2   -1    0    0    0  501 -0.00000000000E+00  0.00000000000E+00  0.96780365053E+02  0.96780365053E+02  0.00000000000E+00 0.  1.
          2   -1    0    0  501    0  0.00000000000E+00 -0.00000000000E+00 -0.68382554843E+03  0.68382554843E+03  0.00000000000E+00 0. -1.
         23    2    1    2    0    0  0.13272464368E+03 -0.13284706529E+03 -0.93604388658E+02  0.24510716404E+03  0.12669477688E+03 0.  0.
          5    1    3    3  502    0  0.12791828135E+03 -0.68101474054E+02 -0.10506829740E+03  0.17904668941E+03  0.41800000000E+01 0.  1.
         -5    1    3    3    0  502  0.48063623327E+01 -0.64745591239E+02  0.11463908740E+02  0.66060474622E+02  0.41800000000E+01 0.  1.
        -11    1    1    2    0    0 -0.46334404794E+02  0.16160963797E+02 -0.55319812334E+02  0.73948194401E+02  0.00000000000E+00 0.  1.
         11    1    1    2    0    0 -0.86390238889E+02  0.11668610150E+03 -0.43812098239E+03  0.46155055505E+03  0.00000000000E+00 0. -1.
</event>
<event>
 7    1  0.6992302E-006  0.7888711E+02  0.7561462E-02  0.1332240E+00
         -2   -1    0    0    0  501 -0.00000000000E+00  0.00000000000E+00  0.23172553442E+03  0.23172553442E+03  0.00000000000E+00 0.  1.
          2   -1    0    0  501    0  0.00000000000E+00 -0.00000000000E+00 -0.80543579988E+02  0.80543579988E+02  0.00000000000E+00 0. -1.
         23    2    1    2    0    0 -0.23315340032E+02  0.45027866967E+02  0.15833876754E+03  0.20805114365E+03  0.12507197601E+03 0.  0.
          5    1    3    3  502    0 -0.10048070940E+02  0.44095395412E+02  0.17813753915E+03  0.18383640249E+03  0.41800000000E+01 0.  1.
         -5    1    3    3    0  502 -0.13267269092E+02  0.93247155476E+00 -0.19798771605E+02  0.24214741160E+02  0.41800000000E+01 0.  1.
        -11    1    1    2    0    0 -0.27196093249E+02  0.46230552786E+01 -0.17455616594E+02  0.32645040647E+02  0.00000000000E+00 0. -1.
         11    1    1    2    0    0  0.50511433281E+02 -0.49650922246E+02  0.10298803483E+02  0.71572930115E+02  0.00000000000E+00 0.  1.
</event>
<event>
 7    1  0.6992302E-006  0.7886588E+02  0.7561462E-02  0.1332301E+00
         -2   -1    0    0    0  501 -0.00000000000E+00  0.00000000000E+00  0.10109848189E+03  0.10109848189E+03  0.00000000000E+00 0.  1.
          2   -1    0    0  501    0  0.00000000000E+00 -0.00000000000E+00 -0.12908922541E+03  0.12908922541E+03  0.00000000000E+00 0. -1.
         23    2    1    2    0    0 -0.12108917267E+02  0.35083596798E+02 -0.79087005293E+01  0.13093067433E+03  0.12531085067E+03 0.  0.
          5    1    3    3  502    0  0.53684058314E+01  0.42076844477E+02  0.52439248689E+02  0.67576829057E+02  0.41800000000E+01 0.  1.
         -5    1    3    3    0  502 -0.17477323098E+02 -0.69932476790E+01 -0.60347949219E+02  0.63353845271E+02  0.41800000000E+01 0.  1.
        -11    1    1    2    0    0 -0.30405240438E+02 -0.42916470957E+02 -0.19285677794E+02  0.56019991909E+02  0.00000000000E+00 0.  1.
         11    1    1    2    0    0  0.42514157704E+02  0.78328741585E+01 -0.79636519731E+00  0.43237041069E+02  0.00000000000E+00 0. -1.
</event>
<event>
 7    1  0.6992302E-006  0.9804372E+02  0.7561462E-02  0.1284464E+00
          2   -1    0    0  501    0  0.00000000000E+00  0.00000000000E+00  0.34216722586E+03  0.34216722586E+03  0.00000000000E+00 0. -1.
         -2   -1    0    0    0  501 -0.00000000000E+00 -0.00000000000E+00 -0.54523503513E+02  0.54523503513E+02  0.00000000000E+00 0.  1.
         23    2    1    2    0    0  0.15672773521E+02 -0.21678581024E+01  0.23862616258E+02  0.11700962272E+03  0.11345259766E+03 0.  0.
          5    1    3    3  502    0 -0.45519101708E+02 -0.83500144178E+01 -0.87278793030E+01  0.47279590081E+02  0.41800000000E+01 0. -1.
         -5    1    3    3    0  502  0.61191875230E+02  0.61821563154E+01  0.32590495561E+02  0.69730032638E+02  0.41800000000E+01 0.  1.
        -11    1    1    2    0    0 -0.48437530968E+01  0.44253933099E+02  0.88152391757E+02  0.98755843935E+02  0.00000000000E+00 0.  1.
         11    1    1    2    0    0 -0.10829020424E+02 -0.42086074997E+02  0.17562871433E+03  0.18092526272E+03  0.00000000000E+00 0. -1.
</event>
<event>
 7    1  0.7272408E-006  0.1764869E+03  0.7561462E-02  0.1171247E+00
          1   -1    0    0  501    0  0.00000000000E+00  0.00000000000E+00  0.16115721815E+03  0.16115721815E+03  0.00000000000E+00 0. -1.
         -1   -1    0    0    0  501 -0.00000000000E+00 -0.00000000000E+00 -0.26355538351E+03  0.26355538351E+03  0.00000000000E+00 0.  1.
         23    2    1    2    0    0 -0.16021032106E+03 -0.53967457724E+01 -0.12415656344E+03  0.23824211542E+03  0.12509189214E+03 0.  0.
          5    1    3    3  502    0 -0.19865204007E+02 -0.39723124739E+02 -0.71760233174E+02  0.84495895962E+02  0.41800000000E+01 0.  1.
         -5    1    3    3    0  502 -0.14034511705E+03  0.34326378967E+02 -0.52396330262E+02  0.15374621946E+03  0.41800000000E+01 0.  1.
        -11    1    1    2    0    0  0.71902950515E+02  0.19247698687E+02  0.53443784519E+02  0.91633761798E+02  0.00000000000E+00 0. -1.
         11    1    1    2    0    0  0.88307370545E+02 -0.13850952914E+02 -0.31685386443E+02  0.94836724444E+02  0.00000000000E+00 0.  1.
</event>
<event>
 7    1  0.6992302E-006  0.1081015E+03  0.7561462E-02  0.1264126E+00
          1   -1    0    0  501    0  0.00000000000E+00  0.00000000000E+00  0.10412825214E+03  0.10412825214E+03  0.00000000000E+00 0. -1.
         -1   -1    0    0    0  501 -0.00000000000E+00 -0.00000000000E+00 -0.13885961021E+03  0.13885961021E+03  0.00000000000E+00 0.  1.
         23    2    1    2    0    0  0.22152883277E+02 -0.43228570232E+02 -0.34828325455E+02  0.13863345721E+03  0.12508702443E+03 0.  0.
          5    1    3    3  502    0 -0.27105766430E+02 -0.59587228490E+02 -0.52102986098E+02  0.83770841784E+02  0.41800000000E+01 0.  1.
         -5    1    3    3    0  502  0.49258649706E+02  0.16358658257E+02  0.17274660643E+02  0.54862615425E+02  0.41800000000E+01 0.  1.
        -11    1    1    2    0    0  0.46181955959E+01 -0.24905616584E+02 -0.15238295408E+02  0.29560499233E+02  0.00000000000E+00 0.  1.
         11    1    1    2    0    0 -0.26771078873E+02  0.68134186816E+02  0.15335262794E+02  0.74793905915E+02  0.00000000000E+00 0. -1.
</event>
<event>
 7    1  0.6992302E-006  0.1524912E+03  0.7561462E-02  0.1197445E+00
          2   -1    0    0  501    0  0.00000000000E+00  0.00000000000E+00  0.24604518094E+03  0.24604518094E+03  0.00000000000E+00 0. -1.
         -2   -1    0    0    0  501 -0.00000000000E+00 -0.00000000000E+00 -0.11370584574E+03  0.11370584574E+03  0.00000000000E+00 0.  1.
         23    2    1    2    0    0  0.11202345526E+03  0.58759167865E+02  0.67218626621E+02  0.19019597244E+03  0.12511702455E+03 0.  0.
          5    1    3    3  502    0 -0.15965314716E+02  0.46410043853E+02  0.19668359081E+02  0.53038666964E+02  0.41800000000E+01 0.  1.
         -5    1    3    3    0  502  0.12798876997E+03  0.12349124012E+02  0.47550267540E+02  0.13715730548E+03  0.41800000000E+01 0.  1.
        -11    1    1    2    0    0 -0.27927561584E+02 -0.89116961347E+01 -0.23526695035E+02  0.37588194999E+02  0.00000000000E+00 0.  1.
         11    1    1    2    0    0 -0.84095893674E+02 -0.49847471730E+02  0.88647403615E+02  0.13196685924E+03  0.00000000000E+00 0. -1.
</event>
<event>
 7    1  0.6992302E-006  0.1802321E+03  0.7561462E-02  0.1167579E+00
          2   -1    0    0  501    0  0.00000000000E+00  0.00000000000E+00  0.46008488634E+03  0.46008488634E+03  0.00000000000E+00 0. -1.
         -2   -1    0    0    0  501 -0.00000000000E+00 -0.00000000000E+00 -0.11635916091E+03  0.11635916091E+03  0.00000000000E+00 0.  1.
         23    2    1    2    0    0 -0.24716100745E+01  0.17675258780E+03  0.50336733417E+02  0.22232885078E+03  0.12509494397E+03 0.  0.
          5    1    3    3  502    0 -0.24248413032E+02  0.94553069790E+02  0.85868828675E+02  0.13007381243E+03  0.41800000000E+01 0.  1.
         -5    1    3    3    0  502  0.21776802957E+02  0.82199518015E+02 -0.35532095258E+02  0.92255038357E+02  0.41800000000E+01 0.  1.
        -11    1    1    2    0    0 -0.46717912314E+01 -0.14510527526E+03  0.15665155451E+03  0.21358154432E+03  0.00000000000E+00 0.  1.
         11    1    1    2    0    0  0.71434013059E+01 -0.31647312541E+02  0.13673743750E+03  0.14053365215E+03  0.00000000000E+00 0. -1.
</event>
<event>
 7    1  0.6992302E-006  0.1916614E+03  0.7561462E-02  0.1156971E+00
         -3   -1    0    0    0  501 -0.00000000000E+00  0.00000000000E+00  0.20684069661E+03  0.20684069661E+03  0.00000000000E+00 0.  1.
          3   -1    0    0  501    0  0.00000000000E+00 -0.00000000000E+00 -0.39304835115E+03  0.39304835115E+03  0.00000000000E+00 0. -1.
         23    2    1    2    0    0 -0.35030881941E+02 -0.15811625150E+03  0.12329856846E+03  0.23890013986E+03  0.12507129231E+03 0.  0.
          5    1    3    3  502    0 -0.81677125865E+02 -0.92180690112E+02  0.66077344288E+02  0.13982889668E+03  0.41800000000E+01 0. -1.
         -5    1    3    3    0  502  0.46646243923E+02 -0.65935561393E+02  0.57221224177E+02  0.99071243177E+02  0.41800000000E+01 0. -1.
        -11    1    1    2    0    0  0.47352475948E+02  0.15990187705E+03 -0.25223145171E+03  0.30237654091E+03  0.00000000000E+00 0.  1.
         11    1    1    2    0    0 -0.12321594007E+02 -0.17856255445E+01 -0.57274771296E+02  0.58612366992E+02  0.00000000000E+00 0. -1.
</event>
<event>
 7    1  0.6992302E-006  0.1049122E+03  0.7561462E-02  0.1270293E+00
          1   -1    0    0  501    0  0.00000000000E+00  0.00000000000E+00  0.26056521227E+03  0.26056521227E+03  0.00000000000E+00 0. -1.
         -1   -1    0    0    0  501 -0.00000000000E+00 -0.00000000000E+00 -0.52442314743E+02  0.52442314743E+02  0.00000000000E+00 0.  1.
         23    2    1    2    0    0  0.13278130305E+01  0.29704165538E+02  0.69870188459E+02  0.14633351643E+03  0.12509018450E+03 0.  0.
          5    1    3    3  502    0 -0.34765774759E+02  0.63486589528E+02  0.18308679855E+02  0.74778916163E+02  0.41800000000E+01 0.  1.
         -5    1    3    3    0  502  0.36093587790E+02 -0.33782423991E+02  0.51561508605E+02  0.71554600270E+02  0.41800000000E+01 0.  1.
        -11    1    1    2    0    0 -0.39366278162E+02  0.12880730603E+00  0.35044030857E+02  0.52704881618E+02  0.00000000000E+00 0.  1.
         11    1    1    2    0    0  0.38038465131E+02 -0.29832972844E+02  0.10320867821E+03  0.11396912896E+03  0.00000000000E+00 0. -1.
</event>
<event>
 7    1  0.6992302E-006  0.1070790E+03  0.7561462E-02  0.1266077E+00
         -1   -1    0    0    0  501 -0.00000000000E+00  0.00000000000E+00  0.12466651379E+02  0.12466651379E+02  0.00000000000E+00 0.  1.
          1   -1    0    0  501    0  0.00000000000E+00 -0.00000000000E+00 -0.12747919463E+04  0.12747919463E+04  0.00000000000E+00 0. -1.
         23    2    1    2    0    0 -0.43076579603E+02 -0.47777282801E+02 -0.73557534712E+03  0.74890391324E+03  0.12509084503E+03 0.  0.
          5    1    3    3  502    0  0.16079794430E+02  0.10667960352E+02 -0.47367972269E+03  0.47409104321E+03  0.41800000000E+01 0. -1.
         -5    1    3    3    0  502 -0.59156374033E+02 -0.58445243153E+02 -0.26189562443E+03  0.27481287003E+03  0.41800000000E+01 0. -1.
        -11    1    1    2    0    0 -0.27017575335E+02  0.26630104902E+02 -0.18537818085E+03  0.18921992971E+03  0.00000000000E+00 0.  1.
         11    1    1    2    0    0  0.70094154937E+02  0.21147177898E+02 -0.34137176693E+03  0.34913475471E+03  0.00000000000E+00 0. -1.
</event>
<event>
 7    1  0.6992302E-006  0.8042384E+02  0.7561462E-02  0.1327853E+00
         -1   -1    0    0    0  501 -0.00000000000E+00  0.00000000000E+00  0.45337648394E+02  0.45337648394E+02  0.00000000000E+00 0.  1.
          1   -1    0    0  501    0  0.00000000000E+00 -0.00000000000E+00 -0.34385020655E+03  0.34385020655E+03  0.00000000000E+00 0. -1.
         23    2    1    2    0    0 -0.51397698479E+02 -0.33179148356E+02 -0.18160875631E+03  0.22884853531E+03  0.12508929789E+03 0.  0.
          5    1    3    3  502    0 -0.70877697263E+02 -0.15236819350E+02 -0.18778315262E+03  0.20133502785E+03  0.41800000000E+01 0. -1.
         -5    1    3    3    0  502  0.19479998784E+02 -0.17942329006E+02  0.61743963029E+01  0.27513507455E+02  0.41800000000E+01 0. -1.
        -11    1    1    2    0    0  0.34972549408E+02  0.19489256000E+02 -0.12948297912E+03  0.13553136978E+03  0.00000000000E+00 0. -1.
         11    1    1    2    0    0  0.16425149071E+02  0.13689892356E+02  0.12579177286E+02  0.24807949853E+02  0.00000000000E+00 0.  1.
</event>
<event>
 7    1  0.6992302E-006  0.1364459E+03  0.7561462E-02  0.1218193E+00
         -2   -1    0    0    0  501 -0.00000000000E+00  0.00000000000E+00  0.34350592739E+02  0.34350592739E+02  0.00000000000E+00 0.  1.
          2   -1    0    0  501    0  0.00000000000E+00 -0.00000000000E+00 -0.97533142869E+03  0.97533142869E+03  0.00000000000E+00 0. -1.
         23    2    1    2    0    0 -0.28457647087E+01  0.13621869630E+03 -0.35062533466E+03  0.39641957504E+03  0.12508686009E+03 0.  0.
          5    1    3    3  502    0 -0.20517738198E+01  0.78766277788E+02 -0.57361457892E+02  0.97550733179E+02  0.41800000000E+01 0.  1.
         -5    1    3    3    0  502 -0.79399088897E+00  0.57452418509E+02 -0.29326387677E+03  0.29886884186E+03  0.41800000000E+01 0.  1.
        -11    1    1    2    0    0 -0.82174511584E+00 -0.93158193624E+02 -0.53492009299E+03  0.54297203444E+03  0.00000000000E+00 0. -1.
         11    1    1    2    0    0  0.36675098246E+01 -0.43060502672E+02 -0.55435408301E+02  0.70290411951E+02  0.00000000000E+00 0.  1.
</event>
<event>
 7    1  0.6992302E-006  0.1095221E+03  0.7561462E-02  0.1261457E+00
          2   -1    0    0  501    0  0.00000000000E+00  0.00000000000E+00  0.33919345579E+03  0.33919345579E+03  0.00000000000E+00 0.  1.
         -2   -1    0    0    0  501 -0.00000000000E+00 -0.00000000000E+00 -0.51480636069E+02  0.51480636069E+02  0.00000000000E+00 0. -1.
         23    2    1    2    0    0  0.23082718702E+02 -0.36441141408E+01  0.53706738498E+02  0.13812597628E+03  0.12509308571E+03 0.  0.
          5    1    3    3  502    0 -0.38165208133E+02  0.36469981015E+02  0.30981810157E+02  0.61351345443E+02  0.41800000000E+01 0.  1.
         -5    1    3    3    0  502  0.61247926835E+02 -0.40114095156E+02  0.22724928341E+02  0.76774630835E+02  0.41800000000E+01 0.  1.
        -11    1    1    2    0    0 -0.55560698632E+02 -0.11788984905E+02  0.16859141040E+03  0.17790175676E+03  0.00000000000E+00 0.  1.
         11    1    1    2    0    0  0.32477979930E+02  0.15433099046E+02  0.65414670824E+02  0.74646358823E+02  0.00000000000E+00 0. -1.
</event>
<event>
 7    1  0.6992302E-006  0.8974181E+02  0.7561462E-02  0.1303478E+00
          1   -1    0    0  501    0  0.00000000000E+00  0.00000000000E+00  0.48348129743E+03  0.48348129743E+03  0.00000000000E+00 0. -1.
         -1   -1    0    0    0  501 -0.00000000000E+00 -0.00000000000E+00 -0.38804503602E+02  0.38804503602E+02  0.00000000000E+00 0.  1.
         23    2    1    2    0    0  0.39012725236E+02  0.36344008685E+02  0.11952262579E+03  0.18104334829E+03  0.12509259045E+03 0.  0.
          5    1    3    3  502    0  0.92871059310E+01  0.68086350304E+02  0.11885090359E+03  0.13734995857E+03  0.41800000000E+01 0.  1.
         -5    1    3    3    0  502  0.29725619305E+02 -0.31742341619E+02  0.67172220560E+00  0.43693389720E+02  0.41800000000E+01 0.  1.
        -11    1    1    2    0    0 -0.29250327235E+02 -0.45154929117E+02  0.32355210453E+03  0.32799468535E+03  0.00000000000E+00 0. -1.
         11    1    1    2    0    0 -0.97623980017E+01  0.88109204314E+01  0.16020634992E+01  0.13247767399E+02  0.00000000000E+00 0.  1.
</event>
<event>
 7    1  0.6992302E-006  0.1087707E+03  0.7561462E-02  0.1262863E+00
          1   -1    0    0  501    0  0.00000000000E+00  0.00000000000E+00  0.40787551759E+03  0.40787551759E+03  0.00000000000E+00 0. -1.
         -1   -1    0    0    0  501 -0.00000000000E+00 -0.00000000000E+00 -0.45950813843E+02  0.45950813843E+02  0.00000000000E+00 0.  1.
         23    2    1    2    0    0  0.25680289674E+02  0.64604723409E+02  0.12376608540E+03  0.18920667027E+03  0.12509145700E+03 0.  0.
          5    1    3    3  502    0 -0.36940600953E+02  0.23076425530E+02 -0.69592635764E+00  0.43761697037E+02  0.41800000000E+01 0.  1.
         -5    1    3    3    0  502  0.62620890628E+02  0.41528297879E+02  0.12446201175E+03  0.14544497323E+03  0.41800000000E+01 0.  1.
        -11    1    1    2    0    0  0.19299869935E+02 -0.45941874733E+02  0.18886276390E+03  0.19532609765E+03  0.00000000000E+00 0. -1.
         11    1    1    2    0    0 -0.44980159609E+02 -0.18662848677E+02  0.49295854441E+02  0.69293563513E+02  0.00000000000E+00 0.  1.
</event>
<event>
 7    1  0.6992302E-006  0.6384395E+02  0.7561462E-02  0.1382374E+00
         -3   -1    0    0    0  501 -0.00000000000E+00  0.00000000000E+00  0.28471894357E+03  0.28471894357E+03  0.00000000000E+00 0.  1.
          3   -1    0    0  501    0  0.00000000000E+00 -0.00000000000E+00 -0.44331389617E+02  0.44331389617E+02  0.00000000000E+00 0. -1.
         23    2    1    2    0    0 -0.23970458461E+01 -0.51962552098E+01  0.18276098895E+03  0.22154393453E+03  0.12508952374E+03 0.  0.
          5    1    3    3  502    0  0.47120814418E+02 -0.15791071103E+02  0.24969742360E+02  0.55773555665E+02  0.41800000000E+01 0. -1.
         -5    1    3    3    0  502 -0.49517860264E+02  0.10594815893E+02  0.15779124659E+03  0.16577037886E+03  0.41800000000E+01 0. -1.
        -11    1    1    2    0    0 -0.14149448205E+01  0.15734868135E+02  0.80499732523E+02  0.82035328246E+02  0.00000000000E+00 0.  1.
         11    1    1    2    0    0  0.38119906666E+01 -0.10538612925E+02 -0.22873167522E+02  0.25471070408E+02  0.00000000000E+00 0. -1.
</event>
<event>
 7    1  0.6992302E-006  0.1623924E+03  0.7561462E-02  0.1186022E+00
         -2   -1    0    0    0  501 -0.00000000000E+00  0.00000000000E+00  0.24844709603E+03  0.24844709603E+03  0.00000000000E+00 0.  1.
          2   -1    0    0  501    0  0.00000000000E+00 -0.00000000000E+00 -0.11901396549E+03  0.11901396549E+03  0.00000000000E+00 0. -1.
         23    2    1    2    0    0 -0.11545132001E+03 -0.56466820521E+02  0.12755280281E+03  0.22007978200E+03  0.12509150183E+03 0.  0.
          5    1    3    3  502    0 -0.12307740861E+03 -0.11466673470E+01  0.92373916392E+02  0.15394731627E+03  0.41800000000E+01 0. -1.
         -5    1    3    3    0  502  0.76260885985E+01 -0.55320153174E+02  0.35178886413E+02  0.66132465732E+02  0.41800000000E+01 0. -1.
        -11    1    1    2    0    0  0.30843649649E+02  0.52550256327E+02 -0.10345269601E+02  0.61805216340E+02  0.00000000000E+00 0.  1.
         11    1    1    2    0    0  0.84607670364E+02  0.39165641937E+01  0.12225597331E+02  0.85576063181E+02  0.00000000000E+00 0. -1.
</event>
<event>
 7    1  0.6992302E-006  0.1175609E+03  0.7561462E-02  0.1247176E+00
         -2   -1    0    0    0  501 -0.00000000000E+00  0.00000000000E+00  0.45434565333E+02  0.45434565333E+02  0.00000000000E+00 0.  1.
          2   -1    0    0  501    0  0.00000000000E+00 -0.00000000000E+00 -0.50113280885E+03  0.50113280885E+03  0.00000000000E+00 0. -1.
         23    2    1    2    0    0 -0.68801529811E+02  0.58632377604E+02 -0.14895550952E+03  0.21450017235E+03  0.12510465184E+03 0.  0.
          5    1    3    3  502    0 -0.18057580551E+02  0.84355863308E+02 -0.48701388881E+02  0.99152839438E+02  0.41800000000E+01 0. -1.
         -5    1    3    3    0  502 -0.50743949261E+02 -0.25723485703E+02 -0.10025412064E+03  0.11534733291E+03  0.41800000000E+01 0. -1.
        -11    1    1    2    0    0  0.26534824425E+02 -0.13134172257E+02 -0.13892446153E+02  0.32704792436E+02  0.00000000000E+00 0.  1.
         11    1    1    2    0    0  0.42266705386E+02 -0.45498205348E+02 -0.29285028784E+03  0.29936240940E+03  0.00000000000E+00 0. -1.
</event>
<event>
 7    1  0.6992302E-006  0.1043177E+03  0.7561462E-02  0.1271470E+00
          2   -1    0    0  501    0  0.00000000000E+00  0.00000000000E+00  0.44567524870E+03  0.44567524870E+03  0.00000000000E+00 0. -1.
         -2   -1    0    0    0  501 -0.00000000000E+00 -0.00000000000E+00 -0.28697557090E+02  0.28697557090E+02  0.00000000000E+00 0.  1.
         23    2    1    2    0    0  0.13974396779E+02 -0.19818553944E+02  0.19442056369E+03  0.23244976402E+03  0.12508188663E+03 0.  0.
          5    1    3    3  502    0 -0.17532583678E+02 -0.62762015326E+02  0.14764728781E+03  0.16144242335E+03  0.41800000000E+01 0. -1.
         -5    1    3    3    0  502  0.31506980457E+02  0.42943461382E+02  0.46773275874E+02  0.71007340670E+02  0.41800000000E+01 0. -1.
        -11    1    1    2    0    0 -0.42685420916E+02 -0.14578205315E+02  0.73116731286E+02  0.85910567586E+02  0.00000000000E+00 0.  1.
         11    1    1    2    0    0  0.28711024137E+02  0.34396759259E+02  0.14944039664E+03  0.15601247419E+03  0.00000000000E+00 0. -1.
</event>
<event>
 7    1  0.6992302E-006  0.8336765E+02  0.7561462E-02  0.1319757E+00
         -1   -1    0    0    0  501 -0.00000000000E+00  0.00000000000E+00  0.11417971229E+03  0.11417971229E+03  0.00000000000E+00 0.  1.
          1   -1    0    0  501    0  0.00000000000E+00 -0.00000000000E+00 -0.11797483692E+03  0.11797483692E+03  0.00000000000E+00 0. -1.
         23    2    1    2    0    0 -0.19076670242E+01 -0.19014785076E+02  0.32947733227E+02  0.13075702241E+03  0.12508654819E+03 0.  0.
          5    1    3    3  502    0  0.38308632436E+02  0.68227329046E+01 -0.31619341377E+02  0.50312584435E+02  0.41800000000E+01 0. -1.
         -5    1    3    3    0  502 -0.40216299460E+02 -0.25837517981E+02  0.64567074604E+02  0.80444437972E+02  0.41800000000E+01 0. -1.
        -11    1    1    2    0    0 -0.35123442320E+02 -0.50040868543E+01  0.10247210941E+02  0.36928341659E+02  0.00000000000E+00 0.  1.
         11    1    1    2    0    0  0.37031109344E+02  0.24018871930E+02 -0.46990068791E+02  0.64469185143E+02  0.00000000000E+00 0. -1.
</event>
<event>
 7    1  0.6992302E-006  0.1113665E+03  0.7561462E-02  0.1258060E+00
         -3   -1    0    0    0  501 -0.00000000000E+00  0.00000000000E+00  0.42315112290E+02  0.42315112290E+02  0.00000000000E+00 0.  1.
          3   -1    0    0  501    0  0.00000000000E+00 -0.00000000000E+00 -0.62498747094E+03  0.62498747094E+03  0.00000000000E+00 0. -1.
         23    2    1    2    0    0 -0.68108722705E+02  0.71953142287E+02 -0.17726391468E+03  0.23850758811E+03  0.12508925352E+03 0.  0.
          5    1    3    3  502    0  0.80590015515E+01 -0.79864938335E+01 -0.10674243830E+03  0.10742510007E+03  0.41800000000E+01 0. -1.
         -5    1    3    3    0  502 -0.76167724257E+02  0.79939636121E+02 -0.70521476374E+02  0.13108248804E+03  0.41800000000E+01 0. -1.
        -11    1    1    2    0    0  0.17906555719E+02 -0.28964019398E+02 -0.23896849188E+02  0.41600703823E+02  0.00000000000E+00 0.  1.
         11    1    1    2    0    0  0.50202166986E+02 -0.42989122889E+02 -0.38151159479E+03  0.38719429130E+03  0.00000000000E+00 0. -1.
</event>
<event>
 7    1  0.6992302E-006  0.1107357E+03  0.7561462E-02  0.1259214E+00
         -2   -1    0    0    0  501 -0.00000000000E+00  0.00000000000E+00  0.94008463824E+02  0.94008463824E+02  0.00000000000E+00 0.  1.
          2   -1    0    0  501    0  0.00000000000E+00 -0.00000000000E+00 -0.16887286429E+03  0.16887286429E+03  0.00000000000E+00 0. -1.
         23    2    1    2    0    0  0.43858021160E+02  0.45154807696E+02 -0.30995399590E+02  0.14342134882E+03  0.12508591377E+03 0.  0.
          5    1    3    3  502    0  0.59464677495E+02  0.62744188067E+02  0.18466482422E+02  0.88494996349E+02  0.41800000000E+01 0.  1.
         -5    1    3    3    0  502 -0.15606656335E+02 -0.17589380371E+02 -0.49461882012E+02  0.54926352473E+02  0.41800000000E+01 0.  1.
        -11    1    1    2    0    0 -0.27329680361E+02  0.26162285606E+02 -0.17002162096E+02  0.41478309183E+02  0.00000000000E+00 0.  1.
         11    1    1    2    0    0 -0.16528340799E+02 -0.71317093303E+02 -0.26866838779E+02  0.77981670107E+02  0.00000000000E+00 0. -1.
</event>
<event>
 7    1  0.6992302E-006  0.1132069E+03  0.7561462E-02  0.1254744E+00
          2   -1    0    0  501    0  0.00000000000E+00  0.00000000000E+00  0.11243506655E+03  0.11243506655E+03  0.00000000000E+00 0. -1.
         -2   -1    0    0    0  501 -0.00000000000E+00 -0.00000000000E+00 -0.15283437138E+03  0.15283437138E+03  0.00000000000E+00 0.  1.
         23    2    1    2    0    0 -0.38959941848E+02 -0.46976915967E+02 -0.65306354039E+02  0.15374294508E+03  0.12508903062E+03 0.  0.
          5    1    3    3  502    0 -0.78264755418E+02 -0.39739675590E+02 -0.14656865426E+02  0.89089336403E+02  0.41800000000E+01 0. -1.
         -5    1    3    3    0  502  0.39304813570E+02 -0.72372403771E+01 -0.50649488613E+02  0.64653608676E+02  0.41800000000E+01 0. -1.
        -11    1    1    2    0    0  0.59416084835E+02  0.50027412377E+02 -0.18664031653E+01  0.77694894215E+02  0.00000000000E+00 0. -1.
         11    1    1    2    0    0 -0.20456142987E+02 -0.30504964105E+01  0.26773452370E+02  0.33831598633E+02  0.00000000000E+00 0.  1.
</event>
<event>
 7    1  0.6992302E-006  0.8984767E+02  0.7561462E-02  0.1303221E+00
         -2   -1    0    0    0  501 -0.00000000000E+00  0.00000000000E+00  0.72397519906E+02  0.72397519906E+02  0.00000000000E+00 0.  1.
          2   -1    0    0  501    0  0.00000000000E+00 -0.00000000000E+00 -0.34068347880E+03  0.34068347880E+03  0.00000000000E+00 0. -1.
         23    2    1    2    0    0 -0.72439899400E+02  0.88408106079E+01 -0.29631408905E+02  0.14782167239E+03  0.12509007745E+03 0.  0.
          5    1    3    3  502    0 -0.65503967454E+02  0.34518011282E+02  0.31844714289E+02  0.80708246686E+02  0.41800000000E+01 0.  1.
         -5    1    3    3    0  502 -0.69359319461E+01 -0.25677200674E+02 -0.61476123194E+02  0.67113425701E+02  0.41800000000E+01 0.  1.
        -11    1    1    2    0    0  0.33761091746E+02 -0.18838280147E+02 -0.21579634209E+03  0.21923219055E+03  0.00000000000E+00 0. -1.
         11    1    1    2    0    0  0.38678807654E+02  0.99974695391E+01 -0.22858207905E+02  0.46027135771E+02  0.00000000000E+00 0.  1.
</event>
<event>
 7    1  0.6992302E-006  0.7639473E+02  0.7561462E-02  0.1339606E+00
          2   -1    0    0  501    0  0.00000000000E+00  0.00000000000E+00  0.53590139773E+02  0.53590139773E+02  0.00000000000E+00 0. -1.
         -2   -1    0    0    0  501 -0.00000000000E+00 -0.00000000000E+00 -0.27269621704E+03  0.27269621704E+03  0.00000000000E+00 0.  1.
         23    2    1    2    0    0 -0.33047879352E+02  0.41483415507E+02 -0.13497038572E+03  0.19151186739E+03  0.12508698669E+03 0.  0.
          5    1    3    3  502    0 -0.31664726390E+02  0.39055592615E+02  0.56802720093E+01  0.50771370889E+02  0.41800000000E+01 0.  1.
         -5    1    3    3    0  502 -0.13831529621E+01  0.24278228919E+01 -0.14065065773E+03  0.14074049650E+03  0.41800000000E+01 0.  1.
        -11    1    1    2    0    0 -0.18149849023E+02 -0.42380432092E+02 -0.14482326284E+02  0.48324484668E+02  0.00000000000E+00 0.  1.
         11    1    1    2    0    0  0.51197728375E+02  0.89701658442E+00 -0.69653365267E+02  0.86450004757E+02  0.00000000000E+00 0. -1.
</event>
<event>
 7    1  0.6992302E-006  0.9609069E+02  0.7561462E-02  0.1288738E+00
          2   -1    0    0  501    0  0.00000000000E+00  0.00000000000E+00  0.21293320265E+03  0.21293320265E+03  0.00000000000E+00 0. -1.
         -2   -1    0    0    0  501 -0.00000000000E+00 -0.00000000000E+00 -0.62182461881E+02  0.62182461881E+02  0.00000000000E+00 0.  1.
         23    2    1    2    0    0  0.18420817764E+00  0.20710013247E+02  0.53207913089E+02  0.13750284355E+03  0.12508801456E+03 0.  0.
          5    1    3    3  502    0 -0.50052564920E+01  0.58243878279E+02  0.73748424945E+02  0.94200342523E+02  0.41800000000E+01 0.  1.
         -5    1    3    3    0  502  0.51894646697E+01 -0.37533865032E+02 -0.20540511856E+02  0.43302501027E+02  0.41800000000E+01 0.  1.
        -11    1    1    2    0    0  0.35179667366E+02 -0.41520425721E+02  0.42995856314E+02  0.69355593922E+02  0.00000000000E+00 0.  1.
         11    1    1    2    0    0 -0.35363875544E+02  0.20810412475E+02  0.54546971368E+02  0.68257227062E+02  0.00000000000E+00 0. -1.
</event>
<event>
 7    1  0.6992302E-006  0.2633113E+03  0.7561462E-02  0.1105170E+00
         -1   -1    0    0    0  501 -0.00000000000E+00  0.00000000000E+00  0.44278590265E+02  0.44278590265E+02  0.00000000000E+00 0.  1.
          1   -1    0    0  501    0  0.00000000000E+00 -0.00000000000E+00 -0.17423454726E+04  0.17423454726E+04  0.00000000000E+00 0. -1.
         23    2    1    2    0    0 -0.20528500670E+03 -0.12670488769E+03 -0.59823884525E+03  0.65706418677E+03  0.12509023553E+03 0.  0.
          5    1    3    3  502    0 -0.21963650992E+03 -0.10107301060E+03 -0.52348488718E+03  0.57663667024E+03  0.41800000000E+01 0.  1.
         -5    1    3    3    0  502  0.14351503215E+02 -0.25631877086E+02 -0.74753958072E+02  0.80427516528E+02  0.41800000000E+01 0.  1.
        -11    1    1    2    0    0  0.47198860909E+02  0.75363690827E+02 -0.31417408087E+03  0.32651611209E+03  0.00000000000E+00 0.  1.
         11    1    1    2    0    0  0.15808614579E+03  0.51341196858E+02 -0.78565395621E+03  0.80304376400E+03  0.00000000000E+00 0. -1.
</event>
<event>
 7    1  0.6992302E-006  0.2360043E+03  0.7561462E-02  0.1122484E+00
         -2   -1    0    0    0  501 -0.00000000000E+00  0.00000000000E+00  0.52345624571E+03  0.52345624571E+03  0.00000000000E+00 0.  1.
          2   -1    0    0  501    0  0.00000000000E+00 -0.00000000000E+00 -0.11808106474E+03  0.11808106474E+03  0.00000000000E+00 0. -1.
         23    2    1    2    0    0  0.19426241807E+03 -0.10998426245E+03  0.21943882648E+03  0.33709895964E+03  0.12509150635E+03 0.  0.
          5    1    3    3  502    0  0.11774867737E+03 -0.12320196834E+03  0.18643856878E+03  0.25262677680E+03  0.41800000000E+01 0. -1.
         -5    1    3    3    0  502  0.76513740703E+02  0.13217705897E+02  0.33000257701E+02  0.84472182841E+02  0.41800000000E+01 0. -1.
        -11    1    1    2    0    0 -0.11615887644E+03  0.56947421804E+02  0.49481055749E+02  0.13850728611E+03  0.00000000000E+00 0. -1.
         11    1    1    2    0    0 -0.78103541629E+02  0.53036840642E+02  0.13645529874E+03  0.16593106471E+03  0.00000000000E+00 0.  1.
</event>
<event>
 6    1  0.6992302E-006  0.9411819E+02  0.7561462E-02  0.1293175E+00
          2   -1    0    0  501    0  0.00000000000E+00  0.00000000000E+00  0.26180441881E+03  0.26180441881E+03  0.00000000000E+00 0. -1.
         -2   -1    0    0    0  501 -0.00000000000E+00 -0.00000000000E+00 -0.91576241214E+02  0.91576241214E+02  0.00000000000E+00 0.  1.
          5    1    1    2  502    0 -0.14472787306E+01  0.22461363923E+02  0.15524925841E+03  0.15692804759E+03  0.41800000000E+01 0. -1.
         -5    1    1    2    0  502  0.20853254019E+02 -0.71064226967E+02 -0.33656078230E+02  0.81456654482E+02  0.41800000000E+01 0.  1.
        -11    1    1    2    0    0  0.23258944914E+02 -0.38244478920E+01 -0.99132637756E+01  0.25571032808E+02  0.00000000000E+00 0.  1.
         11    1    1    2    0    0 -0.42664920202E+02  0.52427310936E+02  0.58548261195E+02  0.89424925143E+02  0.00000000000E+00 0. -1.
</event>
<event>
 7    1  0.6992302E-006  0.1765324E+03  0.7561462E-02  0.1171202E+00
         -2   -1    0    0    0  501 -0.00000000000E+00  0.00000000000E+00  0.20414051990E+02  0.20414051990E+02  0.00000000000E+00 0. -1.
          2   -1    0    0  501    0  0.00000000000E+00 -0.00000000000E+00 -0.17887833413E+04  0.17887833413E+04  0.00000000000E+00 0.  1.
         23    2    1    2    0    0 -0.15089916621E+03  0.40262850507E+02 -0.84558595240E+03  0.86893916099E+03  0.12509199460E+03 0.  0.
          5    1    3    3  502    0 -0.28004336171E+02  0.41660580690E+02 -0.49214040136E+03  0.49471152592E+03  0.41800000000E+01 0.  1.
         -5    1    3    3    0  502 -0.12289483004E+03 -0.13977301833E+01 -0.35344555104E+03  0.37422763507E+03  0.41800000000E+01 0.  1.
        -11    1    1    2    0    0  0.11519075197E+03 -0.68655313204E+02 -0.65030644238E+03  0.66398865229E+03  0.00000000000E+00 0.  1.
         11    1    1    2    0    0  0.35708414247E+02  0.28392462697E+02 -0.27247689456E+03  0.27626958004E+03  0.00000000000E+00 0. -1.
</event>
<event>
 7    1  0.6992302E-006  0.1173316E+03  0.7561462E-02  0.1247565E+00
          2   -1    0    0  501    0  0.00000000000E+00  0.00000000000E+00  0.24640226314E+02  0.24640226314E+02  0.00000000000E+00 0. -1.
         -2   -1    0    0    0  501 -0.00000000000E+00 -0.00000000000E+00 -0.94740958805E+03  0.94740958805E+03  0.00000000000E+00 0.  1.
         23    2    1    2    0    0  0.84707314746E+02  0.32455868841E+01 -0.73638281588E+03  0.75172665425E+03  0.12508976049E+03 0.  0.
          5    1    3    3  502    0 -0.23988639036E+02  0.32256790318E+01 -0.40297495773E+02  0.47193435704E+02  0.41800000000E+01 0. -1.
         -5    1    3    3    0  502  0.10869595378E+03  0.19907852339E-01 -0.69608532011E+03  0.70453321855E+03  0.41800000000E+01 0. -1.
        -11    1    1    2    0    0 -0.20008062735E+02 -0.25940190088E+02 -0.12180248154E+03  0.12613112442E+03  0.00000000000E+00 0.  1.
         11    1    1    2    0    0 -0.64699252011E+02  0.22694603204E+02 -0.64584064305E+02  0.94192035690E+02  0.00000000000E+00 0. -1.
</event>
<event>
 7    1  0.6992302E-006  0.7289698E+02  0.7561462E-02  0.1350510E+00
          2   -1    0    0  501    0  0.00000000000E+00  0.00000000000E+00  0.11097267001E+03  0.11097267001E+03  0.00000000000E+00 0. -1.
         -2   -1    0    0    0  501 -0.00000000000E+00 -0.00000000000E+00 -0.11558115616E+03  0.11558115616E+03  0.00000000000E+00 0.  1.
         23    2    1    2    0    0 -0.10586900230E+02  0.30357549103E+02 -0.28764139133E+02  0.13232264921E+03  0.12509294364E+03 0.  0.
          5    1    3    3  502    0 -0.12449341934E+02 -0.36688291501E+02  0.24968062094E+02  0.46280593909E+02  0.41800000000E+01 0.  1.
         -5    1    3    3    0  502  0.18624417047E+01  0.67045840604E+02 -0.53732201227E+02  0.86042055299E+02  0.41800000000E+01 0.  1.
        -11    1    1    2    0    0  0.12279980896E+02 -0.35770329978E+01  0.53183828511E+02  0.54700207595E+02  0.00000000000E+00 0. -1.
         11    1    1    2    0    0 -0.16930806665E+01 -0.26780516105E+02 -0.29028175526E+02  0.39530969370E+02  0.00000000000E+00 0.  1.
</event>
<event>
 7    1  0.6992302E-006  0.1229828E+03  0.7561462E-02  0.1238256E+00
          2   -1    0    0  501    0  0.00000000000E+00  0.00000000000E+00  0.94668383218E+02  0.94668383218E+02  0.00000000000E+00 0. -1.
         -2   -1    0    0    0  501 -0.00000000000E+00 -0.00000000000E+00 -0.16124336335E+03  0.16124336335E+03  0.00000000000E+00 0.  1.
         23    2    1    2    0    0 -0.60434265547E+02  0.20871978690E+02 -0.46845027160E+02  0.14683560442E+03  0.12360541335E+03 0.  0.
          5    1    3    3  502    0 -0.37026797280E+02  0.72945299723E+02 -0.26899510281E+02  0.86215175705E+02  0.41800000000E+01 0. -1.
         -5    1    3    3    0  502 -0.23407468266E+02 -0.52073321033E+02 -0.19945516879E+02  0.60620428715E+02  0.41800000000E+01 0.  1.
        -11    1    1    2    0    0 -0.13324563831E+01 -0.41627074561E+02 -0.12676871625E+02  0.43534949761E+02  0.00000000000E+00 0.  1.
         11    1    1    2    0    0  0.61766721930E+02  0.20755095870E+02 -0.70530813440E+01  0.65541192383E+02  0.00000000000E+00 0. -1.
</event>
<event>
 7    1  0.6992302E-006  0.2166865E+03  0.7561462E-02  0.1136378E+00
          2   -1    0    0  501    0  0.00000000000E+00  0.00000000000E+00  0.11572909417E+04  0.11572909417E+04  0.00000000000E+00 0. -1.
         -2   -1    0    0    0  501 -0.00000000000E+00 -0.00000000000E+00 -0.41222981452E+02  0.41222981452E+02  0.00000000000E+00 0.  1.
         23    2    1    2    0    0 -0.18344116773E+03  0.44949595920E+02  0.56124455888E+03  0.60523904670E+03  0.12509084930E+03 0.  0.
          5    1    3    3  502    0 -0.15774330145E+03 -0.15393273403E+02  0.43343278208E+03  0.46152069401E+03  0.41800000000E+01 0. -1.
         -5    1    3    3    0  502 -0.25697866282E+02  0.60342869323E+02  0.12781177680E+03  0.14371835268E+03  0.41800000000E+01 0. -1.
        -11    1    1    2    0    0  0.32110583919E+02  0.26614589186E+02  0.89036467721E+02  0.98320488919E+02  0.00000000000E+00 0.  1.
         11    1    1    2    0    0  0.15133058381E+03 -0.71564185105E+02  0.46578693369E+03  0.49495438758E+03  0.00000000000E+00 0. -1.
</event>
<event>
 7    1  0.6992302E-006  0.2135033E+03  0.7561462E-02  0.1138821E+00
         -2   -1    0    0    0  501 -0.00000000000E+00  0.00000000000E+00  0.75083002696E+02  0.75083002696E+02  0.00000000000E+00 0.  1.
          2   -1    0    0  501    0  0.00000000000E+00 -0.00000000000E+00 -0.86451108552E+03  0.86451108552E+03  0.00000000000E+00 0. -1.
         23    2    1    2    0    0  0.16551165335E+03 -0.11682355033E+03 -0.20346457985E+03  0.31318837598E+03  0.12508906540E+03 0.  0.
          5    1    3    3  502    0  0.17742189240E+03 -0.10523721859E+03 -0.14478543167E+03  0.25205890919E+03  0.41800000000E+01 0.  1.
         -5    1    3    3    0  502 -0.11910239047E+02 -0.11586331736E+02 -0.58679148186E+02  0.61129466782E+02  0.41800000000E+01 0.  1.
        -11    1    1    2    0    0 -0.11886130613E+03  0.72685725315E+02 -0.50032829984E+03  0.51936464298E+03  0.00000000000E+00 0. -1.
         11    1    1    2    0    0 -0.46650347228E+02  0.44137825011E+02 -0.85635203135E+02  0.10704106926E+03  0.00000000000E+00 0.  1.
</event>
<event>
 7    1  0.6992302E-006  0.9666209E+02  0.7561462E-02  0.1287476E+00
         -1   -1    0    0    0  501 -0.00000000000E+00  0.00000000000E+00  0.48697087688E+02  0.48697087688E+02  0.00000000000E+00 0.  1.
          1   -1    0    0  501    0  0.00000000000E+00 -0.00000000000E+00 -0.31731267261E+03  0.31731267261E+03  0.00000000000E+00 0. -1.
         23    2    1    2    0    0 -0.57413872581E+02  0.12655859062E+02 -0.12428355914E+03  0.18587772445E+03  0.12509037469E+03 0.  0.
          5    1    3    3  502    0 -0.78172384950E+02 -0.17554442910E+02 -0.12551473761E+03  0.14896476762E+03  0.41800000000E+01 0.  1.
         -5    1    3    3    0  502  0.20758512369E+02  0.30210301972E+02  0.12311784780E+01  0.36912956824E+02  0.41800000000E+01 0.  1.
        -11    1    1    2    0    0 -0.34193264067E+00 -0.18180948282E+02  0.58744807487E+01  0.19109508691E+02  0.00000000000E+00 0.  1.
         11    1    1    2    0    0  0.57755805221E+02  0.55250892196E+01 -0.15020650654E+03  0.16102252716E+03  0.00000000000E+00 0. -1.
</event>
<event>
 7    1  0.6992302E-006  0.1677844E+03  0.7561462E-02  0.1180178E+00
          1   -1    0    0  501    0  0.00000000000E+00  0.00000000000E+00  0.56397910835E+03  0.56397910835E+03  0.00000000000E+00 0. -1.
         -1   -1    0    0    0  501 -0.00000000000E+00 -0.00000000000E+00 -0.61747000168E+02  0.61747000168E+02  0.00000000000E+00 0.  1.
         23    2    1    2    0    0 -0.12819546991E+03  0.74344460058E+02  0.21408313385E+03  0.28886087574E+03  0.12509132700E+03 0.  0.
          5    1    3    3  502    0 -0.11467905201E+03  0.33269426316E+02  0.21436812445E+03  0.24541659454E+03  0.41800000000E+01 0. -1.
         -5    1    3    3    0  502 -0.13516417899E+02  0.41075033742E+02 -0.28499059613E+00  0.43444281204E+02  0.41800000000E+01 0. -1.
        -11    1    1    2    0    0  0.89330870370E+02 -0.65354658499E+00  0.12454822894E+03  0.15327326204E+03  0.00000000000E+00 0.  1.
         11    1    1    2    0    0  0.38864599537E+02 -0.73690913473E+02  0.16360074538E+03  0.18359197073E+03  0.00000000000E+00 0. -1.
</event>
<event>
 7    1  0.6992302E-006  0.1601735E+03  0.7561462E-02  0.1188501E+00
         -2   -1    0    0    0  501 -0.00000000000E+00  0.00000000000E+00  0.51389610137E+02  0.51389610137E+02  0.00000000000E+00 0.  1.
          2   -1    0    0  501    0  0.00000000000E+00 -0.00000000000E+00 -0.94598160854E+03  0.94598160854E+03  0.00000000000E+00 0. -1.
         23    2    1    2    0    0 -0.88323557527E+02 -0.10940566359E+03 -0.17161731610E+03  0.25469611798E+03  0.12508780633E+03 0.  0.
          5    1    3    3  502    0 -0.54248301429E+02 -0.10797654618E+03 -0.18226553614E+03  0.21872359451E+03  0.41800000000E+01 0. -1.
         -5    1    3    3    0  502 -0.34075256098E+02 -0.14291174088E+01  0.10648220045E+02  0.35972523470E+02  0.41800000000E+01 0. -1.
        -11    1    1    2    0    0  0.98436128897E+02  0.11665263913E+03 -0.70098191038E+03  0.71740724025E+03  0.00000000000E+00 0. -1.
         11    1    1    2    0    0 -0.10112571370E+02 -0.72469755393E+01 -0.21992771931E+02  0.25267860443E+02  0.00000000000E+00 0.  1.
</event>
<event>
 7    1  0.6992302E-006  0.1398779E+03  0.7561462E-02  0.1213493E+00
          1   -1    0    0  501    0  0.00000000000E+00  0.00000000000E+00  0.38769872324E+03  0.38769872324E+03  0.00000000000E+00 0.  1.
         -1   -1    0    0    0  501 -0.00000000000E+00 -0.00000000000E+00 -0.62276347038E+02  0.62276347038E+02  0.00000000000E+00 0. -1.
         23    2    1    2    0    0 -0.84976109262E+02  0.68954667051E+02  0.15182732459E+03  0.22511177854E+03  0.12509233028E+03 0.  0.
          5    1    3    3  502    0  0.21411352671E+02  0.31736898454E+01 -0.67892259915E+01  0.23066952985E+02  0.41800000000E+01 0.  1.
         -5    1    3    3    0  502 -0.10638746193E+03  0.65780977206E+02  0.15861655058E+03  0.20204482556E+03  0.41800000000E+01 0.  1.
        -11    1    1    2    0    0  0.97033218972E+01 -0.55192002334E+02  0.11686896659E+03  0.12960967143E+03  0.00000000000E+00 0.  1.
         11    1    1    2    0    0  0.75272787365E+02 -0.13762664718E+02  0.56726085027E+02  0.95253620300E+02  0.00000000000E+00 0. -1.
</event>
<event>
 7    1  0.6992302E-006  0.2594689E+03  0.7561462E-02  0.1107463E+00
         -2   -1    0    0    0  501 -0.00000000000E+00  0.00000000000E+00  0.26567769317E+03  0.26567769317E+03  0.00000000000E+00 0.  1.
          2   -1    0    0  501    0  0.00000000000E+00 -0.00000000000E+00 -0.29314428161E+03  0.29314428161E+03  0.00000000000E+00 0. -1.
         23    2    1    2    0    0 -0.13620006722E+03 -0.20402850922E+03  0.62274538259E+02  0.28232833649E+03  0.12511227191E+03 0.  0.
          5    1    3    3  502    0  0.15382522055E+02 -0.68197323107E+02  0.22021238215E+01  0.70070097852E+02  0.41800000000E+01 0. -1.
         -5    1    3    3    0  502 -0.15158258928E+03 -0.13583118611E+03  0.60072414437E+02  0.21225823864E+03  0.41800000000E+01 0. -1.
        -11    1    1    2    0    0  0.28422809839E+02  0.40967707439E+02 -0.61231160847E+02  0.78964955712E+02  0.00000000000E+00 0. -1.
         11    1    1    2    0    0  0.10777725739E+03  0.16306080178E+03 -0.28509965851E+02  0.19752868258E+03  0.00000000000E+00 0.  1.
</event>
<event>
 7    1  0.6992302E-006  0.1220849E+03  0.7561462E-02  0.1239697E+00
          1   -1    0    0  501    0  0.00000000000E+00  0.00000000000E+00  0.25138296909E+03  0.25138296909E+03  0.00000000000E+00 0. -1.
         -1   -1    0    0    0  501 -0.00000000000E+00 -0.00000000000E+00 -0.11102236899E+03  0.11102236899E+03  0.00000000000E+00 0.  1.
         23    2    1    2    0    0  0.56609019074E+02  0.41306255319E+02 -0.33889883636E+02  0.14732860466E+03  0.12508559377E+03 0.  0.
          5    1    3    3  502    0 -0.56716492844E+01 -0.38018041993E+02 -0.24901369532E+02  0.45990104666E+02  0.41800000000E+01 0.  1.
         -5    1    3    3    0  502  0.62280668358E+02  0.79324297312E+02 -0.89885141041E+01  0.10133849999E+03  0.41800000000E+01 0.  1.
        -11    1    1    2    0    0  0.73901016878E+01  0.16654896483E+02  0.98631385272E+02  0.10030029581E+03  0.00000000000E+00 0. -1.
         11    1    1    2    0    0 -0.63999120762E+02 -0.57961151802E+02  0.75619098468E+02  0.11477643761E+03  0.00000000000E+00 0.  1.
</event>
<event>
 7    1  0.6992302E-006  0.1042256E+03  0.7561462E-02  0.1271653E+00
         -3   -1    0    0    0  501 -0.00000000000E+00  0.00000000000E+00  0.52699328756E+02  0.52699328756E+02  0.00000000000E+00 0.  1.
          3   -1    0    0  501    0  0.00000000000E+00 -0.00000000000E+00 -0.35073018611E+03  0.35073018611E+03  0.00000000000E+00 0. -1.
         23    2    1    2    0    0  0.52991803764E+02  0.54097348300E+02 -0.11798692604E+03  0.18789077783E+03  0.12508946926E+03 0.  0.
          5    1    3    3  502    0  0.72480571298E+02  0.28821231792E+02 -0.13152366600E+03  0.15297072837E+03  0.41800000000E+01 0.  1.
         -5    1    3    3    0  502 -0.19488767533E+02  0.25276116508E+02  0.13536739969E+02  0.34920049466E+02  0.41800000000E+01 0.  1.
        -11    1    1    2    0    0  0.13553632495E+02 -0.21378664068E+01  0.29255718851E+01  0.14029625706E+02  0.00000000000E+00 0.  1.
         11    1    1    2    0    0 -0.66545436260E+02 -0.51959481893E+02 -0.18296950321E+03  0.20150911133E+03  0.00000000000E+00 0. -1.
</event>
<event>
 7    1  0.6992302E-006  0.9141523E+02  0.7561462E-02  0.1299460E+00
         -1   -1    0    0    0  501 -0.00000000000E+00  0.00000000000E+00  0.16494634449E+02  0.16494634449E+02  0.00000000000E+00 0.  1.
          1   -1    0    0  501    0  0.00000000000E+00 -0.00000000000E+00 -0.89428965053E+03  0.89428965053E+03  0.00000000000E+00 0. -1.
         23    2    1    2    0    0 -0.32497541643E+02 -0.41876979177E+02 -0.43095924127E+03  0.45186610348E+03  0.12508931305E+03 0.  0.
          5    1    3    3  502    0  0.16326387456E+02 -0.14585415625E+02 -0.36328961575E+03  0.36397266737E+03  0.41800000000E+01 0.  1.
         -5    1    3    3    0  502 -0.48823929099E+02 -0.27291563551E+02 -0.67669625515E+02  0.87893436109E+02  0.41800000000E+01 0.  1.
        -11    1    1    2    0    0  0.48670337080E+02  0.61881513059E+02 -0.34736779353E+03  0.35617763455E+03  0.00000000000E+00 0.  1.
         11    1    1    2    0    0 -0.16172795437E+02 -0.20004533882E+02 -0.99467981279E+02  0.10274054695E+03  0.00000000000E+00 0. -1.
</event>
<event>
 7    1  0.6992302E-006  0.9445137E+02  0.7561462E-02  0.1292417E+00
         -2   -1    0    0    0  501 -0.00000000000E+00  0.00000000000E+00  0.22983825225E+02  0.22983825225E+02  0.00000000000E+00 0. -1.
          2   -1    0    0  501    0  0.00000000000E+00 -0.00000000000E+00 -0.64432983592E+03  0.64432983592E+03  0.00000000000E+00 0.  1.
         23    2    1    2    0    0 -0.51021943236E+02  0.15608924492E+02 -0.32584769864E+03  0.35308737643E+03  0.12508835067E+03 0.  0.
          5    1    3    3  502    0 -0.72039987646E+02 -0.85559051623E+01 -0.30744187238E+03  0.31591286872E+03  0.41800000000E+01 0.  1.
         -5    1    3    3    0  502  0.21018044411E+02  0.24164829655E+02 -0.18405826256E+02  0.37174507707E+02  0.41800000000E+01 0.  1.
        -11    1    1    2    0    0 -0.10987620679E+02 -0.18877499523E+02 -0.13962157957E+02  0.25923534698E+02  0.00000000000E+00 0. -1.
         11    1    1    2    0    0  0.62009563915E+02  0.32685750311E+01 -0.28153615410E+03  0.28830275001E+03  0.00000000000E+00 0.  1.
</event>
<event>
 6    1  0.6992302E-006  0.1891922E+03  0.7561462E-02  0.1159192E+00
         -2   -1    0    0    0  501 -0.00000000000E+00  0.00000000000E+00  0.23906151364E+02  0.23906151364E+02  0.00000000000E+00 0.  1.
          2   -1    0    0  501    0  0.00000000000E+00 -0.00000000000E+00 -0.16869749658E+04  0.16869749658E+04  0.00000000000E+00 0. -1.
          5    1    1    2  502    0  0.14738092898E+03  0.43026242548E+02 -0.83089789119E+03  0.84497406692E+03  0.41800000000E+01 0. -1.
         -5    1    1    2    0  502 -0.59844048544E+02  0.41695798216E+02 -0.14805466020E+03  0.16509846923E+03  0.41800000000E+01 0.  1.
        -11    1    1    2    0    0 -0.10276395440E+03 -0.50970732647E+02 -0.49732988236E+03  0.51038755647E+03  0.00000000000E+00 0.  1.
         11    1    1    2    0    0  0.15227073967E+02 -0.33751308118E+02 -0.18678638067E+03  0.19042102453E+03  0.00000000000E+00 0. -1.
</event>
<event>
 7    1  0.6992302E-006  0.1043763E+03  0.7561462E-02  0.1271353E+00
          3   -1    0    0  501    0  0.00000000000E+00  0.00000000000E+00  0.34493199141E+03  0.34493199141E+03  0.00000000000E+00 0. -1.
         -3   -1    0    0    0  501 -0.00000000000E+00 -0.00000000000E+00 -0.36265399192E+02  0.36265399192E+02  0.00000000000E+00 0.  1.
         23    2    1    2    0    0  0.80002514192E+01  0.21020855120E+02  0.19266292635E+03  0.23080328803E+03  0.12508107052E+03 0.  0.
          5    1    3    3  502    0  0.12334628624E+02 -0.51108315362E+02  0.61701078074E+02  0.81170797692E+02  0.41800000000E+01 0. -1.
         -5    1    3    3    0  502 -0.43343772052E+01  0.72129170483E+02  0.13096184827E+03  0.14963249033E+03  0.41800000000E+01 0. -1.
        -11    1    1    2    0    0  0.36456327007E+02 -0.82827260418E+01  0.89728865885E+02  0.97205641310E+02  0.00000000000E+00 0. -1.
         11    1    1    2    0    0 -0.44456578427E+02 -0.12738129078E+02  0.26274799991E+02  0.53188461271E+02  0.00000000000E+00 0.  1.
</event>
<event>
 7    1  0.6992302E-006  0.1363645E+03  0.7561462E-02  0.1218306E+00
         -2   -1    0    0    0  501 -0.00000000000E+00  0.00000000000E+00  0.78830644353E+02  0.78830644353E+02  0.00000000000E+00 0.  1.
          2   -1    0    0  501    0  0.00000000000E+00 -0.00000000000E+00 -0.40210694258E+03  0.40210694258E+03  0.00000000000E+00 0. -1.
         23    2    1    2    0    0 -0.49871265080E+02 -0.82256456861E+02 -0.23617200681E+02  0.15263315154E+03  0.11612854517E+03 0.  0.
          5    1    3    3  502    0  0.13242296181E+02 -0.80829028278E+02 -0.33512631012E+02  0.88596044256E+02  0.41800000000E+01 0. -1.
         -5    1    3    3    0  502 -0.63113561261E+02 -0.14274285832E+01  0.98954303309E+01  0.64037107280E+02  0.41800000000E+01 0.  1.
        -11    1    1    2    0    0 -0.61223670545E+01  0.69822425895E+02 -0.11244620965E+03  0.13250209282E+03  0.00000000000E+00 0.  1.
         11    1    1    2    0    0  0.55993632134E+02  0.12434030966E+02 -0.18721288789E+03  0.19580234258E+03  0.00000000000E+00 0. -1.
</event>
<event>
 7    1  0.6992302E-006  0.1168070E+03  0.7561462E-02  0.1248459E+00
          2   -1    0    0  501    0  0.00000000000E+00  0.00000000000E+00  0.12984980630E+03  0.12984980630E+03  0.00000000000E+00 0. -1.
         -2   -1    0    0    0  501 -0.00000000000E+00 -0.00000000000E+00 -0.12799632016E+03  0.12799632016E+03  0.00000000000E+00 0.  1.
         23    2    1    2    0    0  0.38601371457E+02  0.51678232090E+02 -0.23742490936E+02  0.14273184254E+03  0.12509183606E+03 0.  0.
          5    1    3    3  502    0 -0.22696191711E+01  0.86588913704E+02 -0.11888744734E+02  0.87530599215E+02  0.41800000000E+01 0.  1.
         -5    1    3    3    0  502  0.40870990628E+02 -0.34910681614E+02 -0.11853746202E+02  0.55201243326E+02  0.41800000000E+01 0.  1.
        -11    1    1    2    0    0  0.16758013981E+02  0.69610811864E+00 -0.20159974752E+02  0.26224800878E+02  0.00000000000E+00 0.  1.
         11    1    1    2    0    0 -0.55359385438E+02 -0.52374340209E+02  0.45755951819E+02  0.88889483041E+02  0.00000000000E+00 0. -1.
</event>
<event>
 7    1  0.6992302E-006  0.1187560E+03  0.7561462E-02  0.1245164E+00
         -1   -1    0    0    0  501 -0.00000000000E+00  0.00000000000E+00  0.28869703762E+03  0.28869703762E+03  0.00000000000E+00 0.  1.
          1   -1    0    0  501    0  0.00000000000E+00 -0.00000000000E+00 -0.62830502316E+02  0.62830502316E+02  0.00000000000E+00 0. -1.
         23    2    1    2    0    0 -0.49194104331E+02 -0.52153414304E+02  0.17196271399E+03  0.22440888741E+03  0.12509250666E+03 0.  0.
          5    1    3    3  502    0 -0.64050233675E+02  0.64359612796E+01  0.32241823637E+02  0.72116999541E+02  0.41800000000E+01 0.  1.
         -5    1    3    3    0  502  0.14856129344E+02 -0.58589375584E+02  0.13972089035E+03  0.15229188787E+03  0.41800000000E+01 0.  1.
        -11    1    1    2    0    0 -0.50916168137E+01  0.57629949422E+02  0.41404428167E+02  0.71143954796E+02  0.00000000000E+00 0. -1.
         11    1    1    2    0    0  0.54285721145E+02 -0.54765351181E+01  0.12499393152E+02  0.55974697733E+02  0.00000000000E+00 0.  1.
</event>
<event>
 6    1  0.6992302E-006  0.1235527E+03  0.7561462E-02  0.1237349E+00
          1   -1    0    0  501    0  0.00000000000E+00  0.00000000000E+00  0.11738110069E+03  0.11738110069E+03  0.00000000000E+00 0. -1.
         -1   -1    0    0    0  501 -0.00000000000E+00 -0.00000000000E+00 -0.20833947289E+03  0.20833947289E+03  0.00000000000E+00 0.  1.
          5    1    1    2  502    0  0.39571221482E+02  0.84484517169E+02 -0.99766170523E+01  0.93917626134E+02  0.41800000000E+01 0. -1.
         -5    1    1    2    0  502 -0.29194255568E+02 -0.46369630541E+02 -0.11394335615E+03  0.12650299604E+03  0.41800000000E+01 0.  1.
        -11    1    1    2    0    0  0.40973278111E-01 -0.67545358725E+02  0.30101809928E+02  0.73949280761E+02  0.00000000000E+00 0. -1.
         11    1    1    2    0    0 -0.10417939193E+02  0.29430472097E+02  0.28597910790E+01  0.31350670645E+02  0.00000000000E+00 0.  1.
</event>
<event>
 7    1  0.6992302E-006  0.1275834E+03  0.7561462E-02  0.1231086E+00
         -1   -1    0    0    0  501 -0.00000000000E+00  0.00000000000E+00  0.19162655017E+04  0.19162655017E+04  0.00000000000E+00 0.  1.
          1   -1    0    0  501    0  0.00000000000E+00 -0.00000000000E+00 -0.18079157568E+02  0.18079157568E+02  0.00000000000E+00 0. -1.
         23    2    1    2    0    0  0.54825010566E+02  0.48141055406E+02  0.16845432441E+04  0.16907615934E+04  0.12516182062E+03 0.  0.
          5    1    3    3  502    0  0.85539437735E+02  0.60909800480E+02  0.10266822454E+04  0.10320469489E+04  0.41800000000E+01 0. -1.
         -5    1    3    3    0  502 -0.30714427169E+02 -0.12768745074E+02  0.65786099869E+03  0.65871464450E+03  0.41800000000E+01 0.  1.
        -11    1    1    2    0    0 -0.49973943450E+02 -0.74521654281E+02  0.15501386319E+03  0.17910937932E+03  0.00000000000E+00 0.  1.
         11    1    1    2    0    0 -0.48510671160E+01  0.26380598875E+02  0.58629236853E+02  0.64473686595E+02  0.00000000000E+00 0. -1.
</event>
<event>
 7    1  0.6992302E-006  0.1023577E+03  0.7561462E-02  0.1275415E+00
         -3   -1    0    0    0  501 -0.00000000000E+00  0.00000000000E+00  0.37417567803E+03  0.37417567803E+03  0.00000000000E+00 0.  1.
          3   -1    0    0  501    0  0.00000000000E+00 -0.00000000000E+00 -0.35823809578E+02  0.35823809578E+02  0.00000000000E+00 0. -1.
         23    2    1    2    0    0 -0.11958697229E+02  0.55714103808E+01  0.25127000511E+03  0.28099275416E+03  0.12508501656E+03 0.  0.
          5    1    3    3  502    0  0.51055958954E+02 -0.22782492753E+02  0.12483786053E+03  0.13684924823E+03  0.41800000000E+01 0.  1.
         -5    1    3    3    0  502 -0.63014656184E+02  0.28353903134E+02  0.12643214458E+03  0.14414350592E+03  0.41800000000E+01 0.  1.
        -11    1    1    2    0    0 -0.26903898443E+02  0.19455001628E+02  0.33581796158E+01  0.33370559032E+02  0.00000000000E+00 0. -1.
         11    1    1    2    0    0  0.38862595672E+02 -0.25026412009E+02  0.83723683731E+02  0.95636174421E+02  0.00000000000E+00 0.  1.
</event>
<event>
 7    1  0.6992302E-006  0.2105698E+03  0.7561462E-02  0.1141116E+00
          1   -1    0    0  501    0  0.00000000000E+00  0.00000000000E+00  0.96174864525E+03  0.96174864525E+03  0.00000000000E+00 0. -1.
         -1   -1    0    0    0  501 -0.00000000000E+00 -0.00000000000E+00 -0.56056764573E+02  0.56056764573E+02  0.00000000000E+00 0.  1.
         23    2    1    2    0    0  0.14028746450E+03 -0.12523767772E+03  0.29197250382E+03  0.36913549805E+03  0.12509206337E+03 0.  0.
          5    1    3    3  502    0  0.80585260177E+02 -0.14182998913E+03  0.22293383619E+03  0.27627286818E+03  0.41800000000E+01 0.  1.
         -5    1    3    3    0  502  0.59702204320E+02  0.16592311408E+02  0.69038667632E+02  0.92862629873E+02  0.41800000000E+01 0.  1.
        -11    1    1    2    0    0 -0.22849952512E+02  0.53663226493E+02  0.90415986990E+02  0.10759606364E+03  0.00000000000E+00 0.  1.
         11    1    1    2    0    0 -0.11743751198E+03  0.71574451224E+02  0.52330338986E+03  0.54107384813E+03  0.00000000000E+00 0. -1.
</event>
<event>
 7    1  0.6992302E-006  0.1156615E+03  0.7561462E-02  0.1250431E+00
         -2   -1    0    0    0  501 -0.00000000000E+00  0.00000000000E+00  0.30808590387E+02  0.30808590387E+02  0.00000000000E+00 0.  1.
          2   -1    0    0  501    0  0.00000000000E+00 -0.00000000000E+00 -0.54991914132E+03  0.54991914132E+03  0.00000000000E+00 0. -1.
         23    2    1    2    0    0  0.52336966651E+01  0.43020510340E+02 -0.16360631835E+03  0.21045604281E+03  0.12508622092E+03 0.  0.
          5    1    3    3  502    0  0.59262838603E+02  0.44660243965E+02 -0.68995451997E+02  0.10141235737E+03  0.41800000000E+01 0.  1.
         -5    1    3    3    0  502 -0.54029141938E+02 -0.16397336256E+01 -0.94610866349E+02  0.10904368545E+03  0.41800000000E+01 0.  1.
        -11    1    1    2    0    0  0.36628092963E+02  0.72775741120E+01 -0.10854027624E+03  0.11478489380E+03  0.00000000000E+00 0. -1.
         11    1    1    2    0    0 -0.41861789629E+02 -0.50298084452E+02 -0.24696395635E+03  0.25548679509E+03  0.00000000000E+00 0.  1.
</event>
<event>
 7    1  0.6992302E-006  0.7073384E+02  0.7561462E-02  0.1357615E+00
          2   -1    0    0  501    0  0.00000000000E+00  0.00000000000E+00  0.95368666625E+02  0.95368666625E+02  0.00000000000E+00 0. -1.
         -2   -1    0    0    0  501 -0.00000000000E+00 -0.00000000000E+00 -0.16634761051E+03  0.16634761051E+03  0.00000000000E+00 0.  1.
         23    2    1    2    0    0  0.24622338294E+02 -0.30081950022E+02 -0.92009680578E+02  0.16007636763E+03  0.12508988326E+03 0.  0.
          5    1    3    3  502    0  0.21980826926E+02 -0.52191984537E+01  0.28682982380E+02  0.36750274326E+02  0.41800000000E+01 0.  1.
         -5    1    3    3    0  502  0.26415113682E+01 -0.24862751569E+02 -0.12069266296E+03  0.12332609330E+03  0.41800000000E+01 0.  1.
        -11    1    1    2    0    0  0.12743070119E+02 -0.24137562028E+02 -0.97092378782E+01  0.28970278509E+02  0.00000000000E+00 0.  1.
         11    1    1    2    0    0 -0.37365408413E+02  0.54219512050E+02  0.30739974568E+02  0.72669630997E+02  0.00000000000E+00 0. -1.
</event>
<event>
 7    1  0.6992302E-006  0.1135530E+03  0.7561462E-02  0.1254128E+00
          2   -1    0    0  501    0  0.00000000000E+00  0.00000000000E+00  0.22103371234E+03  0.22103371234E+03  0.00000000000E+00 0. -1.
         -2   -1    0    0    0  501 -0.00000000000E+00 -0.00000000000E+00 -0.79467423371E+02  0.79467423371E+02  0.00000000000E+00 0.  1.
         23    2    1    2    0    0 -0.11122991156E+02  0.74158113211E+02  0.62837342112E+02  0.15880322428E+03  0.12508711280E+03 0.  0.
          5    1    3    3  502    0  0.54886689873E+02  0.51644230648E+02  0.39148702406E+02  0.85028045871E+02  0.41800000000E+01 0.  1.
         -5    1    3    3    0  502 -0.66009681029E+02  0.22513882563E+02  0.23688639706E+02  0.73775178405E+02  0.41800000000E+01 0.  1.
        -11    1    1    2    0    0  0.22654700107E+02 -0.44452737070E+02 -0.68670042506E+01  0.50363052105E+02  0.00000000000E+00 0.  1.
         11    1    1    2    0    0 -0.11531708951E+02 -0.29705376141E+02  0.85595951104E+02  0.91334859328E+02  0.00000000000E+00 0. -1.
</event>
<event>
 7    1  0.6992302E-006  0.7785797E+02  0.7561462E-02  0.1335242E+00
         -1   -1    0    0    0  501 -0.00000000000E+00  0.00000000000E+00  0.49676149456E+02  0.49676149456E+02  0.00000000000E+00 0.  1.
          1   -1    0    0  501    0  0.00000000000E+00 -0.00000000000E+00 -0.21300973933E+03  0.21300973933E+03  0.00000000000E+00 0. -1.
         23    2    1    2    0    0 -0.20153200672E+02 -0.12733992030E+02 -0.85833097251E+02  0.15356579015E+03  0.12508727061E+03 0.  0.
          5    1    3    3  502    0 -0.46284685351E+02  0.58539749245E+01 -0.10569849562E+03  0.11561222036E+03  0.41800000000E+01 0. -1.
         -5    1    3    3    0  502  0.26131484679E+02 -0.18587966954E+02  0.19865398369E+02  0.37953569785E+02  0.41800000000E+01 0. -1.
        -11    1    1    2    0    0  0.30645173973E+02  0.38211971047E+02 -0.53997074525E+02  0.72903809752E+02  0.00000000000E+00 0.  1.
         11    1    1    2    0    0 -0.10491973302E+02 -0.25477979017E+02 -0.23503418101E+02  0.36216288890E+02  0.00000000000E+00 0. -1.
</event>
<event>
 7    1  0.6992302E-006  0.1363939E+03  0.7561462E-02  0.1218265E+00
          1   -1    0    0  501    0  0.00000000000E+00  0.00000000000E+00  0.87047641629E+02  0.87047641629E+02  0.00000000000E+00 0. -1.
         -1   -1    0    0    0  501 -0.00000000000E+00 -0.00000000000E+00 -0.24864649217E+03  0.24864649217E+03  0.00000000000E+00 0.  1.
         23    2    1    2    0    0  0.89302708907E+02 -0.36605563116E+02 -0.10756796017E+03  0.19113626889E+03  0.12508903295E+03 0.  0.
          5    1    3    3  502    0  0.31107153155E+02 -0.66596441564E+02 -0.11068418198E+02  0.74449468015E+02  0.41800000000E+01 0. -1.
         -5    1    3    3    0  502  0.58195555753E+02  0.29990878448E+02 -0.96499541969E+02  0.11668680088E+03  0.41800000000E+01 0. -1.
        -11    1    1    2    0    0 -0.24494810389E+02 -0.31266971747E+02 -0.21954768629E+02  0.45383159033E+02  0.00000000000E+00 0. -1.
         11    1    1    2    0    0 -0.64807898518E+02  0.67872534863E+02 -0.32076121750E+02  0.99174705876E+02  0.00000000000E+00 0.  1.
</event>
<event>
 7    1  0.6992302E-006  0.9088669E+02  0.7561462E-02  0.1300719E+00
         -2   -1    0    0    0  501 -0.00000000000E+00  0.00000000000E+00  0.22770985361E+02  0.22770985361E+02  0.00000000000E+00 0.  1.
          2   -1    0    0  501    0  0.00000000000E+00 -0.00000000000E+00 -0.63259856651E+03  0.63259856651E+03  0.00000000000E+00 0. -1.
         23    2    1    2    0    0 -0.24069082620E+02  0.46759646628E+02 -0.34033038258E+03  0.36638567217E+03  0.12509159114E+03 0.  0.
          5    1    3    3  502    0 -0.29618569244E+02  0.57412896576E+02 -0.34632608832E+03  0.35232475387E+03  0.41800000000E+01 0. -1.
         -5    1    3    3    0  502  0.55494866236E+01 -0.10653249948E+02  0.59957057389E+01  0.14060918304E+02  0.41800000000E+01 0. -1.
        -11    1    1    2    0    0  0.58187892737E+02 -0.36503501559E+02 -0.17868541693E+03  0.19143357780E+03  0.00000000000E+00 0.  1.
         11    1    1    2    0    0 -0.34118810117E+02 -0.10256145069E+02 -0.90811781642E+02  0.97550301898E+02  0.00000000000E+00 0. -1.
</event>
<event>
 7    1  0.6992302E-006  0.8247349E+02  0.7561462E-02  0.1322175E+00
         -1   -1    0    0    0  501 -0.00000000000E+00  0.00000000000E+00  0.32687563173E+03  0.32687563173E+03  0.00000000000E+00 0.  1.
          1   -1    0    0  501    0  0.00000000000E+00 -0.00000000000E+00 -0.39581629868E+02  0.39581629868E+02  0.00000000000E+00 0. -1.
         23    2    1    2    0    0 -0.14213965212E+02  0.18381344508E+02  0.19932522837E+03  0.23647133345E+03  0.12509290246E+03 0.  0.
          5    1    3    3  502    0 -0.41125380021E+02  0.57269103042E+02  0.15973864486E+03  0.17465667495E+03  0.41800000000E+01 0. -1.
         -5    1    3    3    0  502  0.26911414809E+02 -0.38887758534E+02  0.39586583512E+02  0.61814658496E+02  0.41800000000E+01 0. -1.
        -11    1    1    2    0    0  0.57545087100E+01  0.13065651680E+02 -0.15760245406E+02  0.21265252399E+02  0.00000000000E+00 0. -1.
         11    1    1    2    0    0  0.84594565021E+01 -0.31446996189E+02  0.10372901890E+03  0.10872067575E+03  0.00000000000E+00 0.  1.
</event>
<event>
 7    1  0.6992302E-006  0.1355787E+03  0.7561462E-02  0.1219405E+00
          3   -1    0    0  501    0  0.00000000000E+00  0.00000000000E+00  0.59857579479E+03  0.59857579479E+03  0.00000000000E+00 0.  1.
         -3   -1    0    0    0  501 -0.00000000000E+00 -0.00000000000E+00 -0.37218423302E+02  0.37218423302E+02  0.00000000000E+00 0. -1.
         23    2    1    2    0    0 -0.10230868697E+03  0.10860738468E+02  0.28443908996E+03  0.32732013512E+03  0.12509137416E+03 0.  0.
          5    1    3    3  502    0  0.20930010667E+02  0.21730105717E+02  0.10497568871E+03  0.10930521699E+03  0.41800000000E+01 0. -1.
         -5    1    3    3    0  502 -0.12323869764E+03 -0.10869367249E+02  0.17946340125E+03  0.21801491813E+03  0.41800000000E+01 0. -1.
        -11    1    1    2    0    0  0.58701514154E+02 -0.33697398225E+02  0.76707183016E+02  0.10230041221E+03  0.00000000000E+00 0. -1.
         11    1    1    2    0    0  0.43607172815E+02  0.22836659757E+02  0.20021109851E+03  0.20617367076E+03  0.00000000000E+00 0.  1.
</event>
<event>
 7    1  0.6992302E-006  0.1079836E+03  0.7561462E-02  0.1264350E+00
          2   -1    0    0  501    0  0.00000000000E+00  0.00000000000E+00  0.34861763988E+02  0.34861763988E+02  0.00000000000E+00 0.  1.
         -2   -1    0    0    0  501 -0.00000000000E+00 -0.00000000000E+00 -0.36874742479E+03  0.36874742479E+03  0.00000000000E+00 0. -1.
         23    2    1    2    0    0  0.20776915302E+02  0.81372720687E+00 -0.24196350728E+03  0.27317726729E+03  0.12508852123E+03 0.  0.
          5    1    3    3  502    0  0.20370099419E+02 -0.61127803642E+02 -0.11663849453E+03  0.13331751623E+03  0.41800000000E+01 0.  1.
         -5    1    3    3    0  502  0.40681588253E+00  0.61941530849E+02 -0.12532501275E+03  0.13985975105E+03  0.41800000000E+01 0.  1.
        -11    1    1    2    0    0 -0.19820245804E+02 -0.42879574806E+02 -0.65463261227E+02  0.80727558180E+02  0.00000000000E+00 0. -1.
         11    1    1    2    0    0 -0.95666949770E+00  0.42065847599E+02 -0.26458892290E+02  0.49704363309E+02  0.00000000000E+00 0.  1.
</event>
<event>
 7    1  0.6992302E-006  0.1147552E+03  0.7561462E-02  0.1252009E+00
         -1   -1    0    0    0  501 -0.00000000000E+00  0.00000000000E+00  0.85288059019E+02  0.85288059019E+02  0.00000000000E+00 0.  1.
          1   -1    0    0  501    0  0.00000000000E+00 -0.00000000000E+00 -0.30091010639E+03  0.30091010639E+03  0.00000000000E+00 0. -1.
         23    2    1    2    0    0  0.68536381583E+02  0.20219767429E+02  0.39271303189E+01  0.13763283182E+03  0.11756402276E+03 0.  0.
          5    1    3    3  502    0 -0.25785602641E+02 -0.14186308124E+02 -0.18039970564E+02  0.34771562803E+02  0.41800000000E+01 0. -1.
         -5    1    3    3    0  502  0.94321984225E+02  0.34406075553E+02  0.21967100883E+02  0.10286126902E+03  0.41800000000E+01 0.  1.
        -11    1    1    2    0    0 -0.65209859031E+02  0.12509232295E+02 -0.19898094477E+03  0.20976706841E+03  0.00000000000E+00 0. -1.
         11    1    1    2    0    0 -0.33265225527E+01 -0.32728999724E+02 -0.20568232917E+02  0.38798265175E+02  0.00000000000E+00 0.  1.
</event>
<event>
 7    1  0.6992302E-006  0.1109589E+03  0.7561462E-02  0.1258804E+00
         -2   -1    0    0    0  501 -0.00000000000E+00  0.00000000000E+00  0.13098344600E+02  0.13098344600E+02  0.00000000000E+00 0.  1.
          2   -1    0    0  501    0  0.00000000000E+00 -0.00000000000E+00 -0.98140752483E+03  0.98140752483E+03  0.00000000000E+00 0. -1.
         23    2    1    2    0    0  0.22058726062E+02  0.15422516606E+02 -0.45705722474E+03  0.47463452023E+03  0.12510867156E+03 0.  0.
          5    1    3    3  502    0  0.14832063020E+02  0.70439871597E+02 -0.27160968678E+03  0.28101789971E+03  0.41800000000E+01 0.  1.
         -5    1    3    3    0  502  0.72266630417E+01 -0.55017354991E+02 -0.18544753796E+03  0.19361662052E+03  0.41800000000E+01 0.  1.
        -11    1    1    2    0    0 -0.60932238172E+01  0.37960054223E+02 -0.19653228419E+03  0.20025741390E+03  0.00000000000E+00 0.  1.
         11    1    1    2    0    0 -0.15965502245E+02 -0.53382570829E+02 -0.31471967130E+03  0.31961393529E+03  0.00000000000E+00 0. -1.
</event>
<event>
 7    1  0.6992302E-006  0.1048709E+03  0.7561462E-02  0.1270374E+00
         -4   -1    0    0    0  501 -0.00000000000E+00  0.00000000000E+00  0.58974940755E+03  0.58974940755E+03  0.00000000000E+00 0.  1.
          4   -1    0    0  501    0  0.00000000000E+00 -0.00000000000E+00 -0.23744051893E+02  0.23744051893E+02  0.00000000000E+00 0. -1.
         23    2    1    2    0    0  0.23488906558E+02 -0.11202585043E+02  0.43207203325E+03  0.45056754374E+03  0.12509053886E+03 0.  0.
          5    1    3    3  502    0 -0.17050099894E+02 -0.59498961365E+02  0.16941529214E+03  0.18041575852E+03  0.41800000000E+01 0.  1.
         -5    1    3    3    0  502  0.40539006452E+02  0.48296376322E+02  0.26265674111E+03  0.27015178522E+03  0.41800000000E+01 0.  1.
        -11    1    1    2    0    0  0.30050003889E+02  0.66833457593E+01  0.19322436911E+02  0.36345927041E+02  0.00000000000E+00 0.  1.
         11    1    1    2    0    0 -0.53538910447E+02  0.45192392834E+01  0.11461088550E+03  0.12657998867E+03  0.00000000000E+00 0. -1.
</event>
<event>
 7    1  0.6992302E-006  0.1354953E+03  0.7561462E-02  0.1219522E+00
          2   -1    0    0  501    0  0.00000000000E+00  0.00000000000E+00  0.14573732876E+03  0.14573732876E+03  0.00000000000E+00 0.  1.
         -2   -1    0    0    0  501 -0.00000000000E+00 -0.00000000000E+00 -0.21073844470E+03  0.21073844470E+03  0.00000000000E+00 0. -1.
         23    2    1    2    0    0 -0.10979267118E+03  0.76288839316E+01 -0.12245055087E+03  0.20676999029E+03  0.12508821272E+03 0.  0.
          5    1    3    3  502    0  0.11996403712E+02  0.12718517293E+01 -0.74619866722E+02  0.75704215328E+02  0.41800000000E+01 0.  1.
         -5    1    3    3    0  502 -0.12178907489E+03  0.63570322023E+01 -0.47830684152E+02  0.13106577497E+03  0.41800000000E+01 0.  1.
        -11    1    1    2    0    0  0.51094529797E+02  0.36473343434E+02  0.13750564830E+02  0.64265338944E+02  0.00000000000E+00 0.  1.
         11    1    1    2    0    0  0.58698141381E+02 -0.44102227366E+02  0.43698870103E+02  0.85440444220E+02  0.00000000000E+00 0. -1.
</event>
<event>
 7    1  0.6992302E-006  0.1872878E+03  0.7561462E-02  0.1160931E+00
          2   -1    0    0  501    0  0.00000000000E+00  0.00000000000E+00  0.16171650165E+03  0.16171650165E+03  0.00000000000E+00 0. -1.
         -2   -1    0    0    0  501 -0.00000000000E+00 -0.00000000000E+00 -0.25002512081E+03  0.25002512081E+03  0.00000000000E+00 0.  1.
         23    2    1    2    0    0 -0.62299025883E+02 -0.14424754420E+03 -0.10677961695E+03  0.22745911290E+03  0.12508892362E+03 0.  0.
          5    1    3    3  502    0  0.27800386450E+02 -0.82048124927E+02 -0.71355477863E+02  0.11231132139E+03  0.41800000000E+01 0. -1.
         -5    1    3    3    0  502 -0.90099412333E+02 -0.62199419273E+02 -0.35424139083E+02  0.11514779151E+03  0.41800000000E+01 0. -1.
        -11    1    1    2    0    0  0.72636717731E+02  0.62329103170E+02  0.31348645437E+02  0.10071617266E+03  0.00000000000E+00 0. -1.
         11    1    1    2    0    0 -0.10337691848E+02  0.81918441031E+02 -0.12877647659E+02  0.83566336900E+02  0.00000000000E+00 0.  1.
</event>
<event>
 7    1  0.6992302E-006  0.1032804E+03  0.7561462E-02  0.1273545E+00
         -4   -1    0    0    0  501 -0.00000000000E+00  0.00000000000E+00  0.38023901048E+03  0.38023901048E+03  0.00000000000E+00 0. -1.
          4   -1    0    0  501    0  0.00000000000E+00 -0.00000000000E+00 -0.40751101159E+02  0.40751101159E+02  0.00000000000E+00 0.  1.
         23    2    1    2    0    0  0.10890407569E+02 -0.54820415258E+02  0.16102156749E+03  0.21142321378E+03  0.12509177120E+03 0.  0.
          5    1    3    3  502    0 -0.26066497882E+02  0.97080876508E+01  0.12603476515E+03  0.12913536968E+03  0.41800000000E+01 0. -1.
         -5    1    3    3    0  502  0.36956905452E+02 -0.64528502909E+02  0.34986802347E+02  0.82287844101E+02  0.41800000000E+01 0. -1.
        -11    1    1    2    0    0  0.19782311961E+02 -0.16855971834E+02  0.79133259655E+02  0.83291874974E+02  0.00000000000E+00 0. -1.
         11    1    1    2    0    0 -0.30672719531E+02  0.71676387091E+02  0.99333082170E+02  0.12627502288E+03  0.00000000000E+00 0.  1.
</event>
<event>
 7    1  0.6992302E-006  0.1828096E+03  0.7561462E-02  0.1165111E+00
         -2   -1    0    0    0  501 -0.00000000000E+00  0.00000000000E+00  0.38922401696E+02  0.38922401696E+02  0.00000000000E+00 0.  1.
          2   -1    0    0  501    0  0.00000000000E+00 -0.00000000000E+00 -0.99215795414E+03  0.99215795414E+03  0.00000000000E+00 0. -1.
         23    2    1    2    0    0  0.13373347147E+03  0.69309706758E+02 -0.30464344272E+03  0.35914591180E+03  0.11614508998E+03 0.  0.
          5    1    3    3  502    0  0.54976993988E+02 -0.30483603141E+02 -0.99337386110E+02  0.11763123993E+03  0.41800000000E+01 0. -1.
         -5    1    3    3    0  502  0.78756477480E+02  0.99793309900E+02 -0.20530605661E+03  0.24151467187E+03  0.41800000000E+01 0.  1.
        -11    1    1    2    0    0 -0.77693253525E+02 -0.87013671038E+02 -0.41817817034E+03  0.43414352781E+03  0.00000000000E+00 0. -1.
         11    1    1    2    0    0 -0.56040217943E+02  0.17703964279E+02 -0.23041393939E+03  0.23779091624E+03  0.00000000000E+00 0.  1.
</event>
<event>
 7    1  0.6992302E-006  0.1736823E+03  0.7561462E-02  0.1174061E+00
         -1   -1    0    0    0  501 -0.00000000000E+00  0.00000000000E+00  0.84274363350E+02  0.84274363350E+02  0.00000000000E+00 0.  1.
          1   -1    0    0  501    0  0.00000000000E+00 -0.00000000000E+00 -0.52265814332E+03  0.52265814332E+03  0.00000000000E+00 0. -1.
         23    2    1    2    0    0 -0.12426526443E+03  0.96629714017E+02 -0.10197683212E+03  0.22544577335E+03  0.12508942744E+03 0.  0.
          5    1    3    3  502    0 -0.11439884659E+03  0.11382623333E+03 -0.11771117986E+03  0.19979214639E+03  0.41800000000E+01 0. -1.
         -5    1    3    3    0  502 -0.98664178429E+01 -0.17196519312E+02  0.15734347737E+02  0.25653626960E+02  0.41800000000E+01 0. -1.
        -11    1    1    2    0    0  0.70414369416E+02 -0.85353328802E+02 -0.14540411271E+03  0.18271762409E+03  0.00000000000E+00 0.  1.
         11    1    1    2    0    0  0.53850895014E+02 -0.11276385215E+02 -0.19100283514E+03  0.19876910924E+03  0.00000000000E+00 0. -1.
</event>
<event>
 7    1  0.6992302E-006  0.1139250E+03  0.7561462E-02  0.1253469E+00
         -2   -1    0    0    0  501 -0.00000000000E+00  0.00000000000E+00  0.89865949235E+02  0.89865949235E+02  0.00000000000E+00 0.  1.
          2   -1    0    0  501    0  0.00000000000E+00 -0.00000000000E+00 -0.19909770436E+03  0.19909770436E+03  0.00000000000E+00 0. -1.
         23    2    1    2    0    0 -0.57466025236E+02 -0.50129998216E+02 -0.32311316511E+02  0.15002351127E+03  0.12509065505E+03 0.  0.
          5    1    3    3  502    0  0.18802745565E+02  0.25344238308E+02 -0.28257543769E+02  0.42565653243E+02  0.41800000000E+01 0. -1.
         -5    1    3    3    0  502 -0.76268770800E+02 -0.75474236524E+02 -0.40537727419E+01  0.10745785803E+03  0.41800000000E+01 0. -1.
        -11    1    1    2    0    0  0.13646991049E+02  0.41879000655E+02 -0.82975697704E+02  0.93941777022E+02  0.00000000000E+00 0. -1.
         11    1    1    2    0    0  0.43819034187E+02  0.82509975612E+01  0.60552590847E+01  0.44998365308E+02  0.00000000000E+00 0.  1.
</event>
<event>
 7    1  0.6992302E-006  0.1104512E+03  0.7561462E-02  0.1259737E+00
          2   -1    0    0  501    0  0.00000000000E+00  0.00000000000E+00  0.11616332570E+03  0.11616332570E+03  0.00000000000E+00 0. -1.
         -2   -1    0    0    0  501 -0.00000000000E+00 -0.00000000000E+00 -0.13278385826E+03  0.13278385826E+03  0.00000000000E+00 0.  1.
         23    2    1    2    0    0 -0.34442851553E+02 -0.45653118721E+02 -0.43337232489E+02  0.14420685361E+03  0.12508790364E+03 0.  0.
          5    1    3    3  502    0 -0.56096680770E+02 -0.78316749639E+02 -0.40836479367E+02  0.10471600314E+03  0.41800000000E+01 0.  1.
         -5    1    3    3    0  502  0.21653829217E+02  0.32663630918E+02 -0.25007531219E+01  0.39490850468E+02  0.41800000000E+01 0.  1.
        -11    1    1    2    0    0  0.52965351721E+02  0.37082821805E+02  0.43824593177E+02  0.78109276805E+02  0.00000000000E+00 0. -1.
         11    1    1    2    0    0 -0.18522500168E+02  0.85702969166E+01 -0.17107893244E+02  0.26631053546E+02  0.00000000000E+00 0.  1.
</event>
<event>
 7    1  0.1281104E-005  0.7106160E+02  0.7561462E-02  0.1356520E+00
          1   -1    0    0  501    0  0.00000000000E+00  0.00000000000E+00  0.84143595144E+02  0.84143595144E+02  0.00000000000E+00 0. -1.
         -1   -1    0    0    0  501 -0.00000000000E+00 -0.00000000000E+00 -0.10466175729E+03  0.10466175729E+03  0.00000000000E+00 0.  1.
         23    2    1    2    0    0 -0.38297908633E+01 -0.31251727070E+01 -0.48982301927E+02  0.13443050241E+03  0.12509140687E+03 0.  0.
          5    1    3    3  502    0 -0.70787141644E+01 -0.58216779317E+02  0.24931910846E+01  0.58847174869E+02  0.41800000000E+01 0.  1.
         -5    1    3    3    0  502  0.32489233010E+01  0.55091606610E+02 -0.51475493011E+02  0.75583327541E+02  0.41800000000E+01 0.  1.
        -11    1    1    2    0    0  0.50634266749E+01  0.15109741795E+02 -0.66378921226E+01  0.17262798111E+02  0.00000000000E+00 0.  1.
         11    1    1    2    0    0 -0.12336358115E+01 -0.11984569088E+02  0.35102031903E+02  0.37112051914E+02  0.00000000000E+00 0. -1.
</event>
<event>
 7    1  0.6992302E-006  0.1117156E+03  0.7561462E-02  0.1257425E+00
          2   -1    0    0  501    0  0.00000000000E+00  0.00000000000E+00  0.29591825969E+03  0.29591825969E+03  0.00000000000E+00 0.  1.
         -2   -1    0    0    0  501 -0.00000000000E+00 -0.00000000000E+00 -0.44077015808E+02  0.44077015808E+02  0.00000000000E+00 0. -1.
         23    2    1    2    0    0 -0.32225091879E+02  0.89674200827E+01  0.14552030126E+03  0.19478881443E+03  0.12509057909E+03 0.  0.
          5    1    3    3  502    0 -0.78117624792E+02 -0.15334932819E+01  0.66375688747E+02  0.10260564975E+03  0.41800000000E+01 0. -1.
         -5    1    3    3    0  502  0.45892532913E+02  0.10500913365E+02  0.79144612517E+02  0.92183164673E+02  0.41800000000E+01 0. -1.
        -11    1    1    2    0    0 -0.17117847358E+02 -0.37288610436E+02  0.54754509425E+02  0.68421615508E+02  0.00000000000E+00 0.  1.
         11    1    1    2    0    0  0.49342939237E+02  0.28321190353E+02  0.51566433190E+02  0.76784845559E+02  0.00000000000E+00 0. -1.
</event>
<event>
 7    1  0.6992302E-006  0.2065648E+03  0.7561462E-02  0.1144316E+00
         -2   -1    0    0    0  501 -0.00000000000E+00  0.00000000000E+00  0.10696084445E+03  0.10696084445E+03  0.00000000000E+00 0.  1.
          2   -1    0    0  501    0  0.00000000000E+00 -0.00000000000E+00 -0.45054888478E+03  0.45054888478E+03  0.00000000000E+00 0. -1.
         23    2    1    2    0    0 -0.21743415380E+02 -0.18846663274E+03 -0.15111842496E+03  0.27290380410E+03  0.12508900897E+03 0.  0.
          5    1    3    3  502    0  0.23851067473E+02 -0.28923625997E+02  0.12594059056E+02  0.39768483551E+02  0.41800000000E+01 0. -1.
         -5    1    3    3    0  502 -0.45594482854E+02 -0.15954300674E+03 -0.16371248402E+03  0.23313532055E+03  0.41800000000E+01 0. -1.
        -11    1    1    2    0    0 -0.20899004016E+02  0.55773379721E+01 -0.24125817581E+02  0.32402625537E+02  0.00000000000E+00 0. -1.
         11    1    1    2    0    0  0.42642419397E+02  0.18288929476E+03 -0.16834379778E+03  0.25220329959E+03  0.00000000000E+00 0.  1.
</event>
<event>
 7    1  0.6992302E-006  0.9444630E+02  0.7561462E-02  0.1292428E+00
          1   -1    0    0  501    0  0.00000000000E+00  0.00000000000E+00  0.18399352600E+03  0.18399352600E+03  0.00000000000E+00 0. -1.
         -1   -1    0    0    0  501 -0.00000000000E+00 -0.00000000000E+00 -0.73739206586E+02  0.73739206586E+02  0.00000000000E+00 0.  1.
         23    2    1    2    0    0 -0.96751332900E+01  0.21641953867E+02  0.24468249141E+02  0.12964206325E+03  0.12508551865E+03 0.  0.
          5    1    3    3  502    0 -0.54367353212E+02 -0.16072420756E+02 -0.15213121266E+02  0.58847627505E+02  0.41800000000E+01 0.  1.
         -5    1    3    3    0  502  0.44692219922E+02  0.37714374623E+02  0.39681370407E+02  0.70794435743E+02  0.41800000000E+01 0.  1.
        -11    1    1    2    0    0  0.39468346156E+02 -0.65098849957E+01  0.85809103638E+02  0.94674871102E+02  0.00000000000E+00 0. -1.
         11    1    1    2    0    0 -0.29793212866E+02 -0.15132068872E+02 -0.23033364137E-01  0.33415798236E+02  0.00000000000E+00 0.  1.
</event>
<event>
 7    1  0.6992302E-006  0.8058885E+02  0.7561462E-02  0.1327389E+00
         -1   -1    0    0    0  501 -0.00000000000E+00  0.00000000000E+00  0.57111758567E+03  0.57111758567E+03  0.00000000000E+00 0.  1.
          1   -1    0    0  501    0  0.00000000000E+00 -0.00000000000E+00 -0.27748392691E+02  0.27748392691E+02  0.00000000000E+00 0. -1.
         23    2    1    2    0    0  0.36121055454E+02 -0.16590274359E+02  0.43370509110E+03  0.45313259491E+03  0.12509626164E+03 0.  0.
          5    1    3    3  502    0  0.53975521217E+02 -0.51116105548E+02  0.37684517965E+03  0.38413015367E+03  0.41800000000E+01 0.  1.
         -5    1    3    3    0  502 -0.17854465763E+02  0.34525831189E+02  0.56859911454E+02  0.69002441243E+02  0.41800000000E+01 0.  1.
        -11    1    1    2    0    0 -0.32719793949E+02  0.21470732183E+01  0.12206682793E+03  0.12639424560E+03  0.00000000000E+00 0.  1.
         11    1    1    2    0    0 -0.34012615048E+01  0.14443201141E+02 -0.12402726054E+02  0.19339137845E+02  0.00000000000E+00 0. -1.
</event>
<event>
 7    1  0.6992302E-006  0.1566629E+03  0.7561462E-02  0.1192517E+00
         -2   -1    0    0    0  501 -0.00000000000E+00  0.00000000000E+00  0.42785376906E+02  0.42785376906E+02  0.00000000000E+00 0.  1.
          2   -1    0    0  501    0  0.00000000000E+00 -0.00000000000E+00 -0.67943767182E+03  0.67943767182E+03  0.00000000000E+00 0. -1.
         23    2    1    2    0    0  0.79797129217E+02 -0.11967148717E+03 -0.36524159322E+03  0.41199337726E+03  0.12509306460E+03 0.  0.
          5    1    3    3  502    0  0.87566295701E+02 -0.58637149835E+02 -0.12300629441E+03  0.16203145481E+03  0.41800000000E+01 0.  1.
         -5    1    3    3    0  502 -0.77691664847E+01 -0.61034337332E+02 -0.24223529881E+03  0.24996192244E+03  0.41800000000E+01 0.  1.
        -11    1    1    2    0    0 -0.20722593203E+02  0.54088074508E+02 -0.14417727715E+03  0.15537706690E+03  0.00000000000E+00 0. -1.
         11    1    1    2    0    0 -0.59074536013E+02  0.65583412660E+02 -0.12723342454E+03  0.15485260457E+03  0.00000000000E+00 0.  1.
</event>
<event>
 7    1  0.6992302E-006  0.1219803E+03  0.7561462E-02  0.1239865E+00
         -2   -1    0    0    0  501 -0.00000000000E+00  0.00000000000E+00  0.12904298083E+03  0.12904298083E+03  0.00000000000E+00 0.  1.
          2   -1    0    0  501    0  0.00000000000E+00 -0.00000000000E+00 -0.15991681139E+03  0.15991681139E+03  0.00000000000E+00 0. -1.
         23    2    1    2    0    0 -0.68436537278E+02 -0.53054498476E+02  0.18911442671E+02  0.15331187352E+03  0.12509415835E+03 0.  0.
          5    1    3    3  502    0 -0.16786993936E+02  0.41113034897E+02  0.37032527359E+01  0.44757918682E+02  0.41800000000E+01 0. -1.
         -5    1    3    3    0  502 -0.51649543342E+02 -0.94167533374E+02  0.15208189935E+02  0.10855395483E+03  0.41800000000E+01 0. -1.
        -11    1    1    2    0    0  0.40252142214E+02  0.11866644787E+02  0.22647414246E+02  0.47686031323E+02  0.00000000000E+00 0.  1.
         11    1    1    2    0    0  0.28184395064E+02  0.41187853690E+02 -0.72432687481E+02  0.87961887385E+02  0.00000000000E+00 0. -1.
</event>
<event>
 7    1  0.6992302E-006  0.1303026E+03  0.7561462E-02  0.1227007E+00
          1   -1    0    0  501    0  0.00000000000E+00  0.00000000000E+00  0.80316579329E+02  0.80316579329E+02  0.00000000000E+00 0. -1.
         -1   -1    0    0    0  501 -0.00000000000E+00 -0.00000000000E+00 -0.26513957894E+03  0.26513957894E+03  0.00000000000E+00 0.  1.
         23    2    1    2    0    0  0.35584761478E+02  0.81952952298E+02 -0.14533758209E+03  0.21154884969E+03  0.12508933367E+03 0.  0.
          5    1    3    3  502    0 -0.48264745087E+01 -0.27238112751E+02 -0.62861707694E+02  0.68806077760E+02  0.41800000000E+01 0.  1.
         -5    1    3    3    0  502  0.40411235986E+02  0.10919106505E+03 -0.82475874398E+02  0.14274277193E+03  0.41800000000E+01 0.  1.
        -11    1    1    2    0    0  0.16514495518E+02 -0.55081181243E+02 -0.47701340757E+02  0.74713338831E+02  0.00000000000E+00 0.  1.
         11    1    1    2    0    0 -0.52099256996E+02 -0.26871771055E+02  0.82159232421E+01  0.59193969742E+02  0.00000000000E+00 0. -1.
</event>
<event>
 7    1  0.6992302E-006  0.1134469E+03  0.7561462E-02  0.1254317E+00
          2   -1    0    0  501    0  0.00000000000E+00  0.00000000000E+00  0.78120292088E+03  0.78120292088E+03  0.00000000000E+00 0.  1.
         -2   -1    0    0    0  501 -0.00000000000E+00 -0.00000000000E+00 -0.30896957590E+02  0.30896957590E+02  0.00000000000E+00 0. -1.
         23    2    1    2    0    0  0.10718238363E+03  0.18146053582E+02  0.34844514872E+03  0.38584797158E+03  0.12508913974E+03 0.  0.
          5    1    3    3  502    0  0.48470516664E+02  0.82656229378E+01  0.31208125982E+03  0.31595869452E+03  0.41800000000E+01 0.  1.
         -5    1    3    3    0  502  0.58711866964E+02  0.98804306442E+01  0.36363888903E+02  0.69889277062E+02  0.41800000000E+01 0.  1.
        -11    1    1    2    0    0 -0.53274301969E+02 -0.32073598765E+02  0.32752739539E+03  0.33337825622E+03  0.00000000000E+00 0.  1.
         11    1    1    2    0    0 -0.53908081659E+02  0.13927545183E+02  0.74333419173E+02  0.92873650671E+02  0.00000000000E+00 0. -1.
</event>
<event>
 7    1  0.6992302E-006  0.1105797E+03  0.7561462E-02  0.1259500E+00
         -1   -1    0    0    0  501 -0.00000000000E+00  0.00000000000E+00  0.90022131798E+03  0.90022131798E+03  0.00000000000E+00 0.  1.
          1   -1    0    0  501    0  0.00000000000E+00 -0.00000000000E+00 -0.30686944398E+02  0.30686944398E+02  0.00000000000E+00 0. -1.
         23    2    1    2    0    0  0.61654516524E+02 -0.14435220236E+02  0.76204743152E+03  0.77440412623E+03  0.12237568323E+03 0.  0.
          5    1    3    3  502    0 -0.86751260171E+01  0.30932859322E+02  0.68076150952E+02  0.75391871748E+02  0.41800000000E+01 0. -1.
         -5    1    3    3    0  502  0.70329642541E+02 -0.45368079559E+02  0.69397128057E+03  0.69901225449E+03  0.41800000000E+01 0.  1.
        -11    1    1    2    0    0  0.20958904176E+00 -0.29237746131E+02  0.59491911357E+01  0.29837603818E+02  0.00000000000E+00 0.  1.
         11    1    1    2    0    0 -0.61864105566E+02  0.43672966368E+02  0.10153775092E+03  0.12666653232E+03  0.00000000000E+00 0. -1.
</event>
<event>
 7    1  0.6992302E-006  0.1876629E+03  0.7561462E-02  0.1160586E+00
          1   -1    0    0  501    0  0.00000000000E+00  0.00000000000E+00  0.19729459770E+03  0.19729459770E+03  0.00000000000E+00 0. -1.
         -1   -1    0    0    0  501 -0.00000000000E+00 -0.00000000000E+00 -0.19481257548E+03  0.19481257548E+03  0.00000000000E+00 0.  1.
         23    2    1    2    0    0  0.15261247942E+03  0.28524710941E+02 -0.50714839684E+02  0.20572852595E+03  0.12509197983E+03 0.  0.
          5    1    3    3  502    0  0.15446075724E+03 -0.12886605239E+02 -0.53368660587E+02  0.16398132959E+03  0.41800000000E+01 0.  1.
         -5    1    3    3    0  502 -0.18482778187E+01  0.41411316179E+02  0.26538209034E+01  0.41747196361E+02  0.41800000000E+01 0.  1.
        -11    1    1    2    0    0 -0.77994128038E+02  0.30217630781E+02  0.26166548158E+02  0.87640615362E+02  0.00000000000E+00 0.  1.
         11    1    1    2    0    0 -0.74618351385E+02 -0.58742341722E+02  0.27030313749E+02  0.98738031861E+02  0.00000000000E+00 0. -1.
</event>
<event>
 7    1  0.6992302E-006  0.1316216E+03  0.7561462E-02  0.1225069E+00
          2   -1    0    0  501    0  0.00000000000E+00  0.00000000000E+00  0.81773115212E+03  0.81773115212E+03  0.00000000000E+00 0. -1.
         -2   -1    0    0    0  501 -0.00000000000E+00 -0.00000000000E+00 -0.28293597557E+02  0.28293597557E+02  0.00000000000E+00 0.  1.
         23    2    1    2    0    0 -0.67046420172E+01  0.10424100935E+03  0.36432559950E+03  0.39911347542E+03  0.12508910246E+03 0.  0.
          5    1    3    3  502    0  0.32424374852E+02  0.12334287031E+02  0.19348449330E+02  0.39941327126E+02  0.41800000000E+01 0. -1.
         -5    1    3    3    0  502 -0.39129016869E+02  0.91906722323E+02  0.34497715017E+03  0.35917214830E+03  0.41800000000E+01 0. -1.
        -11    1    1    2    0    0 -0.34062545666E+02 -0.46435383052E+02  0.11234534355E+03  0.12624570501E+03  0.00000000000E+00 0.  1.
         11    1    1    2    0    0  0.40767187683E+02 -0.57805626302E+02  0.31276661151E+03  0.32066556924E+03  0.00000000000E+00 0. -1.
</event>
<event>
 7    1  0.6992302E-006  0.8922195E+02  0.7561462E-02  0.1304747E+00
         -1   -1    0    0    0  501 -0.00000000000E+00  0.00000000000E+00  0.96357627787E+02  0.96357627787E+02  0.00000000000E+00 0.  1.
          1   -1    0    0  501    0  0.00000000000E+00 -0.00000000000E+00 -0.19087796948E+03  0.19087796948E+03  0.00000000000E+00 0. -1.
         23    2    1    2    0    0 -0.17397746448E+02  0.36965690222E+02  0.28858729862E+02  0.13472607893E+03  0.12509654759E+03 0.  0.
          5    1    3    3  502    0 -0.47670478996E+02  0.34273137278E+02 -0.31689597827E+02  0.66849274618E+02  0.41800000000E+01 0. -1.
         -5    1    3    3    0  502  0.30272732548E+02  0.26925529444E+01  0.60548327688E+02  0.67876804308E+02  0.41800000000E+01 0. -1.
        -11    1    1    2    0    0  0.12412367165E+01  0.24916917433E+02 -0.26246329848E+02  0.36211369395E+02  0.00000000000E+00 0.  1.
         11    1    1    2    0    0  0.16156509731E+02 -0.61882607655E+02 -0.97132741703E+02  0.11629814894E+03  0.00000000000E+00 0. -1.
</event>
<event>
 7    1  0.6992302E-006  0.1518184E+03  0.7561462E-02  0.1198256E+00
         -2   -1    0    0    0  501 -0.00000000000E+00  0.00000000000E+00  0.14138501720E+03  0.14138501720E+03  0.00000000000E+00 0.  1.
          2   -1    0    0  501    0  0.00000000000E+00 -0.00000000000E+00 -0.20862868390E+03  0.20862868390E+03  0.00000000000E+00 0. -1.
         23    2    1    2    0    0 -0.97295914690E+02  0.57138490006E+02  0.35880044863E+02  0.17223905268E+03  0.12509041367E+03 0.  0.
          5    1    3    3  502    0  0.26182984601E+02  0.66139269130E+01 -0.12776374786E+02  0.30166220587E+02  0.41800000000E+01 0.  1.
         -5    1    3    3    0  502 -0.12347889929E+03  0.50524563093E+02  0.48656419649E+02  0.14207283209E+03  0.41800000000E+01 0.  1.
        -11    1    1    2    0    0  0.97712204977E+02 -0.12867674927E+02 -0.84204453112E+02  0.12962886246E+03  0.00000000000E+00 0. -1.
         11    1    1    2    0    0 -0.41629028612E+00 -0.44270815079E+02 -0.18919258443E+02  0.48145785957E+02  0.00000000000E+00 0.  1.
</event>
<event>
 7    1  0.6992302E-006  0.1397303E+03  0.7561462E-02  0.1213692E+00
         -1   -1    0    0    0  501 -0.00000000000E+00  0.00000000000E+00  0.11548670235E+03  0.11548670235E+03  0.00000000000E+00 0.  1.
          1   -1    0    0  501    0  0.00000000000E+00 -0.00000000000E+00 -0.29041568562E+03  0.29041568562E+03  0.00000000000E+00 0. -1.
         23    2    1    2    0    0  0.25075082116E+02 -0.11342031247E+03  0.80152698858E+01  0.17089339758E+03  0.12508949501E+03 0.  0.
          5    1    3    3  502    0  0.36353050140E+02  0.10998229682E+02 -0.19506563181E+02  0.42900859173E+02  0.41800000000E+01 0. -1.
         -5    1    3    3    0  502 -0.11277968024E+02 -0.12441854215E+03  0.27521833067E+02  0.12799253841E+03  0.41800000000E+01 0. -1.
        -11    1    1    2    0    0 -0.90843497715E+01  0.51834118461E+02 -0.13962594877E+02  0.54444975003E+02  0.00000000000E+00 0.  1.
         11    1    1    2    0    0 -0.15990732345E+02  0.61586194006E+02 -0.16898165829E+03  0.18056401538E+03  0.00000000000E+00 0. -1.
</event>
<event>
 7    1  0.6992302E-006  0.1113924E+03  0.7561462E-02  0.1258013E+00
         -2   -1    0    0    0  501 -0.00000000000E+00  0.00000000000E+00  0.13932730553E+02  0.13932730553E+02  0.00000000000E+00 0.  1.
          2   -1    0    0  501    0  0.00000000000E+00 -0.00000000000E+00 -0.10276915385E+04  0.10276915385E+04  0.00000000000E+00 0. -1.
         23    2    1    2    0    0 -0.21506125231E+02 -0.40135923407E+02 -0.49874874493E+03  0.51620722785E+03  0.12508471428E+03 0.  0.
          5    1    3    3  502    0 -0.21709225474E+02  0.36164083598E+02 -0.30504529545E+03  0.30797603168E+03  0.41800000000E+01 0. -1.
         -5    1    3    3    0  502  0.20310024356E+00 -0.76300007005E+02 -0.19370344948E+03  0.20823119617E+03  0.41800000000E+01 0. -1.
        -11    1    1    2    0    0  0.34935454771E+02  0.66093190403E+02 -0.37892482223E+03  0.38622896930E+03  0.00000000000E+00 0.  1.
         11    1    1    2    0    0 -0.13429329540E+02 -0.25957266996E+02 -0.13608524079E+03  0.13918807191E+03  0.00000000000E+00 0. -1.
</event>
<event>
 7    1  0.6992302E-006  0.9204355E+02  0.7561462E-02  0.1297977E+00
         -2   -1    0    0    0  501 -0.00000000000E+00  0.00000000000E+00  0.13965491638E+03  0.13965491638E+03  0.00000000000E+00 0.  1.
          2   -1    0    0  501    0  0.00000000000E+00 -0.00000000000E+00 -0.11210076951E+03  0.11210076951E+03  0.00000000000E+00 0. -1.
         23    2    1    2    0    0  0.44745619772E+02  0.38353920205E+02  0.31803106664E+02  0.14189624528E+03  0.12509961290E+03 0.  0.
          5    1    3    3  502    0  0.54792876219E+02 -0.15689396080E+02  0.57504042609E+02  0.81071596445E+02  0.41800000000E+01 0. -1.
         -5    1    3    3    0  502 -0.10047256447E+02  0.54043316285E+02 -0.25700935944E+02  0.60824648833E+02  0.41800000000E+01 0. -1.
        -11    1    1    2    0    0  0.36865435677E+01 -0.19488946184E+02 -0.41443595229E+02  0.45945415574E+02  0.00000000000E+00 0. -1.
         11    1    1    2    0    0 -0.48432163340E+02 -0.18864974021E+02  0.37194635435E+02  0.63914025031E+02  0.00000000000E+00 0.  1.
</event>
<event>
 7    1  0.6992302E-006  0.1175308E+03  0.7561462E-02  0.1247227E+00
          2   -1    0    0  501    0  0.00000000000E+00  0.00000000000E+00  0.61518819227E+02  0.61518819227E+02  0.00000000000E+00 0. -1.
         -2   -1    0    0    0  501 -0.00000000000E+00 -0.00000000000E+00 -0.26043832875E+03  0.26043832875E+03  0.00000000000E+00 0.  1.
         23    2    1    2    0    0 -0.61040373843E+02 -0.18141292236E+02 -0.13360283890E+03  0.19377910586E+03  0.12508233121E+03 0.  0.
          5    1    3    3  502    0 -0.95003820139E+02 -0.25624158282E+02 -0.12218649167E+03  0.15693735844E+03  0.41800000000E+01 0. -1.
         -5    1    3    3    0  502  0.33963446296E+02  0.74828660451E+01 -0.11416347232E+02  0.36841747416E+02  0.41800000000E+01 0. -1.
        -11    1    1    2    0    0  0.35316376140E+02  0.49612649566E+02 -0.13598495260E+02  0.62398561634E+02  0.00000000000E+00 0.  1.
         11    1    1    2    0    0  0.25723997703E+02 -0.31471357330E+02 -0.51718175363E+02  0.65779480485E+02  0.00000000000E+00 0. -1.
</event>
<event>
 7    1  0.6992302E-006  0.1142982E+03  0.7561462E-02  0.1252811E+00
         -4   -1    0    0    0  501 -0.00000000000E+00  0.00000000000E+00  0.23754640653E+02  0.23754640653E+02  0.00000000000E+00 0.  1.
          4   -1    0    0  501    0  0.00000000000E+00 -0.00000000000E+00 -0.56791750763E+03  0.56791750763E+03  0.00000000000E+00 0. -1.
         23    2    1    2    0    0  0.21348526302E+02  0.31721479755E+02 -0.26186690911E+03  0.29271769459E+03  0.12508940317E+03 0.  0.
          5    1    3    3  502    0 -0.49750753952E+02 -0.48836566621E+01 -0.87944634552E+02  0.10124583333E+03  0.41800000000E+01 0. -1.
         -5    1    3    3    0  502  0.71099280254E+02  0.36605136417E+02 -0.17392227455E+03  0.19147186125E+03  0.41800000000E+01 0. -1.
        -11    1    1    2    0    0 -0.31263980397E+02  0.25459876185E+02 -0.12029660176E+03  0.12687361491E+03  0.00000000000E+00 0. -1.
         11    1    1    2    0    0  0.99154540946E+01 -0.57181355940E+02 -0.16199935612E+03  0.17208083879E+03  0.00000000000E+00 0.  1.
</event>
<event>
 7    1  0.6992302E-006  0.1430726E+03  0.7561462E-02  0.1209253E+00
          2   -1    0    0  501    0  0.00000000000E+00  0.00000000000E+00  0.38347151647E+02  0.38347151647E+02  0.00000000000E+00 0.  1.
         -2   -1    0    0    0  501 -0.00000000000E+00 -0.00000000000E+00 -0.77858052952E+03  0.77858052952E+03  0.00000000000E+00 0. -1.
         23    2    1    2    0    0 -0.29927637770E+02  0.12233795666E+03 -0.50366373805E+03  0.53403057061E+03  0.12509696309E+03 0.  0.
          5    1    3    3  502    0 -0.81166867206E+01  0.98265282751E+02 -0.15446912180E+03  0.18330337801E+03  0.41800000000E+01 0.  1.
         -5    1    3    3    0  502 -0.21810951050E+02  0.24072673906E+02 -0.34919461625E+03  0.35072719260E+03  0.41800000000E+01 0.  1.
        -11    1    1    2    0    0  0.55103800465E+02 -0.38637399197E+02 -0.11338432720E+03  0.13185326350E+03  0.00000000000E+00 0.  1.
         11    1    1    2    0    0 -0.25176162694E+02 -0.83700557460E+02 -0.12318531263E+03  0.15104384706E+03  0.00000000000E+00 0. -1.
</event>
<event>
 7    1  0.6992302E-006  0.7385317E+02  0.7561462E-02  0.1347460E+00
          2   -1    0    0  501    0  0.00000000000E+00  0.00000000000E+00  0.18020704701E+03  0.18020704701E+03  0.00000000000E+00 0. -1.
         -2   -1    0    0    0  501 -0.00000000000E+00 -0.00000000000E+00 -0.69323307177E+02  0.69323307177E+02  0.00000000000E+00 0.  1.
         23    2    1    2    0    0 -0.23494672276E+02 -0.68219191969E+01  0.51387520206E+02  0.13742562881E+03  0.12508632225E+03 0.  0.
          5    1    3    3  502    0 -0.56044961332E+02  0.12117179549E+02 -0.16384120966E+02  0.59781063480E+02  0.41800000000E+01 0.  1.
         -5    1    3    3    0  502  0.32550289056E+02 -0.18939098746E+02  0.67771641171E+02  0.77644565335E+02  0.41800000000E+01 0.  1.
        -11    1    1    2    0    0  0.15915119593E+02  0.26681212177E+02 -0.15097479845E+02  0.34541453539E+02  0.00000000000E+00 0.  1.
         11    1    1    2    0    0  0.75795526833E+01 -0.19859292980E+02  0.74593699468E+02  0.77563271830E+02  0.00000000000E+00 0. -1.
</event>
<event>
 7    1  0.6992302E-006  0.8541941E+02  0.7561462E-02  0.1314339E+00
         -2   -1    0    0    0  501 -0.00000000000E+00  0.00000000000E+00  0.10002294842E+03  0.10002294842E+03  0.00000000000E+00 0.  1.
          2   -1    0    0  501    0  0.00000000000E+00 -0.00000000000E+00 -0.14215067702E+03  0.14215067702E+03  0.00000000000E+00 0. -1.
         23    2    1    2    0    0 -0.15204142682E+02 -0.53884094174E+01  0.31329901970E+02  0.12995573854E+03  0.12508689104E+03 0.  0.
          5    1    3    3  502    0 -0.23185659230E+02 -0.42489337028E+02 -0.30444970560E+02  0.57334868862E+02  0.41800000000E+01 0.  1.
         -5    1    3    3    0  502  0.79815165479E+01  0.37100927611E+02  0.61774872530E+02  0.72620869673E+02  0.41800000000E+01 0.  1.
        -11    1    1    2    0    0  0.43654920261E+02  0.24252388897E+02 -0.36154543011E+02  0.61652910803E+02  0.00000000000E+00 0.  1.
         11    1    1    2    0    0 -0.28450777579E+02 -0.18863979480E+02 -0.37303087557E+02  0.50564976099E+02  0.00000000000E+00 0. -1.
</event>
<event>
 7    1  0.6992302E-006  0.1227763E+03  0.7561462E-02  0.1238586E+00
          2   -1    0    0  501    0  0.00000000000E+00  0.00000000000E+00  0.50609865237E+02  0.50609865237E+02  0.00000000000E+00 0. -1.
         -2   -1    0    0    0  501 -0.00000000000E+00 -0.00000000000E+00 -0.42062040754E+03  0.42062040754E+03  0.00000000000E+00 0.  1.
         23    2    1    2    0    0  0.91726882772E+02 -0.29809018522E+02 -0.21122167415E+03  0.26375004305E+03  0.12508833267E+03 0.  0.
          5    1    3    3  502    0 -0.26589499159E+01 -0.39989452835E+02 -0.10453172984E+02  0.41628927180E+02  0.41800000000E+01 0. -1.
         -5    1    3    3    0  502  0.94385832688E+02  0.10180434313E+02 -0.20076850116E+03  0.22212111587E+03  0.41800000000E+01 0. -1.
        -11    1    1    2    0    0 -0.68506390949E+02  0.45470806829E+02 -0.52481345434E+02  0.97544920385E+02  0.00000000000E+00 0. -1.
         11    1    1    2    0    0 -0.23220491824E+02 -0.15661788307E+02 -0.10630752273E+03  0.10993530935E+03  0.00000000000E+00 0.  1.
</event>
<event>
 6    1  0.6992302E-006  0.1029107E+03  0.7561462E-02  0.1274292E+00
         -1   -1    0    0    0  501 -0.00000000000E+00  0.00000000000E+00  0.56198166021E+03  0.56198166021E+03  0.00000000000E+00 0.  1.
          1   -1    0    0  501    0  0.00000000000E+00 -0.00000000000E+00 -0.10721643136E+03  0.10721643136E+03  0.00000000000E+00 0. -1.
          5    1    1    2  502    0  0.18537082379E+02  0.50821633418E+02  0.21594647224E+03  0.22265851234E+03  0.41800000000E+01 0. -1.
         -5    1    1    2    0  502 -0.45422888957E+02 -0.64725579414E+02  0.32432114893E+03  0.33384774900E+03  0.41800000000E+01 0.  1.
        -11    1    1    2    0    0  0.48958400870E+02  0.94969245615E+01 -0.49738922173E+02  0.70434913011E+02  0.00000000000E+00 0. -1.
         11    1    1    2    0    0 -0.22072594291E+02  0.44070214344E+01 -0.35763470137E+02  0.42256917220E+02  0.00000000000E+00 0.  1.
</event>
<event>
 7    1  0.6992302E-006  0.1308898E+03  0.7561462E-02  0.1226141E+00
         -2   -1    0    0    0  501 -0.00000000000E+00  0.00000000000E+00  0.71280402802E+02  0.71280402802E+02  0.00000000000E+00 0.  1.
          2   -1    0    0  501    0  0.00000000000E+00 -0.00000000000E+00 -0.25164371910E+03  0.25164371910E+03  0.00000000000E+00 0. -1.
         23    2    1    2    0    0  0.14274435429E+02 -0.76951123904E+02 -0.11609885202E+03  0.18775905317E+03  0.12509709680E+03 0.  0.
          5    1    3    3  502    0 -0.21723792671E+02 -0.98339143821E+02 -0.58885549349E+02  0.11673684379E+03  0.41800000000E+01 0. -1.
         -5    1    3    3    0  502  0.35998228099E+02  0.21388019917E+02 -0.57213302675E+02  0.71022209380E+02  0.41800000000E+01 0. -1.
        -11    1    1    2    0    0  0.31751829552E+02  0.31269347835E+01 -0.16542091560E+02  0.35938797896E+02  0.00000000000E+00 0.  1.
         11    1    1    2    0    0 -0.46026264981E+02  0.73824189120E+02 -0.47722372720E+02  0.99226270843E+02  0.00000000000E+00 0. -1.
</event>
<event>
 7    1  0.6992302E-006  0.9402124E+02  0.7561462E-02  0.1293396E+00
         -1   -1    0    0    0  501 -0.00000000000E+00  0.00000000000E+00  0.95648967913E+03  0.95648967913E+03  0.00000000000E+00 0.  1.
          1   -1    0    0  501    0  0.00000000000E+00 -0.00000000000E+00 -0.18243711292E+02  0.18243711292E+02  0.00000000000E+00 0. -1.
         23    2    1    2    0    0 -0.11353732684E+02 -0.21355506278E+02  0.40337027498E+03  0.42301365732E+03  0.12509200875E+03 0.  0.
          5    1    3    3  502    0 -0.29100168419E+02 -0.84542667836E+01  0.39910433834E+03  0.40027495513E+03  0.41800000000E+01 0.  1.
         -5    1    3    3    0  502  0.17746435736E+02 -0.12901239494E+02  0.42659366392E+01  0.22738702189E+02  0.41800000000E+01 0.  1.
        -11    1    1    2    0    0 -0.60001058062E+02  0.21574910802E+02  0.23863957655E+03  0.24701103465E+03  0.00000000000E+00 0. -1.
         11    1    1    2    0    0  0.71354790745E+02 -0.21940452441E+00  0.29623611631E+03  0.30470869845E+03  0.00000000000E+00 0.  1.
</event>
<event>
 7    1  0.6992302E-006  0.7173760E+02  0.7561462E-02  0.1354282E+00
          3   -1    0    0  501    0  0.00000000000E+00  0.00000000000E+00  0.14439025649E+03  0.14439025649E+03  0.00000000000E+00 0. -1.
         -3   -1    0    0    0  501 -0.00000000000E+00 -0.00000000000E+00 -0.88393627325E+02  0.88393627325E+02  0.00000000000E+00 0.  1.
         23    2    1    2    0    0 -0.29015774022E+02  0.14379840942E+01  0.32283682220E+02  0.13239628987E+03  0.12507021425E+03 0.  0.
          5    1    3    3  502    0 -0.49809631631E+02 -0.41791066608E+02 -0.12839054701E+02  0.66406373015E+02  0.41800000000E+01 0.  1.
         -5    1    3    3    0  502  0.20793857609E+02  0.43229050702E+02  0.45122736921E+02  0.65989916852E+02  0.41800000000E+01 0.  1.
        -11    1    1    2    0    0  0.14555671737E+02  0.33527807380E+01 -0.35887184086E+02  0.38871566730E+02  0.00000000000E+00 0.  1.
         11    1    1    2    0    0  0.14460102285E+02 -0.47907648322E+01  0.59600131035E+02  0.61516027222E+02  0.00000000000E+00 0. -1.
</event>
<event>
 7    1  0.6992302E-006  0.1068216E+03  0.7561462E-02  0.1266572E+00
         -1   -1    0    0    0  501 -0.00000000000E+00  0.00000000000E+00  0.11239389243E+03  0.11239389243E+03  0.00000000000E+00 0.  1.
          1   -1    0    0  501    0  0.00000000000E+00 -0.00000000000E+00 -0.12605817281E+03  0.12605817281E+03  0.00000000000E+00 0. -1.
         23    2    1    2    0    0 -0.13922443615E+02 -0.44473448328E+02 -0.35720304887E+01  0.13353728766E+03  0.12509086998E+03 0.  0.
          5    1    3    3  502    0  0.18566696546E+02 -0.81646657209E+02  0.34520149156E+00  0.83836092574E+02  0.41800000000E+01 0. -1.
         -5    1    3    3    0  502 -0.32489140160E+02  0.37173208881E+02 -0.39172319802E+01  0.49701195089E+02  0.41800000000E+01 0. -1.
        -11    1    1    2    0    0  0.68420690080E+01  0.61469585013E+02  0.23859652377E+02  0.66291830579E+02  0.00000000000E+00 0.  1.
         11    1    1    2    0    0  0.70803746068E+01 -0.16996136684E+02 -0.33951902270E+02  0.38622946994E+02  0.00000000000E+00 0. -1.
</event>
<event>
 7    1  0.6992302E-006  0.1078707E+03  0.7561462E-02  0.1264565E+00
         -1   -1    0    0    0  501 -0.00000000000E+00  0.00000000000E+00  0.55244051117E+03  0.55244051117E+03  0.00000000000E+00 0.  1.
          1   -1    0    0  501    0  0.00000000000E+00 -0.00000000000E+00 -0.32903070953E+02  0.32903070953E+02  0.00000000000E+00 0. -1.
         23    2    1    2    0    0  0.62073467873E+02 -0.14595447222E+02  0.39439587163E+03  0.41847734119E+03  0.12453529234E+03 0.  0.
          5    1    3    3  502    0 -0.36119548670E+02  0.68407438753E+01  0.75249870292E+02  0.83853640063E+02  0.41800000000E+01 0.  1.
         -5    1    3    3    0  502  0.98193016543E+02 -0.21436191097E+02  0.31914600134E+03  0.33462370113E+03  0.41800000000E+01 0.  1.
        -11    1    1    2    0    0 -0.34039881658E+02  0.30684101924E+02  0.12646946755E+03  0.13451674199E+03  0.00000000000E+00 0.  1.
         11    1    1    2    0    0 -0.28033586215E+02 -0.16088654702E+02 -0.13278989591E+01  0.32349498942E+02  0.00000000000E+00 0. -1.
</event>
<event>
 7    1  0.6992302E-006  0.1155226E+03  0.7561462E-02  0.1250672E+00
          2   -1    0    0  501    0  0.00000000000E+00  0.00000000000E+00  0.11902647180E+03  0.11902647180E+03  0.00000000000E+00 0. -1.
         -2   -1    0    0    0  501 -0.00000000000E+00 -0.00000000000E+00 -0.26229316285E+03  0.26229316285E+03  0.00000000000E+00 0.  1.
         23    2    1    2    0    0 -0.37146284429E+02  0.59231086126E+02 -0.20536977810E+03  0.25042441788E+03  0.12508986892E+03 0.  0.
          5    1    3    3  502    0 -0.80147940794E+02  0.26233923872E+02 -0.93107060136E+02  0.12569132119E+03  0.41800000000E+01 0. -1.
         -5    1    3    3    0  502  0.43001656365E+02  0.32997162254E+02 -0.11226271796E+03  0.12473309669E+03  0.41800000000E+01 0. -1.
        -11    1    1    2    0    0  0.53888906309E+02 -0.43219697986E+02  0.76927680535E+02  0.10339160773E+03  0.00000000000E+00 0. -1.
         11    1    1    2    0    0 -0.16742621880E+02 -0.16011388139E+02 -0.14824593487E+02  0.27503609029E+02  0.00000000000E+00 0.  1.
</event>
<event>
 7    1  0.7334318E-006  0.7801291E+02  0.7561462E-02  0.1334787E+00
         -1   -1    0    0    0  501 -0.00000000000E+00  0.00000000000E+00  0.62283464237E+03  0.62283464237E+03  0.00000000000E+00 0.  1.
          1   -1    0    0  501    0  0.00000000000E+00 -0.00000000000E+00 -0.28030181325E+02  0.28030181325E+02  0.00000000000E+00 0. -1.
         23    2    1    2    0    0  0.75625064823E+01  0.51888030999E+02  0.45537357148E+03  0.47514442529E+03  0.12509027145E+03 0.  0.
          5    1    3    3  502    0  0.51383904967E+01  0.45790841751E+02  0.46237137697E+03  0.46468049979E+03  0.41800000000E+01 0. -1.
         -5    1    3    3    0  502  0.24241159856E+01  0.60971892487E+01 -0.69978054899E+01  0.10463925493E+02  0.41800000000E+01 0. -1.
        -11    1    1    2    0    0  0.22196035586E+02 -0.65570425412E+02  0.67516983050E+02  0.96698953897E+02  0.00000000000E+00 0.  1.
         11    1    1    2    0    0 -0.29758542068E+02  0.13682394413E+02  0.71913906509E+02  0.79021444509E+02  0.00000000000E+00 0. -1.
</event>
<event>
 7    1  0.6992302E-006  0.1169243E+03  0.7561462E-02  0.1248259E+00
         -2   -1    0    0    0  501 -0.00000000000E+00  0.00000000000E+00  0.51810060741E+02  0.51810060741E+02  0.00000000000E+00 0.  1.
          2   -1    0    0  501    0  0.00000000000E+00 -0.00000000000E+00 -0.28380781135E+03  0.28380781135E+03  0.00000000000E+00 0. -1.
         23    2    1    2    0    0 -0.33028590379E+02  0.17358459869E+02 -0.10803569168E+03  0.16946432645E+03  0.12511691872E+03 0.  0.
          5    1    3    3  502    0  0.31793029455E+02  0.48684838059E+02 -0.44269902435E+02  0.73200456559E+02  0.41800000000E+01 0. -1.
         -5    1    3    3    0  502 -0.64821619834E+02 -0.31326378190E+02 -0.63765789244E+02  0.96263869890E+02  0.41800000000E+01 0. -1.
        -11    1    1    2    0    0  0.11793444810E+02 -0.57138817182E+02 -0.39653258101E+02  0.70542970220E+02  0.00000000000E+00 0.  1.
         11    1    1    2    0    0  0.21235145569E+02  0.39780357313E+02 -0.84308800827E+02  0.95610575420E+02  0.00000000000E+00 0. -1.
</event>
<event>
 7    1  0.6992302E-006  0.1172810E+03  0.7561462E-02  0.1247651E+00
          1   -1    0    0  501    0  0.00000000000E+00  0.00000000000E+00  0.18350742673E+03  0.18350742673E+03  0.00000000000E+00 0.  1.
         -1   -1    0    0    0  501 -0.00000000000E+00 -0.00000000000E+00 -0.10190159160E+03  0.10190159160E+03  0.00000000000E+00 0. -1.
         23    2    1    2    0    0  0.65151561901E+02  0.43875243964E+02  0.17707123640E+02  0.14876421679E+03  0.12508991534E+03 0.  0.
          5    1    3    3  502    0  0.86427684882E+02  0.13008533749E+02  0.48524011095E+02  0.10005507842E+03  0.41800000000E+01 0.  1.
         -5    1    3    3    0  502 -0.21276122981E+02  0.30866710215E+02 -0.30816887455E+02  0.48709138373E+02  0.41800000000E+01 0.  1.
        -11    1    1    2    0    0 -0.82602023586E+02 -0.38030634138E+02  0.72529434833E+02  0.11631828038E+03  0.00000000000E+00 0.  1.
         11    1    1    2    0    0  0.17450461685E+02 -0.58446098257E+01 -0.86307233396E+01  0.20326521158E+02  0.00000000000E+00 0. -1.
</event>
<event>
 7    1  0.6992302E-006  0.1083381E+03  0.7561462E-02  0.1263679E+00
          2   -1    0    0  501    0  0.00000000000E+00  0.00000000000E+00  0.32145577400E+03  0.32145577400E+03  0.00000000000E+00 0. -1.
         -2   -1    0    0    0  501 -0.00000000000E+00 -0.00000000000E+00 -0.49642516845E+02  0.49642516845E+02  0.00000000000E+00 0.  1.
         23    2    1    2    0    0  0.48424588794E+02 -0.32926913001E+02  0.11571581833E+03  0.18016314838E+03  0.12505793467E+03 0.  0.
          5    1    3    3  502    0 -0.39238238672E+02 -0.97383032284E+01  0.12095688805E+02  0.42405801625E+02  0.41800000000E+01 0. -1.
         -5    1    3    3    0  502  0.87662827466E+02 -0.23188609772E+02  0.10362012952E+03  0.13775734675E+03  0.41800000000E+01 0. -1.
        -11    1    1    2    0    0 -0.60536058824E+02  0.12964614227E+02  0.42815487880E+02  0.75271918020E+02  0.00000000000E+00 0.  1.
         11    1    1    2    0    0  0.12111470030E+02  0.19962298774E+02  0.11328195094E+03  0.11566322444E+03  0.00000000000E+00 0. -1.
</event>
<event>
 7    1  0.6992302E-006  0.1132143E+03  0.7561462E-02  0.1254731E+00
          2   -1    0    0  501    0  0.00000000000E+00  0.00000000000E+00  0.72512444775E+03  0.72512444775E+03  0.00000000000E+00 0. -1.
         -2   -1    0    0    0  501 -0.00000000000E+00 -0.00000000000E+00 -0.18215365564E+02  0.18215365564E+02  0.00000000000E+00 0.  1.
         23    2    1    2    0    0 -0.19787333703E+02  0.32559097319E+02  0.36896797667E+03  0.39145418297E+03  0.12508947264E+03 0.  0.
          5    1    3    3  502    0  0.28903546984E+02 -0.36080698591E+02  0.13787375236E+03  0.14547809398E+03  0.41800000000E+01 0. -1.
         -5    1    3    3    0  502 -0.48690880687E+02  0.68639795909E+02  0.23109422431E+03  0.24597608899E+03  0.41800000000E+01 0. -1.
        -11    1    1    2    0    0  0.18923515410E+01  0.30317510268E+02  0.14570640228E+03  0.14883913494E+03  0.00000000000E+00 0. -1.
         11    1    1    2    0    0  0.17894982162E+02 -0.62876607587E+02  0.19223470323E+03  0.20304649540E+03  0.00000000000E+00 0.  1.
</event>
<event>
 7    1  0.6992302E-006  0.1108312E+03  0.7561462E-02  0.1259038E+00
         -3   -1    0    0    0  501 -0.00000000000E+00  0.00000000000E+00  0.32424227051E+03  0.32424227051E+03  0.00000000000E+00 0.  1.
          3   -1    0    0  501    0  0.00000000000E+00 -0.00000000000E+00 -0.57373337007E+02  0.57373337007E+02  0.00000000000E+00 0. -1.
         23    2    1    2    0    0  0.94974420670E+01  0.77889136860E+02  0.18727041671E+03  0.23848505266E+03  0.12509193548E+03 0.  0.
          5    1    3    3  502    0 -0.23859498450E+02  0.68998026356E+02  0.32794057245E+02  0.80143158771E+02  0.41800000000E+01 0.  1.
         -5    1    3    3    0  502  0.33356940517E+02  0.88911105043E+01  0.15447635947E+03  0.15834189389E+03  0.41800000000E+01 0.  1.
        -11    1    1    2    0    0 -0.37639596890E+02 -0.80841850105E+01  0.47926146265E+02  0.61473643109E+02  0.00000000000E+00 0.  1.
         11    1    1    2    0    0  0.28142154823E+02 -0.69804951849E+02  0.31672370524E+02  0.81656911743E+02  0.00000000000E+00 0. -1.
</event>
<event>
 7    1  0.6992302E-006  0.9674363E+02  0.7561462E-02  0.1287297E+00
          3   -1    0    0  501    0  0.00000000000E+00  0.00000000000E+00  0.13112709097E+03  0.13112709097E+03  0.00000000000E+00 0. -1.
         -3   -1    0    0    0  501 -0.00000000000E+00 -0.00000000000E+00 -0.11753974126E+03  0.11753974126E+03  0.00000000000E+00 0.  1.
         23    2    1    2    0    0 -0.29350076107E+02 -0.12813094143E+02 -0.42664486842E+02  0.13599603183E+03  0.12509620253E+03 0.  0.
          5    1    3    3  502    0  0.31947293322E+02  0.27069587955E+02 -0.46413953096E+02  0.62650774813E+02  0.41800000000E+01 0. -1.
         -5    1    3    3    0  502 -0.61297369429E+02 -0.39882682098E+02  0.37494662532E+01  0.73345257021E+02  0.41800000000E+01 0. -1.
        -11    1    1    2    0    0  0.16110308836E+02 -0.29613387452E+02 -0.79021910875E+01  0.34625704197E+02  0.00000000000E+00 0.  1.
         11    1    1    2    0    0  0.13239767271E+02  0.42426481594E+02  0.64154027647E+02  0.78045096202E+02  0.00000000000E+00 0. -1.
</event>
<event>
 7    1  0.6992302E-006  0.1440095E+03  0.7561462E-02  0.1208033E+00
         -1   -1    0    0    0  501 -0.00000000000E+00  0.00000000000E+00  0.39302392958E+02  0.39302392958E+02  0.00000000000E+00 0.  1.
          1   -1    0    0  501    0  0.00000000000E+00 -0.00000000000E+00 -0.59386911207E+03  0.59386911207E+03  0.00000000000E+00 0. -1.
         23    2    1    2    0    0 -0.24178350020E+01 -0.10798984912E+03 -0.32931322649E+03  0.36844584759E+03  0.12504994213E+03 0.  0.
          5    1    3    3  502    0 -0.53563804953E+02 -0.38130551851E+02 -0.75315847712E+02  0.10006482650E+03  0.41800000000E+01 0.  1.
         -5    1    3    3    0  502  0.51145969950E+02 -0.69859297265E+02 -0.25399737878E+03  0.26838102109E+03  0.41800000000E+01 0.  1.
        -11    1    1    2    0    0 -0.32003429650E+02  0.13217836111E+02 -0.86774103234E+02  0.93427381923E+02  0.00000000000E+00 0. -1.
         11    1    1    2    0    0  0.34421264653E+02  0.94772013005E+02 -0.13847938939E+03  0.17129827552E+03  0.00000000000E+00 0.  1.
</event>
<event>
 7    1  0.6992302E-006  0.9798230E+02  0.7561462E-02  0.1284597E+00
         -3   -1    0    0    0  501 -0.00000000000E+00  0.00000000000E+00  0.59763135411E+02  0.59763135411E+02  0.00000000000E+00 0.  1.
          3   -1    0    0  501    0  0.00000000000E+00 -0.00000000000E+00 -0.23870716415E+03  0.23870716415E+03  0.00000000000E+00 0. -1.
         23    2    1    2    0    0 -0.48500271280E+02  0.40407024127E+01 -0.10140200785E+03  0.16822378699E+03  0.12509305227E+03 0.  0.
          5    1    3    3  502    0  0.30152510799E+02  0.18949509444E+02 -0.76163842561E+02  0.84182308886E+02  0.41800000000E+01 0. -1.
         -5    1    3    3    0  502 -0.78652782078E+02 -0.14908807032E+02 -0.25238165285E+02  0.84041478109E+02  0.41800000000E+01 0. -1.
        -11    1    1    2    0    0  0.49453972274E+02 -0.27419676508E+02 -0.88012433366E+02  0.10461224814E+03  0.00000000000E+00 0. -1.
         11    1    1    2    0    0 -0.95370099404E+00  0.23378974095E+02  0.10470412474E+02  0.25634264427E+02  0.00000000000E+00 0.  1.
</event>
<event>
 7    1  0.6992302E-006  0.9999677E+02  0.7561462E-02  0.1280303E+00
          1   -1    0    0  501    0  0.00000000000E+00  0.00000000000E+00  0.28478471169E+02  0.28478471169E+02  0.00000000000E+00 0. -1.
         -1   -1    0    0    0  501 -0.00000000000E+00 -0.00000000000E+00 -0.49586810904E+03  0.49586810904E+03  0.00000000000E+00 0.  1.
         23    2    1    2    0    0  0.49430649530E+01  0.13938170847E+02 -0.36501359600E+03  0.38613761258E+03  0.12509446067E+03 0.  0.
          5    1    3    3  502    0  0.34329257360E+02  0.52790808366E+02 -0.11303653222E+03  0.12946079474E+03  0.41800000000E+01 0.  1.
         -5    1    3    3    0  502 -0.29386192407E+02 -0.38852637519E+02 -0.25197706378E+03  0.25667681784E+03  0.41800000000E+01 0.  1.
        -11    1    1    2    0    0 -0.45290906098E+02  0.37224127948E-01 -0.74593379875E+02  0.87266487738E+02  0.00000000000E+00 0. -1.
         11    1    1    2    0    0  0.40347841145E+02 -0.13975394975E+02 -0.27782662003E+02  0.50942479894E+02  0.00000000000E+00 0.  1.
</event>
<event>
 7    1  0.6992302E-006  0.1435786E+03  0.7561462E-02  0.1208593E+00
         -2   -1    0    0    0  501 -0.00000000000E+00  0.00000000000E+00  0.59045064843E+02  0.59045064843E+02  0.00000000000E+00 0.  1.
          2   -1    0    0  501    0  0.00000000000E+00 -0.00000000000E+00 -0.45506964086E+03  0.45506964086E+03  0.00000000000E+00 0. -1.
         23    2    1    2    0    0  0.93429696594E+02  0.78939963222E+02 -0.22784322312E+03  0.28726384134E+03  0.12508938492E+03 0.  0.
          5    1    3    3  502    0  0.76524615934E+02  0.97215560455E+02 -0.23074458841E+03  0.26185381326E+03  0.41800000000E+01 0. -1.
         -5    1    3    3    0  502  0.16905080660E+02 -0.18275597233E+02  0.29013652935E+01  0.25410028077E+02  0.41800000000E+01 0. -1.
        -11    1    1    2    0    0 -0.54356713941E+02 -0.82596620806E+02 -0.70088605993E+02  0.12119928551E+03  0.00000000000E+00 0.  1.
         11    1    1    2    0    0 -0.39072982653E+02  0.36566575841E+01 -0.98092746911E+02  0.10565157886E+03  0.00000000000E+00 0. -1.
</event>
<event>
 7    1  0.6992302E-006  0.1028387E+03  0.7561462E-02  0.1274437E+00
         -1   -1    0    0    0  501 -0.00000000000E+00  0.00000000000E+00  0.51666575781E+03  0.51666575781E+03  0.00000000000E+00 0.  1.
          1   -1    0    0  501    0  0.00000000000E+00 -0.00000000000E+00 -0.87233307371E+02  0.87233307371E+02  0.00000000000E+00 0. -1.
         23    2    1    2    0    0 -0.17802430279E+02  0.64107874787E+02  0.46060820155E+03  0.48190573233E+03  0.12508586405E+03 0.  0.
          5    1    3    3  502    0 -0.56602959798E+01 -0.30174214343E+02  0.23526839104E+03  0.23729983225E+03  0.41800000000E+01 0. -1.
         -5    1    3    3    0  502 -0.12142134299E+02  0.94282089130E+02  0.22533981051E+03  0.24460590008E+03  0.41800000000E+01 0. -1.
        -11    1    1    2    0    0  0.31717318002E+02 -0.52873775830E+02 -0.61310339246E+02  0.86951607980E+02  0.00000000000E+00 0. -1.
         11    1    1    2    0    0 -0.13914887723E+02 -0.11234098957E+02  0.30134588135E+02  0.35041724868E+02  0.00000000000E+00 0.  1.
</event>
<event>
 7    1  0.6992302E-006  0.2392703E+03  0.7561462E-02  0.1120280E+00
         -1   -1    0    0    0  501 -0.00000000000E+00  0.00000000000E+00  0.13998198364E+03  0.13998198364E+03  0.00000000000E+00 0.  1.
          1   -1    0    0  501    0  0.00000000000E+00 -0.00000000000E+00 -0.56632477536E+03  0.56632477536E+03  0.00000000000E+00 0. -1.
         23    2    1    2    0    0 -0.21078409761E+03  0.58838455325E+02 -0.43563182200E+02  0.25580528827E+03  0.12508675003E+03 0.  0.
          5    1    3    3  502    0 -0.29467535172E+02  0.64047621943E+02 -0.12852580952E+02  0.71785059329E+02  0.41800000000E+01 0. -1.
         -5    1    3    3    0  502 -0.18131656244E+03 -0.52091666180E+01 -0.30710601248E+02  0.18402022894E+03  0.41800000000E+01 0. -1.
        -11    1    1    2    0    0  0.12006991506E+03 -0.33091698219E+01 -0.13408847748E+03  0.18002070686E+03  0.00000000000E+00 0.  1.
         11    1    1    2    0    0  0.90714182550E+02 -0.55529285503E+02 -0.24869113205E+03  0.27048076387E+03  0.00000000000E+00 0. -1.
</event>
<event>
 7    1  0.6992302E-006  0.2037552E+03  0.7561462E-02  0.1146609E+00
          2   -1    0    0  501    0  0.00000000000E+00  0.00000000000E+00  0.77853841388E+03  0.77853841388E+03  0.00000000000E+00 0. -1.
         -2   -1    0    0    0  501 -0.00000000000E+00 -0.00000000000E+00 -0.57183202360E+02  0.57183202360E+02  0.00000000000E+00 0.  1.
         23    2    1    2    0    0  0.10824194835E+03  0.14187559777E+03  0.33625559316E+03  0.40069918300E+03  0.12508799581E+03 0.  0.
          5    1    3    3  502    0  0.12825843156E+03  0.11328855745E+03  0.31787572670E+03  0.36103597126E+03  0.41800000000E+01 0. -1.
         -5    1    3    3    0  502 -0.20016483210E+02  0.28587040319E+02  0.18379866463E+02  0.39663211740E+02  0.41800000000E+01 0. -1.
        -11    1    1    2    0    0 -0.10298327607E+03 -0.60094512794E+02  0.25067224952E+03  0.27758509019E+03  0.00000000000E+00 0. -1.
         11    1    1    2    0    0 -0.52586722859E+01 -0.81781084979E+02  0.13442736884E+03  0.15743734305E+03  0.00000000000E+00 0.  1.
</event>
<event>
 7    1  0.6992302E-006  0.1123258E+03  0.7561462E-02  0.1256323E+00
          2   -1    0    0  501    0  0.00000000000E+00  0.00000000000E+00  0.18535128320E+03  0.18535128320E+03  0.00000000000E+00 0. -1.
         -2   -1    0    0    0  501 -0.00000000000E+00 -0.00000000000E+00 -0.75587525798E+02  0.75587525798E+02  0.00000000000E+00 0.  1.
         23    2    1    2    0    0 -0.39324205745E+02  0.19105584530E+02  0.38526327343E+02  0.13799172165E+03  0.12508405505E+03 0.  0.
          5    1    3    3  502    0  0.35238510590E+02  0.34486062759E+02  0.36901761990E+02  0.61727251609E+02  0.41800000000E+01 0.  1.
         -5    1    3    3    0  502 -0.74562716335E+02 -0.15380478229E+02  0.16245653527E+01  0.76264470039E+02  0.41800000000E+01 0.  1.
        -11    1    1    2    0    0 -0.28611086128E+02 -0.10599615875E+01  0.12078626890E+02  0.31074281899E+02  0.00000000000E+00 0.  1.
         11    1    1    2    0    0  0.67935291873E+02 -0.18045622943E+02  0.59158803174E+02  0.91872805455E+02  0.00000000000E+00 0. -1.
</event>
<event>
 7    1  0.6992302E-006  0.1782399E+03  0.7561462E-02  0.1169517E+00
          2   -1    0    0  501    0  0.00000000000E+00  0.00000000000E+00  0.49222679819E+03  0.49222679819E+03  0.00000000000E+00 0. -1.
         -2   -1    0    0    0  501 -0.00000000000E+00 -0.00000000000E+00 -0.93624133358E+02  0.93624133358E+02  0.00000000000E+00 0.  1.
         23    2    1    2    0    0  0.13861917269E+03 -0.40197596745E+02  0.49672524794E+02  0.19734674458E+03  0.12508899253E+03 0.  0.
          5    1    3    3  502    0  0.98063197715E+02  0.34939512769E+02  0.38783431245E+02  0.11117008248E+03  0.41800000000E+01 0.  1.
         -5    1    3    3    0  502  0.40555974979E+02 -0.75137109514E+02  0.10889093549E+02  0.86176662101E+02  0.41800000000E+01 0.  1.
        -11    1    1    2    0    0 -0.23624635149E+02 -0.25180612585E+02  0.42615975721E+02  0.54848044840E+02  0.00000000000E+00 0.  1.
         11    1    1    2    0    0 -0.11499453754E+03  0.65378209330E+02  0.30631416432E+03  0.33365614213E+03  0.00000000000E+00 0. -1.
</event>
<event>
 7    1  0.6992302E-006  0.1252494E+03  0.7561462E-02  0.1234680E+00
          2   -1    0    0  501    0  0.00000000000E+00  0.00000000000E+00  0.40724963785E+03  0.40724963785E+03  0.00000000000E+00 0. -1.
         -2   -1    0    0    0  501 -0.00000000000E+00 -0.00000000000E+00 -0.64669861019E+02  0.64669861019E+02  0.00000000000E+00 0.  1.
         23    2    1    2    0    0  0.90688227451E+02  0.78037745588E+02  0.19282640992E+03  0.25912421635E+03  0.12509632609E+03 0.  0.
          5    1    3    3  502    0 -0.58579990289E+00  0.63357078662E+01 -0.17374980668E+02  0.18969625955E+02  0.41800000000E+01 0.  1.
         -5    1    3    3    0  502  0.91274027354E+02  0.71702037722E+02  0.21020139059E+03  0.24015459040E+03  0.41800000000E+01 0.  1.
        -11    1    1    2    0    0 -0.79227192986E+01 -0.30035217511E+02  0.10048532638E+03  0.10517692043E+03  0.00000000000E+00 0. -1.
         11    1    1    2    0    0 -0.82765508153E+02 -0.48002528077E+02  0.49268040523E+02  0.10761836209E+03  0.00000000000E+00 0.  1.
</event>
<event>
 7    1  0.6992302E-006  0.9747218E+02  0.7561462E-02  0.1285703E+00
          3   -1    0    0  501    0  0.00000000000E+00  0.00000000000E+00  0.36130502443E+03  0.36130502443E+03  0.00000000000E+00 0. -1.
         -3   -1    0    0    0  501 -0.00000000000E+00 -0.00000000000E+00 -0.43206290131E+02  0.43206290131E+02  0.00000000000E+00 0.  1.
         23    2    1    2    0    0  0.19146171158E+02 -0.24878935467E+01  0.97434268672E+02  0.15973004990E+03  0.12508991424E+03 0.  0.
          5    1    3    3  502    0 -0.13795052480E+02 -0.37896812313E+02 -0.10067341747E+02  0.41776735467E+02  0.41800000000E+01 0.  1.
         -5    1    3    3    0  502  0.32941223638E+02  0.35408918767E+02  0.10750161042E+03  0.11795331443E+03  0.41800000000E+01 0.  1.
        -11    1    1    2    0    0  0.19341438196E+01 -0.49613782600E+02  0.10861048643E+03  0.11942154788E+03  0.00000000000E+00 0. -1.
         11    1    1    2    0    0 -0.21080314977E+02  0.52101676147E+02  0.11205397919E+03  0.12535971677E+03  0.00000000000E+00 0.  1.
</event>
<event>
 7    1  0.6992302E-006  0.1230363E+03  0.7561462E-02  0.1238171E+00
         -2   -1    0    0    0  501 -0.00000000000E+00  0.00000000000E+00  0.23522943418E+03  0.23522943418E+03  0.00000000000E+00 0. -1.
          2   -1    0    0  501    0  0.00000000000E+00 -0.00000000000E+00 -0.89236858325E+02  0.89236858325E+02  0.00000000000E+00 0.  1.
         23    2    1    2    0    0  0.85724773103E+02 -0.37698353882E+02  0.10419979414E+03  0.18781661530E+03  0.12509029249E+03 0.  0.
          5    1    3    3  502    0  0.67715632785E+02  0.34626606554E+02  0.77151417103E+02  0.10841689152E+03  0.41800000000E+01 0. -1.
         -5    1    3    3    0  502  0.18009140319E+02 -0.72324960436E+02  0.27048377040E+02  0.79399723787E+02  0.41800000000E+01 0. -1.
        -11    1    1    2    0    0 -0.52014147866E+02  0.31982389009E+02 -0.21481036714E+02  0.64728507810E+02  0.00000000000E+00 0.  1.
         11    1    1    2    0    0 -0.33710625238E+02  0.57159648722E+01  0.63273818424E+02  0.71921169389E+02  0.00000000000E+00 0. -1.
</event>
<event>
 7    1  0.6992302E-006  0.7900656E+02  0.7561462E-02  0.1331895E+00
         -2   -1    0    0    0  501 -0.00000000000E+00  0.00000000000E+00  0.52400911537E+02  0.52400911537E+02  0.00000000000E+00 0.  1.
          2   -1    0    0  501    0  0.00000000000E+00 -0.00000000000E+00 -0.26958358228E+03  0.26958358228E+03  0.00000000000E+00 0. -1.
         23    2    1    2    0    0  0.74413921478E+01 -0.44185333426E+02 -0.91158257882E+02  0.16113380876E+03  0.12508620362E+03 0.  0.
          5    1    3    3  502    0  0.60586898033E+01  0.17814952473E+02 -0.96819937428E+02  0.98720073629E+02  0.41800000000E+01 0. -1.
         -5    1    3    3    0  502  0.13827023445E+01 -0.62000285899E+02  0.56616795455E+01  0.62413735128E+02  0.41800000000E+01 0. -1.
        -11    1    1    2    0    0  0.25104737481E+02  0.34417683840E+02 -0.15683433932E+02  0.45395978950E+02  0.00000000000E+00 0.  1.
         11    1    1    2    0    0 -0.32546129629E+02  0.97676495857E+01 -0.11034097893E+03  0.11545470611E+03  0.00000000000E+00 0. -1.
</event>
<event>
 7    1  0.6992302E-006  0.2005901E+03  0.7561462E-02  0.1149242E+00
          2   -1    0    0  501    0  0.00000000000E+00  0.00000000000E+00  0.44583471756E+03  0.44583471756E+03  0.00000000000E+00 0.  1.
         -2   -1    0    0    0  501 -0.00000000000E+00 -0.00000000000E+00 -0.12469318473E+03  0.12469318473E+03  0.00000000000E+00 0. -1.
         23    2    1    2    0    0 -0.13476200050E+03 -0.12728988380E+03  0.49277515335E+02  0.22899576132E+03  0.12508906383E+03 0.  0.
          5    1    3    3  502    0 -0.11834742231E+03 -0.67083358332E+02 -0.17826101489E+02  0.13726445872E+03  0.41800000000E+01 0. -1.
         -5    1    3    3    0  502 -0.16414578184E+02 -0.60206525464E+02  0.67103616825E+02  0.91731302598E+02  0.41800000000E+01 0. -1.
        -11    1    1    2    0    0  0.75957718683E+02  0.17438546570E+02  0.72550516094E+02  0.10647654821E+03  0.00000000000E+00 0. -1.
         11    1    1    2    0    0  0.58804281814E+02  0.10985133723E+03  0.19931350140E+03  0.23505559276E+03  0.00000000000E+00 0.  1.
</event>
<event>
 7    1  0.6992302E-006  0.1116038E+03  0.7561462E-02  0.1257628E+00
          1   -1    0    0  501    0  0.00000000000E+00  0.00000000000E+00  0.47146017562E+02  0.47146017562E+02  0.00000000000E+00 0. -1.
         -1   -1    0    0    0  501 -0.00000000000E+00 -0.00000000000E+00 -0.50701934786E+03  0.50701934786E+03  0.00000000000E+00 0.  1.
         23    2    1    2    0    0  0.51039560031E+02  0.67880657864E+02 -0.37707009430E+03  0.40408220569E+03  0.11784630900E+03 0.  0.
          5    1    3    3  502    0 -0.13309324680E+02  0.28576670451E+02 -0.16766230357E+02  0.35949173813E+02  0.41800000000E+01 0. -1.
         -5    1    3    3    0  502  0.64348884711E+02  0.39303987414E+02 -0.36030386394E+03  0.36813303188E+03  0.41800000000E+01 0.  1.
        -11    1    1    2    0    0 -0.99125634952E+00 -0.65789738011E+02 -0.18072480700E+02  0.68234058764E+02  0.00000000000E+00 0.  1.
         11    1    1    2    0    0 -0.50048303681E+02 -0.20909198528E+01 -0.64730755300E+02  0.81849100966E+02  0.00000000000E+00 0. -1.
</event>
<event>
 7    1  0.6992302E-006  0.1319819E+03  0.7561462E-02  0.1224544E+00
         -4   -1    0    0    0  501 -0.00000000000E+00  0.00000000000E+00  0.11030190075E+03  0.11030190075E+03  0.00000000000E+00 0.  1.
          4   -1    0    0  501    0  0.00000000000E+00 -0.00000000000E+00 -0.18553740127E+03  0.18553740127E+03  0.00000000000E+00 0. -1.
         23    2    1    2    0    0  0.27324283977E+02  0.85087817527E+02 -0.13703537344E+02  0.15434310025E+03  0.12508977765E+03 0.  0.
          5    1    3    3  502    0 -0.33234793617E+02  0.64101736585E+02  0.28227383005E+02  0.77639176267E+02  0.41800000000E+01 0. -1.
         -5    1    3    3    0  502  0.60559077595E+02  0.20986080942E+02 -0.41930920350E+02  0.76703923979E+02  0.41800000000E+01 0. -1.
        -11    1    1    2    0    0  0.33497385992E+02 -0.36691612277E+02 -0.23258896664E+02  0.54857319965E+02  0.00000000000E+00 0. -1.
         11    1    1    2    0    0 -0.60821669969E+02 -0.48396205250E+02 -0.38273066509E+02  0.86638881805E+02  0.00000000000E+00 0.  1.
</event>
<event>
 7    1  0.6992302E-006  0.1105657E+03  0.7561462E-02  0.1259526E+00
         -3   -1    0    0    0  501 -0.00000000000E+00  0.00000000000E+00  0.74569504003E+03  0.74569504003E+03  0.00000000000E+00 0.  1.
          3   -1    0    0  501    0  0.00000000000E+00 -0.00000000000E+00 -0.19019926524E+02  0.19019926524E+02  0.00000000000E+00 0. -1.
         23    2    1    2    0    0 -0.30585254619E+02 -0.44941277353E+02  0.45330499412E+03  0.47174056843E+03  0.11873739931E+03 0.  0.
          5    1    3    3  502    0 -0.13324787536E+02 -0.79998549859E+02  0.20770063499E+03  0.22301198200E+03  0.41800000000E+01 0. -1.
         -5    1    3    3    0  502 -0.17260467083E+02  0.35057272506E+02  0.24560435914E+03  0.24872858643E+03  0.41800000000E+01 0.  1.
        -11    1    1    2    0    0 -0.15604960056E+01  0.63491065161E+02  0.21146452883E+03  0.22079582753E+03  0.00000000000E+00 0.  1.
         11    1    1    2    0    0  0.32145750624E+02 -0.18549787808E+02  0.61905590558E+02  0.72178570596E+02  0.00000000000E+00 0. -1.
</event>
<event>
 7    1  0.6992302E-006  0.1243423E+03  0.7561462E-02  0.1236101E+00
         -1   -1    0    0    0  501 -0.00000000000E+00  0.00000000000E+00  0.14787068252E+03  0.14787068252E+03  0.00000000000E+00 0.  1.
          1   -1    0    0  501    0  0.00000000000E+00 -0.00000000000E+00 -0.14797222653E+03  0.14797222653E+03  0.00000000000E+00 0. -1.
         23    2    1    2    0    0 -0.51733185766E+02 -0.86974913583E+02  0.99349908314E+01  0.16120536387E+03  0.12508999639E+03 0.  0.
          5    1    3    3  502    0 -0.23638933420E+02  0.23393611122E+02 -0.25213577065E+02  0.41943498697E+02  0.41800000000E+01 0.  1.
         -5    1    3    3    0  502 -0.28094252345E+02 -0.11036852471E+03  0.35148567896E+02  0.11926186518E+03  0.41800000000E+01 0.  1.
        -11    1    1    2    0    0  0.26487925866E+02  0.43757375613E+02 -0.49287025236E+02  0.71031887162E+02  0.00000000000E+00 0. -1.
         11    1    1    2    0    0  0.25245259900E+02  0.43217537971E+02  0.39250490390E+02  0.63605658015E+02  0.00000000000E+00 0.  1.
</event>
<event>
 6    1  0.6992302E-006  0.1267877E+03  0.7561462E-02  0.1232301E+00
         -1   -1    0    0    0  501 -0.00000000000E+00  0.00000000000E+00  0.57362170136E+02  0.57362170136E+02  0.00000000000E+00 0.  1.
          1   -1    0    0  501    0  0.00000000000E+00 -0.00000000000E+00 -0.32413381127E+03  0.32413381127E+03  0.00000000000E+00 0. -1.
          5    1    1    2  502    0  0.59415551785E+02 -0.86196467370E+02 -0.92583559334E+02  0.13981854898E+03  0.41800000000E+01 0. -1.
         -5    1    1    2    0  502 -0.12783285806E+02  0.54816633728E+02 -0.38265864203E+02  0.68191088073E+02  0.41800000000E+01 0.  1.
        -11    1    1    2    0    0 -0.46150427466E+02 -0.13024026120E+02 -0.25157112025E+02  0.54151338830E+02  0.00000000000E+00 0.  1.
         11    1    1    2    0    0 -0.48183851352E+00  0.44403859762E+02 -0.11076510557E+03  0.11933500552E+03  0.00000000000E+00 0. -1.
</event>
<event>
 7    1  0.6992302E-006  0.1480350E+03  0.7561462E-02  0.1202909E+00
          1   -1    0    0  501    0  0.00000000000E+00  0.00000000000E+00  0.17235279929E+03  0.17235279929E+03  0.00000000000E+00 0. -1.
         -1   -1    0    0    0  501 -0.00000000000E+00 -0.00000000000E+00 -0.16134503775E+03  0.16134503775E+03  0.00000000000E+00 0.  1.
         23    2    1    2    0    0 -0.11235567397E+03  0.18399366216E+02 -0.50997762444E+02  0.17666616357E+03  0.12509127638E+03 0.  0.
          5    1    3    3  502    0 -0.93197008066E+02  0.66282179548E+02 -0.50073619706E+02  0.12491536907E+03  0.41800000000E+01 0.  1.
         -5    1    3    3    0  502 -0.19158665899E+02 -0.47882813333E+02 -0.92414273778E+00  0.51750794501E+02  0.41800000000E+01 0.  1.
        -11    1    1    2    0    0 -0.13553520082E+01 -0.16096250197E+02 -0.13048404442E+02  0.20765045339E+02  0.00000000000E+00 0.  1.
         11    1    1    2    0    0  0.11371102597E+03 -0.23031160189E+01  0.75053928427E+02  0.13626662814E+03  0.00000000000E+00 0. -1.
</event>
<event>
 7    1  0.6992302E-006  0.2661080E+03  0.7561462E-02  0.1103528E+00
          2   -1    0    0  501    0  0.00000000000E+00  0.00000000000E+00  0.16569811368E+03  0.16569811368E+03  0.00000000000E+00 0. -1.
         -2   -1    0    0    0  501 -0.00000000000E+00 -0.00000000000E+00 -0.44950093501E+03  0.44950093501E+03  0.00000000000E+00 0.  1.
         23    2    1    2    0    0 -0.16497530818E+03 -0.18762730730E+03 -0.15149836269E+03  0.31783038622E+03  0.12507414504E+03 0.  0.
          5    1    3    3  502    0  0.50052902455E+01 -0.73245939819E+02 -0.51743055444E+02  0.89915720634E+02  0.41800000000E+01 0. -1.
         -5    1    3    3    0  502 -0.16998059842E+03 -0.11438136748E+03 -0.99755307241E+02  0.22791466559E+03  0.41800000000E+01 0. -1.
        -11    1    1    2    0    0  0.57960615108E+02  0.99387158517E+02 -0.10549733537E+03  0.15609909658E+03  0.00000000000E+00 0.  1.
         11    1    1    2    0    0  0.10701469307E+03  0.88240148786E+02 -0.26807123272E+02  0.14126956590E+03  0.00000000000E+00 0. -1.
</event>
<event>
 7    1  0.6992302E-006  0.8946968E+02  0.7561462E-02  0.1304141E+00
         -2   -1    0    0    0  501 -0.00000000000E+00  0.00000000000E+00  0.86981049195E+02  0.86981049195E+02  0.00000000000E+00 0.  1.
          2   -1    0    0  501    0  0.00000000000E+00 -0.00000000000E+00 -0.17507590164E+03  0.17507590164E+03  0.00000000000E+00 0. -1.
         23    2    1    2    0    0 -0.61019433176E+01  0.62569172735E+02 -0.22452433701E+02  0.14178552848E+03  0.12508752623E+03 0.  0.
          5    1    3    3  502    0  0.26047672116E+02  0.47921783204E+02 -0.65890327680E+02  0.85638695750E+02  0.41800000000E+01 0.  1.
         -5    1    3    3    0  502 -0.32149615433E+02  0.14647389532E+02  0.43437893979E+02  0.56146832733E+02  0.41800000000E+01 0.  1.
        -11    1    1    2    0    0  0.34192529928E+02 -0.28565410212E+02 -0.43601530153E+01  0.44767428983E+02  0.00000000000E+00 0.  1.
         11    1    1    2    0    0 -0.28090586610E+02 -0.34003762523E+02 -0.61282265724E+02  0.75503993365E+02  0.00000000000E+00 0. -1.
</event>
<event>
 7    1  0.6992302E-006  0.1144302E+03  0.7561462E-02  0.1252579E+00
          1   -1    0    0  501    0  0.00000000000E+00  0.00000000000E+00  0.58640297397E+02  0.58640297397E+02  0.00000000000E+00 0. -1.
         -1   -1    0    0    0  501 -0.00000000000E+00 -0.00000000000E+00 -0.24836272435E+03  0.24836272435E+03  0.00000000000E+00 0.  1.
         23    2    1    2    0    0 -0.33866409545E+02  0.36163175853E+02 -0.12583443753E+03  0.18421903731E+03  0.12509052344E+03 0.  0.
          5    1    3    3  502    0 -0.40422328992E+02 -0.40100803225E+02 -0.63703978167E+02  0.85543604874E+02  0.41800000000E+01 0. -1.
         -5    1    3    3    0  502  0.65559194474E+01  0.76263979078E+02 -0.62130459367E+02  0.98675432432E+02  0.41800000000E+01 0. -1.
        -11    1    1    2    0    0  0.48980555705E+02 -0.53213461165E+02 -0.68412557302E+02  0.99554232873E+02  0.00000000000E+00 0.  1.
         11    1    1    2    0    0 -0.15114146161E+02  0.17050285312E+02  0.45245678817E+01  0.23229751568E+02  0.00000000000E+00 0. -1.
</event>
<event>
 7    1  0.6992302E-006  0.9833086E+02  0.7561462E-02  0.1283846E+00
          1   -1    0    0  501    0  0.00000000000E+00  0.00000000000E+00  0.50840735219E+03  0.50840735219E+03  0.00000000000E+00 0. -1.
         -1   -1    0    0    0  501 -0.00000000000E+00 -0.00000000000E+00 -0.28111302854E+02  0.28111302854E+02  0.00000000000E+00 0.  1.
         23    2    1    2    0    0  0.47443824308E+02  0.45383274822E+01  0.22697527285E+03  0.26350831631E+03  0.12508934966E+03 0.  0.
          5    1    3    3  502    0  0.58056305499E+02 -0.35801237400E+02  0.58686672097E+02  0.90076973136E+02  0.41800000000E+01 0. -1.
         -5    1    3    3    0  502 -0.10612481190E+02  0.40339564882E+02  0.16828860076E+03  0.17343134318E+03  0.41800000000E+01 0. -1.
        -11    1    1    2    0    0 -0.56897405161E+02 -0.26297774067E+02  0.23448433842E+03  0.24271751606E+03  0.00000000000E+00 0. -1.
         11    1    1    2    0    0  0.94535808531E+01  0.21759446585E+02  0.18836438055E+02  0.30292822668E+02  0.00000000000E+00 0.  1.
</event>
<event>
 7    1  0.6992302E-006  0.1096841E+03  0.7561462E-02  0.1261156E+00
          1   -1    0    0  501    0  0.00000000000E+00  0.00000000000E+00  0.48305086187E+03  0.48305086187E+03  0.00000000000E+00 0. -1.
         -1   -1    0    0    0  501 -0.00000000000E+00 -0.00000000000E+00 -0.25624627637E+02  0.25624627637E+02  0.00000000000E+00 0.  1.
         23    2    1    2    0    0  0.42105313486E+00  0.34025350181E+02  0.28819453270E+03  0.31600559828E+03  0.12508216388E+03 0.  0.
          5    1    3    3  502    0 -0.58207445610E+02 -0.18884774040E+01  0.16255512787E+03  0.17272323257E+03  0.41800000000E+01 0.  1.
         -5    1    3    3    0  502  0.58628498745E+02  0.35913827585E+02  0.12563940483E+03  0.14328236571E+03  0.41800000000E+01 0.  1.
        -11    1    1    2    0    0  0.42305469604E+02 -0.11708860764E+02  0.80766311179E+02  0.91924138290E+02  0.00000000000E+00 0.  1.
         11    1    1    2    0    0 -0.42726522739E+02 -0.22316489417E+02  0.88465390347E+02  0.10074575294E+03  0.00000000000E+00 0. -1.
</event>
<event>
 7    1  0.6992302E-006  0.4862207E+02  0.7561462E-02  0.1452919E+00
          2   -1    0    0  501    0  0.00000000000E+00  0.00000000000E+00  0.12469608725E+03  0.12469608725E+03  0.00000000000E+00 0. -1.
         -2   -1    0    0    0  501 -0.00000000000E+00 -0.00000000000E+00 -0.10446225615E+03  0.10446225615E+03  0.00000000000E+00 0.  1.
         23    2    1    2    0    0  0.23402520292E+02  0.10236213589E+02 -0.18685093028E+02  0.12903069737E+03  0.12508928866E+03 0.  0.
          5    1    3    3  502    0  0.19345604338E+02  0.13816159977E+02  0.52360871668E+02  0.57656499768E+02  0.41800000000E+01 0. -1.
         -5    1    3    3    0  502  0.40569159540E+01 -0.35799463878E+01 -0.71045964696E+02  0.71374197598E+02  0.41800000000E+01 0. -1.
        -11    1    1    2    0    0  0.11798267314E+02 -0.25350236746E+02 -0.16717779456E+02  0.32577872316E+02  0.00000000000E+00 0.  1.
         11    1    1    2    0    0 -0.35200787606E+02  0.15114023158E+02  0.55636703587E+02  0.67549773724E+02  0.00000000000E+00 0. -1.
</event>
<event>
 7    1  0.6992302E-006  0.1228543E+03  0.7561462E-02  0.1238461E+00
         -1   -1    0    0    0  501 -0.00000000000E+00  0.00000000000E+00  0.53475554806E+02  0.53475554806E+02  0.00000000000E+00 0.  1.
          1   -1    0    0  501    0  0.00000000000E+00 -0.00000000000E+00 -0.39921230441E+03  0.39921230441E+03  0.00000000000E+00 0. -1.
         23    2    1    2    0    0  0.37622959997E+02 -0.84045778851E+02 -0.13093498673E+03  0.20315192143E+03  0.12509017694E+03 0.  0.
          5    1    3    3  502    0  0.56961526024E+02  0.95531353407E+01 -0.64491417126E+02  0.86674639456E+02  0.41800000000E+01 0. -1.
         -5    1    3    3    0  502 -0.19338566027E+02 -0.93598914192E+02 -0.66443569604E+02  0.11647728197E+03  0.41800000000E+01 0. -1.
        -11    1    1    2    0    0 -0.15387164097E+02  0.38095605875E+02 -0.15681995218E+02  0.43976868692E+02  0.00000000000E+00 0.  1.
         11    1    1    2    0    0 -0.22235795900E+02  0.45950172976E+02 -0.19911976766E+03  0.20555906910E+03  0.00000000000E+00 0. -1.
</event>
<event>
 7    1  0.6992302E-006  0.1566902E+03  0.7561462E-02  0.1192485E+00
          1   -1    0    0  501    0  0.00000000000E+00  0.00000000000E+00  0.99934765329E+03  0.99934765329E+03  0.00000000000E+00 0. -1.
         -1   -1    0    0    0  501 -0.00000000000E+00 -0.00000000000E+00 -0.29548281726E+02  0.29548281726E+02  0.00000000000E+00 0.  1.
         23    2    1    2    0    0 -0.12355199904E+03  0.45250671710E+01  0.36598544299E+03  0.40605118330E+03  0.12508655515E+03 0.  0.
          5    1    3    3  502    0 -0.16674074890E+00  0.34437650038E+02  0.16257220302E+03  0.16623228668E+03  0.41800000000E+01 0. -1.
         -5    1    3    3    0  502 -0.12338525829E+03 -0.29912582867E+02  0.20341323997E+03  0.23981889662E+03  0.41800000000E+01 0. -1.
        -11    1    1    2    0    0 -0.71755006398E+01  0.17662488726E+02  0.53956335532E+02  0.57225321855E+02  0.00000000000E+00 0.  1.
         11    1    1    2    0    0  0.13072749968E+03 -0.22187555897E+02  0.54985759304E+03  0.56561942986E+03  0.00000000000E+00 0. -1.
</event>
<event>
 7    1  0.6992302E-006  0.1543568E+03  0.7561462E-02  0.1195219E+00
          2   -1    0    0  501    0  0.00000000000E+00  0.00000000000E+00  0.19381110927E+03  0.19381110927E+03  0.00000000000E+00 0.  1.
         -2   -1    0    0    0  501 -0.00000000000E+00 -0.00000000000E+00 -0.16844540296E+03  0.16844540296E+03  0.00000000000E+00 0. -1.
         23    2    1    2    0    0 -0.38435116754E+02  0.13818621561E+03 -0.82603908514E+01  0.19049238263E+03  0.12508567223E+03 0.  0.
          5    1    3    3  502    0 -0.83461848168E+01  0.10475323591E+03  0.50263596566E+02  0.11656243295E+03  0.41800000000E+01 0. -1.
         -5    1    3    3    0  502 -0.30088931937E+02  0.33432979696E+02 -0.58523987417E+02  0.73929949680E+02  0.41800000000E+01 0. -1.
        -11    1    1    2    0    0 -0.15318313369E+01 -0.10868753538E+03  0.49744690064E+02  0.11954020681E+03  0.00000000000E+00 0.  1.
         11    1    1    2    0    0  0.39966948090E+02 -0.29498680231E+02 -0.16118592899E+02  0.52223922795E+02  0.00000000000E+00 0. -1.
</event>
<event>
 6    1  0.6992302E-006  0.1267851E+03  0.7561462E-02  0.1232305E+00
          2   -1    0    0  501    0  0.00000000000E+00  0.00000000000E+00  0.29151933943E+03  0.29151933943E+03  0.00000000000E+00 0. -1.
         -2   -1    0    0    0  501 -0.00000000000E+00 -0.00000000000E+00 -0.13903145263E+03  0.13903145263E+03  0.00000000000E+00 0.  1.
          5    1    1    2  502    0  0.47621159544E+02 -0.62899566703E+02  0.14697457798E+03  0.16686260606E+03  0.41800000000E+01 0. -1.
         -5    1    1    2    0  502 -0.25976052999E+00  0.78693259211E+02 -0.92726108808E+02  0.12168935934E+03  0.41800000000E+01 0.  1.
        -11    1    1    2    0    0 -0.45466358140E+02 -0.46478387201E+02  0.40544917497E+02  0.76624542636E+02  0.00000000000E+00 0. -1.
         11    1    1    2    0    0 -0.18950408741E+01  0.30684694693E+02  0.57694500120E+02  0.65374284030E+02  0.00000000000E+00 0.  1.
</event>
<event>
 7    1  0.6992302E-006  0.1054194E+03  0.7561462E-02  0.1269296E+00
         -2   -1    0    0    0  501 -0.00000000000E+00  0.00000000000E+00  0.13336899581E+04  0.13336899581E+04  0.00000000000E+00 0.  1.
          2   -1    0    0  501    0  0.00000000000E+00 -0.00000000000E+00 -0.11503113991E+02  0.11503113991E+02  0.00000000000E+00 0. -1.
         23    2    1    2    0    0 -0.34909243308E+02 -0.57484940761E+01  0.79151523303E+03  0.80212133321E+03  0.12510223266E+03 0.  0.
          5    1    3    3  502    0 -0.22328665507E+02  0.44715571298E+02  0.14356562216E+03  0.15207436301E+03  0.41800000000E+01 0.  1.
         -5    1    3    3    0  502 -0.12580577801E+02 -0.50464065374E+02  0.64794961087E+03  0.65004697020E+03  0.41800000000E+01 0.  1.
        -11    1    1    2    0    0  0.60536596282E+02  0.34753151935E+02  0.42153249386E+03  0.42727286883E+03  0.00000000000E+00 0.  1.
         11    1    1    2    0    0 -0.25627352974E+02 -0.29004657859E+02  0.10913911722E+03  0.11579887005E+03  0.00000000000E+00 0. -1.
</event>
<event>
 7    1  0.6992302E-006  0.1277746E+03  0.7561462E-02  0.1230796E+00
         -1   -1    0    0    0  501 -0.00000000000E+00  0.00000000000E+00  0.13456072537E+03  0.13456072537E+03  0.00000000000E+00 0.  1.
          1   -1    0    0  501    0  0.00000000000E+00 -0.00000000000E+00 -0.15391314580E+03  0.15391314580E+03  0.00000000000E+00 0. -1.
         23    2    1    2    0    0 -0.34959677210E+02  0.84326194741E+02 -0.39149994030E+01  0.15490552414E+03  0.12508920032E+03 0.  0.
          5    1    3    3  502    0 -0.81226120683E+02  0.61795215674E+02 -0.11222061852E+02  0.10276058794E+03  0.41800000000E+01 0. -1.
         -5    1    3    3    0  502  0.46266443474E+02  0.22530979067E+02  0.73070624494E+01  0.52144936198E+02  0.41800000000E+01 0. -1.
        -11    1    1    2    0    0 -0.10076969271E+02 -0.27344625875E+02 -0.46255213720E+02  0.54670089356E+02  0.00000000000E+00 0.  1.
         11    1    1    2    0    0  0.45036646480E+02 -0.56981568866E+02  0.30817792692E+02  0.78898257668E+02  0.00000000000E+00 0. -1.
</event>
<event>
 7    1  0.6992302E-006  0.1348020E+03  0.7561462E-02  0.1220499E+00
          2   -1    0    0  501    0  0.00000000000E+00  0.00000000000E+00  0.26370569987E+03  0.26370569987E+03  0.00000000000E+00 0.  1.
         -2   -1    0    0    0  501 -0.00000000000E+00 -0.00000000000E+00 -0.73624529824E+02  0.73624529824E+02  0.00000000000E+00 0. -1.
         23    2    1    2    0    0  0.44597144591E+02  0.71673876350E+02  0.83807983931E+02  0.17261399148E+03  0.12508302054E+03 0.  0.
          5    1    3    3  502    0  0.82709841918E+02  0.22968735721E+02  0.65264529828E+02  0.10791391025E+03  0.41800000000E+01 0.  1.
         -5    1    3    3    0  502 -0.38112697327E+02  0.48705140629E+02  0.18543454103E+02  0.64700081231E+02  0.41800000000E+01 0.  1.
        -11    1    1    2    0    0 -0.71152670458E+02 -0.58059311908E+02  0.60146582932E+02  0.10977794702E+03  0.00000000000E+00 0. -1.
         11    1    1    2    0    0  0.26555525866E+02 -0.13614564442E+02  0.46126603182E+02  0.54938291201E+02  0.00000000000E+00 0.  1.
</event>
<event>
 7    1  0.6992302E-006  0.6937542E+02  0.7561462E-02  0.1362230E+00
          4   -1    0    0  501    0  0.00000000000E+00  0.00000000000E+00  0.16205749808E+03  0.16205749808E+03  0.00000000000E+00 0. -1.
         -4   -1    0    0    0  501 -0.00000000000E+00 -0.00000000000E+00 -0.96286934735E+02  0.96286934735E+02  0.00000000000E+00 0.  1.
         23    2    1    2    0    0  0.67232393562E+01 -0.54910823606E+02  0.10410960701E+02  0.13718577424E+03  0.12510454849E+03 0.  0.
          5    1    3    3  502    0  0.18505129941E+02 -0.44925924586E+02 -0.52862130325E+02  0.71921177386E+02  0.41800000000E+01 0.  1.
         -5    1    3    3    0  502 -0.11781890585E+02 -0.99848990199E+01  0.63273091026E+02  0.65264596852E+02  0.41800000000E+01 0.  1.
        -11    1    1    2    0    0 -0.25400942699E+02  0.13982079969E+02  0.68421666578E+02  0.74311714470E+02  0.00000000000E+00 0. -1.
         11    1    1    2    0    0  0.18677703343E+02  0.40928743637E+02 -0.13062063935E+02  0.46846944106E+02  0.00000000000E+00 0.  1.
</event>
<event>
 7    1  0.6992302E-006  0.1673624E+03  0.7561462E-02  0.1180627E+00
         -2   -1    0    0    0  501 -0.00000000000E+00  0.00000000000E+00  0.65469129339E+02  0.65469129339E+02  0.00000000000E+00 0.  1.
          2   -1    0    0  501    0  0.00000000000E+00 -0.00000000000E+00 -0.65667773520E+03  0.65667773520E+03  0.00000000000E+00 0. -1.
         23    2    1    2    0    0 -0.17579501356E+02  0.16248247079E+03 -0.19251330372E+03  0.28181397792E+03  0.12509258115E+03 0.  0.
          5    1    3    3  502    0  0.32219237179E+01  0.61113114750E+02  0.20812511005E+01  0.61375871424E+02  0.41800000000E+01 0. -1.
         -5    1    3    3    0  502 -0.20801425073E+02  0.10136935604E+03 -0.19459455482E+03  0.22043810649E+03  0.41800000000E+01 0. -1.
        -11    1    1    2    0    0  0.32460446571E+02 -0.13150425035E+03 -0.21993622637E+03  0.25830019768E+03  0.00000000000E+00 0.  1.
         11    1    1    2    0    0 -0.14880945216E+02 -0.30978220440E+02 -0.17875907577E+03  0.18203268894E+03  0.00000000000E+00 0. -1.
</event>
<event>
 7    1  0.6992302E-006  0.9732300E+02  0.7561462E-02  0.1286028E+00
          1   -1    0    0  501    0  0.00000000000E+00  0.00000000000E+00  0.18070674636E+02  0.18070674636E+02  0.00000000000E+00 0. -1.
         -1   -1    0    0    0  501 -0.00000000000E+00 -0.00000000000E+00 -0.72615293570E+03  0.72615293570E+03  0.00000000000E+00 0.  1.
         23    2    1    2    0    0 -0.14301342347E+02 -0.12752852128E+02 -0.52536796271E+03  0.54039498127E+03  0.12509226957E+03 0.  0.
          5    1    3    3  502    0  0.47825108309E+02 -0.26234730797E+02 -0.34026230976E+03  0.34463228799E+03  0.41800000000E+01 0. -1.
         -5    1    3    3    0  502 -0.62126450656E+02  0.13481878669E+02 -0.18510565296E+03  0.19576269328E+03  0.41800000000E+01 0. -1.
        -11    1    1    2    0    0  0.44720562929E+02  0.83138050298E+01 -0.49975671754E+02  0.67576740599E+02  0.00000000000E+00 0. -1.
         11    1    1    2    0    0 -0.30419220581E+02  0.44390470983E+01 -0.13273862660E+03  0.13625188847E+03  0.00000000000E+00 0.  1.
</event>
<event>
 7    1  0.6992302E-006  0.1830015E+03  0.7561462E-02  0.1164929E+00
          2   -1    0    0  501    0  0.00000000000E+00  0.00000000000E+00  0.86790555667E+03  0.86790555667E+03  0.00000000000E+00 0. -1.
         -2   -1    0    0    0  501 -0.00000000000E+00 -0.00000000000E+00 -0.45008914032E+02  0.45008914032E+02  0.00000000000E+00 0.  1.
         23    2    1    2    0    0 -0.10445898090E+03  0.12759803188E+03  0.40550358835E+03  0.45527259304E+03  0.12508811846E+03 0.  0.
          5    1    3    3  502    0 -0.10259254164E+03  0.42816916491E+02  0.15514095174E+03  0.19090496391E+03  0.41800000000E+01 0.  1.
         -5    1    3    3    0  502 -0.18664392573E+01  0.84781115388E+02  0.25036263661E+03  0.26436762913E+03  0.41800000000E+01 0.  1.
        -11    1    1    2    0    0  0.18192476015E+02 -0.52198360344E+02  0.24134424493E+03  0.24759377934E+03  0.00000000000E+00 0. -1.
         11    1    1    2    0    0  0.86266504886E+02 -0.75399671535E+02  0.17604880936E+03  0.21004809832E+03  0.00000000000E+00 0.  1.
</event>
<event>
 7    1  0.6992302E-006  0.2791283E+03  0.7561462E-02  0.1096166E+00
          2   -1    0    0  501    0  0.00000000000E+00  0.00000000000E+00  0.13482329364E+04  0.13482329364E+04  0.00000000000E+00 0. -1.
         -2   -1    0    0    0  501 -0.00000000000E+00 -0.00000000000E+00 -0.14117909170E+03  0.14117909170E+03  0.00000000000E+00 0.  1.
         23    2    1    2    0    0  0.34199354331E+02  0.25644568533E+03  0.39459544249E+02  0.29005956036E+03  0.12507400834E+03 0.  0.
          5    1    3    3  502    0 -0.14550109334E+02 -0.80513636727E+01  0.89742596395E+01  0.19353032700E+02  0.41800000000E+01 0. -1.
         -5    1    3    3    0  502  0.48749463665E+02  0.26449704900E+03  0.30485284610E+02  0.27070652766E+03  0.41800000000E+01 0. -1.
        -11    1    1    2    0    0 -0.49523964239E+02 -0.74033025997E+02  0.45385666301E+03  0.46251419712E+03  0.00000000000E+00 0. -1.
         11    1    1    2    0    0  0.15324609908E+02 -0.18241265933E+03  0.71373763746E+03  0.73683827064E+03  0.00000000000E+00 0.  1.
</event>
<event>
 7    1  0.6992302E-006  0.1154319E+03  0.7561462E-02  0.1250829E+00
          2   -1    0    0  501    0  0.00000000000E+00  0.00000000000E+00  0.48806110270E+03  0.48806110270E+03  0.00000000000E+00 0. -1.
         -2   -1    0    0    0  501 -0.00000000000E+00 -0.00000000000E+00 -0.33724045715E+02  0.33724045715E+02  0.00000000000E+00 0.  1.
         23    2    1    2    0    0 -0.54760184640E+02 -0.17003001778E+01  0.16643373705E+03  0.21528886775E+03  0.12509012315E+03 0.  0.
          5    1    3    3  502    0 -0.69797230413E+02  0.47262365559E+02  0.11432691897E+03  0.14210384011E+03  0.41800000000E+01 0.  1.
         -5    1    3    3    0  502  0.15037045773E+02 -0.48962665737E+02  0.52106818075E+02  0.73185027646E+02  0.41800000000E+01 0.  1.
        -11    1    1    2    0    0 -0.16583217431E+02  0.15167440692E+02  0.24394814815E+02  0.33168680218E+02  0.00000000000E+00 0.  1.
         11    1    1    2    0    0  0.71343402071E+02 -0.13467140515E+02  0.26350850512E+03  0.27332760045E+03  0.00000000000E+00 0. -1.
</event>
<event>
 7    1  0.6992302E-006  0.1227104E+03  0.7561462E-02  0.1238691E+00
          1   -1    0    0  501    0  0.00000000000E+00  0.00000000000E+00  0.28380566711E+02  0.28380566711E+02  0.00000000000E+00 0. -1.
         -1   -1    0    0    0  501 -0.00000000000E+00 -0.00000000000E+00 -0.14141587987E+04  0.14141587987E+04  0.00000000000E+00 0.  1.
         23    2    1    2    0    0  0.22245259703E+02 -0.10338944981E+03 -0.11964490901E+04  0.12076101244E+04  0.12509019693E+03 0.  0.
          5    1    3    3  502    0  0.57008357339E+01 -0.86837496742E+02 -0.34506031428E+03  0.35588950990E+03  0.41800000000E+01 0.  1.
         -5    1    3    3    0  502  0.16544423969E+02 -0.16551953071E+02 -0.85138877583E+03  0.85172061448E+03  0.41800000000E+01 0.  1.
        -11    1    1    2    0    0 -0.45145841287E+02  0.10204215755E+03 -0.13000633055E+03  0.17132540642E+03  0.00000000000E+00 0. -1.
         11    1    1    2    0    0  0.22900581584E+02  0.13472922669E+01 -0.59322811348E+02  0.63603834629E+02  0.00000000000E+00 0.  1.
</event>
<event>
 7    1  0.6992302E-006  0.1872767E+03  0.7561462E-02  0.1160941E+00
         -2   -1    0    0    0  501 -0.00000000000E+00  0.00000000000E+00  0.91924314339E+02  0.91924314339E+02  0.00000000000E+00 0. -1.
          2   -1    0    0  501    0  0.00000000000E+00 -0.00000000000E+00 -0.53883783369E+03  0.53883783369E+03  0.00000000000E+00 0.  1.
         23    2    1    2    0    0 -0.15508240161E+03 -0.50723251179E+02 -0.83189493648E+02  0.22179129571E+03  0.12508991766E+03 0.  0.
          5    1    3    3  502    0 -0.16414517612E+03 -0.65695608546E+02 -0.49585425396E+02  0.18367291209E+03  0.41800000000E+01 0.  1.
         -5    1    3    3    0  502  0.90627745024E+01  0.14972357367E+02 -0.33604068251E+02  0.38118383620E+02  0.41800000000E+01 0.  1.
        -11    1    1    2    0    0  0.14830138033E+03  0.66504240986E+02 -0.35326655356E+03  0.38886163522E+03  0.00000000000E+00 0.  1.
         11    1    1    2    0    0  0.67810212804E+01 -0.15780989807E+02 -0.10457472147E+02  0.20109217105E+02  0.00000000000E+00 0. -1.
</event>
<event>
 7    1  0.6992302E-006  0.6872511E+02  0.7561462E-02  0.1364483E+00
          1   -1    0    0  501    0  0.00000000000E+00  0.00000000000E+00  0.19319226621E+02  0.19319226621E+02  0.00000000000E+00 0.  1.
         -1   -1    0    0    0  501 -0.00000000000E+00 -0.00000000000E+00 -0.66375871506E+03  0.66375871506E+03  0.00000000000E+00 0. -1.
         23    2    1    2    0    0 -0.40965042852E+01  0.62703588025E+01 -0.46392320744E+03  0.48056002621E+03  0.12512832470E+03 0.  0.
          5    1    3    3  502    0 -0.18799630089E+02  0.18113805323E+02 -0.46008712433E+03  0.46084614614E+03  0.41800000000E+01 0. -1.
         -5    1    3    3    0  502  0.14703125804E+02 -0.11843446520E+02 -0.38360831103E+01  0.19713880073E+02  0.41800000000E+01 0. -1.
        -11    1    1    2    0    0 -0.41779608880E+02  0.10068285555E+02 -0.79338428831E+02  0.90230218782E+02  0.00000000000E+00 0.  1.
         11    1    1    2    0    0  0.45876113166E+02 -0.16338644357E+02 -0.10117785217E+03  0.11228769669E+03  0.00000000000E+00 0. -1.
</event>
<event>
 7    1  0.6992302E-006  0.1908209E+03  0.7561462E-02  0.1157723E+00
         -1   -1    0    0    0  501 -0.00000000000E+00  0.00000000000E+00  0.16775911548E+03  0.16775911548E+03  0.00000000000E+00 0.  1.
          1   -1    0    0  501    0  0.00000000000E+00 -0.00000000000E+00 -0.27055940370E+03  0.27055940370E+03  0.00000000000E+00 0. -1.
         23    2    1    2    0    0  0.15112121030E+03 -0.74285832900E+02  0.18934630815E+02  0.21060731165E+03  0.12506364102E+03 0.  0.
          5    1    3    3  502    0  0.12751518838E+03  0.42352320046E+01  0.11884701760E+02  0.12820600217E+03  0.41800000000E+01 0.  1.
         -5    1    3    3    0  502  0.23606021922E+02 -0.78521064905E+02  0.70499290552E+01  0.82401309483E+02  0.41800000000E+01 0.  1.
        -11    1    1    2    0    0 -0.14044027506E+03  0.56994858359E+02 -0.60503314325E+02  0.16319477866E+03  0.00000000000E+00 0.  1.
         11    1    1    2    0    0 -0.10680935241E+02  0.17290974541E+02 -0.61231604710E+02  0.64516428866E+02  0.00000000000E+00 0. -1.
</event>
<event>
 7    1  0.6992302E-006  0.9560054E+02  0.7561462E-02  0.1289829E+00
          2   -1    0    0  501    0  0.00000000000E+00  0.00000000000E+00  0.29981883944E+03  0.29981883944E+03  0.00000000000E+00 0. -1.
         -2   -1    0    0    0  501 -0.00000000000E+00 -0.00000000000E+00 -0.69845979446E+02  0.69845979446E+02  0.00000000000E+00 0.  1.
         23    2    1    2    0    0  0.12009489751E+02  0.28673829778E+02  0.93545911087E+01  0.12924282650E+03  0.12509909459E+03 0.  0.
          5    1    3    3  502    0 -0.17381556263E+02  0.56916427781E+02  0.45163852935E+02  0.74825425233E+02  0.41800000000E+01 0. -1.
         -5    1    3    3    0  502  0.29391046014E+02 -0.28242598003E+02 -0.35809261826E+02  0.54417401264E+02  0.41800000000E+01 0. -1.
        -11    1    1    2    0    0 -0.24030319322E+01 -0.58850379155E+02  0.17683503209E+03  0.18638607851E+03  0.00000000000E+00 0. -1.
         11    1    1    2    0    0 -0.96064578186E+01  0.30176549377E+02  0.43783236798E+02  0.54035913877E+02  0.00000000000E+00 0.  1.
</event>
<event>
 7    1  0.6992302E-006  0.1329798E+03  0.7561462E-02  0.1223100E+00
          2   -1    0    0  501    0  0.00000000000E+00  0.00000000000E+00  0.13301929883E+03  0.13301929883E+03  0.00000000000E+00 0. -1.
         -2   -1    0    0    0  501 -0.00000000000E+00 -0.00000000000E+00 -0.17074962284E+03  0.17074962284E+03  0.00000000000E+00 0.  1.
         23    2    1    2    0    0  0.98791623007E+02  0.10422486742E+02 -0.49158095334E+02  0.16720675569E+03  0.12519252297E+03 0.  0.
          5    1    3    3  502    0  0.11297732572E+03  0.24131534920E+02 -0.16688654916E+01  0.11561342750E+03  0.41800000000E+01 0.  1.
         -5    1    3    3    0  502 -0.14185702717E+02 -0.13709048178E+02 -0.47489229842E+02  0.51593328198E+02  0.41800000000E+01 0.  1.
        -11    1    1    2    0    0 -0.95319593909E+02 -0.37840415372E+02 -0.78655386394E+01  0.10285712769E+03  0.00000000000E+00 0.  1.
         11    1    1    2    0    0 -0.34720290972E+01  0.27417928631E+02  0.19293309961E+02  0.33705038283E+02  0.00000000000E+00 0. -1.
</event>
<event>
 7    1  0.6992302E-006  0.9499281E+02  0.7561462E-02  0.1291192E+00
         -2   -1    0    0    0  501 -0.00000000000E+00  0.00000000000E+00  0.40073173410E+03  0.40073173410E+03  0.00000000000E+00 0.  1.
          2   -1    0    0  501    0  0.00000000000E+00 -0.00000000000E+00 -0.39362275021E+02  0.39362275021E+02  0.00000000000E+00 0. -1.
         23    2    1    2    0    0  0.18048243757E+02  0.52650855817E+02  0.25466613548E+03  0.28913944907E+03  0.12509567830E+03 0.  0.
          5    1    3    3  502    0  0.40359444525E+02 -0.15075135119E+02  0.28163672028E+02  0.51641158811E+02  0.41800000000E+01 0. -1.
         -5    1    3    3    0  502 -0.22311200768E+02  0.67725990936E+02  0.22650246345E+03  0.23749829026E+03  0.41800000000E+01 0. -1.
        -11    1    1    2    0    0  0.17759453982E+02 -0.20775833462E+02  0.98621064185E+02  0.10233839828E+03  0.00000000000E+00 0.  1.
         11    1    1    2    0    0 -0.35807697739E+02 -0.31875022355E+02  0.80822594134E+01  0.48616161765E+02  0.00000000000E+00 0. -1.
</event>
<event>
 6    1  0.6992302E-006  0.1610900E+03  0.7561462E-02  0.1187472E+00
          4   -1    0    0  501    0  0.00000000000E+00  0.00000000000E+00  0.20007704864E+03  0.20007704864E+03  0.00000000000E+00 0. -1.
         -4   -1    0    0    0  501 -0.00000000000E+00 -0.00000000000E+00 -0.16789188580E+03  0.16789188580E+03  0.00000000000E+00 0.  1.
          5    1    1    2  502    0 -0.20109647119E+02  0.46909763954E+01  0.29788387832E+02  0.36485937242E+02  0.41800000000E+01 0. -1.
         -5    1    1    2    0  502  0.85177200012E+02 -0.98920242607E+02 -0.59764481855E+02  0.14363020396E+03  0.41800000000E+01 0.  1.
        -11    1    1    2    0    0  0.33082827436E+02  0.56262389025E+02  0.49376932780E+02  0.81841379392E+02  0.00000000000E+00 0.  1.
         11    1    1    2    0    0 -0.98150380328E+02  0.37966877186E+02  0.12784324079E+02  0.10601141384E+03  0.00000000000E+00 0. -1.
</event>
<event>
 7    1  0.6992302E-006  0.8156850E+02  0.7561462E-02  0.1324658E+00
         -2   -1    0    0    0  501 -0.00000000000E+00  0.00000000000E+00  0.13092879136E+04  0.13092879136E+04  0.00000000000E+00 0.  1.
          2   -1    0    0  501    0  0.00000000000E+00 -0.00000000000E+00 -0.12349951910E+02  0.12349951910E+02  0.00000000000E+00 0. -1.
         23    2    1    2    0    0  0.57184116248E+02 -0.14741398737E+00  0.94156182127E+03  0.95155502668E+03  0.12509300803E+03 0.  0.
          5    1    3    3  502    0  0.38845474416E+02  0.14713701904E+02  0.91430134346E+03  0.91525399915E+03  0.41800000000E+01 0.  1.
         -5    1    3    3    0  502  0.18338641832E+02 -0.14861115891E+02  0.27260477806E+02  0.36301027534E+02  0.41800000000E+01 0.  1.
        -11    1    1    2    0    0 -0.41775627716E+02 -0.37876339766E+02  0.26344175601E+03  0.26940931497E+03  0.00000000000E+00 0.  1.
         11    1    1    2    0    0 -0.15408488532E+02  0.38023753753E+02  0.91934384460E+02  0.10067352390E+03  0.00000000000E+00 0. -1.
</event>
<event>
 7    1  0.6992302E-006  0.9367447E+02  0.7561462E-02  0.1294190E+00
         -1   -1    0    0    0  501 -0.00000000000E+00  0.00000000000E+00  0.27448064480E+02  0.27448064480E+02  0.00000000000E+00 0.  1.
          1   -1    0    0  501    0  0.00000000000E+00 -0.00000000000E+00 -0.56715753172E+03  0.56715753172E+03  0.00000000000E+00 0. -1.
         23    2    1    2    0    0 -0.30670941602E+02  0.48948988969E+02 -0.24520793421E+03  0.28126590527E+03  0.12508744258E+03 0.  0.
          5    1    3    3  502    0  0.16043519905E+02  0.37084459411E+02 -0.22533086888E+03  0.22896315103E+03  0.41800000000E+01 0.  1.
         -5    1    3    3    0  502 -0.46714461507E+02  0.11864529558E+02 -0.19877065334E+02  0.52302754247E+02  0.41800000000E+01 0.  1.
        -11    1    1    2    0    0  0.21716714264E+02  0.19578163575E+02 -0.39532484781E+02  0.49170494408E+02  0.00000000000E+00 0.  1.
         11    1    1    2    0    0  0.89542273380E+01 -0.68527152544E+02 -0.25496904825E+03  0.26416919652E+03  0.00000000000E+00 0. -1.
</event>
<event>
 7    1  0.6992302E-006  0.7846023E+02  0.7561462E-02  0.1333479E+00
          2   -1    0    0  501    0  0.00000000000E+00  0.00000000000E+00  0.84494398643E+02  0.84494398643E+02  0.00000000000E+00 0. -1.
         -2   -1    0    0    0  501 -0.00000000000E+00 -0.00000000000E+00 -0.17987813481E+03  0.17987813481E+03  0.00000000000E+00 0.  1.
         23    2    1    2    0    0 -0.42952766889E+01  0.28875516755E+02 -0.10654178172E+03  0.16688664304E+03  0.12509098889E+03 0.  0.
          5    1    3    3  502    0 -0.23372281085E+02 -0.56020895472E+01 -0.12195416149E+03  0.12437016055E+03  0.41800000000E+01 0.  1.
         -5    1    3    3    0  502  0.19077004396E+02  0.34477606303E+02  0.15412379768E+02  0.42516482489E+02  0.41800000000E+01 0.  1.
        -11    1    1    2    0    0  0.29828045833E+02 -0.51022196906E+02 -0.63138270187E+01  0.59437709469E+02  0.00000000000E+00 0.  1.
         11    1    1    2    0    0 -0.25532769144E+02  0.22146680150E+02  0.17471872575E+02  0.38048180944E+02  0.00000000000E+00 0. -1.
</event>
<event>
 7    1  0.6992302E-006  0.9818078E+02  0.7561462E-02  0.1284169E+00
         -2   -1    0    0    0  501 -0.00000000000E+00  0.00000000000E+00  0.48171498297E+03  0.48171498297E+03  0.00000000000E+00 0.  1.
          2   -1    0    0  501    0  0.00000000000E+00 -0.00000000000E+00 -0.38889170500E+02  0.38889170500E+02  0.00000000000E+00 0. -1.
         23    2    1    2    0    0  0.37879767754E+02 -0.62953682452E+02  0.31371253372E+03  0.34562542810E+03  0.12507333769E+03 0.  0.
          5    1    3    3  502    0  0.93085462779E+01 -0.47745631494E+02  0.30878381004E+03  0.31261990996E+03  0.41800000000E+01 0.  1.
         -5    1    3    3    0  502  0.28571221476E+02 -0.15208050957E+02  0.49287236737E+01  0.33005518139E+02  0.41800000000E+01 0.  1.
        -11    1    1    2    0    0 -0.66598376281E+02  0.50595332339E+02  0.74289799799E+02  0.11186691080E+03  0.00000000000E+00 0.  1.
         11    1    1    2    0    0  0.28718608527E+02  0.12358350113E+02  0.54823478953E+02  0.63111814565E+02  0.00000000000E+00 0. -1.
</event>
<event>
 7    1  0.6992302E-006  0.1052619E+03  0.7561462E-02  0.1269605E+00
         -1   -1    0    0    0  501 -0.00000000000E+00  0.00000000000E+00  0.11043590527E+03  0.11043590527E+03  0.00000000000E+00 0.  1.
          1   -1    0    0  501    0  0.00000000000E+00 -0.00000000000E+00 -0.23101641524E+03  0.23101641524E+03  0.00000000000E+00 0. -1.
         23    2    1    2    0    0 -0.84457836192E+02  0.11076122794E+01  0.19983395703E+02  0.15223956530E+03  0.12507276378E+03 0.  0.
          5    1    3    3  502    0 -0.16963369480E+01 -0.18369437367E+01 -0.46008327768E+02  0.46265435753E+02  0.41800000000E+01 0.  1.
         -5    1    3    3    0  502 -0.82761499244E+02  0.29445560161E+01  0.65991723472E+02  0.10597412955E+03  0.41800000000E+01 0.  1.
        -11    1    1    2    0    0  0.85753773656E+02  0.30562357043E+02 -0.81533250407E+02  0.12221063082E+03  0.00000000000E+00 0.  1.
         11    1    1    2    0    0 -0.12959374642E+01 -0.31669969322E+02 -0.59030655269E+02  0.67002124387E+02  0.00000000000E+00 0. -1.
</event>
<event>
 7    1  0.6992302E-006  0.1055373E+03  0.7561462E-02  0.1269065E+00
          3   -1    0    0  501    0  0.00000000000E+00  0.00000000000E+00  0.50678995550E+03  0.50678995550E+03  0.00000000000E+00 0.  1.
         -3   -1    0    0    0  501 -0.00000000000E+00 -0.00000000000E+00 -0.24994088547E+02  0.24994088547E+02  0.00000000000E+00 0. -1.
         23    2    1    2    0    0 -0.92408410869E+01 -0.27791872602E+02  0.26646537963E+03  0.29581867756E+03  0.12508840924E+03 0.  0.
          5    1    3    3  502    0  0.30212624747E+02 -0.57582872971E+02  0.21360053237E+03  0.22331871794E+03  0.41800000000E+01 0.  1.
         -5    1    3    3    0  502 -0.39453465834E+02  0.29791000369E+02  0.52864847255E+02  0.72499959618E+02  0.41800000000E+01 0.  1.
        -11    1    1    2    0    0  0.35772365952E+02  0.50151290468E+02  0.13029062277E+03  0.14411960479E+03  0.00000000000E+00 0.  1.
         11    1    1    2    0    0 -0.26531524865E+02 -0.22359417866E+02  0.85039864553E+02  0.91845761699E+02  0.00000000000E+00 0. -1.
</event>
<event>
 7    1  0.6992302E-006  0.1201496E+03  0.7561462E-02  0.1242850E+00
          3   -1    0    0  501    0  0.00000000000E+00  0.00000000000E+00  0.11812778918E+03  0.11812778918E+03  0.00000000000E+00 0. -1.
         -3   -1    0    0    0  501 -0.00000000000E+00 -0.00000000000E+00 -0.14219387437E+03  0.14219387437E+03  0.00000000000E+00 0.  1.
         23    2    1    2    0    0 -0.32551363200E+01  0.68047387964E+02 -0.49416657424E+02  0.15081293412E+03  0.12514588345E+03 0.  0.
          5    1    3    3  502    0 -0.57905340643E+02  0.55423711421E+02 -0.50002710529E+02  0.94565108380E+02  0.41800000000E+01 0.  1.
         -5    1    3    3    0  502  0.54650204323E+02  0.12623676543E+02  0.58605310581E+00  0.56247825738E+02  0.41800000000E+01 0.  1.
        -11    1    1    2    0    0  0.39956943758E+02 -0.24626302639E+02  0.23818077620E+02  0.52633762526E+02  0.00000000000E+00 0. -1.
         11    1    1    2    0    0 -0.36701807438E+02 -0.43421085325E+02  0.15324946149E+01  0.56874966899E+02  0.00000000000E+00 0.  1.
</event>
<event>
 7    1  0.6992302E-006  0.1890147E+03  0.7561462E-02  0.1159353E+00
          1   -1    0    0  501    0  0.00000000000E+00  0.00000000000E+00  0.53507918633E+02  0.53507918633E+02  0.00000000000E+00 0. -1.
         -1   -1    0    0    0  501 -0.00000000000E+00 -0.00000000000E+00 -0.69347689034E+03  0.69347689034E+03  0.00000000000E+00 0.  1.
         23    2    1    2    0    0 -0.92782405738E+02 -0.12685743724E+03 -0.38063625195E+03  0.43044722557E+03  0.12529753991E+03 0.  0.
          5    1    3    3  502    0 -0.11318600107E+03 -0.56466677521E+02 -0.21936025467E+03  0.25325076552E+03  0.41800000000E+01 0. -1.
         -5    1    3    3    0  502  0.20403595329E+02 -0.70390759717E+02 -0.16127599728E+03  0.17719646005E+03  0.41800000000E+01 0. -1.
        -11    1    1    2    0    0  0.10334267408E+03  0.81838788697E+02 -0.16261554676E+03  0.20933492702E+03  0.00000000000E+00 0. -1.
         11    1    1    2    0    0 -0.10560268339E+02  0.45018648541E+02 -0.96717172998E+02  0.10720265639E+03  0.00000000000E+00 0.  1.
</event>
<event>
 7    1  0.6992302E-006  0.6984972E+02  0.7561462E-02  0.1360605E+00
          2   -1    0    0  501    0  0.00000000000E+00  0.00000000000E+00  0.20649409133E+03  0.20649409133E+03  0.00000000000E+00 0. -1.
         -2   -1    0    0    0  501 -0.00000000000E+00 -0.00000000000E+00 -0.70538570801E+02  0.70538570801E+02  0.00000000000E+00 0.  1.
         23    2    1    2    0    0  0.24754274448E+02  0.46142938782E+02  0.65473215151E+02  0.15057867922E+03  0.12508098109E+03 0.  0.
          5    1    3    3  502    0  0.11892675841E+02 -0.14254736235E+02 -0.30754048708E+02  0.36165137297E+02  0.41800000000E+01 0. -1.
         -5    1    3    3    0  502  0.12861598606E+02  0.60397675018E+02  0.96227263859E+02  0.11441354193E+03  0.41800000000E+01 0. -1.
        -11    1    1    2    0    0  0.24857945362E+01 -0.22707865616E+02  0.84762591595E+02  0.87786805781E+02  0.00000000000E+00 0. -1.
         11    1    1    2    0    0 -0.27240068984E+02 -0.23435073166E+02 -0.14280286217E+02  0.38667177127E+02  0.00000000000E+00 0.  1.
</event>
<event>
 7    1  0.6992302E-006  0.9589340E+02  0.7561462E-02  0.1289177E+00
         -2   -1    0    0    0  501 -0.00000000000E+00  0.00000000000E+00  0.14740910846E+03  0.14740910846E+03  0.00000000000E+00 0. -1.
          2   -1    0    0  501    0  0.00000000000E+00 -0.00000000000E+00 -0.17578140843E+03  0.17578140843E+03  0.00000000000E+00 0.  1.
         23    2    1    2    0    0 -0.40271376547E+02 -0.14821044638E+02  0.95743669306E+02  0.16326608156E+03  0.12509003175E+03 0.  0.
          5    1    3    3  502    0  0.19791465817E+02  0.27910041509E+02 -0.85220351120E+01  0.35507323451E+02  0.41800000000E+01 0. -1.
         -5    1    3    3    0  502 -0.60062842364E+02 -0.42731086146E+02  0.10426570442E+03  0.12775875811E+03  0.41800000000E+01 0. -1.
        -11    1    1    2    0    0  0.59471515202E+02  0.39817433617E+00 -0.12211492104E+03  0.13582736691E+03  0.00000000000E+00 0.  1.
         11    1    1    2    0    0 -0.19200138655E+02  0.14422870301E+02 -0.20010482377E+01  0.24097068414E+02  0.00000000000E+00 0. -1.
</event>
<event>
 7    1  0.6992302E-006  0.1018863E+03  0.7561462E-02  0.1276379E+00
          2   -1    0    0  501    0  0.00000000000E+00  0.00000000000E+00  0.31693474400E+03  0.31693474400E+03  0.00000000000E+00 0. -1.
         -2   -1    0    0    0  501 -0.00000000000E+00 -0.00000000000E+00 -0.51400709242E+02  0.51400709242E+02  0.00000000000E+00 0.  1.
         23    2    1    2    0    0  0.88682814343E+01  0.51433607892E+02  0.88951696540E+02  0.16212404285E+03  0.12509092100E+03 0.  0.
          5    1    3    3  502    0  0.46840031808E+02  0.11849075860E+02 -0.94321564390E+01  0.49404728049E+02  0.41800000000E+01 0.  1.
         -5    1    3    3    0  502 -0.37971750374E+02  0.39584532031E+02  0.98383852979E+02  0.11271931480E+03  0.41800000000E+01 0.  1.
        -11    1    1    2    0    0  0.31640348710E+02 -0.50684241374E+02  0.69119657035E+02  0.91364823530E+02  0.00000000000E+00 0. -1.
         11    1    1    2    0    0 -0.40508630145E+02 -0.74936651825E+00  0.10746268119E+03  0.11484658686E+03  0.00000000000E+00 0.  1.
</event>
<event>
 7    1  0.6992302E-006  0.8304801E+02  0.7561462E-02  0.1320618E+00
          4   -1    0    0  501    0  0.00000000000E+00  0.00000000000E+00  0.20254916342E+03  0.20254916342E+03  0.00000000000E+00 0. -1.
         -4   -1    0    0    0  501 -0.00000000000E+00 -0.00000000000E+00 -0.73549376724E+02  0.73549376724E+02  0.00000000000E+00 0.  1.
         23    2    1    2    0    0 -0.29473985018E+02  0.41522662435E+02  0.43208330586E+02  0.14177750823E+03  0.12506420239E+03 0.  0.
          5    1    3    3  502    0  0.24763923894E+00  0.70138047036E+02 -0.13476040176E+02  0.71543574317E+02  0.41800000000E+01 0. -1.
         -5    1    3    3    0  502 -0.29721624257E+02 -0.28615384602E+02  0.56684370761E+02  0.70233933914E+02  0.41800000000E+01 0. -1.
        -11    1    1    2    0    0  0.24700217718E+02 -0.18522642387E+02  0.10148068194E+03  0.10607317211E+03  0.00000000000E+00 0. -1.
         11    1    1    2    0    0  0.47737672999E+01 -0.23000020048E+02 -0.15689225823E+02  0.28247859801E+02  0.00000000000E+00 0.  1.
</event>
<event>
 7    1  0.6992302E-006  0.1021371E+03  0.7561462E-02  0.1275865E+00
         -2   -1    0    0    0  501 -0.00000000000E+00  0.00000000000E+00  0.37426148809E+02  0.37426148809E+02  0.00000000000E+00 0. -1.
          2   -1    0    0  501    0  0.00000000000E+00 -0.00000000000E+00 -0.34244521412E+03  0.34244521412E+03  0.00000000000E+00 0.  1.
         23    2    1    2    0    0  0.15539709175E+01 -0.58632356429E+01 -0.15593629234E+03  0.20000019707E+03  0.12508860540E+03 0.  0.
          5    1    3    3  502    0 -0.23500643357E+02  0.54502512243E+02 -0.68023643140E+02  0.90374180522E+02  0.41800000000E+01 0.  1.
         -5    1    3    3    0  502  0.25054614275E+02 -0.60365747885E+02 -0.87912649197E+02  0.10962601654E+03  0.41800000000E+01 0.  1.
        -11    1    1    2    0    0 -0.29738927162E+02 -0.24002242209E+02 -0.17506513802E+02  0.42035573569E+02  0.00000000000E+00 0. -1.
         11    1    1    2    0    0  0.28184956244E+02  0.29865477852E+02 -0.13157625917E+03  0.13783559229E+03  0.00000000000E+00 0.  1.
</event>
<event>
 7    1  0.6992302E-006  0.1020971E+03  0.7561462E-02  0.1275947E+00
          1   -1    0    0  501    0  0.00000000000E+00  0.00000000000E+00  0.31262115833E+02  0.31262115833E+02  0.00000000000E+00 0. -1.
         -1   -1    0    0    0  501 -0.00000000000E+00 -0.00000000000E+00 -0.48543185109E+03  0.48543185109E+03  0.00000000000E+00 0.  1.
         23    2    1    2    0    0  0.51460491827E+02 -0.78305250872E+01 -0.31389286394E+03  0.34188474457E+03  0.12508776597E+03 0.  0.
          5    1    3    3  502    0 -0.20149885539E+02  0.33388957369E+02 -0.41052246975E+02  0.56776753545E+02  0.41800000000E+01 0.  1.
         -5    1    3    3    0  502  0.71610377366E+02 -0.41219482456E+02 -0.27284061696E+03  0.28510799102E+03  0.41800000000E+01 0.  1.
        -11    1    1    2    0    0 -0.46342116382E+01  0.30053602666E+02 -0.11140032455E+03  0.11547608957E+03  0.00000000000E+00 0.  1.
         11    1    1    2    0    0 -0.46826280189E+02 -0.22223077578E+02 -0.28876546765E+02  0.59333132788E+02  0.00000000000E+00 0. -1.
</event>
<event>
 7    1  0.6992302E-006  0.1033906E+03  0.7561462E-02  0.1273323E+00
         -3   -1    0    0    0  501 -0.00000000000E+00  0.00000000000E+00  0.90899371330E+02  0.90899371330E+02  0.00000000000E+00 0.  1.
          3   -1    0    0  501    0  0.00000000000E+00 -0.00000000000E+00 -0.13568628533E+03  0.13568628533E+03  0.00000000000E+00 0. -1.
         23    2    1    2    0    0  0.54900278524E+01 -0.20102856521E+02 -0.81777900636E+01  0.12707211174E+03  0.12508469165E+03 0.  0.
          5    1    3    3  502    0 -0.25040549368E+01  0.49031029344E+02  0.18203838192E+02  0.52527747473E+02  0.41800000000E+01 0. -1.
         -5    1    3    3    0  502  0.79940827893E+01 -0.69133885865E+02 -0.26381628256E+02  0.74544364266E+02  0.41800000000E+01 0. -1.
        -11    1    1    2    0    0  0.24697961354E+02 -0.23937863336E+02 -0.30134622642E+02  0.45728613339E+02  0.00000000000E+00 0. -1.
         11    1    1    2    0    0 -0.30187989206E+02  0.44040719857E+02 -0.64745012904E+01  0.53784931578E+02  0.00000000000E+00 0.  1.
</event>
<event>
 7    1  0.6992302E-006  0.1082880E+03  0.7561462E-02  0.1263773E+00
         -2   -1    0    0    0  501 -0.00000000000E+00  0.00000000000E+00  0.22241446471E+03  0.22241446471E+03  0.00000000000E+00 0. -1.
          2   -1    0    0  501    0  0.00000000000E+00 -0.00000000000E+00 -0.61845126345E+02  0.61845126345E+02  0.00000000000E+00 0.  1.
         23    2    1    2    0    0 -0.25137477070E+02 -0.61550404768E+02  0.12501864460E+03  0.18893868585E+03  0.12509124844E+03 0.  0.
          5    1    3    3  502    0  0.35188663613E+02 -0.58034683819E+02  0.10509235455E+03  0.12517244887E+03  0.41800000000E+01 0. -1.
         -5    1    3    3    0  502 -0.60326140684E+02 -0.35157209484E+01  0.19926290051E+02  0.63766236982E+02  0.41800000000E+01 0. -1.
        -11    1    1    2    0    0  0.37589848696E+02  0.16122587799E+02  0.11808112622E+02  0.42571893145E+02  0.00000000000E+00 0.  1.
         11    1    1    2    0    0 -0.12452371625E+02  0.45427816969E+02  0.23742581151E+02  0.52749012061E+02  0.00000000000E+00 0. -1.
</event>
<event>
 7    1  0.6992302E-006  0.1297361E+03  0.7561462E-02  0.1227848E+00
          2   -1    0    0  501    0  0.00000000000E+00  0.00000000000E+00  0.70577422877E+03  0.70577422877E+03  0.00000000000E+00 0. -1.
         -2   -1    0    0    0  501 -0.00000000000E+00 -0.00000000000E+00 -0.33432974631E+02  0.33432974631E+02  0.00000000000E+00 0.  1.
         23    2    1    2    0    0 -0.89266376572E+02 -0.53166127464E+02  0.42847566611E+03  0.45829453355E+03  0.12508940775E+03 0.  0.
          5    1    3    3  502    0 -0.78520769651E+02 -0.81594845718E+02  0.21895684642E+03  0.24654168635E+03  0.41800000000E+01 0.  1.
         -5    1    3    3    0  502 -0.10745606921E+02  0.28428718254E+02  0.20951881969E+03  0.21175284720E+03  0.41800000000E+01 0.  1.
        -11    1    1    2    0    0  0.40955548247E+02  0.53235255269E+02  0.21358339863E+03  0.22389555044E+03  0.00000000000E+00 0. -1.
         11    1    1    2    0    0  0.48310828325E+02 -0.69127805307E-01  0.30282189397E+02  0.57017119419E+02  0.00000000000E+00 0.  1.
</event>
<event>
 7    1  0.6992302E-006  0.1671163E+03  0.7561462E-02  0.1180889E+00
          1   -1    0    0  501    0  0.00000000000E+00  0.00000000000E+00  0.90296467492E+03  0.90296467492E+03  0.00000000000E+00 0. -1.
         -1   -1    0    0    0  501 -0.00000000000E+00 -0.00000000000E+00 -0.38872307276E+02  0.38872307276E+02  0.00000000000E+00 0.  1.
         23    2    1    2    0    0  0.97023696643E+02 -0.11727592609E+03  0.43770631404E+03  0.48000238625E+03  0.12509289710E+03 0.  0.
          5    1    3    3  502    0  0.14970541617E+02  0.15731826899E+02  0.15825387574E+03  0.15979164271E+03  0.41800000000E+01 0. -1.
         -5    1    3    3    0  502  0.82053155026E+02 -0.13300775299E+03  0.27945243830E+03  0.32021074354E+03  0.41800000000E+01 0. -1.
        -11    1    1    2    0    0 -0.82765157821E+02  0.76959372967E+02  0.18576440709E+03  0.21744247832E+03  0.00000000000E+00 0.  1.
         11    1    1    2    0    0 -0.14258538822E+02  0.40316553128E+02  0.24062164652E+03  0.24439211763E+03  0.00000000000E+00 0. -1.
</event>
<event>
 7    1  0.6992302E-006  0.1266386E+03  0.7561462E-02  0.1232530E+00
         -2   -1    0    0    0  501 -0.00000000000E+00  0.00000000000E+00  0.13415369139E+03  0.13415369139E+03  0.00000000000E+00 0.  1.
          2   -1    0    0  501    0  0.00000000000E+00 -0.00000000000E+00 -0.16554031903E+03  0.16554031903E+03  0.00000000000E+00 0. -1.
         23    2    1    2    0    0  0.55796367330E+02  0.77090765072E+02  0.21629858151E+02  0.15865543705E+03  0.12508987280E+03 0.  0.
          5    1    3    3  502    0 -0.90098016016E+01  0.66427206377E+02  0.53182933570E+02  0.85671740353E+02  0.41800000000E+01 0. -1.
         -5    1    3    3    0  502  0.64806168932E+02  0.10663558694E+02 -0.31553075419E+02  0.72983696701E+02  0.41800000000E+01 0. -1.
        -11    1    1    2    0    0  0.13614647391E+02 -0.38603075276E+02 -0.45673630946E+02  0.61332182483E+02  0.00000000000E+00 0. -1.
         11    1    1    2    0    0 -0.69411014721E+02 -0.38487689795E+02 -0.73428548371E+01  0.79706390883E+02  0.00000000000E+00 0.  1.
</event>
<event>
 7    1  0.6992302E-006  0.1268233E+03  0.7561462E-02  0.1232247E+00
         -2   -1    0    0    0  501 -0.00000000000E+00  0.00000000000E+00  0.43033946108E+03  0.43033946108E+03  0.00000000000E+00 0. -1.
          2   -1    0    0  501    0  0.00000000000E+00 -0.00000000000E+00 -0.43149193121E+02  0.43149193121E+02  0.00000000000E+00 0.  1.
         23    2    1    2    0    0  0.40182281143E+02  0.36659497252E+02  0.23700266146E+03  0.27344779236E+03  0.12507957128E+03 0.  0.
          5    1    3    3  502    0  0.55670385835E+02  0.70285506614E+02  0.11499578327E+03  0.14587922014E+03  0.41800000000E+01 0. -1.
         -5    1    3    3    0  502 -0.15488104692E+02 -0.33626009363E+02  0.12200687819E+03  0.12756857222E+03  0.41800000000E+01 0. -1.
        -11    1    1    2    0    0 -0.78129923141E+02 -0.41344542035E+02  0.12884444707E+03  0.15625155227E+03  0.00000000000E+00 0. -1.
         11    1    1    2    0    0  0.37947641998E+02  0.46850447836E+01  0.21343159421E+02  0.43789309561E+02  0.00000000000E+00 0.  1.
</event>
<event>
 7    1  0.6992302E-006  0.1113016E+03  0.7561462E-02  0.1258178E+00
         -1   -1    0    0    0  501 -0.00000000000E+00  0.00000000000E+00  0.12007643197E+04  0.12007643197E+04  0.00000000000E+00 0.  1.
          1   -1    0    0  501    0  0.00000000000E+00 -0.00000000000E+00 -0.20816776288E+02  0.20816776288E+02  0.00000000000E+00 0. -1.
         23    2    1    2    0    0 -0.76865343504E+02 -0.14043084000E+02  0.96384578969E+03  0.97506492489E+03  0.12508961675E+03 0.  0.
          5    1    3    3  502    0 -0.25944397248E+01 -0.50840444935E+02  0.58549768667E+03  0.58772144376E+03  0.41800000000E+01 0. -1.
         -5    1    3    3    0  502 -0.74270903779E+02  0.36797360936E+02  0.37834810302E+03  0.38734348113E+03  0.41800000000E+01 0. -1.
        -11    1    1    2    0    0  0.53997748049E+02  0.28917813995E+02  0.52553883202E+02  0.80708781432E+02  0.00000000000E+00 0. -1.
         11    1    1    2    0    0  0.22867595454E+02 -0.14874729996E+02  0.16354787055E+03  0.16580738969E+03  0.00000000000E+00 0.  1.
</event>
<event>
 7    1  0.6992302E-006  0.1405767E+03  0.7561462E-02  0.1212555E+00
          1   -1    0    0  501    0  0.00000000000E+00  0.00000000000E+00  0.75961820033E+03  0.75961820033E+03  0.00000000000E+00 0. -1.
         -1   -1    0    0    0  501 -0.00000000000E+00 -0.00000000000E+00 -0.39747680788E+02  0.39747680788E+02  0.00000000000E+00 0.  1.
         23    2    1    2    0    0  0.59151084598E+02  0.97604967090E+02  0.19744229345E+03  0.25695101359E+03  0.11838405185E+03 0.  0.
          5    1    3    3  502    0  0.81873011284E+02  0.63270273975E+02  0.75440103750E+02  0.12812103340E+03  0.41800000000E+01 0. -1.
         -5    1    3    3    0  502 -0.22721926686E+02  0.34334693115E+02  0.12200218970E+03  0.12882998019E+03  0.41800000000E+01 0.  1.
        -11    1    1    2    0    0 -0.14207317154E+02 -0.89406487481E+02  0.42858887923E+03  0.43804542603E+03  0.00000000000E+00 0. -1.
         11    1    1    2    0    0 -0.44943767444E+02 -0.81984796089E+01  0.93839346854E+02  0.10436944149E+03  0.00000000000E+00 0.  1.
</event>
<event>
 7    1  0.6992302E-006  0.1358676E+03  0.7561462E-02  0.1219000E+00
         -1   -1    0    0    0  501 -0.00000000000E+00  0.00000000000E+00  0.22273125645E+02  0.22273125645E+02  0.00000000000E+00 0.  1.
          1   -1    0    0  501    0  0.00000000000E+00 -0.00000000000E+00 -0.86146938961E+03  0.86146938961E+03  0.00000000000E+00 0. -1.
         23    2    1    2    0    0 -0.15025481210E+00  0.82147454742E+02 -0.38180369555E+03  0.41008435973E+03  0.12508754240E+03 0.  0.
          5    1    3    3  502    0 -0.55015612031E+02  0.70705820504E+01 -0.12117273190E+03  0.13333046933E+03  0.41800000000E+01 0. -1.
         -5    1    3    3    0  502  0.54865357219E+02  0.75076872692E+02 -0.26063096365E+03  0.27675389039E+03  0.41800000000E+01 0. -1.
        -11    1    1    2    0    0 -0.41976841688E+02 -0.16662401680E+02 -0.16263543831E+03  0.16878974099E+03  0.00000000000E+00 0.  1.
         11    1    1    2    0    0  0.42127096500E+02 -0.65485053062E+02 -0.29475713010E+03  0.30486841453E+03  0.00000000000E+00 0. -1.
</event>
<event>
 7    1  0.6992302E-006  0.2624990E+03  0.7561462E-02  0.1105651E+00
          2   -1    0    0  501    0  0.00000000000E+00  0.00000000000E+00  0.16022483663E+03  0.16022483663E+03  0.00000000000E+00 0. -1.
         -2   -1    0    0    0  501 -0.00000000000E+00 -0.00000000000E+00 -0.46159240190E+03  0.46159240190E+03  0.00000000000E+00 0.  1.
         23    2    1    2    0    0  0.69190768026E+02  0.23426770076E+03 -0.22044358393E+03  0.35201042490E+03  0.12508895851E+03 0.  0.
          5    1    3    3  502    0  0.31538211166E+01  0.19165390838E+03 -0.18226332910E+03  0.26453461157E+03  0.41800000000E+01 0.  1.
         -5    1    3    3    0  502  0.66036946910E+02  0.42613792376E+02 -0.38180254834E+02  0.87475813326E+02  0.41800000000E+01 0.  1.
        -11    1    1    2    0    0  0.12838536552E+02 -0.11715631150E+02 -0.16639602945E+02  0.24061596377E+02  0.00000000000E+00 0.  1.
         11    1    1    2    0    0 -0.82029304578E+02 -0.22255206961E+03 -0.64284378394E+02  0.24574521725E+03  0.00000000000E+00 0. -1.
</event>
<event>
 7    1  0.6992302E-006  0.1089090E+03  0.7561462E-02  0.1262604E+00
          2   -1    0    0  501    0  0.00000000000E+00  0.00000000000E+00  0.54980834295E+03  0.54980834295E+03  0.00000000000E+00 0. -1.
         -2   -1    0    0    0  501 -0.00000000000E+00 -0.00000000000E+00 -0.27284774077E+02  0.27284774077E+02  0.00000000000E+00 0.  1.
         23    2    1    2    0    0 -0.13182190217E+02  0.77628718897E+01  0.16610479131E+03  0.20852926883E+03  0.12513841113E+03 0.  0.
          5    1    3    3  502    0  0.49319698581E+02  0.31897914290E+02  0.80706583409E+02  0.99904627569E+02  0.41800000000E+01 0. -1.
         -5    1    3    3    0  502 -0.62501888798E+02 -0.24135042401E+02  0.85398207905E+02  0.10862464126E+03  0.41800000000E+01 0. -1.
        -11    1    1    2    0    0 -0.20324523060E+02  0.33172274607E+02  0.18991466498E+03  0.19385836586E+03  0.00000000000E+00 0. -1.
         11    1    1    2    0    0  0.33506713276E+02 -0.40935146496E+02  0.16650411259E+03  0.17470548234E+03  0.00000000000E+00 0.  1.
</event>
<event>
 6    1  0.6992302E-006  0.1319444E+03  0.7561462E-02  0.1224599E+00
         -1   -1    0    0    0  501 -0.00000000000E+00  0.00000000000E+00  0.52636731960E+02  0.52636731960E+02  0.00000000000E+00 0.  1.
          1   -1    0    0  501    0  0.00000000000E+00 -0.00000000000E+00 -0.54151920236E+03  0.54151920236E+03  0.00000000000E+00 0. -1.
          5    1    1    2  502    0 -0.17514046072E+02 -0.42704524173E+02 -0.10728067664E+03  0.11686331407E+03  0.41800000000E+01 0. -1.
         -5    1    1    2    0  502 -0.82756648010E+00  0.12322791891E+03 -0.68860797139E+02  0.14122707477E+03  0.41800000000E+01 0.  1.
        -11    1    1    2    0    0 -0.14922091871E+02 -0.33180377235E+02 -0.29112853577E+02  0.46595756273E+02  0.00000000000E+00 0.  1.
         11    1    1    2    0    0  0.33263704423E+02 -0.47343017503E+02 -0.28362814304E+03  0.28946978921E+03  0.00000000000E+00 0. -1.
</event>
<event>
 6    1  0.6992302E-006  0.2396413E+03  0.7561462E-02  0.1120032E+00
         -2   -1    0    0    0  501 -0.00000000000E+00  0.00000000000E+00  0.94981493870E+02  0.94981493870E+02  0.00000000000E+00 0.  1.
          2   -1    0    0  501    0  0.00000000000E+00 -0.00000000000E+00 -0.14387427549E+04  0.14387427549E+04  0.00000000000E+00 0. -1.
          5    1    1    2  502    0 -0.14913404789E+03  0.45584867301E+02 -0.91543019981E+03  0.92862741048E+03  0.41800000000E+01 0. -1.
         -5    1    1    2    0  502  0.12028197341E+03 -0.14589265969E+03 -0.40821057943E+02  0.19348450183E+03  0.41800000000E+01 0.  1.
        -11    1    1    2    0    0  0.36197919421E+02  0.27328806405E+01 -0.15794535009E+03  0.16206323341E+03  0.00000000000E+00 0.  1.
         11    1    1    2    0    0 -0.73458449388E+01  0.97574911748E+02 -0.22956465317E+03  0.24954910304E+03  0.00000000000E+00 0. -1.
</event>
<event>
 7    1  0.6992302E-006  0.1677384E+03  0.7561462E-02  0.1180227E+00
          2   -1    0    0  501    0  0.00000000000E+00  0.00000000000E+00  0.50503505298E+03  0.50503505298E+03  0.00000000000E+00 0.  1.
         -2   -1    0    0    0  501 -0.00000000000E+00 -0.00000000000E+00 -0.65240878812E+02  0.65240878812E+02  0.00000000000E+00 0. -1.
         23    2    1    2    0    0 -0.84361309880E+02 -0.11130960172E+03  0.17016479925E+03  0.25320874767E+03  0.12510776534E+03 0.  0.
          5    1    3    3  502    0  0.28672821756E+02 -0.44991489162E+02  0.30313123197E+02  0.61503842502E+02  0.41800000000E+01 0.  1.
         -5    1    3    3    0  502 -0.11303413164E+03 -0.66318112562E+02  0.13985167605E+03  0.19170490516E+03  0.41800000000E+01 0.  1.
        -11    1    1    2    0    0  0.67359268614E+02  0.41779970990E+02  0.20807679907E+03  0.22266295461E+03  0.00000000000E+00 0.  1.
         11    1    1    2    0    0  0.17002041267E+02  0.69529630735E+02  0.61552575845E+02  0.94404229516E+02  0.00000000000E+00 0. -1.
</event>
<event>
 7    1  0.6992302E-006  0.6702969E+02  0.7561462E-02  0.1370495E+00
         -2   -1    0    0    0  501 -0.00000000000E+00  0.00000000000E+00  0.44747751941E+03  0.44747751941E+03  0.00000000000E+00 0.  1.
          2   -1    0    0  501    0  0.00000000000E+00 -0.00000000000E+00 -0.30677222194E+02  0.30677222194E+02  0.00000000000E+00 0. -1.
         23    2    1    2    0    0 -0.24660966293E+02  0.16641666965E+02  0.31319829044E+03  0.33856124076E+03  0.12508171836E+03 0.  0.
          5    1    3    3  502    0 -0.95915054903E+01  0.30442186297E+02  0.86938720478E+01  0.33343357589E+02  0.41800000000E+01 0. -1.
         -5    1    3    3    0  502 -0.15069460803E+02 -0.13800519332E+02  0.30450441839E+03  0.30521788317E+03  0.41800000000E+01 0. -1.
        -11    1    1    2    0    0  0.25568240147E+02 -0.45472189430E+02  0.29172943641E+02  0.59770524144E+02  0.00000000000E+00 0.  1.
         11    1    1    2    0    0 -0.90727385408E+00  0.28830522465E+02  0.74429063133E+02  0.79822976707E+02  0.00000000000E+00 0. -1.
</event>
<event>
 7    1  0.6992302E-006  0.8748075E+02  0.7561462E-02  0.1309070E+00
         -1   -1    0    0    0  501 -0.00000000000E+00  0.00000000000E+00  0.16484322372E+03  0.16484322372E+03  0.00000000000E+00 0.  1.
          1   -1    0    0  501    0  0.00000000000E+00 -0.00000000000E+00 -0.17678533132E+03  0.17678533132E+03  0.00000000000E+00 0. -1.
         23    2    1    2    0    0 -0.40141089547E+01 -0.74608109716E+02  0.10770985601E+03  0.17327722590E+03  0.11331858113E+03 0.  0.
          5    1    3    3  502    0 -0.18672865353E+02 -0.31738491359E+02 -0.16817762538E+02  0.40697877967E+02  0.41800000000E+01 0. -1.
         -5    1    3    3    0  502  0.14658756399E+02 -0.42869618357E+02  0.12452761855E+03  0.13257934794E+03  0.41800000000E+01 0.  1.
        -11    1    1    2    0    0  0.29051644374E+02  0.45769979163E+02 -0.11830804538E+03  0.13013716854E+03  0.00000000000E+00 0. -1.
         11    1    1    2    0    0 -0.25037535419E+02  0.28838130553E+02 -0.13439182406E+01  0.38214160594E+02  0.00000000000E+00 0.  1.
</event>
<event>
 7    1  0.6992302E-006  0.1825350E+03  0.7561462E-02  0.1165372E+00
          2   -1    0    0  501    0  0.00000000000E+00  0.00000000000E+00  0.11297772508E+04  0.11297772508E+04  0.00000000000E+00 0. -1.
         -2   -1    0    0    0  501 -0.00000000000E+00 -0.00000000000E+00 -0.32723064255E+02  0.32723064255E+02  0.00000000000E+00 0.  1.
         23    2    1    2    0    0  0.45125275417E+02  0.15095905519E+03  0.53769125243E+03  0.57409594729E+03  0.12509734979E+03 0.  0.
          5    1    3    3  502    0 -0.36347975748E+02  0.60327177097E+02  0.28381223989E+03  0.29245068567E+03  0.41800000000E+01 0. -1.
         -5    1    3    3    0  502  0.81473251165E+02  0.90631878095E+02  0.25387901254E+03  0.28164526161E+03  0.41800000000E+01 0. -1.
        -11    1    1    2    0    0 -0.38171492350E+02 -0.23289042701E+02  0.24477749301E+03  0.24882818052E+03  0.00000000000E+00 0. -1.
         11    1    1    2    0    0 -0.69537830667E+01 -0.12767001249E+03  0.31458544111E+03  0.33957618724E+03  0.00000000000E+00 0.  1.
</event>
<event>
 7    1  0.6992302E-006  0.1155878E+03  0.7561462E-02  0.1250559E+00
          1   -1    0    0  501    0  0.00000000000E+00  0.00000000000E+00  0.48637100647E+03  0.48637100647E+03  0.00000000000E+00 0. -1.
         -1   -1    0    0    0  501 -0.00000000000E+00 -0.00000000000E+00 -0.45214772473E+02  0.45214772473E+02  0.00000000000E+00 0.  1.
         23    2    1    2    0    0 -0.37680330331E+02 -0.92556279417E+02  0.23376395750E+03  0.28333770952E+03  0.12509275621E+03 0.  0.
          5    1    3    3  502    0 -0.54082682425E+00 -0.14270555623E+02 -0.14242122425E+02  0.20597371255E+02  0.41800000000E+01 0. -1.
         -5    1    3    3    0  502 -0.37139503507E+02 -0.78285723793E+02  0.24800607992E+03  0.26274033826E+03  0.41800000000E+01 0. -1.
        -11    1    1    2    0    0 -0.14046376129E+02  0.72851651211E+02  0.78712318579E+02  0.10816789201E+03  0.00000000000E+00 0.  1.
         11    1    1    2    0    0  0.51726706460E+02  0.19704628205E+02  0.12867995792E+03  0.14008017741E+03  0.00000000000E+00 0. -1.
</event>
<event>
 7    1  0.6992302E-006  0.1087537E+03  0.7561462E-02  0.1262895E+00
         -2   -1    0    0    0  501 -0.00000000000E+00  0.00000000000E+00  0.47452578148E+02  0.47452578148E+02  0.00000000000E+00 0.  1.
          2   -1    0    0  501    0  0.00000000000E+00 -0.00000000000E+00 -0.25782521015E+03  0.25782521015E+03  0.00000000000E+00 0. -1.
         23    2    1    2    0    0 -0.24419356534E+02  0.24051947707E+02 -0.12118023581E+03  0.17750692545E+03  0.12509699384E+03 0.  0.
          5    1    3    3  502    0 -0.57331357222E+02 -0.28864295108E+02 -0.42693679695E+02  0.77202686086E+02  0.41800000000E+01 0. -1.
         -5    1    3    3    0  502  0.32912000688E+02  0.52916242815E+02 -0.78486556115E+02  0.10030423936E+03  0.41800000000E+01 0. -1.
        -11    1    1    2    0    0  0.89026948214E+00  0.30919445851E+02 -0.38445706178E+02  0.49344473196E+02  0.00000000000E+00 0.  1.
         11    1    1    2    0    0  0.23529087052E+02 -0.54971393558E+02 -0.50746690017E+02  0.78426389659E+02  0.00000000000E+00 0. -1.
</event>
<event>
 7    1  0.6992302E-006  0.9089626E+02  0.7561462E-02  0.1300696E+00
         -1   -1    0    0    0  501 -0.00000000000E+00  0.00000000000E+00  0.89446254175E+02  0.89446254175E+02  0.00000000000E+00 0.  1.
          1   -1    0    0  501    0  0.00000000000E+00 -0.00000000000E+00 -0.14131848042E+03  0.14131848042E+03  0.00000000000E+00 0. -1.
         23    2    1    2    0    0 -0.11595627190E+02 -0.25190285962E+02 -0.37418196900E+02  0.13347871971E+03  0.12508972012E+03 0.  0.
          5    1    3    3  502    0 -0.48942099132E+02 -0.41328455645E+00 -0.64402181570E+02  0.80997612696E+02  0.41800000000E+01 0.  1.
         -5    1    3    3    0  502  0.37346471942E+02 -0.24777001405E+02  0.26983984670E+02  0.52481107018E+02  0.41800000000E+01 0.  1.
        -11    1    1    2    0    0 -0.15588613515E+02  0.49062647805E+02 -0.28064194819E+02  0.58632306043E+02  0.00000000000E+00 0. -1.
         11    1    1    2    0    0  0.27184240705E+02 -0.23872361844E+02  0.13610165474E+02  0.38653708838E+02  0.00000000000E+00 0.  1.
</event>
<event>
 7    1  0.6992302E-006  0.1082072E+03  0.7561462E-02  0.1263926E+00
          3   -1    0    0  501    0  0.00000000000E+00  0.00000000000E+00  0.25366017877E+03  0.25366017877E+03  0.00000000000E+00 0. -1.
         -3   -1    0    0    0  501 -0.00000000000E+00 -0.00000000000E+00 -0.81142886562E+02  0.81142886562E+02  0.00000000000E+00 0.  1.
         23    2    1    2    0    0 -0.74717899034E+02 -0.43023283556E+02  0.40255663516E+02  0.15716853919E+03  0.12509062276E+03 0.  0.
          5    1    3    3  502    0  0.21151117149E+02  0.39011062892E+01 -0.24012604342E+02  0.32506398666E+02  0.41800000000E+01 0. -1.
         -5    1    3    3    0  502 -0.95869016184E+02 -0.46924389845E+02  0.64268267857E+02  0.12466214052E+03  0.41800000000E+01 0. -1.
        -11    1    1    2    0    0  0.58157953284E+02  0.25279111859E+02  0.13871262371E+03  0.15252072975E+03  0.00000000000E+00 0. -1.
         11    1    1    2    0    0  0.16559945750E+02  0.17744171697E+02 -0.64509950214E+01  0.25113796392E+02  0.00000000000E+00 0.  1.
</event>
<event>
 7    1  0.6992302E-006  0.1753657E+03  0.7561462E-02  0.1172365E+00
          2   -1    0    0  501    0  0.00000000000E+00  0.00000000000E+00  0.23198431354E+03  0.23198431354E+03  0.00000000000E+00 0. -1.
         -2   -1    0    0    0  501 -0.00000000000E+00 -0.00000000000E+00 -0.17553602394E+03  0.17553602394E+03  0.00000000000E+00 0.  1.
         23    2    1    2    0    0  0.14770751977E+03 -0.29866401833E+02 -0.49914710546E+02  0.20214830812E+03  0.12515169512E+03 0.  0.
          5    1    3    3  502    0  0.13155462171E+03 -0.57773829239E+02 -0.74011728025E+02  0.16167758696E+03  0.41800000000E+01 0. -1.
         -5    1    3    3    0  502  0.16152898054E+02  0.27907427406E+02  0.24097017480E+02  0.40470721162E+02  0.41800000000E+01 0. -1.
        -11    1    1    2    0    0 -0.15079756746E+03  0.46305671629E+02  0.10274850147E+03  0.18825880094E+03  0.00000000000E+00 0.  1.
         11    1    1    2    0    0  0.30900476880E+01 -0.16439269795E+02  0.36144986694E+01  0.17113228414E+02  0.00000000000E+00 0. -1.
</event>
<event>
 7    1  0.6992302E-006  0.1254815E+03  0.7561462E-02  0.1234319E+00
         -1   -1    0    0    0  501 -0.00000000000E+00  0.00000000000E+00  0.42942038811E+02  0.42942038811E+02  0.00000000000E+00 0. -1.
          1   -1    0    0  501    0  0.00000000000E+00 -0.00000000000E+00 -0.37903029482E+03  0.37903029482E+03  0.00000000000E+00 0.  1.
         23    2    1    2    0    0 -0.57591623602E+02  0.35903140453E+02 -0.20595808534E+03  0.25034525961E+03  0.12509270758E+03 0.  0.
          5    1    3    3  502    0  0.43752318976E+00  0.72527453726E+02 -0.91578455477E+02  0.11689529023E+03  0.41800000000E+01 0. -1.
         -5    1    3    3    0  502 -0.58029146792E+02 -0.36624313273E+02 -0.11437962986E+03  0.13344996938E+03  0.41800000000E+01 0. -1.
        -11    1    1    2    0    0  0.36839462306E+02 -0.64472683954E+02 -0.70887366845E+02  0.10265910450E+03  0.00000000000E+00 0.  1.
         11    1    1    2    0    0  0.20752161296E+02  0.28569543501E+02 -0.59242803828E+02  0.68967969520E+02  0.00000000000E+00 0. -1.
</event>
<event>
 7    1  0.6992302E-006  0.1170296E+03  0.7561462E-02  0.1248079E+00
          2   -1    0    0  501    0  0.00000000000E+00  0.00000000000E+00  0.10007735055E+03  0.10007735055E+03  0.00000000000E+00 0. -1.
         -2   -1    0    0    0  501 -0.00000000000E+00 -0.00000000000E+00 -0.15286272663E+03  0.15286272663E+03  0.00000000000E+00 0.  1.
         23    2    1    2    0    0 -0.26273479390E+02 -0.60777407689E+02 -0.62641520219E+02  0.15477762711E+03  0.12509182544E+03 0.  0.
          5    1    3    3  502    0  0.43266056827E+02  0.67722520212E+01 -0.13562070940E+02  0.46034956706E+02  0.41800000000E+01 0. -1.
         -5    1    3    3    0  502 -0.69539536217E+02 -0.67549659710E+02 -0.49079449280E+02  0.10874267040E+03  0.41800000000E+01 0. -1.
        -11    1    1    2    0    0 -0.19168076202E+02  0.37172713646E+02 -0.10396003827E+02  0.43096434664E+02  0.00000000000E+00 0.  1.
         11    1    1    2    0    0  0.45441555592E+02  0.23604694043E+02  0.20252147968E+02  0.55066015407E+02  0.00000000000E+00 0. -1.
</event>
<event>
 7    1  0.6992302E-006  0.6762917E+02  0.7561462E-02  0.1368346E+00
         -2   -1    0    0    0  501 -0.00000000000E+00  0.00000000000E+00  0.28252647049E+02  0.28252647049E+02  0.00000000000E+00 0. -1.
          2   -1    0    0  501    0  0.00000000000E+00 -0.00000000000E+00 -0.47437199358E+03  0.47437199358E+03  0.00000000000E+00 0.  1.
         23    2    1    2    0    0  0.44605008533E+02  0.64453234460E+01 -0.22751538307E+03  0.26351860572E+03  0.12509059535E+03 0.  0.
          5    1    3    3  502    0  0.55002222881E+02  0.23738772191E+02 -0.34199530103E+02  0.69107554480E+02  0.41800000000E+01 0. -1.
         -5    1    3    3    0  502 -0.10397214347E+02 -0.17293448744E+02 -0.19331585297E+03  0.19441105124E+03  0.41800000000E+01 0. -1.
        -11    1    1    2    0    0 -0.38507278368E+02  0.76338186023E+01 -0.22020774723E+03  0.22367954223E+03  0.00000000000E+00 0.  1.
         11    1    1    2    0    0 -0.60977301658E+01 -0.14079142048E+02  0.16037837669E+01  0.15426492679E+02  0.00000000000E+00 0. -1.
</event>
<event>
 7    1  0.6992302E-006  0.9495262E+02  0.7561462E-02  0.1291283E+00
          2   -1    0    0  501    0  0.00000000000E+00  0.00000000000E+00  0.49338986128E+03  0.49338986128E+03  0.00000000000E+00 0. -1.
         -2   -1    0    0    0  501 -0.00000000000E+00 -0.00000000000E+00 -0.24651785424E+02  0.24651785424E+02  0.00000000000E+00 0.  1.
         23    2    1    2    0    0  0.14534161193E+02  0.78904974040E+01  0.26133798753E+03  0.29020855196E+03  0.12509979261E+03 0.  0.
          5    1    3    3  502    0 -0.46825650188E+02  0.15470612442E+02  0.18695703391E+03  0.19339696557E+03  0.41800000000E+01 0.  1.
         -5    1    3    3    0  502  0.61359811381E+02 -0.75801150376E+01  0.74380953623E+02  0.96811586386E+02  0.41800000000E+01 0.  1.
        -11    1    1    2    0    0 -0.26341832213E+02 -0.37923858511E+02  0.53884776016E+02  0.70962527119E+02  0.00000000000E+00 0.  1.
         11    1    1    2    0    0  0.11807671020E+02  0.30033361107E+02  0.15351531231E+03  0.15687056762E+03  0.00000000000E+00 0. -1.
</event>
<event>
 7    1  0.6992302E-006  0.2230008E+03  0.7561462E-02  0.1131665E+00
          1   -1    0    0  501    0  0.00000000000E+00  0.00000000000E+00  0.37722754045E+03  0.37722754045E+03  0.00000000000E+00 0. -1.
         -1   -1    0    0    0  501 -0.00000000000E+00 -0.00000000000E+00 -0.14477988987E+03  0.14477988987E+03  0.00000000000E+00 0.  1.
         23    2    1    2    0    0  0.68138492368E+02 -0.19113887930E+03  0.76735127722E+02  0.25042659545E+03  0.12509306361E+03 0.  0.
          5    1    3    3  502    0  0.88333091843E+02 -0.63044993673E+02  0.32897258520E+02  0.11347734734E+03  0.41800000000E+01 0.  1.
         -5    1    3    3    0  502 -0.20194599475E+02 -0.12809388562E+03  0.43837869202E+02  0.13694924811E+03  0.41800000000E+01 0.  1.
        -11    1    1    2    0    0 -0.68269505581E+02  0.13284775021E+03  0.63086561512E+02  0.16213933629E+03  0.00000000000E+00 0.  1.
         11    1    1    2    0    0  0.13101321271E+00  0.58291129084E+02  0.92625961349E+02  0.10944149857E+03  0.00000000000E+00 0. -1.
</event>
<event>
 7    1  0.6992302E-006  0.1021721E+03  0.7561462E-02  0.1275793E+00
          1   -1    0    0  501    0  0.00000000000E+00  0.00000000000E+00  0.25586547749E+03  0.25586547749E+03  0.00000000000E+00 0. -1.
         -1   -1    0    0    0  501 -0.00000000000E+00 -0.00000000000E+00 -0.64872906409E+02  0.64872906409E+02  0.00000000000E+00 0.  1.
         23    2    1    2    0    0  0.33355523005E+02 -0.52926065120E+02  0.66592755205E+02  0.15490772733E+03  0.12509216465E+03 0.  0.
          5    1    3    3  502    0  0.56271060279E+02 -0.69273578451E+02  0.79183154229E+01  0.89696337804E+02  0.41800000000E+01 0.  1.
         -5    1    3    3    0  502 -0.22915537274E+02  0.16347513331E+02  0.58674439782E+02  0.65211389530E+02  0.41800000000E+01 0.  1.
        -11    1    1    2    0    0  0.12290809261E+02  0.35692221209E+02  0.65941339659E+01  0.38320767867E+02  0.00000000000E+00 0.  1.
         11    1    1    2    0    0 -0.45646332266E+02  0.17233843910E+02  0.11780568191E+03  0.12750988870E+03  0.00000000000E+00 0. -1.
</event>
<event>
 7    1  0.6992302E-006  0.9073835E+02  0.7561462E-02  0.1301073E+00
         -3   -1    0    0    0  501 -0.00000000000E+00  0.00000000000E+00  0.55648458952E+02  0.55648458952E+02  0.00000000000E+00 0. -1.
          3   -1    0    0  501    0  0.00000000000E+00 -0.00000000000E+00 -0.21141298237E+03  0.21141298237E+03  0.00000000000E+00 0.  1.
         23    2    1    2    0    0  0.11416936982E+01  0.34953935750E+01 -0.44168557657E+02  0.13271009130E+03  0.12509030980E+03 0.  0.
          5    1    3    3  502    0  0.52165337740E+02  0.32415042679E+02 -0.43787197724E+01  0.61713880451E+02  0.41800000000E+01 0.  1.
         -5    1    3    3    0  502 -0.51023644042E+02 -0.28919649104E+02 -0.39789837885E+02  0.70996210846E+02  0.41800000000E+01 0.  1.
        -11    1    1    2    0    0  0.15296879598E+02  0.24366589019E+02 -0.92308469556E+02  0.96688048577E+02  0.00000000000E+00 0.  1.
         11    1    1    2    0    0 -0.16438573296E+02 -0.27861982594E+02 -0.19287496206E+02  0.37663301449E+02  0.00000000000E+00 0. -1.
</event>
<event>
 7    1  0.6992302E-006  0.9412344E+02  0.7561462E-02  0.1293163E+00
          2   -1    0    0  501    0  0.00000000000E+00  0.00000000000E+00  0.60751683581E+02  0.60751683581E+02  0.00000000000E+00 0. -1.
         -2   -1    0    0    0  501 -0.00000000000E+00 -0.00000000000E+00 -0.24665009678E+03  0.24665009678E+03  0.00000000000E+00 0.  1.
         23    2    1    2    0    0  0.57156507075E+02 -0.21871491216E+01 -0.11621400880E+03  0.18006893948E+03  0.12508987650E+03 0.  0.
          5    1    3    3  502    0  0.71161877974E+02 -0.11136584305E+02 -0.10422367574E+02  0.72898110625E+02  0.41800000000E+01 0. -1.
         -5    1    3    3    0  502 -0.14005370899E+02  0.89494351836E+01 -0.10579164123E+03  0.10717082886E+03  0.41800000000E+01 0. -1.
        -11    1    1    2    0    0 -0.26787764285E+02 -0.39290110412E+02 -0.10056640214E+02  0.48604867081E+02  0.00000000000E+00 0.  1.
         11    1    1    2    0    0 -0.30368742790E+02  0.41477259534E+02 -0.59627764186E+02  0.78727973801E+02  0.00000000000E+00 0. -1.
</event>
<event>
 7    1  0.6992302E-006  0.1100570E+03  0.7561462E-02  0.1260464E+00
          2   -1    0    0  501    0  0.00000000000E+00  0.00000000000E+00  0.15919301019E+03  0.15919301019E+03  0.00000000000E+00 0. -1.
         -2   -1    0    0    0  501 -0.00000000000E+00 -0.00000000000E+00 -0.84972756829E+02  0.84972756829E+02  0.00000000000E+00 0.  1.
         23    2    1    2    0    0  0.25916713273E+02 -0.54560271836E+01  0.47417351182E+01  0.12794764029E+03  0.12508665134E+03 0.  0.
          5    1    3    3  502    0 -0.50358152592E+02 -0.16918889935E+01 -0.51819803995E+01  0.50824515165E+02  0.41800000000E+01 0.  1.
         -5    1    3    3    0  502  0.76274865865E+02 -0.37641381901E+01  0.99237155176E+01  0.77123125123E+02  0.41800000000E+01 0.  1.
        -11    1    1    2    0    0 -0.42820140441E+02  0.37450673912E+02  0.39948129975E+02  0.69512376541E+02  0.00000000000E+00 0.  1.
         11    1    1    2    0    0  0.16903427168E+02 -0.31994646729E+02  0.29530388263E+02  0.46705750185E+02  0.00000000000E+00 0. -1.
</event>
<event>
 6    1  0.6992302E-006  0.7641129E+02  0.7561462E-02  0.1339556E+00
          2   -1    0    0  501    0  0.00000000000E+00  0.00000000000E+00  0.45768674050E+02  0.45768674050E+02  0.00000000000E+00 0. -1.
         -2   -1    0    0    0  501 -0.00000000000E+00 -0.00000000000E+00 -0.22760083682E+03  0.22760083682E+03  0.00000000000E+00 0.  1.
          5    1    1    2  502    0 -0.52554849850E+02  0.44439541861E+02 -0.50263704292E+01  0.69134809779E+02  0.41800000000E+01 0. -1.
         -5    1    1    2    0  502  0.27258622805E+02 -0.50437563458E+02 -0.16571195792E+03  0.17539927514E+03  0.41800000000E+01 0.  1.
        -11    1    1    2    0    0  0.96365494538E+01  0.45594230270E+01 -0.63555659769E+01  0.12411472217E+02  0.00000000000E+00 0.  1.
         11    1    1    2    0    0  0.15659677591E+02  0.14385985702E+01 -0.47382684436E+01  0.16423953724E+02  0.00000000000E+00 0. -1.
</event>
<event>
 6    1  0.6992302E-006  0.3384508E+03  0.7561462E-02  0.1067458E+00
         -1   -1    0    0    0  501 -0.00000000000E+00  0.00000000000E+00  0.36991771191E+03  0.36991771191E+03  0.00000000000E+00 0.  1.
          1   -1    0    0  501    0  0.00000000000E+00 -0.00000000000E+00 -0.13528336952E+04  0.13528336952E+04  0.00000000000E+00 0. -1.
          5    1    1    2  502    0 -0.52115328709E+01  0.88353326128E+01 -0.94149195312E+01  0.14537409914E+02  0.41800000000E+01 0. -1.
         -5    1    1    2    0  502 -0.18343195662E+03 -0.27399994298E+03  0.26580903088E+03  0.42355066374E+03  0.41800000000E+01 0.  1.
        -11    1    1    2    0    0  0.14784133926E+03  0.13698366679E+03 -0.66881109048E+03  0.69851976444E+03  0.00000000000E+00 0.  1.
         11    1    1    2    0    0  0.40802150229E+02  0.12818094358E+03 -0.57049900414E+03  0.58614356901E+03  0.00000000000E+00 0. -1.
</event>
<event>
 6    1  0.6992302E-006  0.9648221E+02  0.7561462E-02  0.1287872E+00
          1   -1    0    0  501    0  0.00000000000E+00  0.00000000000E+00  0.10184856983E+03  0.10184856983E+03  0.00000000000E+00 0. -1.
         -1   -1    0    0    0  501 -0.00000000000E+00 -0.00000000000E+00 -0.16830193085E+03  0.16830193085E+03  0.00000000000E+00 0.  1.
          5    1    1    2  502    0 -0.68040324061E+01  0.41512315066E+02  0.36212845659E+02  0.55663360928E+02  0.41800000000E+01 0. -1.
         -5    1    1    2    0  502 -0.44161667313E+02 -0.23745212493E+02 -0.95872014765E+02  0.10827282019E+03  0.41800000000E+01 0. -1.
        -11    1    1    2    0    0 -0.79052242477E+01 -0.37470835436E+02  0.13953191156E+02  0.40758405540E+02  0.00000000000E+00 0.  1.
         11    1    1    2    0    0  0.58870923967E+02  0.19703732863E+02 -0.20747383070E+02  0.65455914031E+02  0.00000000000E+00 0. -1.
</event>
<event>
 7    1  0.6992302E-006  0.9314685E+02  0.7561462E-02  0.1295405E+00
         -2   -1    0    0    0  501 -0.00000000000E+00  0.00000000000E+00  0.21824920812E+03  0.21824920812E+03  0.00000000000E+00 0.  1.
          2   -1    0    0  501    0  0.00000000000E+00 -0.00000000000E+00 -0.67806611924E+02  0.67806611924E+02  0.00000000000E+00 0. -1.
         23    2    1    2    0    0 -0.10446400120E+02 -0.35201933566E+02  0.13195587493E+03  0.18549344281E+03  0.12508861256E+03 0.  0.
          5    1    3    3  502    0 -0.48371790807E+02  0.22502897261E+02  0.89642341861E+02  0.10440034667E+03  0.41800000000E+01 0. -1.
         -5    1    3    3    0  502  0.37925390686E+02 -0.57704830827E+02  0.42313533073E+02  0.81093096134E+02  0.41800000000E+01 0. -1.
        -11    1    1    2    0    0  0.74289089646E+01 -0.13178111861E+02  0.43471308877E+02  0.46028317545E+02  0.00000000000E+00 0.  1.
         11    1    1    2    0    0  0.30174911556E+01  0.48380045426E+02 -0.24984587613E+02  0.54534059693E+02  0.00000000000E+00 0. -1.
</event>
<event>
 7    1  0.6992302E-006  0.1019491E+03  0.7561462E-02  0.1276250E+00
         -1   -1    0    0    0  501 -0.00000000000E+00  0.00000000000E+00  0.24203389449E+02  0.24203389449E+02  0.00000000000E+00 0.  1.
          1   -1    0    0  501    0  0.00000000000E+00 -0.00000000000E+00 -0.64440595454E+03  0.64440595454E+03  0.00000000000E+00 0. -1.
         23    2    1    2    0    0 -0.18539351152E+02  0.36155716775E+02 -0.22421413552E+03  0.25994345209E+03  0.12509067240E+03 0.  0.
          5    1    3    3  502    0 -0.39181622549E+01  0.73685537382E+02 -0.19890189002E+03  0.21218940753E+03  0.41800000000E+01 0.  1.
         -5    1    3    3    0  502 -0.14621188897E+02 -0.37529820608E+02 -0.25312245494E+02  0.47754044557E+02  0.41800000000E+01 0.  1.
        -11    1    1    2    0    0 -0.59712439539E+01 -0.57005623472E+02 -0.33338628412E+03  0.33827756547E+03  0.00000000000E+00 0. -1.
         11    1    1    2    0    0  0.24510595106E+02  0.20849906697E+02 -0.62602145449E+02  0.70388326423E+02  0.00000000000E+00 0.  1.
</event>
<event>
 7    1  0.6992302E-006  0.9290432E+02  0.7561462E-02  0.1295967E+00
          4   -1    0    0  501    0  0.00000000000E+00  0.00000000000E+00  0.36264040143E+02  0.36264040143E+02  0.00000000000E+00 0. -1.
         -4   -1    0    0    0  501 -0.00000000000E+00 -0.00000000000E+00 -0.37089247593E+03  0.37089247593E+03  0.00000000000E+00 0.  1.
         23    2    1    2    0    0  0.10836572516E+02  0.11640768060E+02 -0.26237286754E+03  0.29109982882E+03  0.12508656977E+03 0.  0.
          5    1    3    3  502    0 -0.56704568726E+02  0.13334966538E+02 -0.12203413985E+03  0.13528870291E+03  0.41800000000E+01 0. -1.
         -5    1    3    3    0  502  0.67541141242E+02 -0.16941984783E+01 -0.14033872769E+03  0.15581112591E+03  0.41800000000E+01 0. -1.
        -11    1    1    2    0    0 -0.67308684479E+01  0.23444292607E+02 -0.76671000361E+02  0.80457328705E+02  0.00000000000E+00 0.  1.
         11    1    1    2    0    0 -0.41057040677E+01 -0.35085060667E+02  0.44154321127E+01  0.35599358543E+02  0.00000000000E+00 0. -1.
</event>
<event>
 7    1  0.6992302E-006  0.1629100E+03  0.7561462E-02  0.1185450E+00
         -2   -1    0    0    0  501 -0.00000000000E+00  0.00000000000E+00  0.65781157128E+02  0.65781157128E+02  0.00000000000E+00 0.  1.
          2   -1    0    0  501    0  0.00000000000E+00 -0.00000000000E+00 -0.57971530847E+03  0.57971530847E+03  0.00000000000E+00 0. -1.
         23    2    1    2    0    0  0.98014606494E+02  0.11769412602E+03 -0.18291029735E+03  0.26937471681E+03  0.12509112996E+03 0.  0.
          5    1    3    3  502    0 -0.55975023719E+01 -0.40076863255E+01 -0.77384224124E+02  0.77802211574E+02  0.41800000000E+01 0.  1.
         -5    1    3    3    0  502  0.10361210887E+03  0.12170181235E+03 -0.10552607322E+03  0.19157250524E+03  0.41800000000E+01 0.  1.
        -11    1    1    2    0    0 -0.17000517040E+02 -0.48305776079E+02 -0.36526732661E+02  0.62902049101E+02  0.00000000000E+00 0.  1.
         11    1    1    2    0    0 -0.81014089453E+02 -0.69388349946E+02 -0.29449712134E+03  0.31321969969E+03  0.00000000000E+00 0. -1.
</event>
<event>
 7    1  0.6992302E-006  0.1151542E+03  0.7561462E-02  0.1251312E+00
          3   -1    0    0  501    0  0.00000000000E+00  0.00000000000E+00  0.24872180857E+03  0.24872180857E+03  0.00000000000E+00 0. -1.
         -3   -1    0    0    0  501 -0.00000000000E+00 -0.00000000000E+00 -0.80588805728E+02  0.80588805728E+02  0.00000000000E+00 0.  1.
         23    2    1    2    0    0 -0.47579010053E+02 -0.42711975616E+02  0.12788874507E+02  0.14105756831E+03  0.12508240168E+03 0.  0.
          5    1    3    3  502    0 -0.74800801505E+02  0.78465138060E+01 -0.15506951453E+02  0.76906863335E+02  0.41800000000E+01 0. -1.
         -5    1    3    3    0  502  0.27221791452E+02 -0.50558489422E+02  0.28295825960E+02  0.64150704978E+02  0.41800000000E+01 0. -1.
        -11    1    1    2    0    0  0.36504269448E+02  0.63847749565E+02  0.14429564482E+03  0.16195780292E+03  0.00000000000E+00 0. -1.
         11    1    1    2    0    0  0.11074740605E+02 -0.21135773949E+02  0.11048483515E+02  0.26295243066E+02  0.00000000000E+00 0.  1.
</event>
<event>
 7    1  0.6992302E-006  0.2325972E+03  0.7561462E-02  0.1124825E+00
          1   -1    0    0  501    0  0.00000000000E+00  0.00000000000E+00  0.80319595755E+02  0.80319595755E+02  0.00000000000E+00 0. -1.
         -1   -1    0    0    0  501 -0.00000000000E+00 -0.00000000000E+00 -0.69275519604E+03  0.69275519604E+03  0.00000000000E+00 0.  1.
         23    2    1    2    0    0 -0.10257562460E+03  0.18168062772E+03 -0.29426777627E+03  0.38179164499E+03  0.12506688924E+03 0.  0.
          5    1    3    3  502    0 -0.51581276734E+02  0.32404713306E+01 -0.10265190795E+03  0.11500441456E+03  0.41800000000E+01 0. -1.
         -5    1    3    3    0  502 -0.50994347869E+02  0.17844015639E+03 -0.19161586833E+03  0.26678723043E+03  0.41800000000E+01 0. -1.
        -11    1    1    2    0    0 -0.42309612303E+01 -0.80428628767E+02 -0.10896708019E+03  0.13550088533E+03  0.00000000000E+00 0.  1.
         11    1    1    2    0    0  0.10680658583E+03 -0.10125199896E+03 -0.20920074382E+03  0.25578226147E+03  0.00000000000E+00 0. -1.
</event>
<event>
 7    1  0.6992302E-006  0.1660403E+03  0.7561462E-02  0.1182041E+00
          1   -1    0    0  501    0  0.00000000000E+00  0.00000000000E+00  0.75276428398E+02  0.75276428398E+02  0.00000000000E+00 0. -1.
         -1   -1    0    0    0  501 -0.00000000000E+00 -0.00000000000E+00 -0.48325841282E+03  0.48325841282E+03  0.00000000000E+00 0.  1.
         23    2    1    2    0    0 -0.83090839163E+02  0.12127692403E+03 -0.29887236619E+03  0.35578479193E+03  0.12508376011E+03 0.  0.
          5    1    3    3  502    0 -0.10061606957E+03  0.55665423847E+02 -0.23856796507E+03  0.26486671974E+03  0.41800000000E+01 0. -1.
         -5    1    3    3    0  502  0.17525230406E+02  0.65611500186E+02 -0.60304401121E+02  0.90918072197E+02  0.41800000000E+01 0. -1.
        -11    1    1    2    0    0  0.37462172113E+02 -0.34468302848E+02  0.63058420776E+01  0.51295632221E+02  0.00000000000E+00 0. -1.
         11    1    1    2    0    0  0.45628667050E+02 -0.86808621186E+02 -0.11541546031E+03  0.15145441706E+03  0.00000000000E+00 0.  1.
</event>
<event>
 7    1  0.6992302E-006  0.1267168E+03  0.7561462E-02  0.1232410E+00
          1   -1    0    0  501    0  0.00000000000E+00  0.00000000000E+00  0.57718558895E+02  0.57718558895E+02  0.00000000000E+00 0. -1.
         -1   -1    0    0    0  501 -0.00000000000E+00 -0.00000000000E+00 -0.29736225993E+03  0.29736225993E+03  0.00000000000E+00 0.  1.
         23    2    1    2    0    0 -0.42798392290E+02 -0.59134866651E+02 -0.14350322574E+03  0.20388302664E+03  0.12508588216E+03 0.  0.
          5    1    3    3  502    0  0.12808910516E+02 -0.82888822141E+02 -0.77537080114E+02  0.11429827740E+03  0.41800000000E+01 0. -1.
         -5    1    3    3    0  502 -0.55607302806E+02  0.23753955490E+02 -0.65966145629E+02  0.89584749237E+02  0.41800000000E+01 0. -1.
        -11    1    1    2    0    0  0.66330518162E+02  0.34462353868E+02 -0.38136982520E+02  0.83915558208E+02  0.00000000000E+00 0. -1.
         11    1    1    2    0    0 -0.23532125872E+02  0.24672512783E+02 -0.58003492772E+02  0.67282233976E+02  0.00000000000E+00 0.  1.
</event>
<event>
 7    1  0.6992302E-006  0.1796645E+03  0.7561462E-02  0.1168128E+00
          3   -1    0    0  501    0  0.00000000000E+00  0.00000000000E+00  0.25853969922E+03  0.25853969922E+03  0.00000000000E+00 0. -1.
         -3   -1    0    0    0  501 -0.00000000000E+00 -0.00000000000E+00 -0.16893152642E+03  0.16893152642E+03  0.00000000000E+00 0.  1.
         23    2    1    2    0    0  0.14102005978E+03  0.81731089551E+02 -0.27661551691E+02  0.20731050654E+03  0.12508339786E+03 0.  0.
          5    1    3    3  502    0  0.77516634247E+02  0.80546509039E+02 -0.68979871175E+02  0.13142398461E+03  0.41800000000E+01 0. -1.
         -5    1    3    3    0  502  0.63503425532E+02  0.11845805121E+01  0.41318319484E+02  0.75886521928E+02  0.41800000000E+01 0. -1.
        -11    1    1    2    0    0 -0.90322633229E+02 -0.95327224174E+02  0.99450308777E+02  0.16472954094E+03  0.00000000000E+00 0.  1.
         11    1    1    2    0    0 -0.50697426550E+02  0.13596134624E+02  0.17819415713E+02  0.55431178157E+02  0.00000000000E+00 0. -1.
</event>
<event>
 7    1  0.6992302E-006  0.1677448E+03  0.7561462E-02  0.1180220E+00
          1   -1    0    0  501    0  0.00000000000E+00  0.00000000000E+00  0.17846651993E+03  0.17846651993E+03  0.00000000000E+00 0. -1.
         -1   -1    0    0    0  501 -0.00000000000E+00 -0.00000000000E+00 -0.18102454439E+03  0.18102454439E+03  0.00000000000E+00 0.  1.
         23    2    1    2    0    0  0.11912394869E+03  0.77484589409E+02 -0.65261269420E+01  0.18943230992E+03  0.12509049908E+03 0.  0.
          5    1    3    3  502    0  0.79236908980E+02  0.10200467680E+03  0.26579945732E+02  0.13193713560E+03  0.41800000000E+01 0.  1.
         -5    1    3    3    0  502  0.39887039705E+02 -0.24520087393E+02 -0.33106072674E+02  0.57495174320E+02  0.41800000000E+01 0.  1.
        -11    1    1    2    0    0 -0.55772336463E+02 -0.78010298940E+02 -0.26881646414E+02  0.99593087959E+02  0.00000000000E+00 0.  1.
         11    1    1    2    0    0 -0.63351612222E+02  0.52570953041E+00  0.30849748898E+02  0.70465666453E+02  0.00000000000E+00 0. -1.
</event>
<event>
 7    1  0.6992302E-006  0.8204658E+02  0.7561462E-02  0.1323342E+00
          2   -1    0    0  501    0  0.00000000000E+00  0.00000000000E+00  0.18203052157E+03  0.18203052157E+03  0.00000000000E+00 0.  1.
         -2   -1    0    0    0  501 -0.00000000000E+00 -0.00000000000E+00 -0.86896550000E+02  0.86896550000E+02  0.00000000000E+00 0. -1.
         23    2    1    2    0    0 -0.40663070716E+02 -0.39504883435E+02  0.24149446659E+02  0.13944356150E+03  0.12508872824E+03 0.  0.
          5    1    3    3  502    0 -0.48595813805E+02 -0.23451354576E+02 -0.43439948722E+02  0.69397555402E+02  0.41800000000E+01 0. -1.
         -5    1    3    3    0  502  0.79327430883E+01 -0.16053528859E+02  0.67589395381E+02  0.70046006094E+02  0.41800000000E+01 0. -1.
        -11    1    1    2    0    0  0.55251059837E+02  0.49271567263E+02  0.21667884834E+02  0.77135362752E+02  0.00000000000E+00 0. -1.
         11    1    1    2    0    0 -0.14587989121E+02 -0.97666838280E+01  0.49316640082E+02  0.52348147327E+02  0.00000000000E+00 0.  1.
</event>
<event>
 7    1  0.6992302E-006  0.1270228E+03  0.7561462E-02  0.1231941E+00
          1   -1    0    0  501    0  0.00000000000E+00  0.00000000000E+00  0.53829888450E+02  0.53829888450E+02  0.00000000000E+00 0. -1.
         -1   -1    0    0    0  501 -0.00000000000E+00 -0.00000000000E+00 -0.34861342846E+03  0.34861342846E+03  0.00000000000E+00 0.  1.
         23    2    1    2    0    0 -0.35539322603E+02  0.70730382735E+02 -0.20538976947E+03  0.25317824938E+03  0.12509371711E+03 0.  0.
          5    1    3    3  502    0 -0.74725439640E+02  0.38193389715E+02 -0.73141256641E+02  0.11139902230E+03  0.41800000000E+01 0. -1.
         -5    1    3    3    0  502  0.39186117038E+02  0.32536993020E+02 -0.13224851283E+03  0.14177922708E+03  0.41800000000E+01 0. -1.
        -11    1    1    2    0    0  0.61047340082E+02 -0.70699246407E+02 -0.76198655330E+02  0.12054624112E+03  0.00000000000E+00 0.  1.
         11    1    1    2    0    0 -0.25508017480E+02 -0.31136328832E-01 -0.13195115204E+02  0.28718826412E+02  0.00000000000E+00 0. -1.
</event>
<event>
 7    1  0.6992302E-006  0.2023405E+03  0.7561462E-02  0.1147779E+00
          2   -1    0    0  501    0  0.00000000000E+00  0.00000000000E+00  0.86676807102E+03  0.86676807102E+03  0.00000000000E+00 0.  1.
         -2   -1    0    0    0  501 -0.00000000000E+00 -0.00000000000E+00 -0.51903022005E+02  0.51903022005E+02  0.00000000000E+00 0. -1.
         23    2    1    2    0    0  0.14209397975E+03  0.10938589812E+03  0.35719197023E+03  0.41879579408E+03  0.12509132564E+03 0.  0.
          5    1    3    3  502    0 -0.21249846272E+02  0.26942568674E+02  0.73004825850E+02  0.80775212601E+02  0.41800000000E+01 0. -1.
         -5    1    3    3    0  502  0.16334382602E+03  0.82443329450E+02  0.28418714438E+03  0.33802058147E+03  0.41800000000E+01 0. -1.
        -11    1    1    2    0    0 -0.95507179588E+02 -0.40055561594E+02  0.34102716962E+03  0.35640650918E+03  0.00000000000E+00 0.  1.
         11    1    1    2    0    0 -0.46586800160E+02 -0.69330336530E+02  0.11664590917E+03  0.14346878977E+03  0.00000000000E+00 0. -1.
</event>
<event>
 7    1  0.6992302E-006  0.1304493E+03  0.7561462E-02  0.1226791E+00
         -3   -1    0    0    0  501 -0.00000000000E+00  0.00000000000E+00  0.71217198242E+02  0.71217198242E+02  0.00000000000E+00 0.  1.
          3   -1    0    0  501    0  0.00000000000E+00 -0.00000000000E+00 -0.72014366129E+03  0.72014366129E+03  0.00000000000E+00 0. -1.
         23    2    1    2    0    0 -0.96536650352E+02  0.17526686555E+02 -0.34729946183E+02  0.16272859472E+03  0.12509163351E+03 0.  0.
          5    1    3    3  502    0 -0.16804342597E+02 -0.35967292442E+02 -0.51511627360E+02  0.65168644370E+02  0.41800000000E+01 0. -1.
         -5    1    3    3    0  502 -0.79732307754E+02  0.53493978997E+02  0.16781681177E+02  0.97559950348E+02  0.41800000000E+01 0. -1.
        -11    1    1    2    0    0 -0.77311789584E+01 -0.19088459116E+02 -0.39448307277E+02  0.44500666810E+02  0.00000000000E+00 0.  1.
         11    1    1    2    0    0  0.10426782931E+03  0.15617725609E+01 -0.57474820958E+03  0.58413159800E+03  0.00000000000E+00 0. -1.
</event>
<event>
 7    1  0.6992302E-006  0.1127477E+03  0.7561462E-02  0.1255565E+00
         -1   -1    0    0    0  501 -0.00000000000E+00  0.00000000000E+00  0.36090864686E+03  0.36090864686E+03  0.00000000000E+00 0.  1.
          1   -1    0    0  501    0  0.00000000000E+00 -0.00000000000E+00 -0.37881259917E+02  0.37881259917E+02  0.00000000000E+00 0. -1.
         23    2    1    2    0    0 -0.38597144815E+02 -0.15992284133E+01  0.14631188449E+03  0.19633345221E+03  0.12508940721E+03 0.  0.
          5    1    3    3  502    0 -0.10732979066E+02  0.60134105846E+02  0.53158292384E+02  0.81083808339E+02  0.41800000000E+01 0. -1.
         -5    1    3    3    0  502 -0.27864165749E+02 -0.61733334259E+02  0.93153592103E+02  0.11524964388E+03  0.41800000000E+01 0. -1.
        -11    1    1    2    0    0 -0.21452564031E+02  0.24115558175E+02  0.39626647515E+02  0.51108158281E+02  0.00000000000E+00 0. -1.
         11    1    1    2    0    0  0.60049708846E+02 -0.22516329761E+02  0.13708885494E+03  0.15134829628E+03  0.00000000000E+00 0.  1.
</event>
<event>
 7    1  0.7733889E-006  0.1398266E+03  0.7561462E-02  0.1213563E+00
         -1   -1    0    0    0  501 -0.00000000000E+00  0.00000000000E+00  0.28148965348E+02  0.28148965348E+02  0.00000000000E+00 0.  1.
          1   -1    0    0  501    0  0.00000000000E+00 -0.00000000000E+00 -0.77023221814E+03  0.77023221814E+03  0.00000000000E+00 0. -1.
         23    2    1    2    0    0 -0.83668093022E+02  0.40842716333E+02 -0.37546214897E+03  0.40655643592E+03  0.12509129870E+03 0.  0.
          5    1    3    3  502    0  0.25894589577E+01 -0.32723845568E+02 -0.37253104755E+02  0.49827919687E+02  0.41800000000E+01 0. -1.
         -5    1    3    3    0  502 -0.86257551980E+02  0.73566561902E+02 -0.33820904422E+03  0.35672851623E+03  0.41800000000E+01 0. -1.
        -11    1    1    2    0    0  0.18816227845E+02 -0.62085397561E+02 -0.12609058081E+03  0.14180085187E+03  0.00000000000E+00 0.  1.
         11    1    1    2    0    0  0.64851865177E+02  0.21242681228E+02 -0.24053052301E+03  0.25002389570E+03  0.00000000000E+00 0. -1.
</event>
<event>
 7    1  0.6992302E-006  0.1174758E+03  0.7561462E-02  0.1247320E+00
         -1   -1    0    0    0  501 -0.00000000000E+00  0.00000000000E+00  0.73849861580E+02  0.73849861580E+02  0.00000000000E+00 0.  1.
          1   -1    0    0  501    0  0.00000000000E+00 -0.00000000000E+00 -0.32770259016E+03  0.32770259016E+03  0.00000000000E+00 0. -1.
         23    2    1    2    0    0  0.17696381612E+01  0.94768790413E+02 -0.60041127131E+02  0.16803564167E+03  0.12508710832E+03 0.  0.
          5    1    3    3  502    0  0.33662438586E+02  0.60453639864E+02 -0.88993209638E+02  0.11280543474E+03  0.41800000000E+01 0. -1.
         -5    1    3    3    0  502 -0.31892800425E+02  0.34315150549E+02  0.28952082508E+02  0.55230206931E+02  0.41800000000E+01 0. -1.
        -11    1    1    2    0    0  0.33994089472E+02 -0.58515236224E+02 -0.15613377388E+03  0.17016869963E+03  0.00000000000E+00 0. -1.
         11    1    1    2    0    0 -0.35763727633E+02 -0.36253554189E+02 -0.37677827569E+02  0.63348110436E+02  0.00000000000E+00 0.  1.
</event>
<event>
 7    1  0.6992302E-006  0.1073340E+03  0.7561462E-02  0.1265588E+00
          1   -1    0    0  501    0  0.00000000000E+00  0.00000000000E+00  0.13408784785E+02  0.13408784785E+02  0.00000000000E+00 0. -1.
         -1   -1    0    0    0  501 -0.00000000000E+00 -0.00000000000E+00 -0.11494071605E+04  0.11494071605E+04  0.00000000000E+00 0.  1.
         23    2    1    2    0    0  0.63898995981E+02  0.51569562394E+00 -0.71493044056E+03  0.72859969279E+03  0.12509448376E+03 0.  0.
          5    1    3    3  502    0  0.43385389604E+01 -0.41641431264E+02 -0.49619936343E+03  0.49798003211E+03  0.41800000000E+01 0.  1.
         -5    1    3    3    0  502  0.59560457020E+02  0.42157126888E+02 -0.21873107713E+03  0.23061966068E+03  0.41800000000E+01 0.  1.
        -11    1    1    2    0    0  0.17181707021E+02  0.59060626845E+01 -0.32561365114E+02  0.37287197946E+02  0.00000000000E+00 0. -1.
         11    1    1    2    0    0 -0.81080703001E+02 -0.64217583084E+01 -0.38850657003E+03  0.39692905453E+03  0.00000000000E+00 0.  1.
</event>
<event>
 7    1  0.6992302E-006  0.8833122E+02  0.7561462E-02  0.1306944E+00
          1   -1    0    0  501    0  0.00000000000E+00  0.00000000000E+00  0.17672985761E+03  0.17672985761E+03  0.00000000000E+00 0. -1.
         -1   -1    0    0    0  501 -0.00000000000E+00 -0.00000000000E+00 -0.12663134060E+03  0.12663134060E+03  0.00000000000E+00 0.  1.
         23    2    1    2    0    0 -0.71970083030E+02  0.39571972233E+02 -0.36682259038E+02  0.15407854164E+03  0.12509586335E+03 0.  0.
          5    1    3    3  502    0 -0.59881822076E+02  0.38117090497E+02  0.36392302512E+02  0.79878766173E+02  0.41800000000E+01 0. -1.
         -5    1    3    3    0  502 -0.12088260954E+02  0.14548817358E+01 -0.73074561551E+02  0.74199775468E+02  0.41800000000E+01 0. -1.
        -11    1    1    2    0    0  0.37683602085E+02  0.32521852442E+01 -0.90221866929E+01  0.38884835447E+02  0.00000000000E+00 0.  1.
         11    1    1    2    0    0  0.34286480945E+02 -0.42824157477E+02  0.95802962741E+02  0.11039782113E+03  0.00000000000E+00 0. -1.
</event>
<event>
 7    1  0.6992302E-006  0.1132050E+03  0.7561462E-02  0.1254747E+00
          3   -1    0    0  501    0  0.00000000000E+00  0.00000000000E+00  0.23787911959E+03  0.23787911959E+03  0.00000000000E+00 0. -1.
         -3   -1    0    0    0  501 -0.00000000000E+00 -0.00000000000E+00 -0.81009591795E+02  0.81009591795E+02  0.00000000000E+00 0.  1.
         23    2    1    2    0    0  0.65760908097E+02  0.34432654254E+02  0.36383548238E+02  0.14993956473E+03  0.12509198926E+03 0.  0.
          5    1    3    3  502    0 -0.17919320698E+02 -0.58922214076E+01 -0.30005498524E+02  0.35687850441E+02  0.41800000000E+01 0.  1.
         -5    1    3    3    0  502  0.83680228796E+02  0.40324875662E+02  0.66389046762E+02  0.11425171429E+03  0.41800000000E+01 0.  1.
        -11    1    1    2    0    0 -0.67589504556E+01 -0.52083317457E+02  0.78366284033E+02  0.94337849465E+02  0.00000000000E+00 0. -1.
         11    1    1    2    0    0 -0.59001957642E+02  0.17650663203E+02  0.42119695526E+02  0.74611297189E+02  0.00000000000E+00 0.  1.
</event>
<event>
 7    1  0.6992302E-006  0.1023145E+03  0.7561462E-02  0.1275503E+00
         -2   -1    0    0    0  501 -0.00000000000E+00  0.00000000000E+00  0.94423213911E+02  0.94423213911E+02  0.00000000000E+00 0.  1.
          2   -1    0    0  501    0  0.00000000000E+00 -0.00000000000E+00 -0.15063236384E+03  0.15063236384E+03  0.00000000000E+00 0. -1.
         23    2    1    2    0    0 -0.18290813493E+02 -0.44161718028E+01  0.16957553982E+02  0.12763087958E+03  0.12509207150E+03 0.  0.
          5    1    3    3  502    0  0.37211117042E+02 -0.40341161465E+02 -0.10299121363E+02  0.55996614547E+02  0.41800000000E+01 0.  1.
         -5    1    3    3    0  502 -0.55501930535E+02  0.35924989662E+02  0.27256675345E+02  0.71634265029E+02  0.41800000000E+01 0.  1.
        -11    1    1    2    0    0 -0.29803710128E+02 -0.12555486773E+02 -0.53994616559E+02  0.62939018127E+02  0.00000000000E+00 0. -1.
         11    1    1    2    0    0  0.48094523621E+02  0.16971658576E+02 -0.19172087357E+02  0.54485680052E+02  0.00000000000E+00 0.  1.
</event>
<event>
 7    1  0.6992302E-006  0.1026517E+03  0.7561462E-02  0.1274817E+00
          2   -1    0    0  501    0  0.00000000000E+00  0.00000000000E+00  0.18865158193E+03  0.18865158193E+03  0.00000000000E+00 0. -1.
         -2   -1    0    0    0  501 -0.00000000000E+00 -0.00000000000E+00 -0.63053741602E+02  0.63053741602E+02  0.00000000000E+00 0.  1.
         23    2    1    2    0    0 -0.14889124237E+02  0.16269272534E+02  0.42891332992E+02  0.13002214878E+03  0.12074650089E+03 0.  0.
          5    1    3    3  502    0  0.32603630802E+02 -0.35503123023E+02  0.33882402680E+02  0.59067403000E+02  0.41800000000E+01 0. -1.
         -5    1    3    3    0  502 -0.47492755039E+02  0.51772395556E+02  0.90089303117E+01  0.70954745776E+02  0.41800000000E+01 0.  1.
        -11    1    1    2    0    0  0.43342480823E+02 -0.32140564168E+02  0.65416121687E+02  0.84798912054E+02  0.00000000000E+00 0. -1.
         11    1    1    2    0    0 -0.28453356586E+02  0.15871291634E+02  0.17290385650E+02  0.36884262702E+02  0.00000000000E+00 0.  1.
</event>
<event>
 7    1  0.6992302E-006  0.1227113E+03  0.7561462E-02  0.1238690E+00
          1   -1    0    0  501    0  0.00000000000E+00  0.00000000000E+00  0.55245472420E+03  0.55245472420E+03  0.00000000000E+00 0. -1.
         -1   -1    0    0    0  501 -0.00000000000E+00 -0.00000000000E+00 -0.30955007817E+02  0.30955007817E+02  0.00000000000E+00 0.  1.
         23    2    1    2    0    0  0.63834835853E+02  0.18525987907E+02  0.22703861641E+03  0.26760172264E+03  0.12508417215E+03 0.  0.
          5    1    3    3  502    0  0.96878033395E+02  0.13813184976E+02  0.20552770464E+03  0.22767359796E+03  0.41800000000E+01 0.  1.
         -5    1    3    3    0  502 -0.33043197543E+02  0.47128029312E+01  0.21510911767E+02  0.39928124679E+02  0.41800000000E+01 0.  1.
        -11    1    1    2    0    0 -0.81151794157E+02  0.86513831881E+01  0.22108720053E+03  0.23566928176E+03  0.00000000000E+00 0. -1.
         11    1    1    2    0    0  0.17316958304E+02 -0.27177371095E+02  0.73373899444E+02  0.80138727617E+02  0.00000000000E+00 0.  1.
</event>
<event>
 7    1  0.8072546E-006  0.2765305E+03  0.7561462E-02  0.1097599E+00
          2   -1    0    0  501    0  0.00000000000E+00  0.00000000000E+00  0.34317747161E+03  0.34317747161E+03  0.00000000000E+00 0. -1.
         -2   -1    0    0    0  501 -0.00000000000E+00 -0.00000000000E+00 -0.27126199254E+03  0.27126199254E+03  0.00000000000E+00 0.  1.
         23    2    1    2    0    0  0.24690405268E+03 -0.97197816332E+02 -0.68330390724E+02  0.30120703997E+03  0.12509041489E+03 0.  0.
          5    1    3    3  502    0  0.25081946049E+03 -0.84378101908E+02 -0.37472097857E+02  0.26730450120E+03  0.41800000000E+01 0.  1.
         -5    1    3    3    0  502 -0.39154078101E+01 -0.12819714424E+02 -0.30858292866E+02  0.33902538767E+02  0.41800000000E+01 0.  1.
        -11    1    1    2    0    0 -0.14512414380E+03  0.19755098963E+02  0.10611547382E+03  0.18086396776E+03  0.00000000000E+00 0.  1.
         11    1    1    2    0    0 -0.10177990888E+03  0.77442717369E+02  0.34130395976E+02  0.13236845642E+03  0.00000000000E+00 0. -1.
</event>
<event>
 7    1  0.6992302E-006  0.1845261E+03  0.7561462E-02  0.1163493E+00
          2   -1    0    0  501    0  0.00000000000E+00  0.00000000000E+00  0.20467930947E+03  0.20467930947E+03  0.00000000000E+00 0. -1.
         -2   -1    0    0    0  501 -0.00000000000E+00 -0.00000000000E+00 -0.21630679644E+03  0.21630679644E+03  0.00000000000E+00 0.  1.
         23    2    1    2    0    0 -0.83034264923E+00  0.17572406497E+03 -0.46549708606E+02  0.22066753256E+03  0.12509055949E+03 0.  0.
          5    1    3    3  502    0 -0.40048239548E+02  0.75113368990E+02 -0.69763236025E+02  0.11013746498E+03  0.41800000000E+01 0. -1.
         -5    1    3    3    0  502  0.39217896898E+02  0.10061069598E+03  0.23213527418E+02  0.11053006758E+03  0.41800000000E+01 0. -1.
        -11    1    1    2    0    0  0.21583437273E+01 -0.81376952559E+02 -0.28923666376E+02  0.86391234116E+02  0.00000000000E+00 0.  1.
         11    1    1    2    0    0 -0.13280010780E+01 -0.94347112416E+02  0.63845888017E+02  0.11392733923E+03  0.00000000000E+00 0. -1.
</event>
<event>
 7    1  0.6992302E-006  0.8601127E+02  0.7561462E-02  0.1312809E+00
          1   -1    0    0  501    0  0.00000000000E+00  0.00000000000E+00  0.22556979386E+03  0.22556979386E+03  0.00000000000E+00 0. -1.
         -1   -1    0    0    0  501 -0.00000000000E+00 -0.00000000000E+00 -0.48543730723E+02  0.48543730723E+02  0.00000000000E+00 0.  1.
         23    2    1    2    0    0  0.15073034980E+02 -0.80968618757E+01  0.57602660743E+02  0.13877137830E+03  0.12508666337E+03 0.  0.
          5    1    3    3  502    0  0.20957033463E+02  0.47888108217E+02 -0.70862172309E+01  0.52916491143E+02  0.41800000000E+01 0. -1.
         -5    1    3    3    0  502 -0.58839984837E+01 -0.55984970093E+02  0.64688877974E+02  0.85854887153E+02  0.41800000000E+01 0. -1.
        -11    1    1    2    0    0  0.22168852533E+02 -0.65492583165E+01  0.52547180055E+02  0.57406941556E+02  0.00000000000E+00 0.  1.
         11    1    1    2    0    0 -0.37241887512E+02  0.14646120192E+02  0.66876222343E+02  0.77935204735E+02  0.00000000000E+00 0. -1.
</event>
<event>
 7    1  0.6992302E-006  0.1330163E+03  0.7561462E-02  0.1223047E+00
          1   -1    0    0  501    0  0.00000000000E+00  0.00000000000E+00  0.73141248824E+03  0.73141248824E+03  0.00000000000E+00 0. -1.
         -1   -1    0    0    0  501 -0.00000000000E+00 -0.00000000000E+00 -0.36925225611E+02  0.36925225611E+02  0.00000000000E+00 0.  1.
         23    2    1    2    0    0 -0.45790636189E+02  0.69358444024E+02  0.15933298761E+03  0.21895779994E+03  0.12509253013E+03 0.  0.
          5    1    3    3  502    0 -0.74281319288E+02  0.82305607162E+02  0.14893410905E+03  0.18571690446E+03  0.41800000000E+01 0.  1.
         -5    1    3    3    0  502  0.28490683099E+02 -0.12947163138E+02  0.10398878558E+02  0.33240895476E+02  0.41800000000E+01 0.  1.
        -11    1    1    2    0    0  0.71329320627E+02 -0.67006125229E+02  0.44593515554E+03  0.45654775845E+03  0.00000000000E+00 0.  1.
         11    1    1    2    0    0 -0.25538684439E+02 -0.23523187946E+01  0.89219119488E+02  0.92832155468E+02  0.00000000000E+00 0. -1.
</event>
<event>
 7    1  0.6992302E-006  0.7384078E+02  0.7561462E-02  0.1347499E+00
          1   -1    0    0  501    0  0.00000000000E+00  0.00000000000E+00  0.51603322894E+02  0.51603322894E+02  0.00000000000E+00 0. -1.
         -1   -1    0    0    0  501 -0.00000000000E+00 -0.00000000000E+00 -0.26855170036E+03  0.26855170036E+03  0.00000000000E+00 0.  1.
         23    2    1    2    0    0  0.40479522058E+01  0.38735509331E+02 -0.15423694961E+03  0.20237202928E+03  0.12509426849E+03 0.  0.
          5    1    3    3  502    0  0.28337626768E+02  0.55502992573E+02 -0.16022376879E+03  0.17196724037E+03  0.41800000000E+01 0.  1.
         -5    1    3    3    0  502 -0.24289674562E+02 -0.16767483242E+02  0.59868191802E+01  0.30404788907E+02  0.41800000000E+01 0.  1.
        -11    1    1    2    0    0 -0.89975974514E+01  0.57339557693E+01  0.20609861827E+02  0.23207787770E+02  0.00000000000E+00 0. -1.
         11    1    1    2    0    0  0.49496452456E+01 -0.44469465101E+02 -0.83321289679E+02  0.94575206202E+02  0.00000000000E+00 0.  1.
</event>
<event>
 7    1  0.6992302E-006  0.1466453E+03  0.7561462E-02  0.1204657E+00
         -2   -1    0    0    0  501 -0.00000000000E+00  0.00000000000E+00  0.30358873150E+02  0.30358873150E+02  0.00000000000E+00 0.  1.
          2   -1    0    0  501    0  0.00000000000E+00 -0.00000000000E+00 -0.10239977202E+04  0.10239977202E+04  0.00000000000E+00 0. -1.
         23    2    1    2    0    0 -0.58401255481E+02 -0.91841745967E+02 -0.26891107293E+03  0.31592115831E+03  0.12508956862E+03 0.  0.
          5    1    3    3  502    0  0.31080382106E+02 -0.17323805877E+02 -0.19868651291E+02  0.40967549427E+02  0.41800000000E+01 0.  1.
         -5    1    3    3    0  502 -0.89481637588E+02 -0.74517940090E+02 -0.24904242164E+03  0.27495360888E+03  0.41800000000E+01 0.  1.
        -11    1    1    2    0    0  0.51015595609E+02  0.22702089526E+01 -0.22879636096E+03  0.23442593635E+03  0.00000000000E+00 0. -1.
         11    1    1    2    0    0  0.73856598729E+01  0.89571537015E+02 -0.49593141312E+03  0.50400949866E+03  0.00000000000E+00 0.  1.
</event>
<event>
 6    1  0.6992302E-006  0.1203299E+03  0.7561462E-02  0.1242554E+00
          2   -1    0    0  501    0  0.00000000000E+00  0.00000000000E+00  0.89811535108E+02  0.89811535108E+02  0.00000000000E+00 0. -1.
         -2   -1    0    0    0  501 -0.00000000000E+00 -0.00000000000E+00 -0.39736833262E+03  0.39736833262E+03  0.00000000000E+00 0.  1.
          5    1    1    2  502    0  0.11542462508E+01 -0.46556405632E+02  0.46770293376E+02  0.66134438323E+02  0.41800000000E+01 0. -1.
         -5    1    1    2    0  502 -0.27597952920E+02  0.90036657858E+02 -0.26309210834E+03  0.27946945563E+03  0.41800000000E+01 0.  1.
        -11    1    1    2    0    0  0.46969929008E+02  0.47616369625E+01 -0.15944746976E+02  0.49830536559E+02  0.00000000000E+00 0.  1.
         11    1    1    2    0    0 -0.20526222339E+02 -0.48241889188E+02 -0.75290235572E+02  0.91745437208E+02  0.00000000000E+00 0. -1.
</event>
<event>
 7    1  0.6992302E-006  0.9821441E+02  0.7561462E-02  0.1284096E+00
         -3   -1    0    0    0  501 -0.00000000000E+00  0.00000000000E+00  0.21166942419E+03  0.21166942419E+03  0.00000000000E+00 0.  1.
          3   -1    0    0  501    0  0.00000000000E+00 -0.00000000000E+00 -0.80383570791E+02  0.80383570791E+02  0.00000000000E+00 0. -1.
         23    2    1    2    0    0 -0.67264322585E+02 -0.16814647479E+02  0.86651330900E+02  0.16722082291E+03  0.12508848471E+03 0.  0.
          5    1    3    3  502    0 -0.41026843163E+02 -0.32224694615E+02 -0.20157125691E+02  0.56083998779E+02  0.41800000000E+01 0. -1.
         -5    1    3    3    0  502 -0.26237479422E+02  0.15410047136E+02  0.10680845659E+03  0.11113682413E+03  0.41800000000E+01 0. -1.
        -11    1    1    2    0    0 -0.12996942706E+02 -0.20967531079E+02 -0.17440603848E+01  0.24730540347E+02  0.00000000000E+00 0. -1.
         11    1    1    2    0    0  0.80261265291E+02  0.37782178558E+02  0.46378582882E+02  0.10010163172E+03  0.00000000000E+00 0.  1.
</event>
<event>
 7    1  0.6992302E-006  0.1187644E+03  0.7561462E-02  0.1245149E+00
          3   -1    0    0  501    0  0.00000000000E+00  0.00000000000E+00  0.13129510679E+02  0.13129510679E+02  0.00000000000E+00 0. -1.
         -3   -1    0    0    0  501 -0.00000000000E+00 -0.00000000000E+00 -0.13406139387E+04  0.13406139387E+04  0.00000000000E+00 0.  1.
         23    2    1    2    0    0  0.17585584927E+02  0.69984560184E+02 -0.89030398593E+03  0.90193720830E+03  0.12506977612E+03 0.  0.
          5    1    3    3  502    0  0.57420823104E+02  0.59036125686E+02 -0.77518092857E+03  0.77955459044E+03  0.41800000000E+01 0.  1.
         -5    1    3    3    0  502 -0.39835238178E+02  0.10948434497E+02 -0.11512305736E+03  0.12238261786E+03  0.41800000000E+01 0.  1.
        -11    1    1    2    0    0 -0.53498001299E+02 -0.41593163649E+02 -0.28093380092E+03  0.28899105160E+03  0.00000000000E+00 0.  1.
         11    1    1    2    0    0  0.35912416372E+02 -0.28391396534E+02 -0.15624664120E+03  0.16281518950E+03  0.00000000000E+00 0. -1.
</event>
<event>
 7    1  0.6992302E-006  0.2518226E+03  0.7561462E-02  0.1112158E+00
         -1   -1    0    0    0  501 -0.00000000000E+00  0.00000000000E+00  0.14193776201E+03  0.14193776201E+03  0.00000000000E+00 0.  1.
          1   -1    0    0  501    0  0.00000000000E+00 -0.00000000000E+00 -0.50721139474E+03  0.50721139474E+03  0.00000000000E+00 0. -1.
         23    2    1    2    0    0 -0.14762668801E+03 -0.19457964843E+03 -0.14792902823E+03  0.31174626199E+03  0.12509139011E+03 0.  0.
          5    1    3    3  502    0 -0.59920213126E+02 -0.13221793480E+03 -0.23381916010E+02  0.14709249002E+03  0.41800000000E+01 0.  1.
         -5    1    3    3    0  502 -0.87706474881E+02 -0.62361713624E+02 -0.12454711222E+03  0.16465377197E+03  0.41800000000E+01 0.  1.
        -11    1    1    2    0    0  0.16932694063E+02  0.74942045084E+00 -0.41646225994E+02  0.44963161575E+02  0.00000000000E+00 0. -1.
         11    1    1    2    0    0  0.13069399394E+03  0.19383022798E+03 -0.17569837850E+03  0.29243973317E+03  0.00000000000E+00 0.  1.
</event>
<event>
 7    1  0.6992302E-006  0.2168480E+03  0.7561462E-02  0.1136255E+00
         -2   -1    0    0    0  501 -0.00000000000E+00  0.00000000000E+00  0.46561294496E+03  0.46561294496E+03  0.00000000000E+00 0.  1.
          2   -1    0    0  501    0  0.00000000000E+00 -0.00000000000E+00 -0.20332215305E+03  0.20332215305E+03  0.00000000000E+00 0. -1.
         23    2    1    2    0    0  0.57065211875E+02 -0.19293219897E+03  0.35652750168E+03  0.42806392412E+03  0.12509033485E+03 0.  0.
          5    1    3    3  502    0 -0.32151225580E+02 -0.53189344483E+02  0.51329663242E+02  0.80715639138E+02  0.41800000000E+01 0. -1.
         -5    1    3    3    0  502  0.89216437455E+02 -0.13974285449E+03  0.30519783844E+03  0.34734828498E+03  0.41800000000E+01 0. -1.
        -11    1    1    2    0    0 -0.20049655787E+02  0.18632716867E+02  0.15646537708E+02  0.31527463857E+02  0.00000000000E+00 0.  1.
         11    1    1    2    0    0 -0.37015556088E+02  0.17429948211E+03 -0.10988324748E+03  0.20934371003E+03  0.00000000000E+00 0. -1.
</event>
<event>
 7    1  0.6992302E-006  0.9113419E+02  0.7561462E-02  0.1300128E+00
         -2   -1    0    0    0  501 -0.00000000000E+00  0.00000000000E+00  0.19502080888E+03  0.19502080888E+03  0.00000000000E+00 0.  1.
          2   -1    0    0  501    0  0.00000000000E+00 -0.00000000000E+00 -0.85018948120E+02  0.85018948120E+02  0.00000000000E+00 0. -1.
         23    2    1    2    0    0 -0.35804353909E+02  0.41412238387E+02  0.11802738588E+03  0.17465029858E+03  0.11651325130E+03 0.  0.
          5    1    3    3  502    0 -0.50922360870E+02  0.30152460412E+02  0.45055475420E+01  0.59498151771E+02  0.41800000000E+01 0. -1.
         -5    1    3    3    0  502  0.15118006960E+02  0.11259777975E+02  0.11352183834E+03  0.11515214681E+03  0.41800000000E+01 0.  1.
        -11    1    1    2    0    0  0.22272133079E+02 -0.69215841250E+02 -0.13592396420E+02  0.73970492984E+02  0.00000000000E+00 0.  1.
         11    1    1    2    0    0  0.13532220830E+02  0.27803602863E+02  0.55668712917E+01  0.31418965431E+02  0.00000000000E+00 0. -1.
</event>
<event>
 7    1  0.6992302E-006  0.1336051E+03  0.7561462E-02  0.1222202E+00
          1   -1    0    0  501    0  0.00000000000E+00  0.00000000000E+00  0.53148826047E+03  0.53148826047E+03  0.00000000000E+00 0. -1.
         -1   -1    0    0    0  501 -0.00000000000E+00 -0.00000000000E+00 -0.35387142787E+02  0.35387142787E+02  0.00000000000E+00 0.  1.
         23    2    1    2    0    0  0.39987616633E+02 -0.73122497542E+02  0.25755136239E+03  0.29820372240E+03  0.12508735609E+03 0.  0.
          5    1    3    3  502    0 -0.44273315498E+02 -0.14838821611E+02  0.96411270097E+02  0.10720504883E+03  0.41800000000E+01 0.  1.
         -5    1    3    3    0  502  0.84260932130E+02 -0.58283675931E+02  0.16114009230E+03  0.19099867358E+03  0.41800000000E+01 0.  1.
        -11    1    1    2    0    0  0.22028786527E+02  0.44148459222E+02  0.61468013469E+02  0.78820495858E+02  0.00000000000E+00 0.  1.
         11    1    1    2    0    0 -0.62016403160E+02  0.28974038320E+02  0.17708174182E+03  0.18985118499E+03  0.00000000000E+00 0. -1.
</event>
<event>
 7    1  0.6992302E-006  0.9177259E+02  0.7561462E-02  0.1298615E+00
          2   -1    0    0  501    0  0.00000000000E+00  0.00000000000E+00  0.24829838667E+03  0.24829838667E+03  0.00000000000E+00 0. -1.
         -2   -1    0    0    0  501 -0.00000000000E+00 -0.00000000000E+00 -0.61338540462E+02  0.61338540462E+02  0.00000000000E+00 0.  1.
         23    2    1    2    0    0 -0.17067109225E+02 -0.12641233707E+01  0.32321649022E+02  0.13032642664E+03  0.12508958494E+03 0.  0.
          5    1    3    3  502    0  0.32270594195E+02  0.22264747887E+02 -0.28345482015E+02  0.48559746692E+02  0.41800000000E+01 0.  1.
         -5    1    3    3    0  502 -0.49337703420E+02 -0.23528871258E+02  0.60667131037E+02  0.81766679947E+02  0.41800000000E+01 0.  1.
        -11    1    1    2    0    0  0.38427206142E+02 -0.31836633655E+02  0.70140807144E+02  0.86081091078E+02  0.00000000000E+00 0.  1.
         11    1    1    2    0    0 -0.21360096917E+02  0.33100757025E+02  0.84497390045E+02  0.93229409418E+02  0.00000000000E+00 0. -1.
</event>
<event>
 7    1  0.6992302E-006  0.1106066E+03  0.7561462E-02  0.1259451E+00
         -3   -1    0    0    0  501 -0.00000000000E+00  0.00000000000E+00  0.12063831878E+03  0.12063831878E+03  0.00000000000E+00 0.  1.
          3   -1    0    0  501    0  0.00000000000E+00 -0.00000000000E+00 -0.19574974107E+03  0.19574974107E+03  0.00000000000E+00 0. -1.
         23    2    1    2    0    0  0.18321246199E+02 -0.99700528902E+02  0.63926008288E+00  0.16100815408E+03  0.12508938205E+03 0.  0.
          5    1    3    3  502    0  0.61826356582E+01 -0.55166468907E+02 -0.61845949778E+02  0.83210324956E+02  0.41800000000E+01 0. -1.
         -5    1    3    3    0  502  0.12138610541E+02 -0.44534059995E+02  0.62485209861E+02  0.77797829127E+02  0.41800000000E+01 0. -1.
        -11    1    1    2    0    0  0.12215663334E+02  0.83955275176E+02 -0.84693586937E+02  0.11987791427E+03  0.00000000000E+00 0. -1.
         11    1    1    2    0    0 -0.30536909533E+02  0.15745253725E+02  0.89429045677E+01  0.35501991505E+02  0.00000000000E+00 0.  1.
</event>
<event>
 7    1  0.6992302E-006  0.1581275E+03  0.7561462E-02  0.1190827E+00
         -2   -1    0    0    0  501 -0.00000000000E+00  0.00000000000E+00  0.34925324766E+02  0.34925324766E+02  0.00000000000E+00 0.  1.
          2   -1    0    0  501    0  0.00000000000E+00 -0.00000000000E+00 -0.93585548827E+03  0.93585548827E+03  0.00000000000E+00 0. -1.
         23    2    1    2    0    0  0.66509860676E+01 -0.14122031462E+03 -0.47687085772E+03  0.51287493860E+03  0.12508986700E+03 0.  0.
          5    1    3    3  502    0 -0.61875700186E+01 -0.14861294278E+02 -0.26707982116E+03  0.26759717368E+03  0.41800000000E+01 0. -1.
         -5    1    3    3    0  502  0.12838556086E+02 -0.12635902034E+03 -0.20979103656E+03  0.24527776492E+03  0.41800000000E+01 0. -1.
        -11    1    1    2    0    0 -0.52737541268E+02  0.82187290322E+02 -0.22819031025E+03  0.24820720506E+03  0.00000000000E+00 0.  1.
         11    1    1    2    0    0  0.46086555201E+02  0.59033024299E+02 -0.19586899553E+03  0.20969866938E+03  0.00000000000E+00 0. -1.
</event>
<event>
 7    1  0.6992302E-006  0.1640583E+03  0.7561462E-02  0.1184190E+00
         -2   -1    0    0    0  501 -0.00000000000E+00  0.00000000000E+00  0.32050241811E+02  0.32050241811E+02  0.00000000000E+00 0.  1.
          2   -1    0    0  501    0  0.00000000000E+00 -0.00000000000E+00 -0.10606866659E+04  0.10606866659E+04  0.00000000000E+00 0. -1.
         23    2    1    2    0    0 -0.12685861036E+03 -0.51933114615E+02 -0.37163335342E+03  0.41539002557E+03  0.12508944220E+03 0.  0.
          5    1    3    3  502    0 -0.10590015246E+03  0.10928921869E+02 -0.29681969499E+03  0.31536278689E+03  0.41800000000E+01 0.  1.
         -5    1    3    3    0  502 -0.20958457892E+02 -0.62862036484E+02 -0.74813658436E+02  0.10002723867E+03  0.41800000000E+01 0.  1.
        -11    1    1    2    0    0  0.36129825825E+01 -0.14654235489E+02 -0.19631038539E+02  0.24762429910E+02  0.00000000000E+00 0.  1.
         11    1    1    2    0    0  0.12324562777E+03  0.66587350105E+02 -0.63737203210E+03  0.65258445220E+03  0.00000000000E+00 0. -1.
</event>
<event>
 7    1  0.6992302E-006  0.1260981E+03  0.7561462E-02  0.1233363E+00
          2   -1    0    0  501    0  0.00000000000E+00  0.00000000000E+00  0.99538566149E+03  0.99538566149E+03  0.00000000000E+00 0. -1.
         -2   -1    0    0    0  501 -0.00000000000E+00 -0.00000000000E+00 -0.18888765351E+02  0.18888765351E+02  0.00000000000E+00 0.  1.
         23    2    1    2    0    0  0.81557065532E+02 -0.32787072844E+02  0.43530920711E+03  0.45861418578E+03  0.11448283070E+03 0.  0.
          5    1    3    3  502    0 -0.81215976549E+01 -0.36576503419E+02  0.48089392906E+02  0.61105343963E+02  0.41800000000E+01 0. -1.
         -5    1    3    3    0  502  0.89678663187E+02  0.37894305751E+01  0.38721981420E+03  0.39750884182E+03  0.41800000000E+01 0.  1.
        -11    1    1    2    0    0 -0.30419906983E+01  0.45068223207E+02  0.15865776124E+03  0.16496267352E+03  0.00000000000E+00 0.  1.
         11    1    1    2    0    0 -0.78515074834E+02 -0.12281150364E+02  0.38252992779E+03  0.39069756755E+03  0.00000000000E+00 0. -1.
</event>
<event>
 7    1  0.6992302E-006  0.1686621E+03  0.7561462E-02  0.1179250E+00
          2   -1    0    0  501    0  0.00000000000E+00  0.00000000000E+00  0.32333276362E+03  0.32333276362E+03  0.00000000000E+00 0. -1.
         -2   -1    0    0    0  501 -0.00000000000E+00 -0.00000000000E+00 -0.98347260530E+02  0.98347260530E+02  0.00000000000E+00 0.  1.
         23    2    1    2    0    0 -0.13418798067E+03 -0.44135811057E+02  0.11363801247E+03  0.22026169378E+03  0.12508889596E+03 0.  0.
          5    1    3    3  502    0 -0.84642580831E+01  0.25528305529E+02  0.61591437472E+02  0.67337327078E+02  0.41800000000E+01 0. -1.
         -5    1    3    3    0  502 -0.12572372259E+03 -0.69664116587E+02  0.52046575002E+02  0.15292436670E+03  0.41800000000E+01 0. -1.
        -11    1    1    2    0    0  0.17208579055E+02  0.46213356011E+02  0.45847333097E+02  0.67333404927E+02  0.00000000000E+00 0.  1.
         11    1    1    2    0    0  0.11697940162E+03 -0.20775449536E+01  0.65500157518E+02  0.13408492544E+03  0.00000000000E+00 0. -1.
</event>
<event>
 7    1  0.6992302E-006  0.1731488E+03  0.7561462E-02  0.1174603E+00
          2   -1    0    0  501    0  0.00000000000E+00  0.00000000000E+00  0.47230427448E+03  0.47230427448E+03  0.00000000000E+00 0. -1.
         -2   -1    0    0    0  501 -0.00000000000E+00 -0.00000000000E+00 -0.79688819878E+02  0.79688819878E+02  0.00000000000E+00 0.  1.
         23    2    1    2    0    0 -0.96510801185E+02  0.12853757659E+03  0.21885941877E+03  0.29897016766E+03  0.12508985821E+03 0.  0.
          5    1    3    3  502    0 -0.83350516561E+01  0.22766397569E+02 -0.14075429069E+02  0.28343818512E+02  0.41800000000E+01 0. -1.
         -5    1    3    3    0  502 -0.88175749528E+02  0.10577117902E+03  0.23293484784E+03  0.27062634915E+03  0.41800000000E+01 0. -1.
        -11    1    1    2    0    0  0.70669964825E+02 -0.21577749692E+02  0.69764811294E+02  0.10162171080E+03  0.00000000000E+00 0.  1.
         11    1    1    2    0    0  0.25840836359E+02 -0.10695982690E+03  0.10399122454E+03  0.15140121590E+03  0.00000000000E+00 0. -1.
</event>
<event>
 7    1  0.6992302E-006  0.1099101E+03  0.7561462E-02  0.1260737E+00
         -2   -1    0    0    0  501 -0.00000000000E+00  0.00000000000E+00  0.36404176958E+02  0.36404176958E+02  0.00000000000E+00 0.  1.
          2   -1    0    0  501    0  0.00000000000E+00 -0.00000000000E+00 -0.42791821644E+03  0.42791821644E+03  0.00000000000E+00 0. -1.
         23    2    1    2    0    0 -0.54419740801E+02 -0.10402106366E+01 -0.16189922643E+03  0.21170958071E+03  0.12508795633E+03 0.  0.
          5    1    3    3  502    0 -0.11505087257E+02 -0.56940526157E+02 -0.39377689491E+02  0.70304092210E+02  0.41800000000E+01 0.  1.
         -5    1    3    3    0  502 -0.42914653544E+02  0.55900315520E+02 -0.12252153694E+03  0.14140548850E+03  0.41800000000E+01 0.  1.
        -11    1    1    2    0    0  0.15942057167E+02 -0.34875281956E+02 -0.38329503316E+02  0.54217942626E+02  0.00000000000E+00 0.  1.
         11    1    1    2    0    0  0.38477683634E+02  0.35915492592E+02 -0.19128530974E+03  0.19839487007E+03  0.00000000000E+00 0. -1.
</event>
<event>
 7    1  0.6992302E-006  0.8631099E+02  0.7561462E-02  0.1312039E+00
         -3   -1    0    0    0  501 -0.00000000000E+00  0.00000000000E+00  0.11077769774E+03  0.11077769774E+03  0.00000000000E+00 0.  1.
          3   -1    0    0  501    0  0.00000000000E+00 -0.00000000000E+00 -0.13951892957E+03  0.13951892957E+03  0.00000000000E+00 0. -1.
         23    2    1    2    0    0  0.39865866150E+02 -0.18412603660E+02  0.25489813015E+02  0.13500309998E+03  0.12509114748E+03 0.  0.
          5    1    3    3  502    0  0.20210907535E+02 -0.66857741954E+02  0.39984744347E+02  0.80589643398E+02  0.41800000000E+01 0.  1.
         -5    1    3    3    0  502  0.19654958615E+02  0.48445138294E+02 -0.14494931332E+02  0.54413456578E+02  0.41800000000E+01 0.  1.
        -11    1    1    2    0    0 -0.35572306242E+02  0.47567172812E+01  0.19047186406E+02  0.40630169095E+02  0.00000000000E+00 0.  1.
         11    1    1    2    0    0 -0.42935599074E+01  0.13655886379E+02 -0.73278231243E+02  0.74663358239E+02  0.00000000000E+00 0. -1.
</event>
<event>
 7    1  0.6992302E-006  0.8829107E+02  0.7561462E-02  0.1307044E+00
          2   -1    0    0  501    0  0.00000000000E+00  0.00000000000E+00  0.18449256079E+03  0.18449256079E+03  0.00000000000E+00 0. -1.
         -2   -1    0    0    0  501 -0.00000000000E+00 -0.00000000000E+00 -0.75337100089E+02  0.75337100089E+02  0.00000000000E+00 0.  1.
         23    2    1    2    0    0 -0.37338548210E+02  0.51951674845E+01  0.33282663737E+02  0.13482404940E+03  0.12509449086E+03 0.  0.
          5    1    3    3  502    0  0.36670840639E+02  0.20468537608E+02 -0.15296187202E+02  0.44890503761E+02  0.41800000000E+01 0. -1.
         -5    1    3    3    0  502 -0.74009388849E+02 -0.15273370124E+02  0.48578850939E+02  0.89933545640E+02  0.41800000000E+01 0. -1.
        -11    1    1    2    0    0  0.33290267665E+02  0.16126776006E+02 -0.84425007273E+01  0.37941937801E+02  0.00000000000E+00 0.  1.
         11    1    1    2    0    0  0.40482805452E+01 -0.21321943490E+02  0.84315297690E+02  0.87063673677E+02  0.00000000000E+00 0. -1.
</event>
<event>
 7    1  0.6992302E-006  0.7247129E+02  0.7561462E-02  0.1351885E+00
          4   -1    0    0  501    0  0.00000000000E+00  0.00000000000E+00  0.13010804951E+03  0.13010804951E+03  0.00000000000E+00 0. -1.
         -4   -1    0    0    0  501 -0.00000000000E+00 -0.00000000000E+00 -0.11483469117E+03  0.11483469117E+03  0.00000000000E+00 0.  1.
         23    2    1    2    0    0 -0.41689528336E+02  0.36782462601E+02  0.25394009733E+02  0.13921212842E+03  0.12507675500E+03 0.  0.
          5    1    3    3  502    0 -0.32730736464E+02  0.40773731644E+01 -0.47921932677E+02  0.58325895731E+02  0.41800000000E+01 0.  1.
         -5    1    3    3    0  502 -0.89587918718E+01  0.32705089437E+02  0.73315942410E+02  0.80886232688E+02  0.41800000000E+01 0.  1.
        -11    1    1    2    0    0  0.35213397548E+02 -0.50959477694E+02 -0.38799047531E+02  0.73090476965E+02  0.00000000000E+00 0.  1.
         11    1    1    2    0    0  0.64761307879E+01  0.14177015092E+02  0.28678396139E+02  0.32640135294E+02  0.00000000000E+00 0. -1.
</event>
<event>
 7    1  0.6992302E-006  0.2781084E+03  0.7561462E-02  0.1096727E+00
          2   -1    0    0  501    0  0.00000000000E+00  0.00000000000E+00  0.74434594626E+03  0.74434594626E+03  0.00000000000E+00 0. -1.
         -2   -1    0    0    0  501 -0.00000000000E+00 -0.00000000000E+00 -0.11823735701E+03  0.11823735701E+03  0.00000000000E+00 0.  1.
         23    2    1    2    0    0  0.25940940920E+03 -0.63071718859E+02  0.42000428473E+03  0.51314999060E+03  0.12509208753E+03 0.  0.
          5    1    3    3  502    0  0.11097576427E+02  0.98188853084E+01  0.10188299881E+03  0.10303972320E+03  0.41800000000E+01 0. -1.
         -5    1    3    3    0  502  0.24831183277E+03 -0.72890604168E+02  0.31812128592E+03  0.41011026740E+03  0.41800000000E+01 0. -1.
        -11    1    1    2    0    0 -0.19586076322E+03  0.50191757673E+01  0.14890069930E+03  0.24608545050E+03  0.00000000000E+00 0.  1.
         11    1    1    2    0    0 -0.63548645975E+02  0.58052543092E+02  0.57203605222E+02  0.10334786217E+03  0.00000000000E+00 0. -1.
</event>
<event>
 7    1  0.6992302E-006  0.1152557E+03  0.7561462E-02  0.1251135E+00
          1   -1    0    0  501    0  0.00000000000E+00  0.00000000000E+00  0.28684791091E+03  0.28684791091E+03  0.00000000000E+00 0. -1.
         -1   -1    0    0    0  501 -0.00000000000E+00 -0.00000000000E+00 -0.68581531365E+02  0.68581531365E+02  0.00000000000E+00 0.  1.
         23    2    1    2    0    0 -0.67246550379E+02 -0.25985841524E+01  0.45623624786E+02  0.14919353912E+03  0.12509334834E+03 0.  0.
          5    1    3    3  502    0  0.22148616121E+02  0.37642934307E+02  0.15880112385E+02  0.46660497947E+02  0.41800000000E+01 0. -1.
         -5    1    3    3    0  502 -0.89395166500E+02 -0.40241518459E+02  0.29743512400E+02  0.10253304117E+03  0.41800000000E+01 0. -1.
        -11    1    1    2    0    0  0.43943117977E+01 -0.20940518596E+02  0.11732902485E+03  0.11926405732E+03  0.00000000000E+00 0. -1.
         11    1    1    2    0    0  0.62852238582E+02  0.23539102749E+02  0.55313729910E+02  0.86971845844E+02  0.00000000000E+00 0.  1.
</event>
<event>
 7    1  0.6992302E-006  0.1261493E+03  0.7561462E-02  0.1233284E+00
          1   -1    0    0  501    0  0.00000000000E+00  0.00000000000E+00  0.64446729111E+03  0.64446729111E+03  0.00000000000E+00 0. -1.
         -1   -1    0    0    0  501 -0.00000000000E+00 -0.00000000000E+00 -0.49237042155E+02  0.49237042155E+02  0.00000000000E+00 0.  1.
         23    2    1    2    0    0 -0.28062842012E+01  0.71056900638E+02  0.87360422273E+02  0.16833353073E+03  0.12508947130E+03 0.  0.
          5    1    3    3  502    0  0.41279850094E+02  0.63706363187E+01  0.79047079068E+02  0.89501531496E+02  0.41800000000E+01 0.  1.
         -5    1    3    3    0  502 -0.44086134295E+02  0.64686264320E+02  0.83133432046E+01  0.78831999238E+02  0.41800000000E+01 0.  1.
        -11    1    1    2    0    0 -0.53656629023E+02 -0.25645462046E+02  0.17926517818E+03  0.18887225225E+03  0.00000000000E+00 0.  1.
         11    1    1    2    0    0  0.56462913224E+02 -0.45411438592E+02  0.32860464850E+03  0.33649855028E+03  0.00000000000E+00 0. -1.
</event>
<event>
 7    1  0.6992302E-006  0.9479235E+02  0.7561462E-02  0.1291644E+00
         -2   -1    0    0    0  501 -0.00000000000E+00  0.00000000000E+00  0.56853187145E+02  0.56853187145E+02  0.00000000000E+00 0.  1.
          2   -1    0    0  501    0  0.00000000000E+00 -0.00000000000E+00 -0.24361128060E+03  0.24361128060E+03  0.00000000000E+00 0. -1.
         23    2    1    2    0    0  0.12062699412E+02  0.87932439794E+01 -0.51399702073E+02  0.13606497637E+03  0.12509563768E+03 0.  0.
          5    1    3    3  502    0  0.47585168671E+02 -0.21427541146E+02  0.15323449579E+02  0.54550603150E+02  0.41800000000E+01 0.  1.
         -5    1    3    3    0  502 -0.35522469258E+02  0.30220785126E+02 -0.66723151652E+02  0.81514373225E+02  0.41800000000E+01 0.  1.
        -11    1    1    2    0    0 -0.50914724311E+02 -0.80416513290E+01 -0.56460368289E+02  0.76450967915E+02  0.00000000000E+00 0. -1.
         11    1    1    2    0    0  0.38852024899E+02 -0.75159265035E+00 -0.78898023094E+02  0.87948523457E+02  0.00000000000E+00 0.  1.
</event>
<event>
 7    1  0.6992302E-006  0.1186939E+03  0.7561462E-02  0.1245267E+00
         -1   -1    0    0    0  501 -0.00000000000E+00  0.00000000000E+00  0.10927199016E+03  0.10927199016E+03  0.00000000000E+00 0.  1.
          1   -1    0    0  501    0  0.00000000000E+00 -0.00000000000E+00 -0.13187742273E+03  0.13187742273E+03  0.00000000000E+00 0. -1.
         23    2    1    2    0    0 -0.32696130477E+02 -0.18481363001E+02  0.48061355249E+01  0.13069588784E+03  0.12509084072E+03 0.  0.
          5    1    3    3  502    0 -0.59171721571E+02 -0.57854380322E+02  0.57056652780E+01  0.83056902015E+02  0.41800000000E+01 0.  1.
         -5    1    3    3    0  502  0.26475591094E+02  0.39373017321E+02 -0.89952975310E+00  0.47638985826E+02  0.41800000000E+01 0.  1.
        -11    1    1    2    0    0 -0.31980351162E+02 -0.13538391529E+02 -0.66617318340E+01  0.35361130874E+02  0.00000000000E+00 0.  1.
         11    1    1    2    0    0  0.64676481639E+02  0.32019754530E+02 -0.20749836260E+02  0.75092394170E+02  0.00000000000E+00 0. -1.
</event>
<event>
 7    1  0.6992302E-006  0.1050701E+03  0.7561462E-02  0.1269982E+00
          2   -1    0    0  501    0  0.00000000000E+00  0.00000000000E+00  0.36457569504E+03  0.36457569504E+03  0.00000000000E+00 0. -1.
         -2   -1    0    0    0  501 -0.00000000000E+00 -0.00000000000E+00 -0.39573108164E+02  0.39573108164E+02  0.00000000000E+00 0.  1.
         23    2    1    2    0    0 -0.45398376399E+02  0.27389592201E+02  0.17949115172E+03  0.22512011004E+03  0.12510310971E+03 0.  0.
          5    1    3    3  502    0 -0.82875564423E+02  0.19963566954E+02  0.74409970197E+02  0.11323082287E+03  0.41800000000E+01 0.  1.
         -5    1    3    3    0  502  0.37477188024E+02  0.74260252470E+01  0.10508118152E+03  0.11188928717E+03  0.41800000000E+01 0.  1.
        -11    1    1    2    0    0  0.59786915091E+02 -0.35805676263E+02  0.60157180268E+02  0.92061979158E+02  0.00000000000E+00 0.  1.
         11    1    1    2    0    0 -0.14388538692E+02  0.84160840615E+01  0.85354254896E+02  0.86966714009E+02  0.00000000000E+00 0. -1.
</event>
<event>
 7    1  0.6992302E-006  0.9759086E+02  0.7561462E-02  0.1285445E+00
          4   -1    0    0  501    0  0.00000000000E+00  0.00000000000E+00  0.26451479847E+02  0.26451479847E+02  0.00000000000E+00 0. -1.
         -4   -1    0    0    0  501 -0.00000000000E+00 -0.00000000000E+00 -0.68683816044E+03  0.68683816044E+03  0.00000000000E+00 0.  1.
         23    2    1    2    0    0  0.27174367926E+02  0.18777172984E+02 -0.55725943522E+03  0.57208163907E+03  0.12509314581E+03 0.  0.
          5    1    3    3  502    0  0.56249187994E+02  0.50546687544E+02 -0.45158378081E+03  0.45789116858E+03  0.41800000000E+01 0.  1.
         -5    1    3    3    0  502 -0.29074820068E+02 -0.31769514560E+02 -0.10567565440E+03  0.11419047049E+03  0.41800000000E+01 0.  1.
        -11    1    1    2    0    0 -0.45032324919E+02  0.62136941368E+01 -0.10059321111E+03  0.11038801748E+03  0.00000000000E+00 0.  1.
         11    1    1    2    0    0  0.17857956993E+02 -0.24990867120E+02 -0.25340342635E+01  0.30819983729E+02  0.00000000000E+00 0. -1.
</event>
<event>
 7    1  0.6992302E-006  0.1723378E+03  0.7561462E-02  0.1175432E+00
         -2   -1    0    0    0  501 -0.00000000000E+00  0.00000000000E+00  0.13676292545E+03  0.13676292545E+03  0.00000000000E+00 0. -1.
          2   -1    0    0  501    0  0.00000000000E+00 -0.00000000000E+00 -0.32151242351E+03  0.32151242351E+03  0.00000000000E+00 0.  1.
         23    2    1    2    0    0 -0.48706556243E+02  0.13684353023E+03  0.18345461235E+02  0.19256715190E+03  0.12508825548E+03 0.  0.
          5    1    3    3  502    0 -0.80033410639E+02  0.43157443532E+02  0.21931253716E+02  0.93628863286E+02  0.41800000000E+01 0.  1.
         -5    1    3    3    0  502  0.31326854396E+02  0.93686086695E+02 -0.35857924813E+01  0.98938288616E+02  0.41800000000E+01 0.  1.
        -11    1    1    2    0    0  0.58419457039E+02 -0.13101782440E+03 -0.13602925614E+03  0.19769284711E+03  0.00000000000E+00 0. -1.
         11    1    1    2    0    0 -0.97129007952E+01 -0.58257058261E+01 -0.67065703151E+02  0.68015349954E+02  0.00000000000E+00 0.  1.
</event>
<event>
 7    1  0.6992302E-006  0.2125144E+03  0.7561462E-02  0.1139590E+00
         -1   -1    0    0    0  501 -0.00000000000E+00  0.00000000000E+00  0.67072606332E+02  0.67072606332E+02  0.00000000000E+00 0.  1.
          1   -1    0    0  501    0  0.00000000000E+00 -0.00000000000E+00 -0.74477034052E+03  0.74477034052E+03  0.00000000000E+00 0. -1.
         23    2    1    2    0    0 -0.10621406584E+03 -0.15661178312E+03 -0.26790840734E+03  0.35104219407E+03  0.12508808456E+03 0.  0.
          5    1    3    3  502    0 -0.13252846315E+03 -0.11493250324E+03 -0.18890219455E+03  0.25782704542E+03  0.41800000000E+01 0.  1.
         -5    1    3    3    0  502  0.26314397315E+02 -0.41679279876E+02 -0.79006212795E+02  0.93215148647E+02  0.41800000000E+01 0.  1.
        -11    1    1    2    0    0  0.10004153348E+02  0.69763054062E+02 -0.80895754418E+02  0.10728974732E+03  0.00000000000E+00 0.  1.
         11    1    1    2    0    0  0.96209912491E+02  0.86848729056E+02 -0.32889357243E+03  0.35351100546E+03  0.00000000000E+00 0. -1.
</event>
<event>
 7    1  0.6992302E-006  0.1239414E+03  0.7561462E-02  0.1236733E+00
          3   -1    0    0  501    0  0.00000000000E+00  0.00000000000E+00  0.55913333240E+03  0.55913333240E+03  0.00000000000E+00 0. -1.
         -3   -1    0    0    0  501 -0.00000000000E+00 -0.00000000000E+00 -0.44329634054E+02  0.44329634054E+02  0.00000000000E+00 0.  1.
         23    2    1    2    0    0 -0.77957490048E+02  0.84261143324E+02  0.28055140546E+03  0.32792450152E+03  0.12509227419E+03 0.  0.
          5    1    3    3  502    0 -0.21960887166E+02  0.40243392273E+02  0.24295154297E+03  0.24727461621E+03  0.41800000000E+01 0.  1.
         -5    1    3    3    0  502 -0.55996602882E+02  0.44017751051E+02  0.37599862489E+02  0.80649885314E+02  0.41800000000E+01 0.  1.
        -11    1    1    2    0    0  0.82792722006E+02 -0.51763136500E+02  0.21803093490E+03  0.23889651670E+03  0.00000000000E+00 0.  1.
         11    1    1    2    0    0 -0.48352319574E+01 -0.32498006823E+02  0.16221357980E+02  0.36641948233E+02  0.00000000000E+00 0. -1.
</event>
<event>
 7    1  0.6992302E-006  0.9915746E+02  0.7561462E-02  0.1282078E+00
          2   -1    0    0  501    0  0.00000000000E+00  0.00000000000E+00  0.21490513066E+03  0.21490513066E+03  0.00000000000E+00 0. -1.
         -2   -1    0    0    0  501 -0.00000000000E+00 -0.00000000000E+00 -0.80500541847E+02  0.80500541847E+02  0.00000000000E+00 0.  1.
         23    2    1    2    0    0 -0.41141950191E+02 -0.14472156023E+02  0.65983287126E+01  0.13263938440E+03  0.12509022739E+03 0.  0.
          5    1    3    3  502    0 -0.15515877822E+02  0.38096648872E+02 -0.40164473631E+02  0.57643338400E+02  0.41800000000E+01 0.  1.
         -5    1    3    3    0  502 -0.25626072369E+02 -0.52568804895E+02  0.46762802343E+02  0.74996046003E+02  0.41800000000E+01 0.  1.
        -11    1    1    2    0    0  0.69127432546E+02  0.77952935676E+01  0.10545558830E+03  0.12633388159E+03  0.00000000000E+00 0. -1.
         11    1    1    2    0    0 -0.27985482355E+02  0.66768624553E+01  0.22350671795E+02  0.36432406516E+02  0.00000000000E+00 0.  1.
</event>
<event>
 7    1  0.6992302E-006  0.1843325E+03  0.7561462E-02  0.1163675E+00
         -1   -1    0    0    0  501 -0.00000000000E+00  0.00000000000E+00  0.57922370051E+03  0.57922370051E+03  0.00000000000E+00 0. -1.
          1   -1    0    0  501    0  0.00000000000E+00 -0.00000000000E+00 -0.67071561853E+02  0.67071561853E+02  0.00000000000E+00 0.  1.
         23    2    1    2    0    0  0.13147333951E+03 -0.94444568002E+02  0.31351790016E+03  0.37436412343E+03  0.12509999105E+03 0.  0.
          5    1    3    3  502    0  0.10203098996E+03 -0.12368830920E+03  0.27027567388E+03  0.31428575061E+03  0.41800000000E+01 0.  1.
         -5    1    3    3    0  502  0.29442349549E+02  0.29243741201E+02  0.43242226287E+02  0.60078372820E+02  0.41800000000E+01 0.  1.
        -11    1    1    2    0    0 -0.45833117292E+02  0.56873996385E+02  0.29723267507E+02  0.78859360490E+02  0.00000000000E+00 0.  1.
         11    1    1    2    0    0 -0.85640222216E+02  0.37570571616E+02  0.16891097098E+03  0.19307177844E+03  0.00000000000E+00 0. -1.
</event>
<event>
 7    1  0.6992302E-006  0.1436620E+03  0.7561462E-02  0.1208485E+00
          4   -1    0    0  501    0  0.00000000000E+00  0.00000000000E+00  0.61062483699E+02  0.61062483699E+02  0.00000000000E+00 0.  1.
         -4   -1    0    0    0  501 -0.00000000000E+00 -0.00000000000E+00 -0.45471332694E+03  0.45471332694E+03  0.00000000000E+00 0. -1.
         23    2    1    2    0    0 -0.87959872215E+02  0.87623358500E+02 -0.24216258802E+03  0.29950735971E+03  0.12508855826E+03 0.  0.
          5    1    3    3  502    0 -0.77566261855E+02  0.10685289136E+03 -0.24369689113E+03  0.27719977005E+03  0.41800000000E+01 0.  1.
         -5    1    3    3    0  502 -0.10393610361E+02 -0.19229532860E+02  0.15343031052E+01  0.22307589658E+02  0.41800000000E+01 0.  1.
        -11    1    1    2    0    0  0.88254350074E+02 -0.63224057902E+02 -0.65292753192E+02  0.12668565595E+03  0.00000000000E+00 0.  1.
         11    1    1    2    0    0 -0.29447785841E+00 -0.24399300598E+02 -0.86195502020E+02  0.89582794975E+02  0.00000000000E+00 0. -1.
</event>
<event>
 7    1  0.6992302E-006  0.1177261E+03  0.7561462E-02  0.1246896E+00
         -2   -1    0    0    0  501 -0.00000000000E+00  0.00000000000E+00  0.11517408684E+03  0.11517408684E+03  0.00000000000E+00 0.  1.
          2   -1    0    0  501    0  0.00000000000E+00 -0.00000000000E+00 -0.13333966434E+03  0.13333966434E+03  0.00000000000E+00 0. -1.
         23    2    1    2    0    0 -0.33139556036E+02  0.51874017011E+02  0.59245121450E+01  0.13954099658E+03  0.12508975204E+03 0.  0.
          5    1    3    3  502    0  0.29766051697E+02  0.67979417085E+02  0.20426220367E+01  0.74356329157E+02  0.41800000000E+01 0.  1.
         -5    1    3    3    0  502 -0.62905607733E+02 -0.16105400074E+02  0.38818901084E+01  0.65184667420E+02  0.41800000000E+01 0.  1.
        -11    1    1    2    0    0  0.25920484963E+02  0.14222085940E+02  0.13600226974E+02  0.32543900242E+02  0.00000000000E+00 0.  1.
         11    1    1    2    0    0  0.72190710725E+01 -0.66096102951E+02 -0.37690316624E+02  0.76428854366E+02  0.00000000000E+00 0. -1.
</event>
<event>
 7    1  0.6992302E-006  0.9329269E+02  0.7561462E-02  0.1295068E+00
         -2   -1    0    0    0  501 -0.00000000000E+00  0.00000000000E+00  0.62830938215E+02  0.62830938215E+02  0.00000000000E+00 0. -1.
          2   -1    0    0  501    0  0.00000000000E+00 -0.00000000000E+00 -0.23675231240E+03  0.23675231240E+03  0.00000000000E+00 0.  1.
         23    2    1    2    0    0  0.36790384516E+02  0.27978575223E+02 -0.10581571460E+03  0.17023984761E+03  0.12509319403E+03 0.  0.
          5    1    3    3  502    0 -0.30444903301E+02  0.31933524528E+02  0.49437806089E+00  0.44321089060E+02  0.41800000000E+01 0.  1.
         -5    1    3    3    0  502  0.67235287817E+02 -0.39549493058E+01 -0.10631009267E+03  0.12591875855E+03  0.41800000000E+01 0.  1.
        -11    1    1    2    0    0 -0.13278622904E+02  0.18457013531E+02 -0.73574930761E+02  0.77008139902E+02  0.00000000000E+00 0.  1.
         11    1    1    2    0    0 -0.23511761612E+02 -0.46435588754E+02  0.54692711796E+01  0.52335263105E+02  0.00000000000E+00 0. -1.
</event>
<event>
 7    1  0.6992302E-006  0.6697996E+02  0.7561462E-02  0.1370675E+00
         -2   -1    0    0    0  501 -0.00000000000E+00  0.00000000000E+00  0.96683738440E+02  0.96683738440E+02  0.00000000000E+00 0.  1.
          2   -1    0    0  501    0  0.00000000000E+00 -0.00000000000E+00 -0.15618416407E+03  0.15618416407E+03  0.00000000000E+00 0. -1.
         23    2    1    2    0    0  0.24837773937E+02  0.67997717784E+01  0.23617084506E+02  0.12988338874E+03  0.12509506816E+03 0.  0.
          5    1    3    3  502    0  0.25457523415E+02 -0.21764971199E+02 -0.44526778026E+02  0.55874017496E+02  0.41800000000E+01 0.  1.
         -5    1    3    3    0  502 -0.61974947730E+00  0.28564742977E+02  0.68143862533E+02  0.74009371242E+02  0.41800000000E+01 0.  1.
        -11    1    1    2    0    0  0.22188332970E+02  0.52183000199E+01 -0.68652373024E+02  0.72337411461E+02  0.00000000000E+00 0. -1.
         11    1    1    2    0    0 -0.47026106908E+02 -0.12018071798E+02 -0.14465137110E+02  0.50647102309E+02  0.00000000000E+00 0.  1.
</event>
<event>
 7    1  0.6992302E-006  0.7978427E+02  0.7561462E-02  0.1329665E+00
          2   -1    0    0  501    0  0.00000000000E+00  0.00000000000E+00  0.67458803730E+03  0.67458803730E+03  0.00000000000E+00 0. -1.
         -2   -1    0    0    0  501 -0.00000000000E+00 -0.00000000000E+00 -0.31135694020E+02  0.31135694020E+02  0.00000000000E+00 0.  1.
         23    2    1    2    0    0 -0.16912339120E+02 -0.49468807361E+02  0.15426200073E+03  0.20536626438E+03  0.12508136376E+03 0.  0.
          5    1    3    3  502    0 -0.80060051123E+01 -0.29654326884E+01  0.15744067178E+03  0.15772738329E+03  0.41800000000E+01 0. -1.
         -5    1    3    3    0  502 -0.89063340080E+01 -0.46503374672E+02 -0.31786710565E+01  0.47638881085E+02  0.41800000000E+01 0. -1.
        -11    1    1    2    0    0  0.16524986618E+02 -0.23956775572E+02  0.93949884468E+02  0.98354374941E+02  0.00000000000E+00 0. -1.
         11    1    1    2    0    0  0.38735250198E+00  0.73425582933E+02  0.39524045809E+03  0.40200309200E+03  0.00000000000E+00 0.  1.
</event>
<event>
 7    1  0.6992302E-006  0.1594019E+03  0.7561462E-02  0.1189374E+00
         -2   -1    0    0    0  501 -0.00000000000E+00  0.00000000000E+00  0.42691391015E+02  0.42691391015E+02  0.00000000000E+00 0.  1.
          2   -1    0    0  501    0  0.00000000000E+00 -0.00000000000E+00 -0.86530599912E+03  0.86530599912E+03  0.00000000000E+00 0. -1.
         23    2    1    2    0    0  0.13967537990E+03  0.25324494905E+02 -0.59472182518E+03  0.62409320253E+03  0.12509090421E+03 0.  0.
          5    1    3    3  502    0  0.13429252494E+03  0.50334206710E+02 -0.57168486854E+03  0.58941418030E+03  0.41800000000E+01 0.  1.
         -5    1    3    3    0  502  0.53828549621E+01 -0.25009711805E+02 -0.23036956635E+02  0.34679022234E+02  0.41800000000E+01 0.  1.
        -11    1    1    2    0    0 -0.17074009166E+02 -0.20541632992E+02 -0.19315868382E+01  0.26780804743E+02  0.00000000000E+00 0.  1.
         11    1    1    2    0    0 -0.12260137073E+03 -0.47828619130E+01 -0.22596119609E+03  0.25712338286E+03  0.00000000000E+00 0. -1.
</event>
<event>
 7    1  0.6992302E-006  0.8287890E+02  0.7561462E-02  0.1321075E+00
          2   -1    0    0  501    0  0.00000000000E+00  0.00000000000E+00  0.75192087433E+02  0.75192087433E+02  0.00000000000E+00 0. -1.
         -2   -1    0    0    0  501 -0.00000000000E+00 -0.00000000000E+00 -0.21302550134E+03  0.21302550134E+03  0.00000000000E+00 0.  1.
         23    2    1    2    0    0  0.63938950000E+02  0.47135523075E+01 -0.73707583765E+02  0.15871531836E+03  0.12508931799E+03 0.  0.
          5    1    3    3  502    0  0.46780806026E+02  0.12362308847E+02 -0.10854533571E+03  0.11891523366E+03  0.41800000000E+01 0.  1.
         -5    1    3    3    0  502  0.17158143974E+02 -0.76487565391E+01  0.34837751946E+02  0.39800084696E+02  0.41800000000E+01 0.  1.
        -11    1    1    2    0    0 -0.75223568702E+02 -0.21029285323E+02 -0.19261444786E+02  0.80447618887E+02  0.00000000000E+00 0.  1.
         11    1    1    2    0    0  0.11284618702E+02  0.16315733015E+02 -0.44864385359E+02  0.49054651530E+02  0.00000000000E+00 0. -1.
</event>
<event>
 7    1  0.6992302E-006  0.1132768E+03  0.7561462E-02  0.1254619E+00
         -1   -1    0    0    0  501 -0.00000000000E+00  0.00000000000E+00  0.29443953892E+02  0.29443953892E+02  0.00000000000E+00 0.  1.
          1   -1    0    0  501    0  0.00000000000E+00 -0.00000000000E+00 -0.50089208626E+03  0.50089208626E+03  0.00000000000E+00 0. -1.
         23    2    1    2    0    0  0.83620827721E+00  0.47715028984E+02 -0.20565968713E+03  0.24540211330E+03  0.12509543182E+03 0.  0.
          5    1    3    3  502    0  0.53106430107E+02  0.24265505559E+00 -0.13628212125E+03  0.14632375328E+03  0.41800000000E+01 0.  1.
         -5    1    3    3    0  502 -0.52270221829E+02  0.47472373928E+02 -0.69377565880E+02  0.99078360018E+02  0.41800000000E+01 0.  1.
        -11    1    1    2    0    0  0.35967481352E+01  0.27232974282E+02 -0.77823335742E+02  0.82529043806E+02  0.00000000000E+00 0.  1.
         11    1    1    2    0    0 -0.44329564124E+01 -0.74948003265E+02 -0.18796510949E+03  0.20240488305E+03  0.00000000000E+00 0. -1.
</event>
<event>
 7    1  0.6992302E-006  0.1110823E+03  0.7561462E-02  0.1258579E+00
          4   -1    0    0  501    0  0.00000000000E+00  0.00000000000E+00  0.12136676334E+03  0.12136676334E+03  0.00000000000E+00 0. -1.
         -4   -1    0    0    0  501 -0.00000000000E+00 -0.00000000000E+00 -0.10956998959E+03  0.10956998959E+03  0.00000000000E+00 0.  1.
         23    2    1    2    0    0 -0.23520308355E+02  0.18814204320E+02 -0.10295325216E+02  0.12907125125E+03  0.12508483117E+03 0.  0.
          5    1    3    3  502    0  0.15645624776E+02 -0.48070811505E+02 -0.84768839091E+01  0.51428770685E+02  0.41800000000E+01 0. -1.
         -5    1    3    3    0  502 -0.39165933131E+02  0.66885015825E+02 -0.18184413064E+01  0.77642480568E+02  0.41800000000E+01 0. -1.
        -11    1    1    2    0    0  0.21696521425E+02  0.34346891367E+02  0.26478029420E+02  0.48492618309E+02  0.00000000000E+00 0. -1.
         11    1    1    2    0    0  0.18237869304E+01 -0.53161095687E+02 -0.43859304554E+01  0.53372883371E+02  0.00000000000E+00 0.  1.
</event>
<event>
 7    1  0.6992302E-006  0.1204105E+03  0.7561462E-02  0.1242421E+00
          3   -1    0    0  501    0  0.00000000000E+00  0.00000000000E+00  0.34848436270E+02  0.34848436270E+02  0.00000000000E+00 0. -1.
         -3   -1    0    0    0  501 -0.00000000000E+00 -0.00000000000E+00 -0.59978847159E+03  0.59978847159E+03  0.00000000000E+00 0.  1.
         23    2    1    2    0    0  0.90732628436E+02 -0.11949793938E+02 -0.31409867939E+03  0.35025100222E+03  0.12507028711E+03 0.  0.
          5    1    3    3  502    0  0.73942945203E+02 -0.52133294284E+02 -0.11489871196E+03  0.14630319863E+03  0.41800000000E+01 0. -1.
         -5    1    3    3    0  502  0.16789683233E+02  0.40183500346E+02 -0.19919996743E+03  0.20394780359E+03  0.41800000000E+01 0. -1.
        -11    1    1    2    0    0 -0.85683488347E+02 -0.78737460270E+01 -0.24946047159E+03  0.26388289626E+03  0.00000000000E+00 0.  1.
         11    1    1    2    0    0 -0.50491400884E+01  0.19823539965E+02 -0.13808843371E+01  0.20503009387E+02  0.00000000000E+00 0. -1.
</event>
<event>
 7    1  0.6992302E-006  0.1082276E+03  0.7561462E-02  0.1263888E+00
         -3   -1    0    0    0  501 -0.00000000000E+00  0.00000000000E+00  0.15948572694E+03  0.15948572694E+03  0.00000000000E+00 0.  1.
          3   -1    0    0  501    0  0.00000000000E+00 -0.00000000000E+00 -0.97172717509E+02  0.97172717509E+02  0.00000000000E+00 0. -1.
         23    2    1    2    0    0  0.14893261179E+02 -0.11900195981E+02  0.94788694098E+02  0.15809957689E+03  0.12508859176E+03 0.  0.
          5    1    3    3  502    0  0.28974704389E+02  0.51517970233E+02  0.59842878849E+02  0.84215659472E+02  0.41800000000E+01 0.  1.
         -5    1    3    3    0  502 -0.14081443210E+02 -0.63418166214E+02  0.34945815249E+02  0.73883917413E+02  0.41800000000E+01 0.  1.
        -11    1    1    2    0    0 -0.17671128578E+02 -0.38114581423E+02 -0.78412674976E+01  0.42737285574E+02  0.00000000000E+00 0. -1.
         11    1    1    2    0    0  0.27778673990E+01  0.50014777404E+02 -0.24634417173E+02  0.55821581987E+02  0.00000000000E+00 0.  1.
</event>
<event>
 7    1  0.6992302E-006  0.1018091E+03  0.7561462E-02  0.1276537E+00
         -2   -1    0    0    0  501 -0.00000000000E+00  0.00000000000E+00  0.14215422247E+03  0.14215422247E+03  0.00000000000E+00 0. -1.
          2   -1    0    0  501    0  0.00000000000E+00 -0.00000000000E+00 -0.10591739607E+03  0.10591739607E+03  0.00000000000E+00 0.  1.
         23    2    1    2    0    0 -0.61094134479E+01  0.56961024364E+02  0.27004946517E+02  0.14022024022E+03  0.12510221981E+03 0.  0.
          5    1    3    3  502    0 -0.12016983781E+02 -0.21810680123E+02 -0.32556196615E+02  0.41200631120E+02  0.41800000000E+01 0. -1.
         -5    1    3    3    0  502  0.59075703334E+01  0.78771704487E+02  0.59561143132E+02  0.99019609100E+02  0.41800000000E+01 0. -1.
        -11    1    1    2    0    0 -0.34722704108E+02 -0.82243028503E+01 -0.16433613664E+02  0.39285735274E+02  0.00000000000E+00 0.  1.
         11    1    1    2    0    0  0.40832117556E+02 -0.48736721514E+02  0.25665493539E+02  0.68565643048E+02  0.00000000000E+00 0. -1.
</event>
<event>
 7    1  0.6992302E-006  0.1821317E+03  0.7561462E-02  0.1165756E+00
         -2   -1    0    0    0  501 -0.00000000000E+00  0.00000000000E+00  0.51846501401E+02  0.51846501401E+02  0.00000000000E+00 0.  1.
          2   -1    0    0  501    0  0.00000000000E+00 -0.00000000000E+00 -0.92515292219E+03  0.92515292219E+03  0.00000000000E+00 0. -1.
         23    2    1    2    0    0  0.16195798459E+03  0.47857924490E+02 -0.64642588422E+03  0.67973108899E+03  0.12508860792E+03 0.  0.
          5    1    3    3  502    0  0.44806334393E+02 -0.42913061070E+01 -0.41556429533E+02  0.61403844712E+02  0.41800000000E+01 0.  1.
         -5    1    3    3    0  502  0.11715165020E+03  0.52149230597E+02 -0.60486945469E+03  0.61832724427E+03  0.41800000000E+01 0.  1.
        -11    1    1    2    0    0 -0.79116176518E+01  0.20686709200E+02 -0.38796600255E+02  0.44673368160E+02  0.00000000000E+00 0. -1.
         11    1    1    2    0    0 -0.15404636694E+03 -0.68544633689E+02 -0.18808393631E+03  0.25259496644E+03  0.00000000000E+00 0.  1.
</event>
<event>
 7    1  0.6992302E-006  0.1142490E+03  0.7561462E-02  0.1252898E+00
          2   -1    0    0  501    0  0.00000000000E+00  0.00000000000E+00  0.57645791854E+03  0.57645791854E+03  0.00000000000E+00 0.  1.
         -2   -1    0    0    0  501 -0.00000000000E+00 -0.00000000000E+00 -0.28584824004E+02  0.28584824004E+02  0.00000000000E+00 0. -1.
         23    2    1    2    0    0 -0.23127389279E+02  0.52001048931E+02  0.21602622532E+03  0.25603497987E+03  0.12509035000E+03 0.  0.
          5    1    3    3  502    0 -0.51508580238E+02  0.80992906019E+02  0.16192657296E+03  0.18828348863E+03  0.41800000000E+01 0.  1.
         -5    1    3    3    0  502  0.28381190959E+02 -0.28991857088E+02  0.54099652369E+02  0.67751491232E+02  0.41800000000E+01 0.  1.
        -11    1    1    2    0    0  0.49071104919E+02 -0.38618256145E+02  0.29726095834E+03  0.30374894305E+03  0.00000000000E+00 0.  1.
         11    1    1    2    0    0 -0.25943715640E+02 -0.13382792786E+02  0.34585910866E+02  0.45258819632E+02  0.00000000000E+00 0. -1.
</event>
<event>
 7    1  0.6992302E-006  0.1167265E+03  0.7561462E-02  0.1248597E+00
          1   -1    0    0  501    0  0.00000000000E+00  0.00000000000E+00  0.37067760814E+03  0.37067760814E+03  0.00000000000E+00 0. -1.
         -1   -1    0    0    0  501 -0.00000000000E+00 -0.00000000000E+00 -0.74668405991E+02  0.74668405991E+02  0.00000000000E+00 0.  1.
         23    2    1    2    0    0  0.87319602673E+02  0.64654782235E+02  0.73534853276E+02  0.18128767754E+03  0.12511152427E+03 0.  0.
          5    1    3    3  502    0  0.67965773827E+02  0.64862796237E+02 -0.10798863183E+02  0.94660533453E+02  0.41800000000E+01 0.  1.
         -5    1    3    3    0  502  0.19353828846E+02 -0.20801400145E+00  0.84333716459E+02  0.86627144087E+02  0.41800000000E+01 0.  1.
        -11    1    1    2    0    0 -0.16506658393E+02  0.78351502391E+01 -0.13911395396E+01  0.18324699719E+02  0.00000000000E+00 0.  1.
         11    1    1    2    0    0 -0.70812944280E+02 -0.72489932475E+02  0.22386548841E+03  0.24573363687E+03  0.00000000000E+00 0. -1.
</event>
<event>
 7    1  0.6992302E-006  0.1161578E+03  0.7561462E-02  0.1249573E+00
          2   -1    0    0  501    0  0.00000000000E+00  0.00000000000E+00  0.10351825370E+04  0.10351825370E+04  0.00000000000E+00 0. -1.
         -2   -1    0    0    0  501 -0.00000000000E+00 -0.00000000000E+00 -0.17473121627E+02  0.17473121627E+02  0.00000000000E+00 0.  1.
         23    2    1    2    0    0 -0.14869023153E+02  0.78473207352E+02  0.53425241733E+03  0.55448537702E+03  0.12509698553E+03 0.  0.
          5    1    3    3  502    0  0.26959375820E+02  0.19109633735E+01  0.22734291553E+02  0.35563747525E+02  0.41800000000E+01 0. -1.
         -5    1    3    3    0  502 -0.41828398973E+02  0.76562243979E+02  0.51151812578E+03  0.51892162950E+03  0.41800000000E+01 0. -1.
        -11    1    1    2    0    0  0.49775515499E+02 -0.60555571332E+02  0.36710395468E+03  0.37537966475E+03  0.00000000000E+00 0. -1.
         11    1    1    2    0    0 -0.34906492346E+02 -0.17917636020E+02  0.11635304335E+03  0.12279061684E+03  0.00000000000E+00 0.  1.
</event>
<event>
 7    1  0.6992302E-006  0.3003387E+03  0.7561462E-02  0.1085071E+00
         -1   -1    0    0    0  501 -0.00000000000E+00  0.00000000000E+00  0.15497097466E+03  0.15497097466E+03  0.00000000000E+00 0.  1.
          1   -1    0    0  501    0  0.00000000000E+00 -0.00000000000E+00 -0.67942931972E+03  0.67942931972E+03  0.00000000000E+00 0. -1.
         23    2    1    2    0    0  0.29325339671E+03 -0.26955114008E+02 -0.15587034385E+03  0.35386674928E+03  0.11917205756E+03 0.  0.
          5    1    3    3  502    0  0.14919025369E+03 -0.35995358390E+02 -0.14142533595E+03  0.20873906120E+03  0.41800000000E+01 0. -1.
         -5    1    3    3    0  502  0.14406314302E+03  0.90402443820E+01 -0.14445007900E+02  0.14512768808E+03  0.41800000000E+01 0.  1.
        -11    1    1    2    0    0 -0.25957499312E+03  0.46641662115E+02 -0.34731832507E+03  0.43610164025E+03  0.00000000000E+00 0. -1.
         11    1    1    2    0    0 -0.33678403587E+02 -0.19686548107E+02 -0.21269676141E+02  0.44431904840E+02  0.00000000000E+00 0.  1.
</event>
<event>
 7    1  0.1059852E-005  0.1408361E+03  0.7561462E-02  0.1212208E+00
          1   -1    0    0  501    0  0.00000000000E+00  0.00000000000E+00  0.35159423989E+03  0.35159423989E+03  0.00000000000E+00 0. -1.
         -1   -1    0    0    0  501 -0.00000000000E+00 -0.00000000000E+00 -0.62557844168E+02  0.62557844168E+02  0.00000000000E+00 0.  1.
         23    2    1    2    0    0  0.81671867219E+02  0.56388972414E+02  0.13220714381E+03  0.20730770397E+03  0.12509094750E+03 0.  0.
          5    1    3    3  502    0  0.36333296945E+02 -0.31479909929E+02  0.84813175641E+02  0.97579917802E+02  0.41800000000E+01 0. -1.
         -5    1    3    3    0  502  0.45338570274E+02  0.87868882343E+02  0.47393968166E+02  0.10972778617E+03  0.41800000000E+01 0. -1.
        -11    1    1    2    0    0 -0.29032201472E+02 -0.73560749081E+02  0.10014021164E+03  0.12760138916E+03  0.00000000000E+00 0. -1.
         11    1    1    2    0    0 -0.52639665747E+02  0.17171776667E+02  0.56689040267E+02  0.79242990922E+02  0.00000000000E+00 0.  1.
</event>
<event>
 7    1  0.6992302E-006  0.1013196E+03  0.7561462E-02  0.1277545E+00
         -1   -1    0    0    0  501 -0.00000000000E+00  0.00000000000E+00  0.14799604108E+03  0.14799604108E+03  0.00000000000E+00 0.  1.
          1   -1    0    0  501    0  0.00000000000E+00 -0.00000000000E+00 -0.92958118380E+02  0.92958118380E+02  0.00000000000E+00 0. -1.
         23    2    1    2    0    0 -0.30019079691E+02  0.31881345813E+02  0.17170027820E+02  0.13364440062E+03  0.12509376725E+03 0.  0.
          5    1    3    3  502    0 -0.53885032650E+02 -0.32930240109E+02  0.10136141689E+02  0.64095329203E+02  0.41800000000E+01 0.  1.
         -5    1    3    3    0  502  0.23865952959E+02  0.64811585922E+02  0.70338861308E+01  0.69549071413E+02  0.41800000000E+01 0.  1.
        -11    1    1    2    0    0  0.37689684473E+00 -0.39540500511E+02  0.58341467149E+02  0.70479216944E+02  0.00000000000E+00 0.  1.
         11    1    1    2    0    0  0.29642182847E+02  0.76591546983E+01 -0.20473572274E+02  0.36830541895E+02  0.00000000000E+00 0. -1.
</event>
<event>
 7    1  0.6992302E-006  0.1095022E+03  0.7561462E-02  0.1261494E+00
         -1   -1    0    0    0  501 -0.00000000000E+00  0.00000000000E+00  0.28461203748E+03  0.28461203748E+03  0.00000000000E+00 0.  1.
          1   -1    0    0  501    0  0.00000000000E+00 -0.00000000000E+00 -0.12791831348E+03  0.12791831348E+03  0.00000000000E+00 0. -1.
         23    2    1    2    0    0 -0.14211112939E+02  0.64548023692E+02  0.23824504156E+03  0.27404062251E+03  0.11819120045E+03 0.  0.
          5    1    3    3  502    0 -0.30152419141E+02 -0.95464279157E+01  0.98896719668E+01  0.33400309544E+02  0.41800000000E+01 0. -1.
         -5    1    3    3    0  502  0.15941306202E+02  0.74094451608E+02  0.22835536959E+03  0.24064031296E+03  0.41800000000E+01 0.  1.
        -11    1    1    2    0    0  0.52276248879E+02 -0.41002610440E+02 -0.56395148741E+02  0.87146044439E+02  0.00000000000E+00 0.  1.
         11    1    1    2    0    0 -0.38065135940E+02 -0.23545413252E+02 -0.25156168817E+02  0.51343684022E+02  0.00000000000E+00 0. -1.
</event>
<event>
 7    1  0.6992302E-006  0.2222127E+03  0.7561462E-02  0.1132244E+00
         -1   -1    0    0    0  501 -0.00000000000E+00  0.00000000000E+00  0.20824400269E+03  0.20824400269E+03  0.00000000000E+00 0.  1.
          1   -1    0    0  501    0  0.00000000000E+00 -0.00000000000E+00 -0.48777529777E+03  0.48777529777E+03  0.00000000000E+00 0. -1.
         23    2    1    2    0    0  0.19526759896E+03  0.19155209403E+02  0.10450485076E+03  0.25507943287E+03  0.12509155043E+03 0.  0.
          5    1    3    3  502    0  0.13524572654E+02  0.43657564056E+02  0.39229427493E+02  0.60376463512E+02  0.41800000000E+01 0. -1.
         -5    1    3    3    0  502  0.18174302630E+03 -0.24502354652E+02  0.65275423270E+02  0.19470296936E+03  0.41800000000E+01 0. -1.
        -11    1    1    2    0    0 -0.14425832845E+03 -0.53214448183E+02 -0.29730298329E+03  0.33471078067E+03  0.00000000000E+00 0. -1.
         11    1    1    2    0    0 -0.51009270505E+02  0.34059238780E+02 -0.86733162557E+02  0.10622908693E+03  0.00000000000E+00 0.  1.
</event>
<event>
 7    1  0.6992302E-006  0.1079111E+03  0.7561462E-02  0.1264488E+00
          3   -1    0    0  501    0  0.00000000000E+00  0.00000000000E+00  0.69849651608E+02  0.69849651608E+02  0.00000000000E+00 0. -1.
         -3   -1    0    0    0  501 -0.00000000000E+00 -0.00000000000E+00 -0.30889601303E+03  0.30889601303E+03  0.00000000000E+00 0.  1.
         23    2    1    2    0    0  0.15919516002E+02  0.50241084633E+02 -0.23787011407E+03  0.27386970483E+03  0.12507928079E+03 0.  0.
          5    1    3    3  502    0 -0.32055863562E+02  0.53744018907E+02 -0.50922009211E+02  0.80786888658E+02  0.41800000000E+01 0.  1.
         -5    1    3    3    0  502  0.47975379564E+02 -0.35029342733E+01 -0.18694810485E+03  0.19308281617E+03  0.41800000000E+01 0.  1.
        -11    1    1    2    0    0  0.36485246630E+02 -0.76217542043E+01 -0.19532105068E+01  0.37323978755E+02  0.00000000000E+00 0. -1.
         11    1    1    2    0    0 -0.52404762632E+02 -0.42619330429E+02  0.77696314824E+00  0.67551981055E+02  0.00000000000E+00 0.  1.
</event>
<event>
 6    1  0.6992302E-006  0.7802909E+02  0.7561462E-02  0.1334739E+00
          1   -1    0    0  501    0  0.00000000000E+00  0.00000000000E+00  0.44988229271E+03  0.44988229271E+03  0.00000000000E+00 0. -1.
         -1   -1    0    0    0  501 -0.00000000000E+00 -0.00000000000E+00 -0.33705538361E+02  0.33705538361E+02  0.00000000000E+00 0.  1.
          5    1    1    2  502    0 -0.11306811914E+02 -0.36895432215E+01  0.16882200270E+03  0.16929204861E+03  0.41800000000E+01 0. -1.
         -5    1    1    2    0  502  0.25586385303E+02  0.42244763219E+02  0.18790830799E+01  0.49601275039E+02  0.41800000000E+01 0.  1.
        -11    1    1    2    0    0  0.70681196876E+01 -0.61870931698E+02  0.11877825100E+03  0.13411280109E+03  0.00000000000E+00 0. -1.
         11    1    1    2    0    0 -0.21347693077E+02  0.23315711700E+02  0.12669741756E+03  0.13058170633E+03  0.00000000000E+00 0.  1.
</event>
<event>
 7    1  0.6992302E-006  0.1383708E+03  0.7561462E-02  0.1215538E+00
         -1   -1    0    0    0  501 -0.00000000000E+00  0.00000000000E+00  0.74826637821E+03  0.74826637821E+03  0.00000000000E+00 0.  1.
          1   -1    0    0  501    0  0.00000000000E+00 -0.00000000000E+00 -0.43557912035E+02  0.43557912035E+02  0.00000000000E+00 0. -1.
         23    2    1    2    0    0  0.51028172600E+02  0.12607621157E+03  0.47669309653E+03  0.51125580266E+03  0.12508837657E+03 0.  0.
          5    1    3    3  502    0  0.46858237265E+02  0.12271578167E+03  0.48385396675E+03  0.50138507259E+03  0.41800000000E+01 0. -1.
         -5    1    3    3    0  502  0.41699353350E+01  0.33604298958E+01 -0.71608702246E+01  0.98707300720E+01  0.41800000000E+01 0. -1.
        -11    1    1    2    0    0 -0.30214495990E+02 -0.10348749786E+03  0.22526027737E+03  0.24972939463E+03  0.00000000000E+00 0.  1.
         11    1    1    2    0    0 -0.20813676609E+02 -0.22588713709E+02  0.27550922770E+01  0.30839092958E+02  0.00000000000E+00 0. -1.
</event>
<event>
 7    1  0.6992302E-006  0.1222775E+03  0.7561462E-02  0.1239387E+00
          1   -1    0    0  501    0  0.00000000000E+00  0.00000000000E+00  0.29801828897E+02  0.29801828897E+02  0.00000000000E+00 0. -1.
         -1   -1    0    0    0  501 -0.00000000000E+00 -0.00000000000E+00 -0.64982602755E+03  0.64982602755E+03  0.00000000000E+00 0.  1.
         23    2    1    2    0    0  0.77709430614E+02  0.14099571111E+02 -0.41795949076E+03  0.44337048585E+03  0.12509875418E+03 0.  0.
          5    1    3    3  502    0  0.11130515004E+03  0.70735607500E+01 -0.28739746694E+03  0.30830771656E+03  0.41800000000E+01 0.  1.
         -5    1    3    3    0  502 -0.33595719422E+02  0.70260103609E+01 -0.13056202382E+03  0.13506276929E+03  0.41800000000E+01 0.  1.
        -11    1    1    2    0    0 -0.64601620192E+02  0.15118615242E+02 -0.19129057200E+03  0.20246981205E+03  0.00000000000E+00 0.  1.
         11    1    1    2    0    0 -0.13107810422E+02 -0.29218186353E+02 -0.10774135896E+02  0.33787558541E+02  0.00000000000E+00 0. -1.
</event>
<event>
 7    1  0.6992302E-006  0.9270702E+02  0.7561462E-02  0.1296426E+00
         -2   -1    0    0    0  501 -0.00000000000E+00  0.00000000000E+00  0.57792577133E+02  0.57792577133E+02  0.00000000000E+00 0.  1.
          2   -1    0    0  501    0  0.00000000000E+00 -0.00000000000E+00 -0.35587334204E+03  0.35587334204E+03  0.00000000000E+00 0. -1.
         23    2    1    2    0    0 -0.26349399576E+01  0.58262498733E+01 -0.26987834407E+02  0.12813284009E+03  0.12509513743E+03 0.  0.
          5    1    3    3  502    0  0.41849207258E+01  0.57687801460E+02  0.16156424402E+02  0.60198824309E+02  0.41800000000E+01 0.  1.
         -5    1    3    3    0  502 -0.68198606834E+01 -0.51861551586E+02 -0.43144258808E+02  0.67934015786E+02  0.41800000000E+01 0.  1.
        -11    1    1    2    0    0 -0.35909875129E+02 -0.59769644465E+01 -0.54518928558E+02  0.65555753424E+02  0.00000000000E+00 0.  1.
         11    1    1    2    0    0  0.38544815087E+02  0.15071457320E+00 -0.21657400194E+03  0.21997732565E+03  0.00000000000E+00 0. -1.
</event>
<event>
 7    1  0.6992302E-006  0.7960489E+02  0.7561462E-02  0.1330176E+00
         -2   -1    0    0    0  501 -0.00000000000E+00  0.00000000000E+00  0.17173720822E+03  0.17173720822E+03  0.00000000000E+00 0.  1.
          2   -1    0    0  501    0  0.00000000000E+00 -0.00000000000E+00 -0.86583671622E+02  0.86583671622E+02  0.00000000000E+00 0. -1.
         23    2    1    2    0    0  0.33178365993E+02  0.42655359527E+02  0.61182967043E+02  0.14936834286E+03  0.12508901920E+03 0.  0.
          5    1    3    3  502    0  0.15348732040E+02 -0.14610690400E+02  0.82728350858E+02  0.85501510424E+02  0.41800000000E+01 0. -1.
         -5    1    3    3    0  502  0.17829633953E+02  0.57266049927E+02 -0.21545383815E+02  0.63866832432E+02  0.41800000000E+01 0. -1.
        -11    1    1    2    0    0 -0.13541067200E+01  0.13164026627E+02 -0.24918106815E+02  0.28214132084E+02  0.00000000000E+00 0. -1.
         11    1    1    2    0    0 -0.31824259273E+02 -0.55819386154E+02  0.48888676371E+02  0.80738404903E+02  0.00000000000E+00 0.  1.
</event>
