<event>
 7    1  0.4394360E-006  0.9811413E+02  0.7561462E-02  0.1284312E+00
         -2   -1    0    0    0  501 -0.00000000000E+00  0.00000000000E+00  0.10721118098E+03  0.10721118098E+03  0.00000000000E+00 0.  1.
          2   -1    0    0  501    0  0.00000000000E+00 -0.00000000000E+00 -0.13737778183E+03  0.13737778183E+03  0.00000000000E+00 0. -1.
         23    2    1    2    0    0  0.48620089890E+02  0.82052380105E+01  0.94211556615E+01  0.13478145906E+03  0.12508414951E+03 0.  0.
          5    1    3    3  502    0  0.27940657306E+02 -0.36129651077E+02 -0.43062661869E+02  0.62911821345E+02  0.41800000000E+01 0. -1.
         -5    1    3    3    0  502  0.20679432583E+02  0.44334889087E+02  0.52483817531E+02  0.71869637712E+02  0.41800000000E+01 0. -1.
        -11    1    1    2    0    0  0.22369565636E+02 -0.19137756180E+02 -0.42013352566E+01  0.29737222404E+02  0.00000000000E+00 0.  1.
         11    1    1    2    0    0 -0.70989655526E+02  0.10932518170E+02 -0.35386421260E+02  0.80070281346E+02  0.00000000000E+00 0. -1.
</event>
<event>
 7    1  0.4394360E-006  0.1598449E+03  0.7561462E-02  0.1188872E+00
         -2   -1    0    0    0  501 -0.00000000000E+00  0.00000000000E+00  0.98445317182E+02  0.98445317182E+02  0.00000000000E+00 0.  1.
          2   -1    0    0  501    0  0.00000000000E+00 -0.00000000000E+00 -0.36958908560E+03  0.36958908560E+03  0.00000000000E+00 0. -1.
         23    2    1    2    0    0 -0.13295852893E+03 -0.13956379579E+02 -0.43360227518E+02  0.18815128056E+03  0.12509214244E+03 0.  0.
          5    1    3    3  502    0  0.19019196705E+02  0.17492138841E+02  0.24227832228E+01  0.26287773642E+02  0.41800000000E+01 0. -1.
         -5    1    3    3    0  502 -0.15197772563E+03 -0.31448518420E+02 -0.45783010741E+02  0.16186350692E+03  0.41800000000E+01 0. -1.
        -11    1    1    2    0    0  0.58620588074E+02  0.23811069500E+02 -0.33420873767E+02  0.71556237885E+02  0.00000000000E+00 0.  1.
         11    1    1    2    0    0  0.74337940852E+02 -0.98546899214E+01 -0.19436266714E+03  0.20832688434E+03  0.00000000000E+00 0. -1.
</event>
<event>
 7    1  0.4394360E-006  0.1032869E+03  0.7561462E-02  0.1273532E+00
         -2   -1    0    0    0  501 -0.00000000000E+00  0.00000000000E+00  0.37316695498E+02  0.37316695498E+02  0.00000000000E+00 0. -1.
          2   -1    0    0  501    0  0.00000000000E+00 -0.00000000000E+00 -0.41194049275E+03  0.41194049275E+03  0.00000000000E+00 0.  1.
         23    2    1    2    0    0  0.18736822653E+02  0.43065616826E+02 -0.12234240822E+03  0.18116808537E+03  0.12509394243E+03 0.  0.
          5    1    3    3  502    0 -0.17988816896E+02  0.79525119246E+02 -0.77411418563E+02  0.11250707644E+03  0.41800000000E+01 0.  1.
         -5    1    3    3    0  502  0.36725639549E+02 -0.36459502419E+02 -0.44930989652E+02  0.68661008936E+02  0.41800000000E+01 0.  1.
        -11    1    1    2    0    0  0.17486493064E+02 -0.29579000030E+02 -0.20076614233E+03  0.20368539120E+03  0.00000000000E+00 0.  1.
         11    1    1    2    0    0 -0.36223315718E+02 -0.13486616796E+02 -0.51515246704E+02  0.64403711672E+02  0.00000000000E+00 0. -1.
</event>
<event>
 7    1  0.4394360E-006  0.1330480E+03  0.7561462E-02  0.1223002E+00
         -1   -1    0    0    0  501 -0.00000000000E+00  0.00000000000E+00  0.59209696665E+03  0.59209696665E+03  0.00000000000E+00 0.  1.
          1   -1    0    0  501    0  0.00000000000E+00 -0.00000000000E+00 -0.38228494670E+02  0.38228494670E+02  0.00000000000E+00 0. -1.
         23    2    1    2    0    0 -0.96742892689E+02  0.13760318905E+02  0.37264401378E+03  0.40504202467E+03  0.12508775750E+03 0.  0.
          5    1    3    3  502    0  0.21995191854E+02  0.85081060572E+01  0.15283664561E+02  0.28411954100E+02  0.41800000000E+01 0.  1.
         -5    1    3    3    0  502 -0.11873808454E+03  0.52522128479E+01  0.35736034922E+03  0.37663007057E+03  0.41800000000E+01 0.  1.
        -11    1    1    2    0    0 -0.10685306176E+02 -0.11594578060E+02  0.65482268389E+02  0.67353823067E+02  0.00000000000E+00 0.  1.
         11    1    1    2    0    0  0.10742819886E+03 -0.21657408455E+01  0.11574218980E+03  0.15792961358E+03  0.00000000000E+00 0. -1.
</event>
<event>
 7    1  0.4394360E-006  0.5203689E+02  0.7561462E-02  0.1434655E+00
          2   -1    0    0  501    0  0.00000000000E+00  0.00000000000E+00  0.59141840615E+03  0.59141840615E+03  0.00000000000E+00 0. -1.
         -2   -1    0    0    0  501 -0.00000000000E+00 -0.00000000000E+00 -0.16193131841E+02  0.16193131841E+02  0.00000000000E+00 0.  1.
         23    2    1    2    0    0  0.15523912609E+02  0.41502995700E+02  0.28519818368E+03  0.31289207388E+03  0.12083027522E+03 0.  0.
          5    1    3    3  502    0 -0.58968340800E+01  0.19158467951E+02  0.28057029071E+03  0.28131651209E+03  0.41800000000E+01 0. -1.
         -5    1    3    3    0  502  0.21420746689E+02  0.22344527749E+02  0.46278929663E+01  0.31575561790E+02  0.41800000000E+01 0.  1.
        -11    1    1    2    0    0 -0.22513199145E+02 -0.21330002303E+02  0.16783722175E+03  0.17067848763E+03  0.00000000000E+00 0. -1.
         11    1    1    2    0    0  0.69892865362E+01 -0.20172993397E+02  0.12218986889E+03  0.12404097648E+03  0.00000000000E+00 0.  1.
</event>
<event>
 7    1  0.4394360E-006  0.1036268E+03  0.7561462E-02  0.1272849E+00
          1   -1    0    0  501    0  0.00000000000E+00  0.00000000000E+00  0.17164972714E+02  0.17164972714E+02  0.00000000000E+00 0. -1.
         -1   -1    0    0    0  501 -0.00000000000E+00 -0.00000000000E+00 -0.71699786766E+03  0.71699786766E+03  0.00000000000E+00 0.  1.
         23    2    1    2    0    0 -0.17217517646E+02 -0.10581873111E+02 -0.41236327750E+03  0.43139298642E+03  0.12509203471E+03 0.  0.
          5    1    3    3  502    0  0.11535579679E+02  0.48040263746E+02 -0.92949985871E+02  0.10534756197E+03  0.41800000000E+01 0. -1.
         -5    1    3    3    0  502 -0.28753097326E+02 -0.58622136857E+02 -0.31941329163E+03  0.32604542445E+03  0.41800000000E+01 0. -1.
        -11    1    1    2    0    0 -0.78438327660E+01  0.47212907466E+02 -0.18520745624E+03  0.19129136465E+03  0.00000000000E+00 0.  1.
         11    1    1    2    0    0  0.25061350412E+02 -0.36631034355E+02 -0.10226216120E+03  0.11147848930E+03  0.00000000000E+00 0. -1.
</event>
<event>
 7    1  0.4394360E-006  0.1185800E+03  0.7561462E-02  0.1245458E+00
         -1   -1    0    0    0  501 -0.00000000000E+00  0.00000000000E+00  0.24635126113E+02  0.24635126113E+02  0.00000000000E+00 0.  1.
          1   -1    0    0  501    0  0.00000000000E+00 -0.00000000000E+00 -0.75874539996E+03  0.75874539996E+03  0.00000000000E+00 0. -1.
         23    2    1    2    0    0  0.33423509799E+02  0.48328216320E+02 -0.22891608827E+03  0.26741335043E+03  0.12511825214E+03 0.  0.
          5    1    3    3  502    0 -0.34783123696E+02  0.53274450336E+02 -0.71894823098E+02  0.96095633309E+02  0.41800000000E+01 0. -1.
         -5    1    3    3    0  502  0.68206633495E+02 -0.49462340159E+01 -0.15702126517E+03  0.17131771712E+03  0.41800000000E+01 0. -1.
        -11    1    1    2    0    0  0.20613128246E+02 -0.46447476462E+02 -0.24507505827E+03  0.25028794081E+03  0.00000000000E+00 0.  1.
         11    1    1    2    0    0 -0.54036638045E+02 -0.18807398574E+01 -0.26011912730E+03  0.26567923484E+03  0.00000000000E+00 0. -1.
</event>
<event>
 7    1  0.4394360E-006  0.8708351E+02  0.7561462E-02  0.1310072E+00
         -1   -1    0    0    0  501 -0.00000000000E+00  0.00000000000E+00  0.95123240810E+02  0.95123240810E+02  0.00000000000E+00 0.  1.
          1   -1    0    0  501    0  0.00000000000E+00 -0.00000000000E+00 -0.14427998613E+03  0.14427998613E+03  0.00000000000E+00 0. -1.
         23    2    1    2    0    0  0.22702210880E+02  0.35300419011E+02 -0.85699118417E+01  0.13222402430E+03  0.12509292247E+03 0.  0.
          5    1    3    3  502    0  0.45260801909E+02  0.30614285151E+02  0.46825707929E+02  0.72082549676E+02  0.41800000000E+01 0. -1.
         -5    1    3    3    0  502 -0.22558591030E+02  0.46861338601E+01 -0.55395619771E+02  0.60141474621E+02  0.41800000000E+01 0. -1.
        -11    1    1    2    0    0 -0.45801589167E+02  0.83563072170E+01 -0.33328924138E+02  0.57257581374E+02  0.00000000000E+00 0.  1.
         11    1    1    2    0    0  0.23099378288E+02 -0.43656726228E+02 -0.72579093420E+01  0.49921621270E+02  0.00000000000E+00 0. -1.
</event>
<event>
 7    1  0.1848834E-005  0.2221579E+03  0.7561462E-02  0.1132284E+00
         -1   -1    0    0    0  501 -0.00000000000E+00  0.00000000000E+00  0.30532846353E+03  0.30532846353E+03  0.00000000000E+00 0.  1.
          1   -1    0    0  501    0  0.00000000000E+00 -0.00000000000E+00 -0.20925901893E+03  0.20925901893E+03  0.00000000000E+00 0. -1.
         23    2    1    2    0    0 -0.21137555085E+03 -0.62383592510E+02  0.10891104511E+03  0.27582597516E+03  0.12508803584E+03 0.  0.
          5    1    3    3  502    0 -0.18457353498E+03 -0.55694970588E+02  0.13673462247E+03  0.23639616948E+03  0.41800000000E+01 0.  1.
         -5    1    3    3    0  502 -0.26802015873E+02 -0.66886219221E+01 -0.27823577362E+02  0.39429805672E+02  0.41800000000E+01 0.  1.
        -11    1    1    2    0    0  0.11643560241E+03  0.14896191340E+02  0.34760476015E+02  0.12242318701E+03  0.00000000000E+00 0.  1.
         11    1    1    2    0    0  0.94939948440E+02  0.47487401170E+02 -0.47602076520E+02  0.11633832029E+03  0.00000000000E+00 0. -1.
</event>
<event>
 7    1  0.4394360E-006  0.8480580E+02  0.7561462E-02  0.1315941E+00
          1   -1    0    0  501    0  0.00000000000E+00  0.00000000000E+00  0.20740476244E+03  0.20740476244E+03  0.00000000000E+00 0. -1.
         -1   -1    0    0    0  501 -0.00000000000E+00 -0.00000000000E+00 -0.90965039817E+02  0.90965039817E+02  0.00000000000E+00 0.  1.
         23    2    1    2    0    0 -0.55672959935E+02  0.46693051334E+02  0.18351030918E+02  0.14582110143E+03  0.12508922326E+03 0.  0.
          5    1    3    3  502    0 -0.33826516401E+02  0.54681447761E+02  0.66245213838E+02  0.92413173831E+02  0.41800000000E+01 0. -1.
         -5    1    3    3    0  502 -0.21846443534E+02 -0.79883964271E+01 -0.47894182920E+02  0.53407927596E+02  0.41800000000E+01 0. -1.
        -11    1    1    2    0    0  0.55973850525E+02 -0.27528980919E+02  0.10954955951E+02  0.63331886068E+02  0.00000000000E+00 0.  1.
         11    1    1    2    0    0 -0.30089059060E+00 -0.19164070415E+02  0.87133735756E+02  0.89216814765E+02  0.00000000000E+00 0. -1.
</event>
<event>
 7    1  0.4394360E-006  0.1261993E+03  0.7561462E-02  0.1233207E+00
         -2   -1    0    0    0  501 -0.00000000000E+00  0.00000000000E+00  0.25501460501E+02  0.25501460501E+02  0.00000000000E+00 0.  1.
          2   -1    0    0  501    0  0.00000000000E+00 -0.00000000000E+00 -0.95597187109E+03  0.95597187109E+03  0.00000000000E+00 0. -1.
         23    2    1    2    0    0 -0.88652998785E+02  0.65647641348E+02 -0.38098691807E+03  0.41589319227E+03  0.12508856312E+03 0.  0.
          5    1    3    3  502    0 -0.80767111453E+02  0.11331190749E+02 -0.33300121334E+03  0.34286878345E+03  0.41800000000E+01 0.  1.
         -5    1    3    3    0  502 -0.78858873318E+01  0.54316450599E+02 -0.47985704732E+02  0.73024408819E+02  0.41800000000E+01 0.  1.
        -11    1    1    2    0    0  0.72897486736E+02 -0.68082566744E+02 -0.53441306372E+03  0.54364197975E+03  0.00000000000E+00 0. -1.
         11    1    1    2    0    0  0.15755512048E+02  0.24349253964E+01 -0.15070428792E+02  0.21938159575E+02  0.00000000000E+00 0.  1.
</event>
<event>
 7    1  0.4394360E-006  0.1158874E+03  0.7561462E-02  0.1250040E+00
         -2   -1    0    0    0  501 -0.00000000000E+00  0.00000000000E+00  0.13517977567E+03  0.13517977567E+03  0.00000000000E+00 0.  1.
          2   -1    0    0  501    0  0.00000000000E+00 -0.00000000000E+00 -0.10248897729E+03  0.10248897729E+03  0.00000000000E+00 0. -1.
         23    2    1    2    0    0  0.14619457899E+02  0.40264720614E+02  0.29316254668E+02  0.13541757514E+03  0.12507398048E+03 0.  0.
          5    1    3    3  502    0 -0.40644411249E+02  0.60533728387E+02  0.12882465714E+02  0.74160169640E+02  0.41800000000E+01 0. -1.
         -5    1    3    3    0  502  0.55263869148E+02 -0.20269007774E+02  0.16433788954E+02  0.61257405501E+02  0.41800000000E+01 0. -1.
        -11    1    1    2    0    0  0.38028083891E+02 -0.11456466365E+02  0.12299456784E+02  0.41577186330E+02  0.00000000000E+00 0. -1.
         11    1    1    2    0    0 -0.52647541790E+02 -0.28808254249E+02 -0.89249130788E+01  0.60673991486E+02  0.00000000000E+00 0.  1.
</event>
<event>
 7    1  0.4394360E-006  0.1663530E+03  0.7561462E-02  0.1181705E+00
          2   -1    0    0  501    0  0.00000000000E+00  0.00000000000E+00  0.39358599239E+03  0.39358599239E+03  0.00000000000E+00 0. -1.
         -2   -1    0    0    0  501 -0.00000000000E+00 -0.00000000000E+00 -0.16506959273E+03  0.16506959273E+03  0.00000000000E+00 0.  1.
         23    2    1    2    0    0 -0.62169976895E+02  0.11561098358E+03 -0.90117720244E+02  0.20248415557E+03  0.12509046407E+03 0.  0.
          5    1    3    3  502    0  0.28198456032E+02  0.75153663195E+02 -0.26118934268E+02  0.84515662107E+02  0.41800000000E+01 0. -1.
         -5    1    3    3    0  502 -0.90368432927E+02  0.40457320383E+02 -0.63998785977E+02  0.11796849346E+03  0.41800000000E+01 0. -1.
        -11    1    1    2    0    0  0.58877262786E+02 -0.27374302236E+02  0.18442256772E+03  0.19551871516E+03  0.00000000000E+00 0. -1.
         11    1    1    2    0    0  0.32927141094E+01 -0.88236681341E+02  0.13421155219E+03  0.16065271439E+03  0.00000000000E+00 0.  1.
</event>
<event>
 7    1  0.4394360E-006  0.2288787E+03  0.7561462E-02  0.1127432E+00
          4   -1    0    0  501    0  0.00000000000E+00  0.00000000000E+00  0.50106572189E+03  0.50106572189E+03  0.00000000000E+00 0. -1.
         -4   -1    0    0    0  501 -0.00000000000E+00 -0.00000000000E+00 -0.14885783892E+03  0.14885783892E+03  0.00000000000E+00 0.  1.
         23    2    1    2    0    0  0.13009460094E+03 -0.16999898094E+03  0.26343540209E+02  0.24933100767E+03  0.12509080926E+03 0.  0.
          5    1    3    3  502    0  0.13204018763E+03 -0.11151124684E+03  0.58399394258E+02  0.18247556267E+03  0.41800000000E+01 0.  1.
         -5    1    3    3    0  502 -0.19455866884E+01 -0.58487734105E+02 -0.32055854049E+02  0.66855445007E+02  0.41800000000E+01 0.  1.
        -11    1    1    2    0    0 -0.63509555734E+02  0.13887893706E+03  0.17158470281E+03  0.22970009375E+03  0.00000000000E+00 0.  1.
         11    1    1    2    0    0 -0.66585045206E+02  0.31120043884E+02  0.15427963994E+03  0.17089245939E+03  0.00000000000E+00 0. -1.
</event>
<event>
 7    1  0.4394360E-006  0.1310020E+03  0.7561462E-02  0.1225976E+00
         -1   -1    0    0    0  501 -0.00000000000E+00  0.00000000000E+00  0.68591163708E+02  0.68591163708E+02  0.00000000000E+00 0.  1.
          1   -1    0    0  501    0  0.00000000000E+00 -0.00000000000E+00 -0.39643952156E+03  0.39643952156E+03  0.00000000000E+00 0. -1.
         23    2    1    2    0    0 -0.50975921054E+02 -0.91268935670E+02 -0.80972597554E+02  0.18201325534E+03  0.12507477930E+03 0.  0.
          5    1    3    3  502    0 -0.69957101432E+02 -0.11001169137E+03 -0.47066797323E+02  0.13866983843E+03  0.41800000000E+01 0. -1.
         -5    1    3    3    0  502  0.18981180377E+02  0.18742755704E+02 -0.33905800231E+02  0.43343416908E+02  0.41800000000E+01 0. -1.
        -11    1    1    2    0    0  0.76638747077E+01  0.15479357285E+02  0.37064636985E+01  0.17665880976E+02  0.00000000000E+00 0.  1.
         11    1    1    2    0    0  0.43312046347E+02  0.75789578385E+02 -0.25058222400E+03  0.26535154896E+03  0.00000000000E+00 0. -1.
</event>
<event>
 7    1  0.4394360E-006  0.7415208E+02  0.7561462E-02  0.1346517E+00
         -1   -1    0    0    0  501 -0.00000000000E+00  0.00000000000E+00  0.18685263357E+03  0.18685263357E+03  0.00000000000E+00 0.  1.
          1   -1    0    0  501    0  0.00000000000E+00 -0.00000000000E+00 -0.76493200764E+02  0.76493200764E+02  0.00000000000E+00 0. -1.
         23    2    1    2    0    0 -0.33746279411E+02 -0.36177590030E+02  0.54545851456E+02  0.14515701058E+03  0.12509068077E+03 0.  0.
          5    1    3    3  502    0 -0.23998321669E+02 -0.27075981815E+02 -0.37371242854E+02  0.52183430576E+02  0.41800000000E+01 0. -1.
         -5    1    3    3    0  502 -0.97479577428E+01 -0.91016082150E+01  0.91917094310E+02  0.92973580004E+02  0.41800000000E+01 0. -1.
        -11    1    1    2    0    0 -0.43606856002E+01 -0.25247535617E+02 -0.18974664081E+01  0.25691516351E+02  0.00000000000E+00 0. -1.
         11    1    1    2    0    0  0.38106965012E+02  0.61425125648E+02  0.57711047755E+02  0.92497307400E+02  0.00000000000E+00 0.  1.
</event>
<event>
 7    1  0.4394360E-006  0.9882876E+02  0.7561462E-02  0.1282778E+00
          2   -1    0    0  501    0  0.00000000000E+00  0.00000000000E+00  0.12020760069E+03  0.12020760069E+03  0.00000000000E+00 0. -1.
         -2   -1    0    0    0  501 -0.00000000000E+00 -0.00000000000E+00 -0.12791993361E+03  0.12791993361E+03  0.00000000000E+00 0.  1.
         23    2    1    2    0    0 -0.54867478033E+02 -0.51207703205E+01 -0.24302914367E+02  0.13883917826E+03  0.12509605645E+03 0.  0.
          5    1    3    3  502    0 -0.16227173087E+02 -0.47627974439E+02 -0.54092361445E+02  0.73994601575E+02  0.41800000000E+01 0. -1.
         -5    1    3    3    0  502 -0.38640304946E+02  0.42507204118E+02  0.29789447078E+02  0.64844576685E+02  0.41800000000E+01 0. -1.
        -11    1    1    2    0    0  0.22327136801E+02 -0.32752220718E+02  0.38044911177E+02  0.54942008210E+02  0.00000000000E+00 0.  1.
         11    1    1    2    0    0  0.32540341232E+02  0.37872991038E+02 -0.21454329731E+02  0.54346347825E+02  0.00000000000E+00 0. -1.
</event>
<event>
 7    1  0.4394360E-006  0.9127955E+02  0.7561462E-02  0.1299782E+00
         -1   -1    0    0    0  501 -0.00000000000E+00  0.00000000000E+00  0.80750283791E+03  0.80750283791E+03  0.00000000000E+00 0.  1.
          1   -1    0    0  501    0  0.00000000000E+00 -0.00000000000E+00 -0.21260851637E+02  0.21260851637E+02  0.00000000000E+00 0. -1.
         23    2    1    2    0    0 -0.55433061386E+02 -0.26070691613E+01  0.59700115607E+03  0.61248507306E+03  0.12509181934E+03 0.  0.
          5    1    3    3  502    0 -0.58075124917E+02 -0.51485611923E+02  0.46868074655E+03  0.47508168030E+03  0.41800000000E+01 0. -1.
         -5    1    3    3    0  502  0.26420635315E+01  0.48878542762E+02  0.12832040952E+03  0.13740339276E+03  0.41800000000E+01 0. -1.
        -11    1    1    2    0    0  0.21813923296E+02 -0.13531360521E+01 -0.21091417874E+01  0.21957383856E+02  0.00000000000E+00 0. -1.
         11    1    1    2    0    0  0.33619138090E+02  0.39602052134E+01  0.19134997199E+03  0.19432123264E+03  0.00000000000E+00 0.  1.
</event>
<event>
 7    1  0.4394360E-006  0.9960088E+02  0.7561462E-02  0.1281137E+00
          1   -1    0    0  501    0  0.00000000000E+00  0.00000000000E+00  0.40176976129E+03  0.40176976129E+03  0.00000000000E+00 0. -1.
         -1   -1    0    0    0  501 -0.00000000000E+00 -0.00000000000E+00 -0.38942471566E+02  0.38942471566E+02  0.00000000000E+00 0.  1.
         23    2    1    2    0    0 -0.46457175398E+02 -0.10667560731E+02  0.13111506526E+03  0.18738126463E+03  0.12509401263E+03 0.  0.
          5    1    3    3  502    0  0.36507245194E+02  0.65775965375E+01  0.85157472392E+01  0.38288824465E+02  0.41800000000E+01 0.  1.
         -5    1    3    3    0  502 -0.82964420592E+02 -0.17245157269E+02  0.12259931802E+03  0.14909244016E+03  0.41800000000E+01 0.  1.
        -11    1    1    2    0    0  0.61772982932E+01  0.31209966393E+02  0.21711536346E+02  0.38517682004E+02  0.00000000000E+00 0.  1.
         11    1    1    2    0    0  0.40279877104E+02 -0.20542405662E+02  0.21000068811E+03  0.21481328622E+03  0.00000000000E+00 0. -1.
</event>
<event>
 7    1  0.4394360E-006  0.1196105E+03  0.7561462E-02  0.1243741E+00
         -1   -1    0    0    0  501 -0.00000000000E+00  0.00000000000E+00  0.54156817781E+02  0.54156817781E+02  0.00000000000E+00 0.  1.
          1   -1    0    0  501    0  0.00000000000E+00 -0.00000000000E+00 -0.41638557212E+03  0.41638557212E+03  0.00000000000E+00 0. -1.
         23    2    1    2    0    0  0.27906736349E+02  0.90394501806E+02 -0.14772159761E+03  0.21545018215E+03  0.12508860338E+03 0.  0.
          5    1    3    3  502    0  0.45874195206E+01  0.68980872102E+02 -0.16513899537E+03  0.17907474787E+03  0.41800000000E+01 0. -1.
         -5    1    3    3    0  502  0.23319316828E+02  0.21413629704E+02  0.17417397753E+02  0.36375434278E+02  0.41800000000E+01 0. -1.
        -11    1    1    2    0    0 -0.42711477832E+02 -0.10733981715E+03 -0.17767024562E+03  0.21192645626E+03  0.00000000000E+00 0.  1.
         11    1    1    2    0    0  0.14804741483E+02  0.16945315341E+02 -0.36836911104E+02  0.43165751495E+02  0.00000000000E+00 0. -1.
</event>
<event>
 7    1  0.4394360E-006  0.1042412E+03  0.7561462E-02  0.1271622E+00
          1   -1    0    0  501    0  0.00000000000E+00  0.00000000000E+00  0.91320286786E+02  0.91320286786E+02  0.00000000000E+00 0. -1.
         -1   -1    0    0    0  501 -0.00000000000E+00 -0.00000000000E+00 -0.15055018128E+03  0.15055018128E+03  0.00000000000E+00 0.  1.
         23    2    1    2    0    0 -0.17342816490E+02 -0.37042890350E+02 -0.57101364388E+02  0.14346171535E+03  0.12509096269E+03 0.  0.
          5    1    3    3  502    0  0.85067821365E+01  0.34103840443E+02  0.15363694483E+02  0.38586950948E+02  0.41800000000E+01 0. -1.
         -5    1    3    3    0  502 -0.25849598627E+02 -0.71146730793E+02 -0.72465058871E+02  0.10487476440E+03  0.41800000000E+01 0. -1.
        -11    1    1    2    0    0  0.50519931901E+02  0.39320229302E+02 -0.84010419274E+01  0.64567185606E+02  0.00000000000E+00 0.  1.
         11    1    1    2    0    0 -0.33177115411E+02 -0.22773389522E+01  0.62725118215E+01  0.33841567107E+02  0.00000000000E+00 0. -1.
</event>
<event>
 7    1  0.4394360E-006  0.7153368E+02  0.7561462E-02  0.1354954E+00
         -2   -1    0    0    0  501 -0.00000000000E+00  0.00000000000E+00  0.52903398597E+02  0.52903398597E+02  0.00000000000E+00 0. -1.
          2   -1    0    0  501    0  0.00000000000E+00 -0.00000000000E+00 -0.26058121477E+03  0.26058121477E+03  0.00000000000E+00 0.  1.
         23    2    1    2    0    0 -0.42384330634E+02  0.16261483445E+02 -0.11121047443E+03  0.17342446857E+03  0.12508960528E+03 0.  0.
          5    1    3    3  502    0  0.20825066308E+01 -0.27053657912E+02 -0.10766088666E+03  0.11110614815E+03  0.41800000000E+01 0.  1.
         -5    1    3    3    0  502 -0.44466837265E+02  0.43315141357E+02 -0.35495877750E+01  0.62318320424E+02  0.41800000000E+01 0.  1.
        -11    1    1    2    0    0  0.32311315800E+02 -0.24365226711E+02 -0.11244601600E+03  0.11950645136E+03  0.00000000000E+00 0.  1.
         11    1    1    2    0    0  0.10073014834E+02  0.81037432666E+01  0.15978674261E+02  0.20553693437E+02  0.00000000000E+00 0. -1.
</event>
<event>
 7    1  0.4394360E-006  0.1455791E+03  0.7561462E-02  0.1206013E+00
         -2   -1    0    0    0  501 -0.00000000000E+00  0.00000000000E+00  0.78029990668E+03  0.78029990668E+03  0.00000000000E+00 0.  1.
          2   -1    0    0  501    0  0.00000000000E+00 -0.00000000000E+00 -0.29762926538E+02  0.29762926538E+02  0.00000000000E+00 0. -1.
         23    2    1    2    0    0 -0.35086802937E+02 -0.10120474027E+03  0.42869616758E+03  0.45924041271E+03  0.12509144403E+03 0.  0.
          5    1    3    3  502    0  0.34700404124E+01 -0.11193347675E+03  0.22220242371E+03  0.24886247990E+03  0.41800000000E+01 0.  1.
         -5    1    3    3    0  502 -0.38556843350E+02  0.10728736479E+02  0.20649374387E+03  0.21037793281E+03  0.41800000000E+01 0.  1.
        -11    1    1    2    0    0  0.56832754408E+02  0.29720134369E+02  0.13044103911E+03  0.14535512734E+03  0.00000000000E+00 0.  1.
         11    1    1    2    0    0 -0.21745951470E+02  0.71484605898E+02  0.19139977345E+03  0.20546729317E+03  0.00000000000E+00 0. -1.
</event>
<event>
 7    1  0.4394360E-006  0.1124605E+03  0.7561462E-02  0.1256080E+00
         -2   -1    0    0    0  501 -0.00000000000E+00  0.00000000000E+00  0.36575833751E+03  0.36575833751E+03  0.00000000000E+00 0. -1.
          2   -1    0    0  501    0  0.00000000000E+00 -0.00000000000E+00 -0.56500121381E+02  0.56500121381E+02  0.00000000000E+00 0.  1.
         23    2    1    2    0    0 -0.58797932082E+02 -0.12032477953E+02  0.30027554270E+03  0.33077869860E+03  0.12508864282E+03 0.  0.
          5    1    3    3  502    0 -0.86479088628E+02  0.22860845008E+02  0.15771066804E+03  0.18135980321E+03  0.41800000000E+01 0. -1.
         -5    1    3    3    0  502  0.27681156546E+02 -0.34893322961E+02  0.14256487465E+03  0.14941889539E+03  0.41800000000E+01 0. -1.
        -11    1    1    2    0    0  0.32864782239E+01  0.31606447220E+02 -0.92526677955E+00  0.31790321854E+02  0.00000000000E+00 0.  1.
         11    1    1    2    0    0  0.55511453858E+02 -0.19573969267E+02  0.99079402157E+01  0.59689438443E+02  0.00000000000E+00 0. -1.
</event>
<event>
 7    1  0.4394360E-006  0.1637727E+03  0.7561462E-02  0.1184502E+00
          1   -1    0    0  501    0  0.00000000000E+00  0.00000000000E+00  0.26971410374E+03  0.26971410374E+03  0.00000000000E+00 0. -1.
         -1   -1    0    0    0  501 -0.00000000000E+00 -0.00000000000E+00 -0.11949933147E+03  0.11949933147E+03  0.00000000000E+00 0.  1.
         23    2    1    2    0    0  0.12212271259E+03  0.70803266679E+02  0.46916226044E+02  0.19436104417E+03  0.12509206098E+03 0.  0.
          5    1    3    3  502    0  0.13730620078E+03  0.28021951453E+02  0.20547656850E+02  0.14169651068E+03  0.41800000000E+01 0.  1.
         -5    1    3    3    0  502 -0.15183488195E+02  0.42781315226E+02  0.26368569194E+02  0.52664533489E+02  0.41800000000E+01 0.  1.
        -11    1    1    2    0    0 -0.44459644813E+02 -0.33096290603E+02 -0.57983784605E+01  0.55728320102E+02  0.00000000000E+00 0.  1.
         11    1    1    2    0    0 -0.77663067773E+02 -0.37706976076E+02  0.10909692468E+03  0.13912407094E+03  0.00000000000E+00 0. -1.
</event>
<event>
 6    1  0.4394360E-006  0.1139283E+03  0.7561462E-02  0.1253463E+00
         -1   -1    0    0    0  501 -0.00000000000E+00  0.00000000000E+00  0.33488662231E+03  0.33488662231E+03  0.00000000000E+00 0.  1.
          1   -1    0    0  501    0  0.00000000000E+00 -0.00000000000E+00 -0.15544913916E+03  0.15544913916E+03  0.00000000000E+00 0. -1.
          5    1    1    2  502    0  0.19835739683E+02  0.16747226728E+02 -0.14784982176E+02  0.30166111280E+02  0.41800000000E+01 0. -1.
         -5    1    1    2    0  502  0.10853723505E+02 -0.98445477277E+02  0.28107408940E+03  0.29804266715E+03  0.41800000000E+01 0.  1.
        -11    1    1    2    0    0 -0.35908650770E+02  0.21180951443E+02  0.14354372956E+02  0.44092084631E+02  0.00000000000E+00 0.  1.
         11    1    1    2    0    0  0.52191875828E+01  0.60517299105E+02 -0.10120599703E+03  0.11803489842E+03  0.00000000000E+00 0. -1.
</event>
<event>
 7    1  0.4669001E-006  0.1800483E+03  0.7561462E-02  0.1167756E+00
          3   -1    0    0  501    0  0.00000000000E+00  0.00000000000E+00  0.56990468037E+02  0.56990468037E+02  0.00000000000E+00 0. -1.
         -3   -1    0    0    0  501 -0.00000000000E+00 -0.00000000000E+00 -0.64378308109E+03  0.64378308109E+03  0.00000000000E+00 0.  1.
         23    2    1    2    0    0  0.89737925692E+02  0.12341481672E+03 -0.38141673852E+03  0.42943036788E+03  0.12509036790E+03 0.  0.
          5    1    3    3  502    0 -0.31150864422E+02  0.19572545510E+02 -0.88680426231E+02  0.96099694528E+02  0.41800000000E+01 0. -1.
         -5    1    3    3    0  502  0.12088879011E+03  0.10384227120E+03 -0.29273631229E+03  0.33333067336E+03  0.41800000000E+01 0. -1.
        -11    1    1    2    0    0 -0.54137962154E+02 -0.11494567593E+03 -0.19597977570E+03  0.23356262510E+03  0.00000000000E+00 0.  1.
         11    1    1    2    0    0 -0.35599963538E+02 -0.84691407866E+01 -0.93960988349E+01  0.37780556148E+02  0.00000000000E+00 0. -1.
</event>
<event>
 7    1  0.4394360E-006  0.1881999E+03  0.7561462E-02  0.1160095E+00
          2   -1    0    0  501    0  0.00000000000E+00  0.00000000000E+00  0.10117706984E+04  0.10117706984E+04  0.00000000000E+00 0. -1.
         -2   -1    0    0    0  501 -0.00000000000E+00 -0.00000000000E+00 -0.43975364803E+02  0.43975364803E+02  0.00000000000E+00 0.  1.
         23    2    1    2    0    0  0.16507775278E+03  0.67158125866E+02  0.42427005461E+03  0.47687929426E+03  0.12509158135E+03 0.  0.
          5    1    3    3  502    0  0.16211579496E+03  0.55069640624E+02  0.25544699079E+03  0.30754647420E+03  0.41800000000E+01 0.  1.
         -5    1    3    3    0  502  0.29619578176E+01  0.12088485241E+02  0.16882306382E+03  0.16933282006E+03  0.41800000000E+01 0.  1.
        -11    1    1    2    0    0 -0.10841771934E+03 -0.78967673010E+02  0.44311584371E+03  0.46297078330E+03  0.00000000000E+00 0. -1.
         11    1    1    2    0    0 -0.56660033434E+02  0.11809547144E+02  0.10040943524E+03  0.11589598559E+03  0.00000000000E+00 0.  1.
</event>
<event>
 7    1  0.4394360E-006  0.1117294E+03  0.7561462E-02  0.1257400E+00
          1   -1    0    0  501    0  0.00000000000E+00  0.00000000000E+00  0.61903030627E+03  0.61903030627E+03  0.00000000000E+00 0. -1.
         -1   -1    0    0    0  501 -0.00000000000E+00 -0.00000000000E+00 -0.29450400133E+02  0.29450400133E+02  0.00000000000E+00 0.  1.
         23    2    1    2    0    0 -0.68355420371E+02  0.44876214131E+02  0.31567748623E+03  0.34926524404E+03  0.12509035651E+03 0.  0.
          5    1    3    3  502    0  0.71893227815E+01  0.22745183579E+02  0.23579596959E+03  0.23703637150E+03  0.41800000000E+01 0. -1.
         -5    1    3    3    0  502 -0.75544743152E+02  0.22131030552E+02  0.79881516645E+02  0.11222887255E+03  0.41800000000E+01 0. -1.
        -11    1    1    2    0    0  0.56004950945E+02 -0.71640677611E+02  0.20365612168E+03  0.22303532706E+03  0.00000000000E+00 0.  1.
         11    1    1    2    0    0  0.12350469426E+02  0.26764463480E+02  0.70246298223E+02  0.76180135301E+02  0.00000000000E+00 0. -1.
</event>
<event>
 6    1  0.4394360E-006  0.1947589E+03  0.7561462E-02  0.1154238E+00
          1   -1    0    0  501    0  0.00000000000E+00  0.00000000000E+00  0.71170717277E+03  0.71170717277E+03  0.00000000000E+00 0. -1.
         -1   -1    0    0    0  501 -0.00000000000E+00 -0.00000000000E+00 -0.10324325006E+03  0.10324325006E+03  0.00000000000E+00 0.  1.
          5    1    1    2  502    0  0.38461671012E+02  0.23977217935E+02 -0.48602021816E+02  0.66587056111E+02  0.41800000000E+01 0. -1.
         -5    1    1    2    0  502 -0.15030348809E+03  0.96390555620E+02  0.24443825787E+03  0.30273719965E+03  0.41800000000E+01 0.  1.
        -11    1    1    2    0    0  0.87825923649E+02 -0.82138733580E+02  0.33360916451E+03  0.35461985148E+03  0.00000000000E+00 0. -1.
         11    1    1    2    0    0  0.24015893425E+02 -0.38229039975E+02  0.79018522141E+02  0.91006315582E+02  0.00000000000E+00 0.  1.
</event>
<event>
 7    1  0.4394360E-006  0.8969860E+02  0.7561462E-02  0.1303583E+00
          2   -1    0    0  501    0  0.00000000000E+00  0.00000000000E+00  0.99674353459E+02  0.99674353459E+02  0.00000000000E+00 0.  1.
         -2   -1    0    0    0  501 -0.00000000000E+00 -0.00000000000E+00 -0.14589919232E+03  0.14589919232E+03  0.00000000000E+00 0. -1.
         23    2    1    2    0    0  0.13091913373E+02  0.77540150264E+00 -0.77688565089E+02  0.14783782941E+03  0.12509400951E+03 0.  0.
          5    1    3    3  502    0  0.27972678595E+02  0.41684531855E+02 -0.89355494845E+02  0.10257654607E+03  0.41800000000E+01 0.  1.
         -5    1    3    3    0  502 -0.14880765222E+02 -0.40909130352E+02  0.11666929756E+02  0.45261283341E+02  0.41800000000E+01 0.  1.
        -11    1    1    2    0    0  0.74329219282E+01  0.39443645681E+02  0.33869001783E+02  0.52518175852E+02  0.00000000000E+00 0.  1.
         11    1    1    2    0    0 -0.20524835301E+02 -0.40219047184E+02 -0.24052755577E+01  0.45217540524E+02  0.00000000000E+00 0. -1.
</event>
<event>
 7    1  0.4394360E-006  0.2562461E+03  0.7561462E-02  0.1109420E+00
          2   -1    0    0  501    0  0.00000000000E+00  0.00000000000E+00  0.18680571388E+03  0.18680571388E+03  0.00000000000E+00 0. -1.
         -2   -1    0    0    0  501 -0.00000000000E+00 -0.00000000000E+00 -0.42043542580E+03  0.42043542580E+03  0.00000000000E+00 0.  1.
         23    2    1    2    0    0 -0.13913451660E+03  0.19653048788E+03 -0.21957174157E+03  0.34905816123E+03  0.12508878387E+03 0.  0.
          5    1    3    3  502    0 -0.15684103872E+03  0.16927241027E+03 -0.15925627254E+03  0.28041450221E+03  0.41800000000E+01 0. -1.
         -5    1    3    3    0  502  0.17706522115E+02  0.27258077608E+02 -0.60315469024E+02  0.68643659021E+02  0.41800000000E+01 0. -1.
        -11    1    1    2    0    0  0.93390579698E+02 -0.77361190322E+02  0.26722144869E+02  0.12417981789E+03  0.00000000000E+00 0.  1.
         11    1    1    2    0    0  0.45743936904E+02 -0.11916929756E+03 -0.40780115228E+02  0.13400316057E+03  0.00000000000E+00 0. -1.
</event>
<event>
 7    1  0.4394360E-006  0.8651752E+02  0.7561462E-02  0.1311511E+00
          2   -1    0    0  501    0  0.00000000000E+00  0.00000000000E+00  0.15126290861E+03  0.15126290861E+03  0.00000000000E+00 0. -1.
         -2   -1    0    0    0  501 -0.00000000000E+00 -0.00000000000E+00 -0.11412942245E+03  0.11412942245E+03  0.00000000000E+00 0.  1.
         23    2    1    2    0    0  0.11612780896E+01  0.20744339191E+02 -0.51899272713E+02  0.13695277173E+03  0.12502340181E+03 0.  0.
          5    1    3    3  502    0 -0.43793774865E+01  0.61425385542E+02 -0.68735917829E+02  0.92381576822E+02  0.41800000000E+01 0.  1.
         -5    1    3    3    0  502  0.55406555761E+01 -0.40681046351E+02  0.16836645117E+02  0.44571194905E+02  0.41800000000E+01 0.  1.
        -11    1    1    2    0    0  0.23769755255E+02 -0.34249162985E+02  0.78160285142E+01  0.42415760417E+02  0.00000000000E+00 0.  1.
         11    1    1    2    0    0 -0.24931033345E+02  0.13504823794E+02  0.81216730365E+02  0.86023798919E+02  0.00000000000E+00 0. -1.
</event>
<event>
 7    1  0.4394360E-006  0.1481524E+03  0.7561462E-02  0.1202762E+00
         -1   -1    0    0    0  501 -0.00000000000E+00  0.00000000000E+00  0.11775634620E+03  0.11775634620E+03  0.00000000000E+00 0.  1.
          1   -1    0    0  501    0  0.00000000000E+00 -0.00000000000E+00 -0.25840711568E+03  0.25840711568E+03  0.00000000000E+00 0. -1.
         23    2    1    2    0    0 -0.12977060474E+03 -0.12373714276E+02 -0.32591082831E+02  0.18358419221E+03  0.12508980090E+03 0.  0.
          5    1    3    3  502    0 -0.11196081546E+03  0.10574372946E+02 -0.72631969323E+02  0.13393997510E+03  0.41800000000E+01 0.  1.
         -5    1    3    3    0  502 -0.17809789280E+02 -0.22948087223E+02  0.40040886492E+02  0.49644217110E+02  0.41800000000E+01 0.  1.
        -11    1    1    2    0    0  0.92415241110E+02  0.46827805526E+02 -0.48819026632E+02  0.11452823897E+03  0.00000000000E+00 0.  1.
         11    1    1    2    0    0  0.37355363629E+02 -0.34454091250E+02 -0.59240660016E+02  0.78051030710E+02  0.00000000000E+00 0. -1.
</event>
<event>
 7    1  0.4394360E-006  0.8190931E+02  0.7561462E-02  0.1323719E+00
          1   -1    0    0  501    0  0.00000000000E+00  0.00000000000E+00  0.56097924531E+03  0.56097924531E+03  0.00000000000E+00 0. -1.
         -1   -1    0    0    0  501 -0.00000000000E+00 -0.00000000000E+00 -0.21952395473E+02  0.21952395473E+02  0.00000000000E+00 0.  1.
         23    2    1    2    0    0  0.34484780076E+01 -0.74577527048E+01  0.33727202577E+03  0.35982221243E+03  0.12510833351E+03 0.  0.
          5    1    3    3  502    0  0.34514324917E+02  0.26450406981E+02  0.40796048990E+02  0.59771671109E+02  0.41800000000E+01 0.  1.
         -5    1    3    3    0  502 -0.31065846910E+02 -0.33908159686E+02  0.29647597678E+03  0.30005054132E+03  0.41800000000E+01 0.  1.
        -11    1    1    2    0    0  0.30379395083E+02 -0.14464237489E+02  0.16552678254E+03  0.16891192246E+03  0.00000000000E+00 0.  1.
         11    1    1    2    0    0 -0.33827873091E+02  0.21921990194E+02  0.36228041516E+02  0.54197505884E+02  0.00000000000E+00 0. -1.
</event>
<event>
 7    1  0.4656924E-006  0.1831813E+03  0.7561462E-02  0.1164759E+00
          2   -1    0    0  501    0  0.00000000000E+00  0.00000000000E+00  0.15291951635E+04  0.15291951635E+04  0.00000000000E+00 0. -1.
         -2   -1    0    0    0  501 -0.00000000000E+00 -0.00000000000E+00 -0.25960841965E+02  0.25960841965E+02  0.00000000000E+00 0.  1.
         23    2    1    2    0    0 -0.11555562312E+03 -0.11637383826E+03  0.67422836638E+03  0.70507282417E+03  0.12509126704E+03 0.  0.
          5    1    3    3  502    0 -0.85828783055E+02 -0.34980133656E+02  0.17219055962E+03  0.19559460875E+03  0.41800000000E+01 0.  1.
         -5    1    3    3    0  502 -0.29726840067E+02 -0.81393704605E+02  0.50203780676E+03  0.50947821542E+03  0.41800000000E+01 0.  1.
        -11    1    1    2    0    0  0.30561841139E+02  0.94142557868E+02  0.38921506011E+03  0.40160329973E+03  0.00000000000E+00 0.  1.
         11    1    1    2    0    0  0.84993781983E+02  0.22231280393E+02  0.43979089505E+03  0.44847988157E+03  0.00000000000E+00 0. -1.
</event>
<event>
 7    1  0.4394360E-006  0.1350362E+03  0.7561462E-02  0.1220169E+00
         -1   -1    0    0    0  501 -0.00000000000E+00  0.00000000000E+00  0.23332236581E+03  0.23332236581E+03  0.00000000000E+00 0.  1.
          1   -1    0    0  501    0  0.00000000000E+00 -0.00000000000E+00 -0.78575295535E+02  0.78575295535E+02  0.00000000000E+00 0. -1.
         23    2    1    2    0    0 -0.14727122452E+02 -0.78837770315E+02  0.78803053622E+02  0.16819629403E+03  0.12509112639E+03 0.  0.
          5    1    3    3  502    0  0.53689878794E+02 -0.17756162981E+02  0.32748016257E+02  0.65481213928E+02  0.41800000000E+01 0. -1.
         -5    1    3    3    0  502 -0.68417001245E+02 -0.61081607334E+02  0.46055037365E+02  0.10271508010E+03  0.41800000000E+01 0. -1.
        -11    1    1    2    0    0 -0.38822848527E+02  0.29726472203E+02  0.36563791614E+02  0.61055610508E+02  0.00000000000E+00 0. -1.
         11    1    1    2    0    0  0.53549970978E+02  0.49111298113E+02  0.39380225041E+02  0.82645756808E+02  0.00000000000E+00 0.  1.
</event>
<event>
 7    1  0.4394360E-006  0.9528774E+02  0.7561462E-02  0.1290529E+00
          2   -1    0    0  501    0  0.00000000000E+00  0.00000000000E+00  0.10075253904E+03  0.10075253904E+03  0.00000000000E+00 0. -1.
         -2   -1    0    0    0  501 -0.00000000000E+00 -0.00000000000E+00 -0.13405125514E+03  0.13405125514E+03  0.00000000000E+00 0.  1.
         23    2    1    2    0    0  0.15253518516E+02  0.34124038973E+02 -0.42040032743E+02  0.13714532297E+03  0.12507739763E+03 0.  0.
          5    1    3    3  502    0  0.37381314286E+02 -0.38633689073E+02 -0.11785243311E+02  0.55193196583E+02  0.41800000000E+01 0. -1.
         -5    1    3    3    0  502 -0.22127795769E+02  0.72757728046E+02 -0.30254789432E+02  0.81952126389E+02  0.41800000000E+01 0. -1.
        -11    1    1    2    0    0 -0.29253138758E+02 -0.71694431176E+01 -0.33873456168E+02  0.45327233255E+02  0.00000000000E+00 0.  1.
         11    1    1    2    0    0  0.13999620241E+02 -0.26954595855E+02  0.42614772805E+02  0.52331237954E+02  0.00000000000E+00 0. -1.
</event>
<event>
 7    1  0.4394360E-006  0.1874144E+03  0.7561462E-02  0.1160814E+00
         -2   -1    0    0    0  501 -0.00000000000E+00  0.00000000000E+00  0.25702037395E+03  0.25702037395E+03  0.00000000000E+00 0. -1.
          2   -1    0    0  501    0  0.00000000000E+00 -0.00000000000E+00 -0.18255650139E+03  0.18255650139E+03  0.00000000000E+00 0.  1.
         23    2    1    2    0    0  0.93085980070E+02  0.13809037200E+03  0.12589509367E+03  0.24337444389E+03  0.12509034656E+03 0.  0.
          5    1    3    3  502    0  0.70899636063E+01  0.11836697603E+03  0.58615949946E+02  0.13234164344E+03  0.41800000000E+01 0. -1.
         -5    1    3    3    0  502  0.85996016464E+02  0.19723395968E+02  0.67279143723E+02  0.11103280045E+03  0.41800000000E+01 0. -1.
        -11    1    1    2    0    0 -0.69430892130E+02 -0.11753226507E+03 -0.62735230569E+00  0.13650961756E+03  0.00000000000E+00 0. -1.
         11    1    1    2    0    0 -0.23655087940E+02 -0.20558106928E+02 -0.50803868801E+02  0.59692813898E+02  0.00000000000E+00 0.  1.
</event>
<event>
 7    1  0.4394360E-006  0.1352041E+03  0.7561462E-02  0.1219932E+00
          2   -1    0    0  501    0  0.00000000000E+00  0.00000000000E+00  0.10516291339E+03  0.10516291339E+03  0.00000000000E+00 0. -1.
         -2   -1    0    0    0  501 -0.00000000000E+00 -0.00000000000E+00 -0.23715018028E+03  0.23715018028E+03  0.00000000000E+00 0.  1.
         23    2    1    2    0    0 -0.10218617044E+03 -0.51022785039E+02 -0.75848712312E+02  0.18559586224E+03  0.12508980334E+03 0.  0.
          5    1    3    3  502    0 -0.33217157344E+02 -0.47387633435E+02 -0.97187106395E+02  0.11318910457E+03  0.41800000000E+01 0. -1.
         -5    1    3    3    0  502 -0.68969013092E+02 -0.36351516040E+01  0.21338394083E+02  0.72406757669E+02  0.41800000000E+01 0. -1.
        -11    1    1    2    0    0  0.72259045897E+02  0.75520184677E+02 -0.54807832066E+02  0.11801934783E+03  0.00000000000E+00 0.  1.
         11    1    1    2    0    0  0.29927124539E+02 -0.24497399638E+02 -0.13307225104E+01  0.38697883593E+02  0.00000000000E+00 0. -1.
</event>
<event>
 7    1  0.4394360E-006  0.1118541E+03  0.7561462E-02  0.1257174E+00
         -3   -1    0    0    0  501 -0.00000000000E+00  0.00000000000E+00  0.19627077120E+03  0.19627077120E+03  0.00000000000E+00 0.  1.
          3   -1    0    0  501    0  0.00000000000E+00 -0.00000000000E+00 -0.10895133874E+03  0.10895133874E+03  0.00000000000E+00 0. -1.
         23    2    1    2    0    0  0.31821862188E+02 -0.91820383661E+02  0.69574583748E+02  0.17282429924E+03  0.12483590003E+03 0.  0.
          5    1    3    3  502    0  0.17326846285E+02 -0.92650150826E+02  0.10084244140E+03  0.13809757579E+03  0.41800000000E+01 0. -1.
         -5    1    3    3    0  502  0.14495015903E+02  0.82976716514E+00 -0.31267857655E+02  0.34726723455E+02  0.41800000000E+01 0. -1.
        -11    1    1    2    0    0  0.12024789371E+02  0.57014504030E+02 -0.23534816197E+02  0.62842157845E+02  0.00000000000E+00 0. -1.
         11    1    1    2    0    0 -0.43846651559E+02  0.34805879631E+02  0.41279664907E+02  0.69555652859E+02  0.00000000000E+00 0.  1.
</event>
<event>
 7    1  0.4394360E-006  0.1379470E+03  0.7561462E-02  0.1216118E+00
         -2   -1    0    0    0  501 -0.00000000000E+00  0.00000000000E+00  0.14268168008E+03  0.14268168008E+03  0.00000000000E+00 0.  1.
          2   -1    0    0  501    0  0.00000000000E+00 -0.00000000000E+00 -0.15688241589E+03  0.15688241589E+03  0.00000000000E+00 0. -1.
         23    2    1    2    0    0  0.54673555806E+02 -0.69084442509E+02  0.46319969663E+02  0.15985576180E+03  0.12508583888E+03 0.  0.
          5    1    3    3  502    0  0.39336758003E+02  0.31867787061E+02  0.14837314445E+02  0.52920267216E+02  0.41800000000E+01 0. -1.
         -5    1    3    3    0  502  0.15336797803E+02 -0.10095222957E+03  0.31482655218E+02  0.10693549458E+03  0.41800000000E+01 0. -1.
        -11    1    1    2    0    0 -0.64545493278E+02  0.83431806376E+02 -0.61784575430E+02  0.12224696634E+03  0.00000000000E+00 0. -1.
         11    1    1    2    0    0  0.98719374725E+01 -0.14347363867E+02  0.12638699511E+01  0.17461367834E+02  0.00000000000E+00 0.  1.
</event>
<event>
 7    1  0.4394360E-006  0.1223532E+03  0.7561462E-02  0.1239265E+00
         -2   -1    0    0    0  501 -0.00000000000E+00  0.00000000000E+00  0.75286429203E+02  0.75286429203E+02  0.00000000000E+00 0.  1.
          2   -1    0    0  501    0  0.00000000000E+00 -0.00000000000E+00 -0.30507494269E+03  0.30507494269E+03  0.00000000000E+00 0. -1.
         23    2    1    2    0    0  0.75105068561E+02 -0.72990396534E+02 -0.14280804494E+03  0.21681714941E+03  0.12508864563E+03 0.  0.
          5    1    3    3  502    0  0.62562270672E+02 -0.68799964934E+02 -0.22571278114E+02  0.95783129424E+02  0.41800000000E+01 0. -1.
         -5    1    3    3    0  502  0.12542797889E+02 -0.41904316000E+01 -0.12023676683E+03  0.12103401998E+03  0.41800000000E+01 0. -1.
        -11    1    1    2    0    0 -0.68612959698E+02  0.42920993496E+01 -0.34942841024E+02  0.77117848091E+02  0.00000000000E+00 0.  1.
         11    1    1    2    0    0 -0.64921088626E+01  0.68698297184E+02 -0.52037627525E+02  0.86426374400E+02  0.00000000000E+00 0. -1.
</event>
<event>
 7    1  0.4394360E-006  0.1058526E+03  0.7561462E-02  0.1268449E+00
         -4   -1    0    0    0  501 -0.00000000000E+00  0.00000000000E+00  0.13473300951E+03  0.13473300951E+03  0.00000000000E+00 0.  1.
          4   -1    0    0  501    0  0.00000000000E+00 -0.00000000000E+00 -0.10568680294E+03  0.10568680294E+03  0.00000000000E+00 0. -1.
         23    2    1    2    0    0  0.45008793691E+02  0.10661308043E+02  0.33534797229E+02  0.13752154951E+03  0.12509252158E+03 0.  0.
          5    1    3    3  502    0  0.66397390095E+02  0.43739924876E+02 -0.81276767662E+01  0.80033280385E+02  0.41800000000E+01 0.  1.
         -5    1    3    3    0  502 -0.21388596404E+02 -0.33078616834E+02  0.41662473995E+02  0.57488269127E+02  0.41800000000E+01 0.  1.
        -11    1    1    2    0    0  0.10770307474E+02  0.24343759151E+02 -0.22247375685E+02  0.34692417869E+02  0.00000000000E+00 0. -1.
         11    1    1    2    0    0 -0.55779101164E+02 -0.35005067194E+02  0.17758785023E+02  0.68205845068E+02  0.00000000000E+00 0.  1.
</event>
<event>
 7    1  0.4394360E-006  0.1577509E+03  0.7561462E-02  0.1191260E+00
         -1   -1    0    0    0  501 -0.00000000000E+00  0.00000000000E+00  0.38841596952E+02  0.38841596952E+02  0.00000000000E+00 0. -1.
          1   -1    0    0  501    0  0.00000000000E+00 -0.00000000000E+00 -0.95774997245E+03  0.95774997245E+03  0.00000000000E+00 0.  1.
         23    2    1    2    0    0 -0.14595563257E+03  0.15389446186E+02 -0.31936360666E+03  0.37306946864E+03  0.12509130041E+03 0.  0.
          5    1    3    3  502    0 -0.72602279696E+02  0.40210188865E+02 -0.60366614160E+02  0.10271100628E+03  0.41800000000E+01 0.  1.
         -5    1    3    3    0  502 -0.73353352876E+02 -0.24820742679E+02 -0.25899699250E+03  0.27035846236E+03  0.41800000000E+01 0.  1.
        -11    1    1    2    0    0  0.57075122826E+02 -0.30471981686E+02 -0.12784235507E+03  0.14328216589E+03  0.00000000000E+00 0. -1.
         11    1    1    2    0    0  0.88880509746E+02  0.15082535501E+02 -0.47170241377E+03  0.48023993487E+03  0.00000000000E+00 0.  1.
</event>
<event>
 6    1  0.4394360E-006  0.1999349E+03  0.7561462E-02  0.1149794E+00
          1   -1    0    0  501    0  0.00000000000E+00  0.00000000000E+00  0.15584994199E+03  0.15584994199E+03  0.00000000000E+00 0. -1.
         -1   -1    0    0    0  501 -0.00000000000E+00 -0.00000000000E+00 -0.45760341398E+03  0.45760341398E+03  0.00000000000E+00 0.  1.
          5    1    1    2  502    0  0.26556949824E+02  0.45349775877E+01  0.61393645244E+00  0.27270623822E+02  0.41800000000E+01 0. -1.
         -5    1    1    2    0  502 -0.18914177991E+03 -0.15039549401E+01 -0.34591480754E+03  0.39427325709E+03  0.41800000000E+01 0.  1.
        -11    1    1    2    0    0  0.15404124746E+03  0.23242147998E+02  0.22988134101E+02  0.15747176786E+03  0.00000000000E+00 0. -1.
         11    1    1    2    0    0  0.85435826200E+01 -0.26273170646E+02  0.20559264992E+02  0.34437707194E+02  0.00000000000E+00 0.  1.
</event>
<event>
 7    1  0.4394360E-006  0.1271783E+03  0.7561462E-02  0.1231704E+00
          1   -1    0    0  501    0  0.00000000000E+00  0.00000000000E+00  0.60162929825E+03  0.60162929825E+03  0.00000000000E+00 0. -1.
         -1   -1    0    0    0  501 -0.00000000000E+00 -0.00000000000E+00 -0.36082227184E+02  0.36082227184E+02  0.00000000000E+00 0.  1.
         23    2    1    2    0    0  0.11902813468E+02 -0.95012099024E+02  0.37003851865E+03  0.40217533866E+03  0.12509005480E+03 0.  0.
          5    1    3    3  502    0  0.56462102648E+02 -0.61506285848E+02  0.30577453504E+03  0.31699610552E+03  0.41800000000E+01 0. -1.
         -5    1    3    3    0  502 -0.44559289180E+02 -0.33505813175E+02  0.64263983609E+02  0.85179233139E+02  0.41800000000E+01 0. -1.
        -11    1    1    2    0    0  0.24550657878E+02  0.57615185433E+02  0.47556631354E+02  0.78637634632E+02  0.00000000000E+00 0.  1.
         11    1    1    2    0    0 -0.36453471346E+02  0.37396913591E+02  0.14795192106E+03  0.15689855214E+03  0.00000000000E+00 0. -1.
</event>
<event>
 7    1  0.4394360E-006  0.9457224E+02  0.7561462E-02  0.1292142E+00
         -1   -1    0    0    0  501 -0.00000000000E+00  0.00000000000E+00  0.10913915461E+03  0.10913915461E+03  0.00000000000E+00 0.  1.
          1   -1    0    0  501    0  0.00000000000E+00 -0.00000000000E+00 -0.15345987796E+03  0.15345987796E+03  0.00000000000E+00 0. -1.
         23    2    1    2    0    0  0.42017607795E+02  0.56507351004E+02 -0.35205020773E+02  0.14780474804E+03  0.12509312521E+03 0.  0.
          5    1    3    3  502    0 -0.33261701734E+01 -0.15156996781E+02  0.34428870362E+02  0.37994966428E+02  0.41800000000E+01 0. -1.
         -5    1    3    3    0  502  0.45343777968E+02  0.71664347785E+02 -0.69633891135E+02  0.10980978162E+03  0.41800000000E+01 0. -1.
        -11    1    1    2    0    0  0.22289549590E+01 -0.41328108671E+02  0.32156391720E+02  0.52411967479E+02  0.00000000000E+00 0.  1.
         11    1    1    2    0    0 -0.44246562754E+02 -0.15179242333E+02 -0.41272094298E+02  0.62382317054E+02  0.00000000000E+00 0. -1.
</event>
<event>
 7    1  0.4394360E-006  0.9837109E+02  0.7561462E-02  0.1283759E+00
          1   -1    0    0  501    0  0.00000000000E+00  0.00000000000E+00  0.12572687066E+03  0.12572687066E+03  0.00000000000E+00 0. -1.
         -1   -1    0    0    0  501 -0.00000000000E+00 -0.00000000000E+00 -0.17487402969E+03  0.17487402969E+03  0.00000000000E+00 0.  1.
         23    2    1    2    0    0 -0.38893266844E+02  0.33287400584E+02 -0.11391028065E+03  0.17676101121E+03  0.12509262888E+03 0.  0.
          5    1    3    3  502    0 -0.12862369135E+02 -0.24404254989E+02 -0.10969830970E+03  0.11319098794E+03  0.41800000000E+01 0.  1.
         -5    1    3    3    0  502 -0.26030897709E+02  0.57691655572E+02 -0.42119709535E+01  0.63570023262E+02  0.41800000000E+01 0.  1.
        -11    1    1    2    0    0  0.10179153714E+02  0.32271681380E+02  0.17788373878E+02  0.38229606781E+02  0.00000000000E+00 0. -1.
         11    1    1    2    0    0  0.28714113130E+02 -0.65559081964E+02  0.46974747748E+02  0.85610282366E+02  0.00000000000E+00 0.  1.
</event>
<event>
 7    1  0.4394360E-006  0.1244227E+03  0.7561462E-02  0.1235974E+00
         -1   -1    0    0    0  501 -0.00000000000E+00  0.00000000000E+00  0.40266095492E+03  0.40266095492E+03  0.00000000000E+00 0.  1.
          1   -1    0    0  501    0  0.00000000000E+00 -0.00000000000E+00 -0.62071999700E+02  0.62071999700E+02  0.00000000000E+00 0. -1.
         23    2    1    2    0    0  0.90335983086E+02  0.67460492195E+02  0.21132356865E+03  0.27021664604E+03  0.12509147565E+03 0.  0.
          5    1    3    3  502    0  0.74057487785E+02  0.33632909209E+02  0.32899432204E+02  0.87838084669E+02  0.41800000000E+01 0.  1.
         -5    1    3    3    0  502  0.16278495301E+02  0.33827582986E+02  0.17842413645E+03  0.18237856137E+03  0.41800000000E+01 0.  1.
        -11    1    1    2    0    0  0.10079935806E+02 -0.40244145484E+01 -0.76370677970E+01  0.13271240441E+02  0.00000000000E+00 0. -1.
         11    1    1    2    0    0 -0.10041591889E+03 -0.63436077647E+02  0.13690245437E+03  0.18124506814E+03  0.00000000000E+00 0.  1.
</event>
<event>
 7    1  0.4394360E-006  0.8490808E+02  0.7561462E-02  0.1315673E+00
          4   -1    0    0  501    0  0.00000000000E+00  0.00000000000E+00  0.14318988947E+03  0.14318988947E+03  0.00000000000E+00 0. -1.
         -4   -1    0    0    0  501 -0.00000000000E+00 -0.00000000000E+00 -0.16065295168E+03  0.16065295168E+03  0.00000000000E+00 0.  1.
         23    2    1    2    0    0 -0.56401066196E+02 -0.31765166754E+01 -0.99508520205E+02  0.16953275165E+03  0.12509291652E+03 0.  0.
          5    1    3    3  502    0  0.10032577848E+02  0.53831338045E+01 -0.10166411618E+03  0.10238503634E+03  0.41800000000E+01 0.  1.
         -5    1    3    3    0  502 -0.66433644044E+02 -0.85596504799E+01  0.21555959785E+01  0.67147715310E+02  0.41800000000E+01 0.  1.
        -11    1    1    2    0    0  0.73459836635E+02  0.25222223367E+01  0.89387050500E+02  0.11572706685E+03  0.00000000000E+00 0. -1.
         11    1    1    2    0    0 -0.17058770439E+02  0.65429433867E+00 -0.73415925033E+01  0.18583022640E+02  0.00000000000E+00 0.  1.
</event>
<event>
 7    1  0.4394360E-006  0.1027803E+03  0.7561462E-02  0.1274556E+00
         -4   -1    0    0    0  501 -0.00000000000E+00  0.00000000000E+00  0.47266104108E+03  0.47266104108E+03  0.00000000000E+00 0.  1.
          4   -1    0    0  501    0  0.00000000000E+00 -0.00000000000E+00 -0.35893041465E+02  0.35893041465E+02  0.00000000000E+00 0. -1.
         23    2    1    2    0    0  0.15277366054E+02  0.61564723712E+02  0.31435333129E+03  0.34422269126E+03  0.12509049191E+03 0.  0.
          5    1    3    3  502    0 -0.27355843186E+02  0.66988995155E+02  0.27946153740E+03  0.28870762185E+03  0.41800000000E+01 0.  1.
         -5    1    3    3    0  502  0.42633209239E+02 -0.54242714437E+01  0.34891793889E+02  0.55515069409E+02  0.41800000000E+01 0.  1.
        -11    1    1    2    0    0  0.23111751204E+02 -0.89814150750E+01 -0.97952874275E+00  0.24814881363E+02  0.00000000000E+00 0. -1.
         11    1    1    2    0    0 -0.38389117258E+02 -0.52583308637E+02  0.12339419707E+03  0.13951650992E+03  0.00000000000E+00 0.  1.
</event>
<event>
 7    1  0.4394360E-006  0.9800035E+02  0.7561462E-02  0.1284558E+00
         -2   -1    0    0    0  501 -0.00000000000E+00  0.00000000000E+00  0.97788832746E+02  0.97788832746E+02  0.00000000000E+00 0.  1.
          2   -1    0    0  501    0  0.00000000000E+00 -0.00000000000E+00 -0.19467682149E+03  0.19467682149E+03  0.00000000000E+00 0. -1.
         23    2    1    2    0    0  0.74525773585E+02  0.28767011604E+02 -0.24294333081E+02  0.15040573342E+03  0.12510011248E+03 0.  0.
          5    1    3    3  502    0  0.73432847283E+02  0.30024263046E+02 -0.69150883920E+02  0.10532405508E+03  0.41800000000E+01 0. -1.
         -5    1    3    3    0  502  0.10929263022E+01 -0.12572514420E+01  0.44856550839E+02  0.45081678343E+02  0.41800000000E+01 0. -1.
        -11    1    1    2    0    0  0.11782133682E+02 -0.22651993349E+02 -0.44111726289E+02  0.50968381110E+02  0.00000000000E+00 0. -1.
         11    1    1    2    0    0 -0.86307907267E+02 -0.61150182554E+01 -0.28481929378E+02  0.91091539707E+02  0.00000000000E+00 0.  1.
</event>
<event>
 7    1  0.4394360E-006  0.9077952E+02  0.7561462E-02  0.1300975E+00
         -2   -1    0    0    0  501 -0.00000000000E+00  0.00000000000E+00  0.50899018095E+02  0.50899018095E+02  0.00000000000E+00 0.  1.
          2   -1    0    0  501    0  0.00000000000E+00 -0.00000000000E+00 -0.30492735485E+03  0.30492735485E+03  0.00000000000E+00 0. -1.
         23    2    1    2    0    0 -0.60454105823E+02 -0.31442544518E+01 -0.12466803299E+03  0.18669363198E+03  0.12509120083E+03 0.  0.
          5    1    3    3  502    0  0.21124513400E+02  0.21693176030E+02 -0.89110156984E+02  0.94206854476E+02  0.41800000000E+01 0.  1.
         -5    1    3    3    0  502 -0.81578619223E+02 -0.24837430482E+02 -0.35557876011E+02  0.92486777507E+02  0.41800000000E+01 0.  1.
        -11    1    1    2    0    0  0.26705501150E+02 -0.11180448859E+02  0.54204321590E+01  0.29454495636E+02  0.00000000000E+00 0.  1.
         11    1    1    2    0    0  0.33748604673E+02  0.14324703311E+02 -0.13478073592E+03  0.13967824533E+03  0.00000000000E+00 0. -1.
</event>
<event>
 7    1  0.5347590E-006  0.2570898E+03  0.7561462E-02  0.1108904E+00
          1   -1    0    0  501    0  0.00000000000E+00  0.00000000000E+00  0.16041989374E+04  0.16041989374E+04  0.00000000000E+00 0. -1.
         -1   -1    0    0    0  501 -0.00000000000E+00 -0.00000000000E+00 -0.47446225323E+02  0.47446225323E+02  0.00000000000E+00 0.  1.
         23    2    1    2    0    0  0.16374971816E+03  0.91726023201E+02  0.53004223947E+03  0.57603768499E+03  0.12508799053E+03 0.  0.
          5    1    3    3  502    0  0.72977534878E+02  0.79970582484E+01  0.77098470103E+02  0.10654257379E+03  0.41800000000E+01 0. -1.
         -5    1    3    3    0  502  0.90772183280E+02  0.83728964953E+02  0.45294376937E+03  0.46949511120E+03  0.41800000000E+01 0. -1.
        -11    1    1    2    0    0 -0.79692197549E+02 -0.17898461062E+03  0.70919466806E+03  0.73576043275E+03  0.00000000000E+00 0. -1.
         11    1    1    2    0    0 -0.84057520609E+02  0.87258587423E+02  0.31751580454E+03  0.33984704498E+03  0.00000000000E+00 0.  1.
</event>
<event>
 7    1  0.4394360E-006  0.1063841E+03  0.7561462E-02  0.1267416E+00
          2   -1    0    0  501    0  0.00000000000E+00  0.00000000000E+00  0.35312481249E+03  0.35312481249E+03  0.00000000000E+00 0. -1.
         -2   -1    0    0    0  501 -0.00000000000E+00 -0.00000000000E+00 -0.66004344581E+02  0.66004344581E+02  0.00000000000E+00 0.  1.
         23    2    1    2    0    0  0.25819129244E+02  0.54596207993E+02  0.31914952446E+02  0.14253127623E+03  0.12509687107E+03 0.  0.
          5    1    3    3  502    0 -0.34052793517E+02  0.42364758141E+02  0.54655312036E+02  0.77194825036E+02  0.41800000000E+01 0. -1.
         -5    1    3    3    0  502  0.59871922761E+02  0.12231449852E+02 -0.22740359591E+02  0.65336451196E+02  0.41800000000E+01 0. -1.
        -11    1    1    2    0    0  0.27138376970E+02 -0.20608195667E+02  0.15157821959E+03  0.15536133975E+03  0.00000000000E+00 0. -1.
         11    1    1    2    0    0 -0.52957506214E+02 -0.33988012327E+02  0.10362729587E+03  0.12123654109E+03  0.00000000000E+00 0.  1.
</event>
<event>
 7    1  0.4394360E-006  0.7923799E+02  0.7561462E-02  0.1331228E+00
          1   -1    0    0  501    0  0.00000000000E+00  0.00000000000E+00  0.16240413835E+03  0.16240413835E+03  0.00000000000E+00 0. -1.
         -1   -1    0    0    0  501 -0.00000000000E+00 -0.00000000000E+00 -0.87180522249E+02  0.87180522249E+02  0.00000000000E+00 0.  1.
         23    2    1    2    0    0 -0.64102592642E+01  0.43022873992E+02  0.34777336167E+02  0.13693295021E+03  0.12509640535E+03 0.  0.
          5    1    3    3  502    0 -0.20421693861E+02  0.44114123784E+02  0.77603028885E+02  0.91666809639E+02  0.41800000000E+01 0. -1.
         -5    1    3    3    0  502  0.14011434596E+02 -0.10912497920E+01 -0.42825692718E+02  0.45266140572E+02  0.41800000000E+01 0. -1.
        -11    1    1    2    0    0  0.35085770944E+02 -0.53933453795E+02  0.48914338689E+02  0.80823519413E+02  0.00000000000E+00 0.  1.
         11    1    1    2    0    0 -0.28675511680E+02  0.10910579804E+02 -0.84680587527E+01  0.31828190976E+02  0.00000000000E+00 0. -1.
</event>
<event>
 7    1  0.4394360E-006  0.2349881E+03  0.7561462E-02  0.1123177E+00
         -2   -1    0    0    0  501 -0.00000000000E+00  0.00000000000E+00  0.74048205841E+02  0.74048205841E+02  0.00000000000E+00 0.  1.
          2   -1    0    0  501    0  0.00000000000E+00 -0.00000000000E+00 -0.81360962233E+03  0.81360962233E+03  0.00000000000E+00 0. -1.
         23    2    1    2    0    0  0.21688331504E+03 -0.32554934651E+02 -0.35817738810E+03  0.43822227944E+03  0.12509807650E+03 0.  0.
          5    1    3    3  502    0  0.22359084216E+03 -0.46918596281E+02 -0.29608892259E+03  0.37400580457E+03  0.41800000000E+01 0.  1.
         -5    1    3    3    0  502 -0.67075271203E+01  0.14363661629E+02 -0.62088465510E+02  0.64216474871E+02  0.41800000000E+01 0.  1.
        -11    1    1    2    0    0 -0.14952990832E+03  0.45908598982E+02 -0.18997981160E+03  0.24608763024E+03  0.00000000000E+00 0.  1.
         11    1    1    2    0    0 -0.67353406716E+02 -0.13353664330E+02 -0.19140421679E+03  0.20334791848E+03  0.00000000000E+00 0. -1.
</event>
<event>
 7    1  0.4394360E-006  0.7928932E+02  0.7561462E-02  0.1331080E+00
          1   -1    0    0  501    0  0.00000000000E+00  0.00000000000E+00  0.30648199038E+02  0.30648199038E+02  0.00000000000E+00 0. -1.
         -1   -1    0    0    0  501 -0.00000000000E+00 -0.00000000000E+00 -0.41757474023E+03  0.41757474023E+03  0.00000000000E+00 0.  1.
         23    2    1    2    0    0  0.85327214201E+01  0.29837073153E+02 -0.24541713751E+03  0.27721488178E+03  0.12512178479E+03 0.  0.
          5    1    3    3  502    0  0.18615481793E+02 -0.25015791687E+02 -0.68742880623E+01  0.32203326420E+02  0.41800000000E+01 0.  1.
         -5    1    3    3    0  502 -0.10082760373E+02  0.54852864840E+02 -0.23854284944E+03  0.24501155536E+03  0.41800000000E+01 0.  1.
        -11    1    1    2    0    0 -0.87094099915E+01  0.19758786026E+02 -0.57410427863E+00  0.21600764879E+02  0.00000000000E+00 0. -1.
         11    1    1    2    0    0  0.17668857144E+00 -0.49595859179E+02 -0.14093529941E+03  0.14940729261E+03  0.00000000000E+00 0.  1.
</event>
<event>
 7    1  0.4394360E-006  0.1928684E+03  0.7561462E-02  0.1155899E+00
         -2   -1    0    0    0  501 -0.00000000000E+00  0.00000000000E+00  0.50788285878E+02  0.50788285878E+02  0.00000000000E+00 0.  1.
          2   -1    0    0  501    0  0.00000000000E+00 -0.00000000000E+00 -0.86250356043E+03  0.86250356043E+03  0.00000000000E+00 0. -1.
         23    2    1    2    0    0 -0.90539107402E+02  0.14095830918E+03 -0.26839646064E+03  0.33709272316E+03  0.11631108729E+03 0.  0.
          5    1    3    3  502    0  0.19279870003E+02 -0.26891187073E+01 -0.48123725123E+02  0.52079843188E+02  0.41800000000E+01 0. -1.
         -5    1    3    3    0  502 -0.10981897740E+03  0.14364742789E+03 -0.22027273552E+03  0.28501287997E+03  0.41800000000E+01 0.  1.
        -11    1    1    2    0    0  0.99883283753E+02 -0.94261303382E+02 -0.46179663392E+03  0.48178625425E+03  0.00000000000E+00 0. -1.
         11    1    1    2    0    0 -0.93441763507E+01 -0.46697005800E+02 -0.81522179991E+02  0.94412868894E+02  0.00000000000E+00 0.  1.
</event>
<event>
 7    1  0.4394360E-006  0.1331730E+03  0.7561462E-02  0.1222822E+00
          1   -1    0    0  501    0  0.00000000000E+00  0.00000000000E+00  0.17589062891E+03  0.17589062891E+03  0.00000000000E+00 0. -1.
         -1   -1    0    0    0  501 -0.00000000000E+00 -0.00000000000E+00 -0.13493426038E+03  0.13493426038E+03  0.00000000000E+00 0.  1.
         23    2    1    2    0    0  0.58590635404E+02  0.89782549142E+02  0.35108258943E+01  0.16478420174E+03  0.12509092116E+03 0.  0.
          5    1    3    3  502    0 -0.11520241022E+02 -0.22000129034E+02 -0.18096695884E+02  0.31011037271E+02  0.41800000000E+01 0.  1.
         -5    1    3    3    0  502  0.70110876426E+02  0.11178267818E+03  0.21607521778E+02  0.13377316446E+03  0.41800000000E+01 0.  1.
        -11    1    1    2    0    0 -0.27159652087E+02 -0.24015700062E+02 -0.29752922874E+02  0.46900287531E+02  0.00000000000E+00 0.  1.
         11    1    1    2    0    0 -0.31430983318E+02 -0.65766849080E+02  0.67198465513E+02  0.99140400027E+02  0.00000000000E+00 0. -1.
</event>
<event>
 7    1  0.4394360E-006  0.9667763E+02  0.7561462E-02  0.1287442E+00
         -1   -1    0    0    0  501 -0.00000000000E+00  0.00000000000E+00  0.56702435113E+02  0.56702435113E+02  0.00000000000E+00 0.  1.
          1   -1    0    0  501    0  0.00000000000E+00 -0.00000000000E+00 -0.24821834597E+03  0.24821834597E+03  0.00000000000E+00 0. -1.
         23    2    1    2    0    0  0.10191790807E+02  0.43723763477E+02 -0.83456415883E+02  0.15693227144E+03  0.12508846620E+03 0.  0.
          5    1    3    3  502    0  0.46000594633E+02  0.55886117507E+02 -0.86657052181E+01  0.73019721196E+02  0.41800000000E+01 0. -1.
         -5    1    3    3    0  502 -0.35808803826E+02 -0.12162354030E+02 -0.74790710665E+02  0.83912550246E+02  0.41800000000E+01 0. -1.
        -11    1    1    2    0    0 -0.69413418041E+00  0.19177021438E+02  0.35574120793E+01  0.19516535404E+02  0.00000000000E+00 0.  1.
         11    1    1    2    0    0 -0.94976566264E+01 -0.62900784915E+02 -0.11161690705E+03  0.12847197423E+03  0.00000000000E+00 0. -1.
</event>
<event>
 6    1  0.4394360E-006  0.1271230E+03  0.7561462E-02  0.1231788E+00
          4   -1    0    0  501    0  0.00000000000E+00  0.00000000000E+00  0.36968745175E+02  0.36968745175E+02  0.00000000000E+00 0. -1.
         -4   -1    0    0    0  501 -0.00000000000E+00 -0.00000000000E+00 -0.44260015943E+03  0.44260015943E+03  0.00000000000E+00 0.  1.
          5    1    1    2  502    0 -0.34849873178E+02  0.62577310068E+02 -0.13177969027E+03  0.15004596817E+03  0.41800000000E+01 0. -1.
         -5    1    1    2    0  502  0.78243573087E+02 -0.44179590069E+02 -0.14655165019E+03  0.17195566720E+03  0.41800000000E+01 0.  1.
        -11    1    1    2    0    0  0.23581366625E+02 -0.70737705676E+01 -0.28371006194E+02  0.37563720189E+02  0.00000000000E+00 0. -1.
         11    1    1    2    0    0 -0.66975066534E+02 -0.11323949431E+02 -0.98929067601E+02  0.12000354905E+03  0.00000000000E+00 0.  1.
</event>
<event>
 7    1  0.4394360E-006  0.1027700E+03  0.7561462E-02  0.1274577E+00
         -1   -1    0    0    0  501 -0.00000000000E+00  0.00000000000E+00  0.12774073684E+03  0.12774073684E+03  0.00000000000E+00 0.  1.
          1   -1    0    0  501    0  0.00000000000E+00 -0.00000000000E+00 -0.12141541431E+03  0.12141541431E+03  0.00000000000E+00 0. -1.
         23    2    1    2    0    0 -0.38485917918E+02 -0.10801037610E+01  0.51091142524E+02  0.14049824178E+03  0.12508844310E+03 0.  0.
          5    1    3    3  502    0  0.10815424149E+02  0.45785594571E+02  0.54678926821E+02  0.72253384060E+02  0.41800000000E+01 0.  1.
         -5    1    3    3    0  502 -0.49301342068E+02 -0.46865698332E+02 -0.35877842970E+01  0.68244857725E+02  0.41800000000E+01 0.  1.
        -11    1    1    2    0    0  0.62976965576E+02 -0.91093868267E+01 -0.50836610447E+02  0.81445933497E+02  0.00000000000E+00 0. -1.
         11    1    1    2    0    0 -0.24491047657E+02  0.10189490588E+02  0.60707904473E+01  0.27211975864E+02  0.00000000000E+00 0.  1.
</event>
<event>
 7    1  0.4394360E-006  0.1515369E+03  0.7561462E-02  0.1198597E+00
         -1   -1    0    0    0  501 -0.00000000000E+00  0.00000000000E+00  0.43017746659E+03  0.43017746659E+03  0.00000000000E+00 0.  1.
          1   -1    0    0  501    0  0.00000000000E+00 -0.00000000000E+00 -0.63980743020E+02  0.63980743020E+02  0.00000000000E+00 0. -1.
         23    2    1    2    0    0  0.11307502909E+03 -0.53498683747E+02  0.19477706911E+03  0.26312233866E+03  0.12508871685E+03 0.  0.
          5    1    3    3  502    0  0.49777119198E+01  0.24854220288E+02 -0.14688391962E+01  0.25732076688E+02  0.41800000000E+01 0. -1.
         -5    1    3    3    0  502  0.10809731717E+03 -0.78352904036E+02  0.19624590831E+03  0.23739026197E+03  0.41800000000E+01 0. -1.
        -11    1    1    2    0    0 -0.12115509010E+03  0.39114294893E+02  0.11265427152E+03  0.16999843768E+03  0.00000000000E+00 0. -1.
         11    1    1    2    0    0  0.80800610098E+01  0.14384388854E+02  0.58765382933E+02  0.61037433268E+02  0.00000000000E+00 0.  1.
</event>
<event>
 7    1  0.4394360E-006  0.8656264E+02  0.7561462E-02  0.1311396E+00
          2   -1    0    0  501    0  0.00000000000E+00  0.00000000000E+00  0.33988571380E+03  0.33988571380E+03  0.00000000000E+00 0. -1.
         -2   -1    0    0    0  501 -0.00000000000E+00 -0.00000000000E+00 -0.46653841915E+02  0.46653841915E+02  0.00000000000E+00 0.  1.
         23    2    1    2    0    0 -0.31442073903E+02  0.32012217242E+02  0.94228199168E+02  0.16291331806E+03  0.12509360343E+03 0.  0.
          5    1    3    3  502    0 -0.31444586806E+02 -0.66690801464E+01  0.11452984975E+03  0.11902855772E+03  0.41800000000E+01 0.  1.
         -5    1    3    3    0  502  0.25129036331E-02  0.38681297389E+02 -0.20301650579E+02  0.43884760342E+02  0.41800000000E+01 0.  1.
        -11    1    1    2    0    0 -0.16703047053E+02  0.23175421029E+02  0.49621479350E+02  0.57257166658E+02  0.00000000000E+00 0.  1.
         11    1    1    2    0    0  0.48145120955E+02 -0.55187638272E+02  0.14938219337E+03  0.16636907100E+03  0.00000000000E+00 0. -1.
</event>
<event>
 7    1  0.4394360E-006  0.1140648E+03  0.7561462E-02  0.1253222E+00
         -3   -1    0    0    0  501 -0.00000000000E+00  0.00000000000E+00  0.19395368991E+02  0.19395368991E+02  0.00000000000E+00 0.  1.
          3   -1    0    0  501    0  0.00000000000E+00 -0.00000000000E+00 -0.70172939376E+03  0.70172939376E+03  0.00000000000E+00 0. -1.
         23    2    1    2    0    0  0.17910574890E+02 -0.34989075529E+02 -0.45658810003E+03  0.47502857191E+03  0.12503770210E+03 0.  0.
          5    1    3    3  502    0  0.63884269734E+02 -0.50398179532E+02 -0.31231521614E+03  0.32276840467E+03  0.41800000000E+01 0.  1.
         -5    1    3    3    0  502 -0.45973694844E+02  0.15409104004E+02 -0.14427288389E+03  0.15226016724E+03  0.41800000000E+01 0.  1.
        -11    1    1    2    0    0 -0.47602576247E+01  0.65023421104E+02 -0.14893419446E+03  0.16257951785E+03  0.00000000000E+00 0. -1.
         11    1    1    2    0    0 -0.13150317265E+02 -0.30034345576E+02 -0.76811730286E+02  0.83516672993E+02  0.00000000000E+00 0.  1.
</event>
<event>
 7    1  0.4394360E-006  0.1166628E+03  0.7561462E-02  0.1248706E+00
          2   -1    0    0  501    0  0.00000000000E+00  0.00000000000E+00  0.60039859413E+03  0.60039859413E+03  0.00000000000E+00 0. -1.
         -2   -1    0    0    0  501 -0.00000000000E+00 -0.00000000000E+00 -0.24490743552E+02  0.24490743552E+02  0.00000000000E+00 0.  1.
         23    2    1    2    0    0 -0.31773254301E+02 -0.36341403536E+02  0.25726321513E+03  0.29010957035E+03  0.12509581788E+03 0.  0.
          5    1    3    3  502    0 -0.78141041110E+02 -0.16143987346E+02  0.18773542771E+03  0.20403115902E+03  0.41800000000E+01 0.  1.
         -5    1    3    3    0  502  0.46367786809E+02 -0.20197416190E+02  0.69527787423E+02  0.86078411337E+02  0.41800000000E+01 0.  1.
        -11    1    1    2    0    0  0.36507499727E+02  0.64504227997E+02  0.22890746572E+03  0.24060802320E+03  0.00000000000E+00 0.  1.
         11    1    1    2    0    0 -0.47342454261E+01 -0.28162824461E+02  0.89737169723E+02  0.94171744124E+02  0.00000000000E+00 0. -1.
</event>
<event>
 7    1  0.4394360E-006  0.1543596E+03  0.7561462E-02  0.1195216E+00
          2   -1    0    0  501    0  0.00000000000E+00  0.00000000000E+00  0.86998836086E+03  0.86998836086E+03  0.00000000000E+00 0. -1.
         -2   -1    0    0    0  501 -0.00000000000E+00 -0.00000000000E+00 -0.66655069402E+02  0.66655069402E+02  0.00000000000E+00 0.  1.
         23    2    1    2    0    0  0.11933339838E+03 -0.61471515455E+02  0.89308196550E+02  0.20406597608E+03  0.12509101263E+03 0.  0.
          5    1    3    3  502    0  0.89079582223E+00 -0.27559995278E+02  0.74937013594E+02  0.79958584676E+02  0.41800000000E+01 0.  1.
         -5    1    3    3    0  502  0.11844260256E+03 -0.33911520176E+02  0.14371182955E+02  0.12410739141E+03  0.41800000000E+01 0.  1.
        -11    1    1    2    0    0 -0.13206750840E+03  0.58699226398E+02  0.69245203884E+03  0.70737348837E+03  0.00000000000E+00 0. -1.
         11    1    1    2    0    0  0.12734110013E+02  0.27722890567E+01  0.21573056065E+02  0.25203965807E+02  0.00000000000E+00 0.  1.
</event>
<event>
 7    1  0.4394360E-006  0.1419854E+03  0.7561462E-02  0.1210682E+00
         -2   -1    0    0    0  501 -0.00000000000E+00  0.00000000000E+00  0.97300844150E+02  0.97300844150E+02  0.00000000000E+00 0.  1.
          2   -1    0    0  501    0  0.00000000000E+00 -0.00000000000E+00 -0.35468670007E+03  0.35468670007E+03  0.00000000000E+00 0. -1.
         23    2    1    2    0    0 -0.63574238905E+02 -0.81048627300E+02 -0.34468490799E+01  0.16208254661E+03  0.12509319449E+03 0.  0.
          5    1    3    3  502    0 -0.98222802144E+02 -0.43457307121E+02  0.12868960972E+02  0.10825589573E+03  0.41800000000E+01 0. -1.
         -5    1    3    3    0  502  0.34648563239E+02 -0.37591320179E+02 -0.16315810052E+02  0.53826650881E+02  0.41800000000E+01 0. -1.
        -11    1    1    2    0    0  0.11181479888E+02  0.70956871482E+02 -0.77926822396E+02  0.10598345508E+03  0.00000000000E+00 0.  1.
         11    1    1    2    0    0  0.52392759017E+02  0.10091755819E+02 -0.17601218444E+03  0.18392154253E+03  0.00000000000E+00 0. -1.
</event>
<event>
 7    1  0.4394360E-006  0.1151581E+03  0.7561462E-02  0.1251305E+00
         -1   -1    0    0    0  501 -0.00000000000E+00  0.00000000000E+00  0.10159203424E+03  0.10159203424E+03  0.00000000000E+00 0.  1.
          1   -1    0    0  501    0  0.00000000000E+00 -0.00000000000E+00 -0.20606927772E+03  0.20606927772E+03  0.00000000000E+00 0. -1.
         23    2    1    2    0    0 -0.15307103616E+02 -0.69476192425E+02  0.54804563808E+01  0.14400983539E+03  0.12509016169E+03 0.  0.
          5    1    3    3  502    0 -0.42112636472E+02  0.24613225175E+01 -0.36915873877E+02  0.56211977400E+02  0.41800000000E+01 0. -1.
         -5    1    3    3    0  502  0.26805532856E+02 -0.71937514943E+02  0.42396330258E+02  0.87797857987E+02  0.41800000000E+01 0. -1.
        -11    1    1    2    0    0  0.44935700019E+01  0.88791806414E+02 -0.55349219260E+02  0.10472685009E+03  0.00000000000E+00 0.  1.
         11    1    1    2    0    0  0.10813533614E+02 -0.19315613989E+02 -0.54608480602E+02  0.58924626487E+02  0.00000000000E+00 0. -1.
</event>
<event>
 7    1  0.4394360E-006  0.1240069E+03  0.7561462E-02  0.1236629E+00
         -2   -1    0    0    0  501 -0.00000000000E+00  0.00000000000E+00  0.44568977877E+02  0.44568977877E+02  0.00000000000E+00 0. -1.
          2   -1    0    0  501    0  0.00000000000E+00 -0.00000000000E+00 -0.47958110839E+03  0.47958110839E+03  0.00000000000E+00 0.  1.
         23    2    1    2    0    0  0.41245567739E+02 -0.87375008691E+02 -0.23146435067E+03  0.28028380150E+03  0.12509066612E+03 0.  0.
          5    1    3    3  502    0 -0.17167946524E+02 -0.28304574082E+02  0.10039286977E+01  0.33382144548E+02  0.41800000000E+01 0. -1.
         -5    1    3    3    0  502  0.58413514263E+02 -0.59070434610E+02 -0.23246827937E+03  0.24690165695E+03  0.41800000000E+01 0. -1.
        -11    1    1    2    0    0  0.82076081169E+01  0.81218126126E+02 -0.10111303261E+03  0.12995227665E+03  0.00000000000E+00 0.  1.
         11    1    1    2    0    0 -0.49453175856E+02  0.61568825655E+01 -0.10243474723E+03  0.11391400812E+03  0.00000000000E+00 0. -1.
</event>
<event>
 7    1  0.5127475E-006  0.1898706E+03  0.7561462E-02  0.1158578E+00
          3   -1    0    0  501    0  0.00000000000E+00  0.00000000000E+00  0.28295578993E+03  0.28295578993E+03  0.00000000000E+00 0. -1.
         -3   -1    0    0    0  501 -0.00000000000E+00 -0.00000000000E+00 -0.15672700004E+03  0.15672700004E+03  0.00000000000E+00 0.  1.
         23    2    1    2    0    0 -0.10130109574E+03 -0.13739378662E+03  0.28011369791E+01  0.21164776728E+03  0.12509183197E+03 0.  0.
          5    1    3    3  502    0 -0.31965479359E+02  0.46553827149E+01 -0.36290709106E+02  0.48764253570E+02  0.41800000000E+01 0.  1.
         -5    1    3    3    0  502 -0.69335616377E+02 -0.14204916934E+03  0.39091846085E+02  0.16288351371E+03  0.41800000000E+01 0.  1.
        -11    1    1    2    0    0  0.10022162061E+03  0.71425329671E+02  0.98023632276E+02  0.15733589369E+03  0.00000000000E+00 0. -1.
         11    1    1    2    0    0  0.10794751218E+01  0.65968456950E+02  0.25404020633E+02  0.70699129013E+02  0.00000000000E+00 0.  1.
</event>
<event>
 7    1  0.4394360E-006  0.1761127E+03  0.7561462E-02  0.1171619E+00
         -2   -1    0    0    0  501 -0.00000000000E+00  0.00000000000E+00  0.50402653819E+03  0.50402653819E+03  0.00000000000E+00 0.  1.
          2   -1    0    0  501    0  0.00000000000E+00 -0.00000000000E+00 -0.68874514891E+02  0.68874514891E+02  0.00000000000E+00 0. -1.
         23    2    1    2    0    0 -0.11462180950E+03 -0.92379923125E+02  0.28271709587E+03  0.34241894081E+03  0.12509822269E+03 0.  0.
          5    1    3    3  502    0  0.18129769134E+02 -0.34678544780E+02  0.11113115282E+03  0.11789357711E+03  0.41800000000E+01 0.  1.
         -5    1    3    3    0  502 -0.13275157864E+03 -0.57701378345E+02  0.17158594305E+03  0.22452536370E+03  0.41800000000E+01 0.  1.
        -11    1    1    2    0    0  0.27244399568E+02  0.73884840501E+02  0.98642784284E+02  0.12622054450E+03  0.00000000000E+00 0.  1.
         11    1    1    2    0    0  0.87377409934E+02  0.18495082624E+02  0.53792143141E+02  0.10426156776E+03  0.00000000000E+00 0. -1.
</event>
<event>
 7    1  0.4394360E-006  0.1743538E+03  0.7561462E-02  0.1173382E+00
          2   -1    0    0  501    0  0.00000000000E+00  0.00000000000E+00  0.47032687222E+03  0.47032687222E+03  0.00000000000E+00 0. -1.
         -2   -1    0    0    0  501 -0.00000000000E+00 -0.00000000000E+00 -0.85803074300E+02  0.85803074300E+02  0.00000000000E+00 0.  1.
         23    2    1    2    0    0 -0.22955754374E+01 -0.16183775927E+03  0.13447413496E+03  0.24480168307E+03  0.12509133090E+03 0.  0.
          5    1    3    3  502    0  0.22675811134E+02 -0.82089672018E+02 -0.13466162027E+01  0.85277150737E+02  0.41800000000E+01 0. -1.
         -5    1    3    3    0  502 -0.24971386572E+02 -0.79748087252E+02  0.13582075116E+03  0.15952453233E+03  0.41800000000E+01 0. -1.
        -11    1    1    2    0    0 -0.35401659122E+02  0.11081260452E+03  0.19629590692E+03  0.22817711073E+03  0.00000000000E+00 0.  1.
         11    1    1    2    0    0  0.37697234559E+02  0.51025154749E+02  0.53753756040E+02  0.83151152722E+02  0.00000000000E+00 0. -1.
</event>
<event>
 7    1  0.4394360E-006  0.1119815E+03  0.7561462E-02  0.1256944E+00
         -1   -1    0    0    0  501 -0.00000000000E+00  0.00000000000E+00  0.10442927688E+03  0.10442927688E+03  0.00000000000E+00 0. -1.
          1   -1    0    0  501    0  0.00000000000E+00 -0.00000000000E+00 -0.14589974557E+03  0.14589974557E+03  0.00000000000E+00 0.  1.
         23    2    1    2    0    0 -0.57723130333E+02  0.14357945076E+02 -0.63699593074E+01  0.13865662206E+03  0.12508785752E+03 0.  0.
          5    1    3    3  502    0 -0.81319730950E+02 -0.16968515850E+02 -0.34669942634E+02  0.90112743239E+02  0.41800000000E+01 0. -1.
         -5    1    3    3    0  502  0.23596600617E+02  0.31326460926E+02  0.28299983327E+02  0.48543878822E+02  0.41800000000E+01 0. -1.
        -11    1    1    2    0    0  0.58448117143E+02 -0.43083259228E+02 -0.95783213546E+01  0.73239974490E+02  0.00000000000E+00 0. -1.
         11    1    1    2    0    0 -0.72498680986E+00  0.28725314152E+02 -0.25522188029E+02  0.38432425903E+02  0.00000000000E+00 0.  1.
</event>
<event>
 7    1  0.4394360E-006  0.8062005E+02  0.7561462E-02  0.1327301E+00
         -2   -1    0    0    0  501 -0.00000000000E+00  0.00000000000E+00  0.76342751309E+02  0.76342751309E+02  0.00000000000E+00 0.  1.
          2   -1    0    0  501    0  0.00000000000E+00 -0.00000000000E+00 -0.19262185457E+03  0.19262185457E+03  0.00000000000E+00 0. -1.
         23    2    1    2    0    0  0.36783476913E+02  0.23294633214E+02 -0.30216905643E+02  0.13588839194E+03  0.12512765309E+03 0.  0.
          5    1    3    3  502    0  0.52415483173E+02  0.16190112325E+02 -0.71945964505E+02  0.90571501157E+02  0.41800000000E+01 0. -1.
         -5    1    3    3    0  502 -0.15632006260E+02  0.71045208887E+01  0.41729058862E+02  0.45316890783E+02  0.41800000000E+01 0. -1.
        -11    1    1    2    0    0 -0.59187633322E+02 -0.45920619953E+01 -0.85245898380E+02  0.10388034541E+03  0.00000000000E+00 0. -1.
         11    1    1    2    0    0  0.22404156408E+02 -0.18702571219E+02 -0.81629923446E+00  0.29195868526E+02  0.00000000000E+00 0.  1.
</event>
<event>
 7    1  0.4394360E-006  0.1080559E+03  0.7561462E-02  0.1264213E+00
         -1   -1    0    0    0  501 -0.00000000000E+00  0.00000000000E+00  0.20926463903E+03  0.20926463903E+03  0.00000000000E+00 0.  1.
          1   -1    0    0  501    0  0.00000000000E+00 -0.00000000000E+00 -0.93325315638E+02  0.93325315638E+02  0.00000000000E+00 0. -1.
         23    2    1    2    0    0 -0.27195705698E+02  0.61884107572E+02  0.12426387756E+03  0.18883425352E+03  0.12509042672E+03 0.  0.
          5    1    3    3  502    0  0.30990362404E+02  0.23363134620E+02 -0.74305711041E+01  0.39735681801E+02  0.41800000000E+01 0. -1.
         -5    1    3    3    0  502 -0.58186068102E+02  0.38520972952E+02  0.13169444867E+03  0.14909857172E+03  0.41800000000E+01 0. -1.
        -11    1    1    2    0    0  0.19155799518E+02  0.18354568384E+02  0.14115348017E+02  0.30051254306E+02  0.00000000000E+00 0.  1.
         11    1    1    2    0    0  0.80399061792E+01 -0.80238675956E+02 -0.22439902192E+02  0.83704446840E+02  0.00000000000E+00 0. -1.
</event>
<event>
 7    1  0.4394360E-006  0.1033367E+03  0.7561462E-02  0.1273432E+00
         -1   -1    0    0    0  501 -0.00000000000E+00  0.00000000000E+00  0.20100341605E+03  0.20100341605E+03  0.00000000000E+00 0.  1.
          1   -1    0    0  501    0  0.00000000000E+00 -0.00000000000E+00 -0.93988778310E+02  0.93988778310E+02  0.00000000000E+00 0. -1.
         23    2    1    2    0    0 -0.24553366310E+02  0.55660333326E+02  0.12111707195E+03  0.18443843140E+03  0.12508896576E+03 0.  0.
          5    1    3    3  502    0 -0.32686396523E+02  0.72027120282E+02  0.13806075915E+03  0.15916831403E+03  0.41800000000E+01 0. -1.
         -5    1    3    3    0  502  0.81330302134E+01 -0.16366786956E+02 -0.16943687202E+02  0.25270117366E+02  0.41800000000E+01 0. -1.
        -11    1    1    2    0    0 -0.30457810220E+02 -0.42270867958E+02 -0.13950858934E+02  0.53936360151E+02  0.00000000000E+00 0.  1.
         11    1    1    2    0    0  0.55011176530E+02 -0.13389465367E+02 -0.15157527437E+00  0.56617402812E+02  0.00000000000E+00 0. -1.
</event>
<event>
 7    1  0.4394360E-006  0.1030592E+03  0.7561462E-02  0.1273991E+00
         -2   -1    0    0    0  501 -0.00000000000E+00  0.00000000000E+00  0.20880209006E+02  0.20880209006E+02  0.00000000000E+00 0.  1.
          2   -1    0    0  501    0  0.00000000000E+00 -0.00000000000E+00 -0.65891736947E+03  0.65891736947E+03  0.00000000000E+00 0. -1.
         23    2    1    2    0    0 -0.38497995906E+02  0.19067197009E+02 -0.30911112549E+03  0.33622428898E+03  0.12510567894E+03 0.  0.
          5    1    3    3  502    0 -0.69591732379E+02 -0.18186991965E+02 -0.11191361120E+03  0.13310110692E+03  0.41800000000E+01 0.  1.
         -5    1    3    3    0  502  0.31093736473E+02  0.37254188974E+02 -0.19719751429E+03  0.20312318205E+03  0.41800000000E+01 0.  1.
        -11    1    1    2    0    0  0.27420293051E+02  0.26701327343E+02 -0.64609133013E+02  0.75094430030E+02  0.00000000000E+00 0.  1.
         11    1    1    2    0    0  0.11077702854E+02 -0.45768524352E+02 -0.26431690196E+03  0.26847885947E+03  0.00000000000E+00 0. -1.
</event>
<event>
 6    1  0.4394360E-006  0.1078370E+03  0.7561462E-02  0.1264629E+00
         -1   -1    0    0    0  501 -0.00000000000E+00  0.00000000000E+00  0.22259082992E+03  0.22259082992E+03  0.00000000000E+00 0.  1.
          1   -1    0    0  501    0  0.00000000000E+00 -0.00000000000E+00 -0.12060557040E+03  0.12060557040E+03  0.00000000000E+00 0. -1.
          5    1    1    2  502    0 -0.40088994459E+02  0.42529919593E+02  0.14773663735E+03  0.15893240058E+03  0.41800000000E+01 0. -1.
         -5    1    1    2    0  502  0.46477800757E+02 -0.65183174018E+02  0.24134862363E+01  0.80201804557E+02  0.41800000000E+01 0.  1.
        -11    1    1    2    0    0  0.33449885922E+02  0.74305627131E+01 -0.50863777827E+02  0.61328884102E+02  0.00000000000E+00 0. -1.
         11    1    1    2    0    0 -0.39838692219E+02  0.15222691712E+02  0.26989137625E+01  0.42733311084E+02  0.00000000000E+00 0.  1.
</event>
<event>
 7    1  0.4394360E-006  0.1225779E+03  0.7561462E-02  0.1238904E+00
         -1   -1    0    0    0  501 -0.00000000000E+00  0.00000000000E+00  0.98409989737E+03  0.98409989737E+03  0.00000000000E+00 0.  1.
          1   -1    0    0  501    0  0.00000000000E+00 -0.00000000000E+00 -0.34068190631E+02  0.34068190631E+02  0.00000000000E+00 0. -1.
         23    2    1    2    0    0  0.11389649416E+03 -0.27326042860E+02  0.74674514414E+03  0.76615637901E+03  0.12509261690E+03 0.  0.
          5    1    3    3  502    0 -0.41095027139E+01  0.22806707774E+01 -0.27316719276E+01  0.68573977040E+01  0.41800000000E+01 0. -1.
         -5    1    3    3    0  502  0.11800599688E+03 -0.29606713637E+02  0.74947681606E+03  0.75929898130E+03  0.41800000000E+01 0. -1.
        -11    1    1    2    0    0 -0.89288075525E+02  0.21124492426E+02  0.67585123456E+02  0.11395768304E+03  0.00000000000E+00 0. -1.
         11    1    1    2    0    0 -0.24608418638E+02  0.62015504338E+01  0.13570143915E+03  0.13805402596E+03  0.00000000000E+00 0.  1.
</event>
<event>
 7    1  0.4394360E-006  0.1248293E+03  0.7561462E-02  0.1235336E+00
          1   -1    0    0  501    0  0.00000000000E+00  0.00000000000E+00  0.13243554093E+03  0.13243554093E+03  0.00000000000E+00 0. -1.
         -1   -1    0    0    0  501 -0.00000000000E+00 -0.00000000000E+00 -0.17673478231E+03  0.17673478231E+03  0.00000000000E+00 0.  1.
         23    2    1    2    0    0 -0.10412549261E+02 -0.55674278225E+02 -0.97907786550E+02  0.16864919198E+03  0.12509423987E+03 0.  0.
          5    1    3    3  502    0 -0.66660819506E+02 -0.43104362993E+02 -0.54694561848E+02  0.96491546065E+02  0.41800000000E+01 0. -1.
         -5    1    3    3    0  502  0.56248270245E+02 -0.12569915232E+02 -0.43213224701E+02  0.72157645912E+02  0.41800000000E+01 0. -1.
        -11    1    1    2    0    0  0.47524381421E+01 -0.28056838801E+02 -0.14959517438E+02  0.32149012951E+02  0.00000000000E+00 0.  1.
         11    1    1    2    0    0  0.56601111188E+01  0.83731117026E+02  0.68568062614E+02  0.10837211831E+03  0.00000000000E+00 0. -1.
</event>
<event>
 7    1  0.4394360E-006  0.1704876E+03  0.7561462E-02  0.1177340E+00
         -2   -1    0    0    0  501 -0.00000000000E+00  0.00000000000E+00  0.94637325062E+02  0.94637325062E+02  0.00000000000E+00 0.  1.
          2   -1    0    0  501    0  0.00000000000E+00 -0.00000000000E+00 -0.40540103979E+03  0.40540103979E+03  0.00000000000E+00 0. -1.
         23    2    1    2    0    0  0.15805697334E+02 -0.16218307940E+03 -0.15803506734E+03  0.25918193658E+03  0.12508805870E+03 0.  0.
          5    1    3    3  502    0 -0.40446076157E+01 -0.48253492676E+01  0.19600417910E+02  0.21006942390E+02  0.41800000000E+01 0. -1.
         -5    1    3    3    0  502  0.19850304950E+02 -0.15735773013E+03 -0.17763548525E+03  0.23817499419E+03  0.41800000000E+01 0. -1.
        -11    1    1    2    0    0  0.20116044565E+02  0.10726514959E+03 -0.52624657766E+02  0.12116031599E+03  0.00000000000E+00 0.  1.
         11    1    1    2    0    0 -0.35921741899E+02  0.54917929808E+02 -0.10010398963E+03  0.11969611228E+03  0.00000000000E+00 0. -1.
</event>
<event>
 7    1  0.4394360E-006  0.1512738E+03  0.7561462E-02  0.1198916E+00
          1   -1    0    0  501    0  0.00000000000E+00  0.00000000000E+00  0.11474595914E+03  0.11474595914E+03  0.00000000000E+00 0. -1.
         -1   -1    0    0    0  501 -0.00000000000E+00 -0.00000000000E+00 -0.29666801758E+03  0.29666801758E+03  0.00000000000E+00 0.  1.
         23    2    1    2    0    0  0.30914160894E+02  0.13654977379E+03 -0.14532960640E+03  0.23742379785E+03  0.12509132354E+03 0.  0.
          5    1    3    3  502    0 -0.19967641174E+02  0.87485297149E+02 -0.14009521053E+03  0.16642272779E+03  0.41800000000E+01 0.  1.
         -5    1    3    3    0  502  0.50881802067E+02  0.49064476644E+02 -0.52343958682E+01  0.71001070063E+02  0.41800000000E+01 0.  1.
        -11    1    1    2    0    0 -0.30538018260E+02 -0.84375329439E+02 -0.68448514520E+02  0.11285816726E+03  0.00000000000E+00 0. -1.
         11    1    1    2    0    0 -0.37614263407E+00 -0.52174444353E+02  0.31856062478E+02  0.61132011610E+02  0.00000000000E+00 0.  1.
</event>
<event>
 7    1  0.4394360E-006  0.3147878E+03  0.7561462E-02  0.1078073E+00
         -1   -1    0    0    0  501 -0.00000000000E+00  0.00000000000E+00  0.70857122271E+02  0.70857122271E+02  0.00000000000E+00 0.  1.
          1   -1    0    0  501    0  0.00000000000E+00 -0.00000000000E+00 -0.15908153980E+04  0.15908153980E+04  0.00000000000E+00 0. -1.
         23    2    1    2    0    0  0.12276595573E+03  0.27030144130E+03 -0.49382000174E+03  0.58961110552E+03  0.12509481432E+03 0.  0.
          5    1    3    3  502    0  0.78449164424E+02  0.26490245706E+03 -0.43996665563E+03  0.51953413134E+03  0.41800000000E+01 0. -1.
         -5    1    3    3    0  502  0.44316791309E+02  0.53989842393E+01 -0.53853346109E+02  0.70076974177E+02  0.41800000000E+01 0. -1.
        -11    1    1    2    0    0 -0.12784437173E+03 -0.19633723813E+03 -0.82790485586E+03  0.86041788964E+03  0.00000000000E+00 0.  1.
         11    1    1    2    0    0  0.50784159942E+01 -0.73964203173E+02 -0.19823341809E+03  0.21164352508E+03  0.00000000000E+00 0. -1.
</event>
<event>
 7    1  0.4394360E-006  0.1166125E+03  0.7561462E-02  0.1248792E+00
         -2   -1    0    0    0  501 -0.00000000000E+00  0.00000000000E+00  0.15199351119E+03  0.15199351119E+03  0.00000000000E+00 0.  1.
          2   -1    0    0  501    0  0.00000000000E+00 -0.00000000000E+00 -0.16785168261E+03  0.16785168261E+03  0.00000000000E+00 0. -1.
         23    2    1    2    0    0 -0.87927880007E+02  0.38401659435E+02  0.57980879315E+02  0.16797105363E+03  0.12508594230E+03 0.  0.
          5    1    3    3  502    0 -0.86746493851E+02  0.31235552014E+02 -0.15868533660E+02  0.93647726431E+02  0.41800000000E+01 0.  1.
         -5    1    3    3    0  502 -0.11813861553E+01  0.71661074215E+01  0.73849412975E+02  0.74323327196E+02  0.41800000000E+01 0.  1.
        -11    1    1    2    0    0  0.61114928901E+02  0.23197901598E+02 -0.32638177862E+02  0.73064545624E+02  0.00000000000E+00 0.  1.
         11    1    1    2    0    0  0.26812951106E+02 -0.61599561034E+02 -0.41200872879E+02  0.78809594546E+02  0.00000000000E+00 0. -1.
</event>
<event>
 7    1  0.4394360E-006  0.1118895E+03  0.7561462E-02  0.1257110E+00
          2   -1    0    0  501    0  0.00000000000E+00  0.00000000000E+00  0.53398232076E+03  0.53398232076E+03  0.00000000000E+00 0. -1.
         -2   -1    0    0    0  501 -0.00000000000E+00 -0.00000000000E+00 -0.28045065938E+02  0.28045065938E+02  0.00000000000E+00 0.  1.
         23    2    1    2    0    0  0.32187461749E+02  0.30733729506E+02  0.20166264318E+03  0.24144628813E+03  0.12509154078E+03 0.  0.
          5    1    3    3  502    0  0.35613331562E+02 -0.44154088130E+02  0.73907596017E+02  0.93261449873E+02  0.41800000000E+01 0.  1.
         -5    1    3    3    0  502 -0.34258698130E+01  0.74887817635E+02  0.12775504716E+03  0.14818483826E+03  0.41800000000E+01 0.  1.
        -11    1    1    2    0    0 -0.38225407435E+02  0.18322475577E+02  0.76053388402E+02  0.87069011550E+02  0.00000000000E+00 0.  1.
         11    1    1    2    0    0  0.60379456865E+01 -0.49056205082E+02  0.22822122325E+03  0.23351208702E+03  0.00000000000E+00 0. -1.
</event>
<event>
 7    1  0.4394360E-006  0.1187675E+03  0.7561462E-02  0.1245144E+00
         -1   -1    0    0    0  501 -0.00000000000E+00  0.00000000000E+00  0.12453273414E+03  0.12453273414E+03  0.00000000000E+00 0.  1.
          1   -1    0    0  501    0  0.00000000000E+00 -0.00000000000E+00 -0.20593964039E+03  0.20593964039E+03  0.00000000000E+00 0. -1.
         23    2    1    2    0    0  0.46179227118E+02  0.10742765365E+03 -0.36504018621E+02  0.17508117422E+03  0.12509057681E+03 0.  0.
          5    1    3    3  502    0  0.10051333913E+02  0.44470660649E+02  0.46144607585E+02  0.65003585910E+02  0.41800000000E+01 0. -1.
         -5    1    3    3    0  502  0.36127893205E+02  0.62956992997E+02 -0.82648626205E+02  0.11007758831E+03  0.41800000000E+01 0. -1.
        -11    1    1    2    0    0 -0.22082575767E+02 -0.77701268998E+02 -0.72235776929E+02  0.10836574562E+03  0.00000000000E+00 0. -1.
         11    1    1    2    0    0 -0.24096651351E+02 -0.29726384648E+02  0.27332889307E+02  0.47025454686E+02  0.00000000000E+00 0.  1.
</event>
<event>
 7    1  0.4394360E-006  0.1068839E+03  0.7561462E-02  0.1266452E+00
          2   -1    0    0  501    0  0.00000000000E+00  0.00000000000E+00  0.71564635045E+03  0.71564635045E+03  0.00000000000E+00 0. -1.
         -2   -1    0    0    0  501 -0.00000000000E+00 -0.00000000000E+00 -0.18676342056E+02  0.18676342056E+02  0.00000000000E+00 0.  1.
         23    2    1    2    0    0 -0.38703388681E+02 -0.82598685146E+01  0.37431525083E+03  0.39664290303E+03  0.12508999878E+03 0.  0.
          5    1    3    3  502    0 -0.34267612475E+02 -0.62393965638E+02  0.15424181194E+03  0.16992729375E+03  0.41800000000E+01 0. -1.
         -5    1    3    3    0  502 -0.44357762067E+01  0.54134097124E+02  0.22007343890E+03  0.22671560928E+03  0.41800000000E+01 0. -1.
        -11    1    1    2    0    0  0.58486445300E+02 -0.11959402647E+02  0.28137372666E+03  0.28763669037E+03  0.00000000000E+00 0. -1.
         11    1    1    2    0    0 -0.19783056618E+02  0.20219271162E+02  0.41281030905E+02  0.50043099105E+02  0.00000000000E+00 0.  1.
</event>
<event>
 7    1  0.4394360E-006  0.7548680E+02  0.7561462E-02  0.1342370E+00
          1   -1    0    0  501    0  0.00000000000E+00  0.00000000000E+00  0.14399164229E+03  0.14399164229E+03  0.00000000000E+00 0. -1.
         -1   -1    0    0    0  501 -0.00000000000E+00 -0.00000000000E+00 -0.91635850658E+02  0.91635850658E+02  0.00000000000E+00 0.  1.
         23    2    1    2    0    0 -0.62063704505E+01 -0.29108933563E+02  0.24577253471E+02  0.13090433596E+03  0.12508419060E+03 0.  0.
          5    1    3    3  502    0 -0.47771035815E+02  0.18229030679E+02  0.40996013246E+02  0.65669741316E+02  0.41800000000E+01 0. -1.
         -5    1    3    3    0  502  0.41564665365E+02 -0.47337964243E+02 -0.16418759775E+02  0.65234594642E+02  0.41800000000E+01 0. -1.
        -11    1    1    2    0    0  0.13635966514E+02  0.13195975944E+02 -0.34848764772E+02  0.39680092868E+02  0.00000000000E+00 0.  1.
         11    1    1    2    0    0 -0.74295960637E+01  0.15912957620E+02  0.62627302928E+02  0.65043064118E+02  0.00000000000E+00 0. -1.
</event>
<event>
 7    1  0.4652566E-006  0.2382843E+03  0.7561462E-02  0.1120941E+00
         -2   -1    0    0    0  501 -0.00000000000E+00  0.00000000000E+00  0.33897621740E+02  0.33897621740E+02  0.00000000000E+00 0. -1.
          2   -1    0    0  501    0  0.00000000000E+00 -0.00000000000E+00 -0.19269312783E+04  0.19269312783E+04  0.00000000000E+00 0.  1.
         23    2    1    2    0    0 -0.23125931168E+03 -0.79890859506E+01 -0.98765597065E+03  0.10220846387E+04  0.12509195680E+03 0.  0.
          5    1    3    3  502    0 -0.14039724020E+03 -0.42787075538E+02 -0.76647993984E+03  0.78041725344E+03  0.41800000000E+01 0.  1.
         -5    1    3    3    0  502 -0.90862071484E+02  0.34797989587E+02 -0.22117603081E+03  0.24166738530E+03  0.41800000000E+01 0.  1.
        -11    1    1    2    0    0  0.14818924762E+03  0.15201655846E+02 -0.72331688600E+03  0.73849743467E+03  0.00000000000E+00 0.  1.
         11    1    1    2    0    0  0.83070064065E+02 -0.72125698952E+01 -0.18206079990E+03  0.20024682661E+03  0.00000000000E+00 0. -1.
</event>
<event>
 7    1  0.4394360E-006  0.1114911E+03  0.7561462E-02  0.1257833E+00
          1   -1    0    0  501    0  0.00000000000E+00  0.00000000000E+00  0.16468648778E+02  0.16468648778E+02  0.00000000000E+00 0. -1.
         -1   -1    0    0    0  501 -0.00000000000E+00 -0.00000000000E+00 -0.81911978262E+03  0.81911978262E+03  0.00000000000E+00 0.  1.
         23    2    1    2    0    0 -0.24793403091E+02  0.32867350435E+02 -0.51494032387E+03  0.53151255322E+03  0.12508829488E+03 0.  0.
          5    1    3    3  502    0  0.45301236762E+02 -0.41526420315E+01 -0.11443498377E+03  0.12321641287E+03  0.41800000000E+01 0.  1.
         -5    1    3    3    0  502 -0.70094639854E+02  0.37019992467E+02 -0.40050534010E+03  0.40829614035E+03  0.41800000000E+01 0.  1.
        -11    1    1    2    0    0  0.18228187198E+02  0.29787064642E+02 -0.11756105273E+03  0.12263823689E+03  0.00000000000E+00 0. -1.
         11    1    1    2    0    0  0.65652158936E+01 -0.62654415077E+02 -0.17014975724E+03  0.18143764129E+03  0.00000000000E+00 0.  1.
</event>
<event>
 7    1  0.4394360E-006  0.8352045E+02  0.7561462E-02  0.1319348E+00
          2   -1    0    0  501    0  0.00000000000E+00  0.00000000000E+00  0.42177612142E+03  0.42177612142E+03  0.00000000000E+00 0. -1.
         -2   -1    0    0    0  501 -0.00000000000E+00 -0.00000000000E+00 -0.34435706402E+02  0.34435706402E+02  0.00000000000E+00 0.  1.
         23    2    1    2    0    0 -0.10182575899E+02  0.54484751521E+02  0.20436118740E+03  0.24593396747E+03  0.12509096066E+03 0.  0.
          5    1    3    3  502    0  0.19737830568E+01  0.51677257726E+02  0.21968936803E+03  0.22573286338E+03  0.41800000000E+01 0. -1.
         -5    1    3    3    0  502 -0.12156358956E+02  0.28074937952E+01 -0.15328180635E+02  0.20201104081E+02  0.41800000000E+01 0. -1.
        -11    1    1    2    0    0 -0.37483383025E+02 -0.16080086948E+02  0.55621164816E+02  0.68973090222E+02  0.00000000000E+00 0.  1.
         11    1    1    2    0    0  0.47665958924E+02 -0.38404664573E+02  0.12735806280E+03  0.14130477013E+03  0.00000000000E+00 0. -1.
</event>
<event>
 7    1  0.4394360E-006  0.1163885E+03  0.7561462E-02  0.1249177E+00
         -1   -1    0    0    0  501 -0.00000000000E+00  0.00000000000E+00  0.79663256222E+02  0.79663256222E+02  0.00000000000E+00 0.  1.
          1   -1    0    0  501    0  0.00000000000E+00 -0.00000000000E+00 -0.25202626292E+03  0.25202626292E+03  0.00000000000E+00 0. -1.
         23    2    1    2    0    0 -0.35360782242E+02  0.67195240323E+02 -0.30280610341E+02  0.14943545538E+03  0.12509378369E+03 0.  0.
          5    1    3    3  502    0  0.30327771761E+02  0.12888533424E+01 -0.45700385872E+02  0.55022109662E+02  0.41800000000E+01 0.  1.
         -5    1    3    3    0  502 -0.65688554002E+02  0.65906386981E+02  0.15419775531E+02  0.94413345715E+02  0.41800000000E+01 0.  1.
        -11    1    1    2    0    0  0.48652961425E+02 -0.77952721150E+02 -0.13594179829E+03  0.16408506913E+03  0.00000000000E+00 0. -1.
         11    1    1    2    0    0 -0.13292179183E+02  0.10757480827E+02 -0.61405980633E+01  0.18168994627E+02  0.00000000000E+00 0.  1.
</event>
<event>
 7    1  0.4394360E-006  0.9539493E+02  0.7561462E-02  0.1290289E+00
          1   -1    0    0  501    0  0.00000000000E+00  0.00000000000E+00  0.47552558067E+03  0.47552558067E+03  0.00000000000E+00 0. -1.
         -1   -1    0    0    0  501 -0.00000000000E+00 -0.00000000000E+00 -0.30982333331E+02  0.30982333331E+02  0.00000000000E+00 0.  1.
         23    2    1    2    0    0  0.20407979588E+02  0.45371667019E+02  0.28678077089E+03  0.31680573362E+03  0.12509032139E+03 0.  0.
          5    1    3    3  502    0 -0.28742390785E+02 -0.22364191739E+01  0.21713413073E+03  0.21907950550E+03  0.41800000000E+01 0. -1.
         -5    1    3    3    0  502  0.49150370373E+02  0.47608086193E+02  0.69646640152E+02  0.97726228124E+02  0.41800000000E+01 0. -1.
        -11    1    1    2    0    0  0.78913387935E+01  0.20199936064E+02  0.68480828179E+01  0.22742182903E+02  0.00000000000E+00 0.  1.
         11    1    1    2    0    0 -0.28299318382E+02 -0.65571603083E+02  0.15091439364E+03  0.16695999748E+03  0.00000000000E+00 0. -1.
</event>
<event>
 7    1  0.4394360E-006  0.1272123E+03  0.7561462E-02  0.1231652E+00
          2   -1    0    0  501    0  0.00000000000E+00  0.00000000000E+00  0.86488743237E+02  0.86488743237E+02  0.00000000000E+00 0. -1.
         -2   -1    0    0    0  501 -0.00000000000E+00 -0.00000000000E+00 -0.21934723616E+03  0.21934723616E+03  0.00000000000E+00 0.  1.
         23    2    1    2    0    0 -0.75914355175E+02 -0.30765289371E+02 -0.93759991181E+02  0.17649110612E+03  0.12509469310E+03 0.  0.
          5    1    3    3  502    0  0.12070727398E+02  0.36442213532E+02 -0.27292262696E+02  0.47287179976E+02  0.41800000000E+01 0.  1.
         -5    1    3    3    0  502 -0.87985082573E+02 -0.67207502903E+02 -0.66467728485E+02  0.12920392615E+03  0.41800000000E+01 0.  1.
        -11    1    1    2    0    0 -0.58940129951E+01  0.21953798546E+02 -0.41179756804E+02  0.47037017658E+02  0.00000000000E+00 0.  1.
         11    1    1    2    0    0  0.81808368170E+02  0.88114908253E+01  0.20812550639E+01  0.82307855614E+02  0.00000000000E+00 0. -1.
</event>
<event>
 7    1  0.4394360E-006  0.6549507E+02  0.7561462E-02  0.1376119E+00
          2   -1    0    0  501    0  0.00000000000E+00  0.00000000000E+00  0.92454166100E+02  0.92454166100E+02  0.00000000000E+00 0. -1.
         -2   -1    0    0    0  501 -0.00000000000E+00 -0.00000000000E+00 -0.14930693503E+03  0.14930693503E+03  0.00000000000E+00 0.  1.
         23    2    1    2    0    0  0.17889901248E+01 -0.28070944568E+02 -0.63413411879E+02  0.14302672507E+03  0.12507679586E+03 0.  0.
          5    1    3    3  502    0 -0.12804173110E+02  0.69199494716E+01 -0.93330953580E+02  0.94551424346E+02  0.41800000000E+01 0. -1.
         -5    1    3    3    0  502  0.14593163235E+02 -0.34990894039E+02  0.29917541701E+02  0.48475300724E+02  0.41800000000E+01 0. -1.
        -11    1    1    2    0    0 -0.29394389182E+02 -0.96718476012E+01  0.32817421129E+02  0.45106073660E+02  0.00000000000E+00 0. -1.
         11    1    1    2    0    0  0.27605399057E+02  0.37742792169E+02 -0.26256778179E+02  0.53628302399E+02  0.00000000000E+00 0.  1.
</event>
<event>
 7    1  0.4394360E-006  0.1056525E+03  0.7561462E-02  0.1268839E+00
          2   -1    0    0  501    0  0.00000000000E+00  0.00000000000E+00  0.31730151044E+03  0.31730151044E+03  0.00000000000E+00 0. -1.
         -2   -1    0    0    0  501 -0.00000000000E+00 -0.00000000000E+00 -0.40754491929E+02  0.40754491929E+02  0.00000000000E+00 0.  1.
         23    2    1    2    0    0 -0.25691821682E+02 -0.20439543705E+02  0.13421220158E+03  0.18638052536E+03  0.12508773133E+03 0.  0.
          5    1    3    3  502    0 -0.69844756717E+02 -0.39700176225E+02  0.91813848595E+02  0.12207231147E+03  0.41800000000E+01 0.  1.
         -5    1    3    3    0  502  0.44152935035E+02  0.19260632520E+02  0.42398352990E+02  0.64308213888E+02  0.41800000000E+01 0.  1.
        -11    1    1    2    0    0  0.52308407156E+02  0.19647319213E+02  0.13158828467E+03  0.14296035560E+03  0.00000000000E+00 0. -1.
         11    1    1    2    0    0 -0.26616585475E+02  0.79222449251E+00  0.10746532252E+02  0.28715121407E+02  0.00000000000E+00 0.  1.
</event>
<event>
 7    1  0.4394360E-006  0.9809608E+02  0.7561462E-02  0.1284351E+00
         -3   -1    0    0    0  501 -0.00000000000E+00  0.00000000000E+00  0.16701417376E+03  0.16701417376E+03  0.00000000000E+00 0.  1.
          3   -1    0    0  501    0  0.00000000000E+00 -0.00000000000E+00 -0.71057235067E+02  0.71057235067E+02  0.00000000000E+00 0. -1.
         23    2    1    2    0    0  0.11016989368E+02  0.37074505631E+00  0.74744994696E+02  0.14613221560E+03  0.12508516578E+03 0.  0.
          5    1    3    3  502    0  0.40502326545E+02  0.41219510897E+02  0.75998019922E+02  0.95564941094E+02  0.41800000000E+01 0. -1.
         -5    1    3    3    0  502 -0.29485337177E+02 -0.40848765841E+02 -0.12530252261E+01  0.50567274510E+02  0.41800000000E+01 0. -1.
        -11    1    1    2    0    0 -0.27185527697E+02  0.37619010207E+02  0.21491303297E+01  0.46463551374E+02  0.00000000000E+00 0. -1.
         11    1    1    2    0    0  0.16168538329E+02 -0.37989755263E+02  0.19062813667E+02  0.45475641849E+02  0.00000000000E+00 0.  1.
</event>
<event>
 7    1  0.4394360E-006  0.8891110E+02  0.7561462E-02  0.1305510E+00
         -3   -1    0    0    0  501 -0.00000000000E+00  0.00000000000E+00  0.93519060735E+02  0.93519060735E+02  0.00000000000E+00 0. -1.
          3   -1    0    0  501    0  0.00000000000E+00 -0.00000000000E+00 -0.12992823088E+03  0.12992823088E+03  0.00000000000E+00 0.  1.
         23    2    1    2    0    0  0.19681216123E+01 -0.11100989459E+02 -0.39519599597E+02  0.13166577430E+03  0.12508785673E+03 0.  0.
          5    1    3    3  502    0  0.61207693448E+02 -0.18713658501E+02 -0.10015440500E+02  0.64918134602E+02  0.41800000000E+01 0.  1.
         -5    1    3    3    0  502 -0.59239571836E+02  0.76126690422E+01 -0.29504159097E+02  0.66747639698E+02  0.41800000000E+01 0.  1.
        -11    1    1    2    0    0  0.15857342444E+02  0.26081726610E+02  0.38677011210E+02  0.49270914021E+02  0.00000000000E+00 0. -1.
         11    1    1    2    0    0 -0.17825464056E+02 -0.14980737151E+02 -0.35566581760E+02  0.42510603295E+02  0.00000000000E+00 0.  1.
</event>
<event>
 7    1  0.4394360E-006  0.1287409E+03  0.7561462E-02  0.1229336E+00
         -2   -1    0    0    0  501 -0.00000000000E+00  0.00000000000E+00  0.63651361604E+02  0.63651361604E+02  0.00000000000E+00 0.  1.
          2   -1    0    0  501    0  0.00000000000E+00 -0.00000000000E+00 -0.34084796700E+03  0.34084796700E+03  0.00000000000E+00 0. -1.
         23    2    1    2    0    0 -0.56848133594E+02  0.71148865550E+02 -0.96133852160E+02  0.18215253357E+03  0.12507580338E+03 0.  0.
          5    1    3    3  502    0  0.26860934985E+02  0.57736173052E+02 -0.66707776337E+02  0.92316712088E+02  0.41800000000E+01 0.  1.
         -5    1    3    3    0  502 -0.83709068579E+02  0.13412692498E+02 -0.29426075824E+02  0.89835821479E+02  0.41800000000E+01 0.  1.
        -11    1    1    2    0    0  0.14267582765E+02  0.98085035085E+01 -0.95624614926E+02  0.97179409541E+02  0.00000000000E+00 0.  1.
         11    1    1    2    0    0  0.42580550829E+02 -0.80957369059E+02 -0.85438138309E+02  0.12516738549E+03  0.00000000000E+00 0. -1.
</event>
<event>
 7    1  0.4394360E-006  0.1244915E+03  0.7561462E-02  0.1235866E+00
          1   -1    0    0  501    0  0.00000000000E+00  0.00000000000E+00  0.59107315338E+03  0.59107315338E+03  0.00000000000E+00 0. -1.
         -1   -1    0    0    0  501 -0.00000000000E+00 -0.00000000000E+00 -0.33597619861E+02  0.33597619861E+02  0.00000000000E+00 0.  1.
         23    2    1    2    0    0  0.86036859597E+02  0.24302385940E+02  0.30056291507E+03  0.33760887000E+03  0.12509490803E+03 0.  0.
          5    1    3    3  502    0 -0.28785625643E+02  0.86109965440E+01  0.27511743092E+02  0.40952776623E+02  0.41800000000E+01 0.  1.
         -5    1    3    3    0  502  0.11482248524E+03  0.15691389396E+02  0.27305117198E+03  0.29665609337E+03  0.41800000000E+01 0.  1.
        -11    1    1    2    0    0 -0.65734547205E+02  0.62163193862E+01  0.23556519078E+03  0.24464388901E+03  0.00000000000E+00 0. -1.
         11    1    1    2    0    0 -0.20302312392E+02 -0.30518705326E+02  0.21347427667E+02  0.42418014231E+02  0.00000000000E+00 0.  1.
</event>
<event>
 7    1  0.4394360E-006  0.1937500E+03  0.7561462E-02  0.1155122E+00
          2   -1    0    0  501    0  0.00000000000E+00  0.00000000000E+00  0.15786004436E+04  0.15786004436E+04  0.00000000000E+00 0. -1.
         -2   -1    0    0    0  501 -0.00000000000E+00 -0.00000000000E+00 -0.31697386581E+02  0.31697386581E+02  0.00000000000E+00 0.  1.
         23    2    1    2    0    0 -0.16805202288E+02 -0.17840974475E+03  0.52126462957E+03  0.56522633972E+03  0.12510615182E+03 0.  0.
          5    1    3    3  502    0 -0.41609853414E+02 -0.14124115657E+03  0.24916047881E+03  0.28944578216E+03  0.41800000000E+01 0.  1.
         -5    1    3    3    0  502  0.24804651125E+02 -0.37168588185E+02  0.27210415077E+03  0.27578055756E+03  0.41800000000E+01 0.  1.
        -11    1    1    2    0    0 -0.17928790652E+02  0.14821045966E+03  0.87198262284E+03  0.88467026424E+03  0.00000000000E+00 0.  1.
         11    1    1    2    0    0  0.34733992940E+02  0.30199285092E+02  0.15365580464E+03  0.16040122626E+03  0.00000000000E+00 0. -1.
</event>
<event>
 7    1  0.4394360E-006  0.1265432E+03  0.7561462E-02  0.1232677E+00
          1   -1    0    0  501    0  0.00000000000E+00  0.00000000000E+00  0.22621094473E+03  0.22621094473E+03  0.00000000000E+00 0. -1.
         -1   -1    0    0    0  501 -0.00000000000E+00 -0.00000000000E+00 -0.18246485529E+03  0.18246485529E+03  0.00000000000E+00 0.  1.
         23    2    1    2    0    0 -0.55065017735E+02 -0.90462892376E+02 -0.11388076968E+03  0.19957916171E+03  0.12508925219E+03 0.  0.
          5    1    3    3  502    0  0.29272050296E+02 -0.34943048861E+02 -0.81474168601E+02  0.93452566265E+02  0.41800000000E+01 0.  1.
         -5    1    3    3    0  502 -0.84337068032E+02 -0.55519843514E+02 -0.32406601079E+02  0.10612659545E+03  0.41800000000E+01 0.  1.
        -11    1    1    2    0    0  0.25253167888E+02  0.33393619826E+02  0.34424691184E+01  0.42008414956E+02  0.00000000000E+00 0.  1.
         11    1    1    2    0    0  0.29811849847E+02  0.57069272550E+02  0.15418439000E+03  0.16708822335E+03  0.00000000000E+00 0. -1.
</event>
<event>
 7    1  0.4394360E-006  0.1707234E+03  0.7561462E-02  0.1177096E+00
         -1   -1    0    0    0  501 -0.00000000000E+00  0.00000000000E+00  0.47619524216E+02  0.47619524216E+02  0.00000000000E+00 0.  1.
          1   -1    0    0  501    0  0.00000000000E+00 -0.00000000000E+00 -0.75414121509E+03  0.75414121509E+03  0.00000000000E+00 0. -1.
         23    2    1    2    0    0 -0.39138217404E+02  0.13373402308E+03 -0.22789605502E+03  0.29495858265E+03  0.12508942639E+03 0.  0.
          5    1    3    3  502    0 -0.58705831241E+01  0.14272293409E+03 -0.21451293960E+03  0.25775487060E+03  0.41800000000E+01 0. -1.
         -5    1    3    3    0  502 -0.33267634280E+02 -0.89889110160E+01 -0.13383115415E+02  0.37203712047E+02  0.41800000000E+01 0. -1.
        -11    1    1    2    0    0  0.39393615627E+02 -0.10735856383E+02 -0.83028901173E+02  0.92525207346E+02  0.00000000000E+00 0.  1.
         11    1    1    2    0    0 -0.25539822245E+00 -0.12299816669E+03 -0.39559673468E+03  0.41427694931E+03  0.00000000000E+00 0. -1.
</event>
<event>
 7    1  0.4394360E-006  0.2198594E+03  0.7561462E-02  0.1133988E+00
          2   -1    0    0  501    0  0.00000000000E+00  0.00000000000E+00  0.94957850967E+03  0.94957850967E+03  0.00000000000E+00 0. -1.
         -2   -1    0    0    0  501 -0.00000000000E+00 -0.00000000000E+00 -0.57560212906E+02  0.57560212906E+02  0.00000000000E+00 0.  1.
         23    2    1    2    0    0  0.10266623721E+03  0.18006546098E+03  0.50377593750E+03  0.55892918155E+03  0.12509080014E+03 0.  0.
          5    1    3    3  502    0  0.88758969996E+01  0.11777158931E+03  0.34152700308E+03  0.36139603626E+03  0.41800000000E+01 0. -1.
         -5    1    3    3    0  502  0.93790340207E+02  0.62293871668E+02  0.16224893443E+03  0.19753314529E+03  0.41800000000E+01 0. -1.
        -11    1    1    2    0    0 -0.61978060601E+02 -0.13247177134E+03  0.18669925110E+03  0.23716378425E+03  0.00000000000E+00 0.  1.
         11    1    1    2    0    0 -0.40688176605E+02 -0.47593689638E+02  0.20154310817E+03  0.21104575679E+03  0.00000000000E+00 0. -1.
</event>
<event>
 7    1  0.4394360E-006  0.1154967E+03  0.7561462E-02  0.1250717E+00
          1   -1    0    0  501    0  0.00000000000E+00  0.00000000000E+00  0.74427525780E+02  0.74427525780E+02  0.00000000000E+00 0. -1.
         -1   -1    0    0    0  501 -0.00000000000E+00 -0.00000000000E+00 -0.24330231754E+03  0.24330231754E+03  0.00000000000E+00 0.  1.
         23    2    1    2    0    0  0.72589489050E+02  0.14731480599E+02 -0.12027352064E+03  0.18867917322E+03  0.12509140737E+03 0.  0.
          5    1    3    3  502    0  0.43737587584E+02 -0.38815838541E+02 -0.57125269452E+01  0.58904594501E+02  0.41800000000E+01 0. -1.
         -5    1    3    3    0  502  0.28851901467E+02  0.53547319139E+02 -0.11456099370E+03  0.12977457872E+03  0.41800000000E+01 0. -1.
        -11    1    1    2    0    0 -0.89017232358E+02  0.46541936963E+00 -0.56365688960E+02  0.10536306356E+03  0.00000000000E+00 0.  1.
         11    1    1    2    0    0  0.16427743307E+02 -0.15196899968E+02  0.77644178428E+01  0.23687606533E+02  0.00000000000E+00 0. -1.
</event>
<event>
 7    1  0.4394360E-006  0.4831349E+02  0.7561462E-02  0.1454656E+00
         -2   -1    0    0    0  501 -0.00000000000E+00  0.00000000000E+00  0.48036581962E+02  0.48036581962E+02  0.00000000000E+00 0.  1.
          2   -1    0    0  501    0  0.00000000000E+00 -0.00000000000E+00 -0.24824196711E+03  0.24824196711E+03  0.00000000000E+00 0. -1.
         23    2    1    2    0    0 -0.10350500984E+02  0.79224387203E+01 -0.10762875026E+03  0.16553343777E+03  0.12508986064E+03 0.  0.
          5    1    3    3  502    0 -0.21570922238E+02 -0.35485484305E+01 -0.13320538267E+03  0.13505200203E+03  0.41800000000E+01 0. -1.
         -5    1    3    3    0  502  0.11220421254E+02  0.11470987151E+02  0.25576632410E+02  0.30481435740E+02  0.41800000000E+01 0. -1.
        -11    1    1    2    0    0  0.10303820378E+02 -0.32047531079E+02 -0.99991675073E+02  0.10550615170E+03  0.00000000000E+00 0. -1.
         11    1    1    2    0    0  0.46680606169E-01  0.24125092359E+02  0.74150401861E+01  0.25238959593E+02  0.00000000000E+00 0.  1.
</event>
<event>
 7    1  0.4394360E-006  0.9049606E+02  0.7561462E-02  0.1301655E+00
         -1   -1    0    0    0  501 -0.00000000000E+00  0.00000000000E+00  0.36267065420E+03  0.36267065420E+03  0.00000000000E+00 0.  1.
          1   -1    0    0  501    0  0.00000000000E+00 -0.00000000000E+00 -0.41295855295E+02  0.41295855295E+02  0.00000000000E+00 0. -1.
         23    2    1    2    0    0  0.41957078569E+01  0.18420314948E+02  0.25906933775E+03  0.28855754209E+03  0.12566471806E+03 0.  0.
          5    1    3    3  502    0 -0.41969315198E+02  0.41385596325E+02  0.20656303915E+03  0.21484867359E+03  0.41800000000E+01 0. -1.
         -5    1    3    3    0  502  0.46165023054E+02 -0.22965281377E+02  0.52506298604E+02  0.73708868499E+02  0.41800000000E+01 0.  1.
        -11    1    1    2    0    0 -0.64944240817E+01 -0.44005763467E+02 -0.36456085291E+01  0.44631549648E+02  0.00000000000E+00 0. -1.
         11    1    1    2    0    0  0.22987162248E+01  0.25585448519E+02  0.65951069681E+02  0.70777417756E+02  0.00000000000E+00 0.  1.
</event>
<event>
 7    1  0.4394360E-006  0.1142196E+03  0.7561462E-02  0.1252950E+00
          2   -1    0    0  501    0  0.00000000000E+00  0.00000000000E+00  0.61288252365E+02  0.61288252365E+02  0.00000000000E+00 0. -1.
         -2   -1    0    0    0  501 -0.00000000000E+00 -0.00000000000E+00 -0.26878053955E+03  0.26878053955E+03  0.00000000000E+00 0.  1.
         23    2    1    2    0    0 -0.50652465310E+02 -0.67516640459E+01 -0.18297660401E+03  0.22115862321E+03  0.11322297380E+03 0.  0.
          5    1    3    3  502    0 -0.45536095364E+02  0.49050549963E+02 -0.11316177891E+03  0.13153916922E+03  0.41800000000E+01 0. -1.
         -5    1    3    3    0  502 -0.51163699458E+01 -0.55802214009E+02 -0.69814825096E+02  0.89619453987E+02  0.41800000000E+01 0.  1.
        -11    1    1    2    0    0  0.55640025959E+02  0.41922124084E+02 -0.93662730943E+01  0.70292275878E+02  0.00000000000E+00 0. -1.
         11    1    1    2    0    0 -0.49875606497E+01 -0.35170460038E+02 -0.15149410079E+02  0.38617892825E+02  0.00000000000E+00 0.  1.
</event>
<event>
 7    1  0.4394360E-006  0.8792346E+02  0.7561462E-02  0.1307960E+00
         -2   -1    0    0    0  501 -0.00000000000E+00  0.00000000000E+00  0.61878170393E+02  0.61878170393E+02  0.00000000000E+00 0.  1.
          2   -1    0    0  501    0  0.00000000000E+00 -0.00000000000E+00 -0.23346991947E+03  0.23346991947E+03  0.00000000000E+00 0. -1.
         23    2    1    2    0    0  0.47838524650E+02  0.21479319448E+02 -0.96705323751E+02  0.16658129893E+03  0.12509006319E+03 0.  0.
          5    1    3    3  502    0  0.82928292363E+02  0.24631311474E+02 -0.98369376134E+02  0.13106414361E+03  0.41800000000E+01 0.  1.
         -5    1    3    3    0  502 -0.35089767713E+02 -0.31519920262E+01  0.16640523834E+01  0.35517155323E+02  0.41800000000E+01 0.  1.
        -11    1    1    2    0    0 -0.25963926047E+02 -0.18039065589E+02 -0.94212563818E+02  0.99375754207E+02  0.00000000000E+00 0. -1.
         11    1    1    2    0    0 -0.21874598603E+02 -0.34402538590E+01  0.19326138492E+02  0.29391036723E+02  0.00000000000E+00 0.  1.
</event>
<event>
 7    1  0.4394360E-006  0.9195660E+02  0.7561462E-02  0.1298181E+00
          4   -1    0    0  501    0  0.00000000000E+00  0.00000000000E+00  0.31035975584E+02  0.31035975584E+02  0.00000000000E+00 0. -1.
         -4   -1    0    0    0  501 -0.00000000000E+00 -0.00000000000E+00 -0.43276864107E+03  0.43276864107E+03  0.00000000000E+00 0.  1.
         23    2    1    2    0    0 -0.10158209276E+02 -0.12375898203E+02 -0.28408034495E+03  0.31081534430E+03  0.12509270078E+03 0.  0.
          5    1    3    3  502    0  0.25410273380E+02 -0.47991139572E+02 -0.23183892793E+03  0.23815035665E+03  0.41800000000E+01 0. -1.
         -5    1    3    3    0  502 -0.35568482656E+02  0.35615241370E+02 -0.52241417026E+02  0.72664987643E+02  0.41800000000E+01 0. -1.
        -11    1    1    2    0    0  0.22893860715E+02  0.41365297553E+02 -0.11097939854E+03  0.12063019357E+03  0.00000000000E+00 0.  1.
         11    1    1    2    0    0 -0.12735651439E+02 -0.28989399350E+02 -0.66729219899E+01  0.32359078790E+02  0.00000000000E+00 0. -1.
</event>
<event>
 7    1  0.4394360E-006  0.9759190E+02  0.7561462E-02  0.1285443E+00
          1   -1    0    0  501    0  0.00000000000E+00  0.00000000000E+00  0.35691905758E+02  0.35691905758E+02  0.00000000000E+00 0. -1.
         -1   -1    0    0    0  501 -0.00000000000E+00 -0.00000000000E+00 -0.35093938673E+03  0.35093938673E+03  0.00000000000E+00 0.  1.
         23    2    1    2    0    0 -0.10130031430E+02  0.22107999253E+01 -0.22936333365E+03  0.26146220952E+03  0.12508973982E+03 0.  0.
          5    1    3    3  502    0 -0.53819382956E+02  0.33462319379E+02 -0.76768822469E+02  0.99635221199E+02  0.41800000000E+01 0. -1.
         -5    1    3    3    0  502  0.43689351526E+02 -0.31251519454E+02 -0.15259451119E+03  0.16182698832E+03  0.41800000000E+01 0. -1.
        -11    1    1    2    0    0  0.34114873692E+02 -0.26845915738E+02 -0.78944629249E+02  0.90093186680E+02  0.00000000000E+00 0.  1.
         11    1    1    2    0    0 -0.23984842262E+02  0.24635115813E+02 -0.69395180688E+01  0.35075896289E+02  0.00000000000E+00 0. -1.
</event>
<event>
 7    1  0.4394360E-006  0.1193733E+03  0.7561462E-02  0.1244135E+00
         -1   -1    0    0    0  501 -0.00000000000E+00  0.00000000000E+00  0.56043369466E+03  0.56043369466E+03  0.00000000000E+00 0.  1.
          1   -1    0    0  501    0  0.00000000000E+00 -0.00000000000E+00 -0.45634150472E+02  0.45634150472E+02  0.00000000000E+00 0. -1.
         23    2    1    2    0    0 -0.36913583581E+02 -0.10552181396E+03  0.33286507112E+03  0.37275302276E+03  0.12509274374E+03 0.  0.
          5    1    3    3  502    0 -0.20135491322E+02 -0.10723145036E+03  0.13274461500E+03  0.17187968806E+03  0.41800000000E+01 0. -1.
         -5    1    3    3    0  502 -0.16778092258E+02  0.17096364046E+01  0.20012045612E+03  0.20087333470E+03  0.41800000000E+01 0. -1.
        -11    1    1    2    0    0  0.14877727296E+02  0.56732192387E+02  0.16807572614E+03  0.17801499415E+03  0.00000000000E+00 0.  1.
         11    1    1    2    0    0  0.22035856285E+02  0.48789621570E+02  0.13858746930E+02  0.55299828224E+02  0.00000000000E+00 0. -1.
</event>
<event>
 7    1  0.4394360E-006  0.1063793E+03  0.7561462E-02  0.1267426E+00
         -4   -1    0    0    0  501 -0.00000000000E+00  0.00000000000E+00  0.40974440347E+02  0.40974440347E+02  0.00000000000E+00 0.  1.
          4   -1    0    0  501    0  0.00000000000E+00 -0.00000000000E+00 -0.37658046071E+03  0.37658046071E+03  0.00000000000E+00 0. -1.
         23    2    1    2    0    0 -0.16314547152E+02  0.24213204981E+02 -0.98318458220E+02  0.16176235941E+03  0.12509235769E+03 0.  0.
          5    1    3    3  502    0 -0.10924785769E+02  0.71113833659E+02 -0.87115249990E+02  0.11306222828E+03  0.41800000000E+01 0.  1.
         -5    1    3    3    0  502 -0.53897613825E+01 -0.46900628679E+02 -0.11203208230E+02  0.48700131138E+02  0.41800000000E+01 0.  1.
        -11    1    1    2    0    0  0.26097749178E+02  0.29101990496E+02 -0.12741515809E+03  0.13327655786E+03  0.00000000000E+00 0. -1.
         11    1    1    2    0    0 -0.97832020265E+01 -0.53315195476E+02 -0.10987240405E+03  0.12251598379E+03  0.00000000000E+00 0.  1.
</event>
<event>
 7    1  0.4394360E-006  0.3944919E+03  0.7561462E-02  0.1045704E+00
          2   -1    0    0  501    0  0.00000000000E+00  0.00000000000E+00  0.22611951586E+04  0.22611951586E+04  0.00000000000E+00 0.  1.
         -2   -1    0    0    0  501 -0.00000000000E+00 -0.00000000000E+00 -0.73476094470E+02  0.73476094470E+02  0.00000000000E+00 0. -1.
         23    2    1    2    0    0 -0.21065687268E+03 -0.32863499236E+03  0.98677876506E+03  0.10685309393E+04  0.12509500695E+03 0.  0.
          5    1    3    3  502    0 -0.80850196205E+01 -0.66383520835E+02  0.28010584086E+03  0.28800849617E+03  0.41800000000E+01 0. -1.
         -5    1    3    3    0  502 -0.20257185306E+03 -0.26225147152E+03  0.70667292420E+03  0.78052244309E+03  0.41800000000E+01 0. -1.
        -11    1    1    2    0    0  0.10932756641E+03  0.15841554631E+03  0.73611067137E+03  0.76085933167E+03  0.00000000000E+00 0.  1.
         11    1    1    2    0    0  0.10132930627E+03  0.17021944605E+03  0.46482962767E+03  0.50528098211E+03  0.00000000000E+00 0. -1.
</event>
<event>
 7    1  0.4394360E-006  0.1285781E+03  0.7561462E-02  0.1229581E+00
         -1   -1    0    0    0  501 -0.00000000000E+00  0.00000000000E+00  0.11645472220E+03  0.11645472220E+03  0.00000000000E+00 0.  1.
          1   -1    0    0  501    0  0.00000000000E+00 -0.00000000000E+00 -0.17488621190E+03  0.17488621190E+03  0.00000000000E+00 0. -1.
         23    2    1    2    0    0 -0.22452792753E+02  0.90690986675E+02 -0.22927754683E+02  0.15780204049E+03  0.12508724588E+03 0.  0.
          5    1    3    3  502    0 -0.73828710090E+02  0.57389654123E+02 -0.23191412093E+02  0.96434251326E+02  0.41800000000E+01 0. -1.
         -5    1    3    3    0  502  0.51375917337E+02  0.33301332552E+02  0.26365741059E+00  0.61367789167E+02  0.41800000000E+01 0. -1.
        -11    1    1    2    0    0  0.29562146026E+02 -0.34019854007E+02  0.23998347498E+02  0.51060666143E+02  0.00000000000E+00 0.  1.
         11    1    1    2    0    0 -0.71093532731E+01 -0.56671132668E+02 -0.59502082515E+02  0.82478227463E+02  0.00000000000E+00 0. -1.
</event>
<event>
 7    1  0.4394360E-006  0.1207898E+03  0.7561462E-02  0.1241800E+00
          1   -1    0    0  501    0  0.00000000000E+00  0.00000000000E+00  0.76415119748E+02  0.76415119748E+02  0.00000000000E+00 0. -1.
         -1   -1    0    0    0  501 -0.00000000000E+00 -0.00000000000E+00 -0.30723494032E+03  0.30723494032E+03  0.00000000000E+00 0.  1.
         23    2    1    2    0    0  0.11137991465E+03 -0.21632697833E+02 -0.86900484993E+02  0.18992923854E+03  0.12509181571E+03 0.  0.
          5    1    3    3  502    0  0.12926826630E+02 -0.24680332634E+02  0.27183002759E+02  0.39148559420E+02  0.41800000000E+01 0. -1.
         -5    1    3    3    0  502  0.98453088024E+02  0.30476348005E+01 -0.11408348775E+03  0.15078067912E+03  0.41800000000E+01 0. -1.
        -11    1    1    2    0    0 -0.60691114269E+02  0.20689043578E+02 -0.12332843630E+03  0.13900126286E+03  0.00000000000E+00 0.  1.
         11    1    1    2    0    0 -0.50688800385E+02  0.94365425490E+00 -0.20590899280E+02  0.54719558670E+02  0.00000000000E+00 0. -1.
</event>
<event>
 7    1  0.4394360E-006  0.1109291E+03  0.7561462E-02  0.1258859E+00
         -2   -1    0    0    0  501 -0.00000000000E+00  0.00000000000E+00  0.89309290197E+02  0.89309290197E+02  0.00000000000E+00 0.  1.
          2   -1    0    0  501    0  0.00000000000E+00 -0.00000000000E+00 -0.25799863354E+03  0.25799863354E+03  0.00000000000E+00 0. -1.
         23    2    1    2    0    0  0.13213222730E+01 -0.33603923390E+02  0.17854419752E+02  0.13075558318E+03  0.12508905894E+03 0.  0.
          5    1    3    3  502    0  0.12070826569E+02  0.39169395087E+02  0.36178343030E+02  0.54829656847E+02  0.41800000000E+01 0.  1.
         -5    1    3    3    0  502 -0.10749504296E+02 -0.72773318478E+02 -0.18323923278E+02  0.75925926330E+02  0.41800000000E+01 0.  1.
        -11    1    1    2    0    0 -0.27467131509E+02 -0.28507365167E+02 -0.46010654501E+02  0.60696733930E+02  0.00000000000E+00 0.  1.
         11    1    1    2    0    0  0.26145809236E+02  0.62111288557E+02 -0.14053310860E+03  0.15585560663E+03  0.00000000000E+00 0. -1.
</event>
<event>
 7    1  0.4394360E-006  0.1666744E+03  0.7561462E-02  0.1181361E+00
          2   -1    0    0  501    0  0.00000000000E+00  0.00000000000E+00  0.14014797940E+03  0.14014797940E+03  0.00000000000E+00 0.  1.
         -2   -1    0    0    0  501 -0.00000000000E+00 -0.00000000000E+00 -0.20327522880E+03  0.20327522880E+03  0.00000000000E+00 0. -1.
         23    2    1    2    0    0 -0.61432613383E+02 -0.11303672261E+03 -0.30949322210E+02  0.18208765851E+03  0.12508712240E+03 0.  0.
          5    1    3    3  502    0 -0.31821275801E+02  0.21965641620E+02  0.50115419974E+01  0.39213147777E+02  0.41800000000E+01 0. -1.
         -5    1    3    3    0  502 -0.29611337582E+02 -0.13500236423E+03 -0.35960864208E+02  0.14287451073E+03  0.41800000000E+01 0. -1.
        -11    1    1    2    0    0  0.19761280761E+02  0.11279226031E+03 -0.12311340935E+02  0.11517018416E+03  0.00000000000E+00 0.  1.
         11    1    1    2    0    0  0.41671332622E+02  0.24446229987E+00 -0.19866586256E+02  0.46165365522E+02  0.00000000000E+00 0. -1.
</event>
<event>
 7    1  0.4394360E-006  0.1440934E+03  0.7561462E-02  0.1207925E+00
         -2   -1    0    0    0  501 -0.00000000000E+00  0.00000000000E+00  0.25578838986E+03  0.25578838986E+03  0.00000000000E+00 0.  1.
          2   -1    0    0  501    0  0.00000000000E+00 -0.00000000000E+00 -0.11313125003E+03  0.11313125003E+03  0.00000000000E+00 0. -1.
         23    2    1    2    0    0  0.73272674538E+01  0.12375690182E+03  0.10568411343E+03  0.20539212990E+03  0.12508931049E+03 0.  0.
          5    1    3    3  502    0 -0.94969517511E+01  0.10258786068E+03  0.74067395303E+01  0.10337694831E+03  0.41800000000E+01 0. -1.
         -5    1    3    3    0  502  0.16824219205E+02  0.21169041134E+02  0.98277373899E+02  0.10201518159E+03  0.41800000000E+01 0. -1.
        -11    1    1    2    0    0 -0.43380148905E+02 -0.11148871653E+03  0.37721311771E+02  0.12543711011E+03  0.00000000000E+00 0. -1.
         11    1    1    2    0    0  0.36052881451E+02 -0.12268185291E+02 -0.74828537436E+00  0.38090399870E+02  0.00000000000E+00 0.  1.
</event>
<event>
 7    1  0.4394360E-006  0.2020299E+03  0.7561462E-02  0.1148038E+00
         -1   -1    0    0    0  501 -0.00000000000E+00  0.00000000000E+00  0.48869552948E+03  0.48869552948E+03  0.00000000000E+00 0.  1.
          1   -1    0    0  501    0  0.00000000000E+00 -0.00000000000E+00 -0.11130284330E+03  0.11130284330E+03  0.00000000000E+00 0. -1.
         23    2    1    2    0    0 -0.11934668640E+03  0.14248117173E+03  0.31532228357E+03  0.38680809569E+03  0.12509134471E+03 0.  0.
          5    1    3    3  502    0  0.22597703981E+02  0.16399659651E+02  0.77422348452E+02  0.82409328972E+02  0.41800000000E+01 0. -1.
         -5    1    3    3    0  502 -0.14194439038E+03  0.12608151207E+03  0.23789993512E+03  0.30439876671E+03  0.41800000000E+01 0. -1.
        -11    1    1    2    0    0  0.66056663303E+02 -0.82655243371E+02  0.78066584425E+02  0.13149054577E+03  0.00000000000E+00 0.  1.
         11    1    1    2    0    0  0.53290023094E+02 -0.59825928354E+02 -0.15996181817E+02  0.81699731318E+02  0.00000000000E+00 0. -1.
</event>
<event>
 7    1  0.4394360E-006  0.2886966E+03  0.7561462E-02  0.1091032E+00
          1   -1    0    0  501    0  0.00000000000E+00  0.00000000000E+00  0.92860216776E+03  0.92860216776E+03  0.00000000000E+00 0. -1.
         -1   -1    0    0    0  501 -0.00000000000E+00 -0.00000000000E+00 -0.94377529046E+02  0.94377529046E+02  0.00000000000E+00 0.  1.
         23    2    1    2    0    0 -0.11421873811E+03 -0.25023786971E+03  0.44244495663E+03  0.53577508558E+03  0.12502996084E+03 0.  0.
          5    1    3    3  502    0 -0.14063104658E+03 -0.22099705234E+03  0.37280027950E+03  0.45564713233E+03  0.41800000000E+01 0. -1.
         -5    1    3    3    0  502  0.26412308473E+02 -0.29240817368E+02  0.69644677133E+02  0.80127953251E+02  0.41800000000E+01 0. -1.
        -11    1    1    2    0    0  0.84145148952E+02  0.20349217282E+03  0.24072786373E+03  0.32625047872E+03  0.00000000000E+00 0. -1.
         11    1    1    2    0    0  0.30073589159E+02  0.46745696889E+02  0.15105181836E+03  0.16095413251E+03  0.00000000000E+00 0.  1.
</event>
<event>
 7    1  0.4394360E-006  0.1073782E+03  0.7561462E-02  0.1265504E+00
          2   -1    0    0  501    0  0.00000000000E+00  0.00000000000E+00  0.34251960851E+03  0.34251960851E+03  0.00000000000E+00 0. -1.
         -2   -1    0    0    0  501 -0.00000000000E+00 -0.00000000000E+00 -0.40399391289E+02  0.40399391289E+02  0.00000000000E+00 0.  1.
         23    2    1    2    0    0 -0.27525404089E+02 -0.17205835887E+02  0.11464344018E+03  0.17272936018E+03  0.12505448746E+03 0.  0.
          5    1    3    3  502    0  0.28377670098E+02  0.38781336672E+02  0.30067234117E+02  0.56840084462E+02  0.41800000000E+01 0.  1.
         -5    1    3    3    0  502 -0.55903074187E+02 -0.55987172559E+02  0.84576206065E+02  0.11588927572E+03  0.41800000000E+01 0.  1.
        -11    1    1    2    0    0  0.41877816559E+02 -0.20732446730E+02  0.57853637508E+02  0.74368200463E+02  0.00000000000E+00 0.  1.
         11    1    1    2    0    0 -0.14352412470E+02  0.37938282617E+02  0.12962313953E+03  0.13582143915E+03  0.00000000000E+00 0. -1.
</event>
<event>
 7    1  0.4394360E-006  0.1242250E+03  0.7561462E-02  0.1236285E+00
         -1   -1    0    0    0  501 -0.00000000000E+00  0.00000000000E+00  0.96985807386E+02  0.96985807386E+02  0.00000000000E+00 0.  1.
          1   -1    0    0  501    0  0.00000000000E+00 -0.00000000000E+00 -0.18526326659E+03  0.18526326659E+03  0.00000000000E+00 0. -1.
         23    2    1    2    0    0  0.68655119540E+02  0.16528887933E+02  0.30088596699E+01  0.13511237584E+03  0.11515021186E+03 0.  0.
          5    1    3    3  502    0  0.25223905952E+02 -0.49628742164E+02  0.15134898102E+01  0.55848191839E+02  0.41800000000E+01 0. -1.
         -5    1    3    3    0  502  0.43431213588E+02  0.66157630097E+02  0.14953698597E+01  0.79264183998E+02  0.41800000000E+01 0.  1.
        -11    1    1    2    0    0 -0.15097162196E+02  0.35578157837E+02 -0.18597455552E+02  0.42890499816E+02  0.00000000000E+00 0.  1.
         11    1    1    2    0    0 -0.53557957344E+02 -0.52107045770E+02 -0.72688863319E+02  0.10424619832E+03  0.00000000000E+00 0. -1.
</event>
<event>
 7    1  0.4394360E-006  0.1683361E+03  0.7561462E-02  0.1179594E+00
          1   -1    0    0  501    0  0.00000000000E+00  0.00000000000E+00  0.23336708311E+03  0.23336708311E+03  0.00000000000E+00 0. -1.
         -1   -1    0    0    0  501 -0.00000000000E+00 -0.00000000000E+00 -0.14906439737E+03  0.14906439737E+03  0.00000000000E+00 0.  1.
         23    2    1    2    0    0  0.15041011954E+03 -0.73792116607E+01  0.54154980772E+02  0.20312707385E+03  0.12510071689E+03 0.  0.
          5    1    3    3  502    0  0.55087077941E+02 -0.34410235731E+02  0.77542243419E+02  0.10123696160E+03  0.41800000000E+01 0. -1.
         -5    1    3    3    0  502  0.95323041596E+02  0.27031024071E+02 -0.23387262647E+02  0.10189011226E+03  0.41800000000E+01 0. -1.
        -11    1    1    2    0    0 -0.45067687191E+02 -0.36801875084E+02 -0.83035570336E+01  0.58774343874E+02  0.00000000000E+00 0.  1.
         11    1    1    2    0    0 -0.10534243235E+03  0.44181086745E+02  0.38451262003E+02  0.12053006276E+03  0.00000000000E+00 0. -1.
</event>
<event>
 7    1  0.4394360E-006  0.7004407E+02  0.7561462E-02  0.1359943E+00
         -1   -1    0    0    0  501 -0.00000000000E+00  0.00000000000E+00  0.10291729475E+03  0.10291729475E+03  0.00000000000E+00 0. -1.
          1   -1    0    0  501    0  0.00000000000E+00 -0.00000000000E+00 -0.11868588848E+03  0.11868588848E+03  0.00000000000E+00 0.  1.
         23    2    1    2    0    0 -0.37512155786E+00 -0.38448566008E+01  0.11987018896E+02  0.12572570784E+03  0.12509333056E+03 0.  0.
          5    1    3    3  502    0  0.17023953166E+02 -0.40035354448E+02  0.52648865611E+02  0.68425287996E+02  0.41800000000E+01 0.  1.
         -5    1    3    3    0  502 -0.17399074724E+02  0.36190497847E+02 -0.40661846715E+02  0.57300419841E+02  0.41800000000E+01 0.  1.
        -11    1    1    2    0    0  0.16760632811E+02  0.24475735090E+02  0.23765911256E+02  0.38010511155E+02  0.00000000000E+00 0. -1.
         11    1    1    2    0    0 -0.16385511253E+02 -0.20630878489E+02 -0.51521523888E+02  0.57866964237E+02  0.00000000000E+00 0.  1.
</event>
<event>
 7    1  0.4394360E-006  0.7815491E+02  0.7561462E-02  0.1334371E+00
          2   -1    0    0  501    0  0.00000000000E+00  0.00000000000E+00  0.33445685144E+03  0.33445685144E+03  0.00000000000E+00 0. -1.
         -2   -1    0    0    0  501 -0.00000000000E+00 -0.00000000000E+00 -0.59296758103E+02  0.59296758103E+02  0.00000000000E+00 0.  1.
         23    2    1    2    0    0 -0.52892958760E+01 -0.34837783917E+02  0.36124437081E+02  0.13489109973E+03  0.12509590718E+03 0.  0.
          5    1    3    3  502    0 -0.31874059176E+02 -0.56528854319E+02 -0.20816102959E+02  0.68280667552E+02  0.41800000000E+01 0.  1.
         -5    1    3    3    0  502  0.26584763300E+02  0.21691070402E+02  0.56940540040E+02  0.66610432178E+02  0.41800000000E+01 0.  1.
        -11    1    1    2    0    0  0.16489500467E+02 -0.34292418554E+01  0.32569782525E+00  0.16845456492E+02  0.00000000000E+00 0.  1.
         11    1    1    2    0    0 -0.11200204591E+02  0.38267025772E+02  0.23870995843E+03  0.24201705332E+03  0.00000000000E+00 0. -1.
</event>
<event>
 7    1  0.4394360E-006  0.1182889E+03  0.7561462E-02  0.1245947E+00
          2   -1    0    0  501    0  0.00000000000E+00  0.00000000000E+00  0.26137681535E+03  0.26137681535E+03  0.00000000000E+00 0.  1.
         -2   -1    0    0    0  501 -0.00000000000E+00 -0.00000000000E+00 -0.77320297185E+02  0.77320297185E+02  0.00000000000E+00 0. -1.
         23    2    1    2    0    0 -0.82169403972E+02 -0.47679749848E+02  0.91817084228E+02  0.18194265619E+03  0.12509030215E+03 0.  0.
          5    1    3    3  502    0 -0.77203560622E+02 -0.70617087851E+02  0.20437792806E+02  0.10668804358E+03  0.41800000000E+01 0. -1.
         -5    1    3    3    0  502 -0.49658433498E+01  0.22937338003E+02  0.71379291422E+02  0.75254612608E+02  0.41800000000E+01 0. -1.
        -11    1    1    2    0    0  0.22283539192E+02 -0.10411201182E+02  0.64178433242E+02  0.68730055451E+02  0.00000000000E+00 0.  1.
         11    1    1    2    0    0  0.59885864779E+02  0.58090951030E+02  0.28061000694E+02  0.88024400889E+02  0.00000000000E+00 0. -1.
</event>
<event>
 7    1  0.4394360E-006  0.1242031E+03  0.7561462E-02  0.1236320E+00
          2   -1    0    0  501    0  0.00000000000E+00  0.00000000000E+00  0.41487069319E+03  0.41487069319E+03  0.00000000000E+00 0. -1.
         -2   -1    0    0    0  501 -0.00000000000E+00 -0.00000000000E+00 -0.43092048555E+02  0.43092048555E+02  0.00000000000E+00 0.  1.
         23    2    1    2    0    0  0.51602995270E+02 -0.55726301731E+02  0.21886071037E+03  0.26327827473E+03  0.12508856693E+03 0.  0.
          5    1    3    3  502    0 -0.33529517296E+02  0.13580907090E+02  0.57987443837E+02  0.68473977614E+02  0.41800000000E+01 0.  1.
         -5    1    3    3    0  502  0.85132512566E+02 -0.69307208821E+02  0.16087326653E+03  0.19480429711E+03  0.41800000000E+01 0.  1.
        -11    1    1    2    0    0 -0.54080272019E+02  0.69543062272E+02  0.75554048393E+02  0.11605743216E+03  0.00000000000E+00 0.  1.
         11    1    1    2    0    0  0.24772767493E+01 -0.13816760541E+02  0.77363885877E+02  0.78627034854E+02  0.00000000000E+00 0. -1.
</event>
<event>
 7    1  0.4394360E-006  0.1365684E+03  0.7561462E-02  0.1218022E+00
         -2   -1    0    0    0  501 -0.00000000000E+00  0.00000000000E+00  0.71202757081E+02  0.71202757081E+02  0.00000000000E+00 0.  1.
          2   -1    0    0  501    0  0.00000000000E+00 -0.00000000000E+00 -0.38951985227E+03  0.38951985227E+03  0.00000000000E+00 0. -1.
         23    2    1    2    0    0 -0.97015497362E+02  0.44608974793E+02 -0.58180698526E+02  0.17445264339E+03  0.12508702468E+03 0.  0.
          5    1    3    3  502    0  0.20097414823E+02 -0.18140163098E+02 -0.25810752457E+02  0.37638264336E+02  0.41800000000E+01 0.  1.
         -5    1    3    3    0  502 -0.11711291219E+03  0.62749137891E+02 -0.32369946069E+02  0.13681437905E+03  0.41800000000E+01 0.  1.
        -11    1    1    2    0    0  0.72784622709E+02 -0.14586492618E+02 -0.12165089880E+03  0.14251073029E+03  0.00000000000E+00 0.  1.
         11    1    1    2    0    0  0.24230874653E+02 -0.30022482175E+02 -0.13848549786E+03  0.14375923567E+03  0.00000000000E+00 0. -1.
</event>
<event>
 7    1  0.4394360E-006  0.2948693E+03  0.7561462E-02  0.1087834E+00
          2   -1    0    0  501    0  0.00000000000E+00  0.00000000000E+00  0.68285967172E+03  0.68285967172E+03  0.00000000000E+00 0. -1.
         -2   -1    0    0    0  501 -0.00000000000E+00 -0.00000000000E+00 -0.13405752245E+03  0.13405752245E+03  0.00000000000E+00 0.  1.
         23    2    1    2    0    0  0.12208318659E+03 -0.25320307944E+03  0.24487433799E+03  0.39323260368E+03  0.12510929345E+03 0.  0.
          5    1    3    3  502    0  0.15815776606E+02 -0.13323932559E+03  0.55892636336E+02  0.14541085197E+03  0.41800000000E+01 0. -1.
         -5    1    3    3    0  502  0.10626740999E+03 -0.11996375385E+03  0.18898170165E+03  0.24782175171E+03  0.41800000000E+01 0. -1.
        -11    1    1    2    0    0 -0.86802161010E+02  0.78764869667E+02  0.12213238790E+03  0.16927740553E+03  0.00000000000E+00 0.  1.
         11    1    1    2    0    0 -0.35281025584E+02  0.17443820977E+03  0.18179542338E+03  0.25440718495E+03  0.00000000000E+00 0. -1.
</event>
<event>
 7    1  0.4394360E-006  0.8059284E+02  0.7561462E-02  0.1327377E+00
         -1   -1    0    0    0  501 -0.00000000000E+00  0.00000000000E+00  0.35094727350E+02  0.35094727350E+02  0.00000000000E+00 0.  1.
          1   -1    0    0  501    0  0.00000000000E+00 -0.00000000000E+00 -0.36459787551E+03  0.36459787551E+03  0.00000000000E+00 0. -1.
         23    2    1    2    0    0  0.16967969132E+02 -0.11340448511E+02 -0.14327315757E+03  0.19129062214E+03  0.12509351179E+03 0.  0.
          5    1    3    3  502    0 -0.25142228262E+02 -0.36720439498E+02 -0.13376849379E+03  0.14103901818E+03  0.41800000000E+01 0.  1.
         -5    1    3    3    0  502  0.42110197394E+02  0.25379990987E+02 -0.95046637771E+01  0.50251603961E+02  0.41800000000E+01 0.  1.
        -11    1    1    2    0    0 -0.97843461521E+01 -0.26696409774E+02 -0.13660428911E+02  0.31544239450E+02  0.00000000000E+00 0.  1.
         11    1    1    2    0    0 -0.71836229797E+01  0.38036858285E+02 -0.17256956168E+03  0.17685774127E+03  0.00000000000E+00 0. -1.
</event>
<event>
 7    1  0.4394360E-006  0.1163460E+03  0.7561462E-02  0.1249250E+00
          3   -1    0    0  501    0  0.00000000000E+00  0.00000000000E+00  0.10773877846E+03  0.10773877846E+03  0.00000000000E+00 0. -1.
         -3   -1    0    0    0  501 -0.00000000000E+00 -0.00000000000E+00 -0.21005525801E+03  0.21005525801E+03  0.00000000000E+00 0.  1.
         23    2    1    2    0    0  0.37356367598E+02  0.42524663107E+02 -0.14685647971E+03  0.20104376735E+03  0.12509166872E+03 0.  0.
          5    1    3    3  502    0 -0.36568242659E+02  0.50398943375E+02 -0.59052385437E+02  0.85918254698E+02  0.41800000000E+01 0. -1.
         -5    1    3    3    0  502  0.73924610257E+02 -0.78742802674E+01 -0.87804094275E+02  0.11512551265E+03  0.41800000000E+01 0. -1.
        -11    1    1    2    0    0 -0.21376329815E+02 -0.64898970778E+02  0.48948007423E+01  0.68503890099E+02  0.00000000000E+00 0.  1.
         11    1    1    2    0    0 -0.15980037783E+02  0.22374307670E+02  0.39645199422E+02  0.48246379019E+02  0.00000000000E+00 0. -1.
</event>
<event>
 7    1  0.4394360E-006  0.1045047E+03  0.7561462E-02  0.1271099E+00
         -1   -1    0    0    0  501 -0.00000000000E+00  0.00000000000E+00  0.44017417616E+02  0.44017417616E+02  0.00000000000E+00 0.  1.
          1   -1    0    0  501    0  0.00000000000E+00 -0.00000000000E+00 -0.32015364710E+03  0.32015364710E+03  0.00000000000E+00 0. -1.
         23    2    1    2    0    0 -0.20410835334E+02  0.14668367537E+02 -0.95835994180E+02  0.15957366222E+03  0.12508977851E+03 0.  0.
          5    1    3    3  502    0 -0.57555968295E+02  0.45051885504E+02 -0.80972573501E+02  0.10916222759E+03  0.41800000000E+01 0.  1.
         -5    1    3    3    0  502  0.37145132960E+02 -0.30383517966E+02 -0.14863420679E+02  0.50411434625E+02  0.41800000000E+01 0.  1.
        -11    1    1    2    0    0  0.30393184276E+02 -0.45782077111E+02 -0.15107484432E+03  0.16075867884E+03  0.00000000000E+00 0. -1.
         11    1    1    2    0    0 -0.99823489413E+01  0.31113709574E+02 -0.29225390979E+02  0.43838723655E+02  0.00000000000E+00 0.  1.
</event>
<event>
 7    1  0.4394360E-006  0.1367934E+03  0.7561462E-02  0.1217710E+00
          3   -1    0    0  501    0  0.00000000000E+00  0.00000000000E+00  0.63077024701E+02  0.63077024701E+02  0.00000000000E+00 0. -1.
         -3   -1    0    0    0  501 -0.00000000000E+00 -0.00000000000E+00 -0.42107179963E+03  0.42107179963E+03  0.00000000000E+00 0.  1.
         23    2    1    2    0    0 -0.81999027898E+02  0.73042519362E+02 -0.28605061242E+03  0.33096408845E+03  0.12511284813E+03 0.  0.
          5    1    3    3  502    0 -0.89670299024E+02 -0.29836684577E+00 -0.18677079457E+03  0.20722368025E+03  0.41800000000E+01 0. -1.
         -5    1    3    3    0  502  0.76712711255E+01  0.73340886208E+02 -0.99279817845E+02  0.12374040820E+03  0.41800000000E+01 0. -1.
        -11    1    1    2    0    0  0.19440254559E+02 -0.20628409183E+02 -0.65436272861E+02  0.71311714106E+02  0.00000000000E+00 0.  1.
         11    1    1    2    0    0  0.62558773339E+02 -0.52414110179E+02 -0.65078896523E+01  0.81873021779E+02  0.00000000000E+00 0. -1.
</event>
<event>
 7    1  0.4394360E-006  0.7954971E+02  0.7561462E-02  0.1330334E+00
          1   -1    0    0  501    0  0.00000000000E+00  0.00000000000E+00  0.42809426333E+02  0.42809426333E+02  0.00000000000E+00 0. -1.
         -1   -1    0    0    0  501 -0.00000000000E+00 -0.00000000000E+00 -0.31792160759E+03  0.31792160759E+03  0.00000000000E+00 0.  1.
         23    2    1    2    0    0  0.25761945788E+01 -0.95417203215E+00 -0.22042467859E+03  0.25346206562E+03  0.12509369509E+03 0.  0.
          5    1    3    3  502    0  0.44623808053E+02  0.58373112623E+01 -0.20177973618E+03  0.20677981715E+03  0.41800000000E+01 0.  1.
         -5    1    3    3    0  502 -0.42047613474E+02 -0.67914832945E+01 -0.18644942414E+02  0.46682248466E+02  0.41800000000E+01 0.  1.
        -11    1    1    2    0    0  0.33757036210E+02  0.64211581420E+01  0.73759381413E+01  0.35145031356E+02  0.00000000000E+00 0. -1.
         11    1    1    2    0    0 -0.36333230788E+02 -0.54669861099E+01 -0.62063440805E+02  0.72123936951E+02  0.00000000000E+00 0.  1.
</event>
<event>
 7    1  0.4394360E-006  0.1007452E+03  0.7561462E-02  0.1278737E+00
         -1   -1    0    0    0  501 -0.00000000000E+00  0.00000000000E+00  0.67840401364E+02  0.67840401364E+02  0.00000000000E+00 0.  1.
          1   -1    0    0  501    0  0.00000000000E+00 -0.00000000000E+00 -0.21933504698E+03  0.21933504698E+03  0.00000000000E+00 0. -1.
         23    2    1    2    0    0 -0.24077831016E+02 -0.50825480166E+02 -0.71179688736E+02  0.15452117845E+03  0.12508906874E+03 0.  0.
          5    1    3    3  502    0 -0.68258423344E+02 -0.10666566737E+02 -0.11800175430E+02  0.70211854722E+02  0.41800000000E+01 0.  1.
         -5    1    3    3    0  502  0.44180592327E+02 -0.40158913429E+02 -0.59379513306E+02  0.84309323723E+02  0.41800000000E+01 0.  1.
        -11    1    1    2    0    0 -0.13043450202E+02  0.63874602913E+01  0.15159359800E+02  0.20993747443E+02  0.00000000000E+00 0.  1.
         11    1    1    2    0    0  0.37121281219E+02  0.44438019875E+02 -0.95474316678E+02  0.11166052246E+03  0.00000000000E+00 0. -1.
</event>
<event>
 7    1  0.4394360E-006  0.5375612E+02  0.7561462E-02  0.1426075E+00
         -2   -1    0    0    0  501 -0.00000000000E+00  0.00000000000E+00  0.26237537955E+03  0.26237537955E+03  0.00000000000E+00 0.  1.
          2   -1    0    0  501    0  0.00000000000E+00 -0.00000000000E+00 -0.48336883825E+02  0.48336883825E+02  0.00000000000E+00 0. -1.
         23    2    1    2    0    0 -0.22411773141E+01  0.26915018636E+02  0.14237076434E+03  0.19143186645E+03  0.12508910365E+03 0.  0.
          5    1    3    3  502    0 -0.11564218627E+02  0.37354892147E+02 -0.81847081015E+01  0.40169403362E+02  0.41800000000E+01 0.  1.
         -5    1    3    3    0  502  0.93230413132E+01 -0.10439873511E+02  0.15055547244E+03  0.15126246309E+03  0.41800000000E+01 0.  1.
        -11    1    1    2    0    0  0.10362531895E+02 -0.38252787865E+02  0.88768516026E+02  0.97213719629E+02  0.00000000000E+00 0.  1.
         11    1    1    2    0    0 -0.81213545808E+01  0.11337769229E+02 -0.17100784643E+02  0.22066677292E+02  0.00000000000E+00 0. -1.
</event>
<event>
 7    1  0.4394360E-006  0.9699335E+02  0.7561462E-02  0.1286749E+00
          2   -1    0    0  501    0  0.00000000000E+00  0.00000000000E+00  0.21969977633E+03  0.21969977633E+03  0.00000000000E+00 0. -1.
         -2   -1    0    0    0  501 -0.00000000000E+00 -0.00000000000E+00 -0.58453989163E+02  0.58453989163E+02  0.00000000000E+00 0.  1.
         23    2    1    2    0    0  0.17532398207E+02 -0.18099306089E+02  0.88682881633E+02  0.15539554464E+03  0.12509257345E+03 0.  0.
          5    1    3    3  502    0  0.56914385430E+02 -0.47810122111E+02  0.34669633093E+02  0.82124971257E+02  0.41800000000E+01 0.  1.
         -5    1    3    3    0  502 -0.39381987223E+02  0.29710816022E+02  0.54013248540E+02  0.73270573385E+02  0.41800000000E+01 0.  1.
        -11    1    1    2    0    0 -0.15348099342E+02  0.42678022980E+02 -0.79554149848E+00  0.45360893787E+02  0.00000000000E+00 0.  1.
         11    1    1    2    0    0 -0.21842988655E+01 -0.24578716890E+02  0.73358447030E+02  0.77397327060E+02  0.00000000000E+00 0. -1.
</event>
<event>
 7    1  0.4394360E-006  0.7241732E+02  0.7561462E-02  0.1352061E+00
          2   -1    0    0  501    0  0.00000000000E+00  0.00000000000E+00  0.60627189282E+03  0.60627189282E+03  0.00000000000E+00 0.  1.
         -2   -1    0    0    0  501 -0.00000000000E+00 -0.00000000000E+00 -0.24281611961E+02  0.24281611961E+02  0.00000000000E+00 0. -1.
         23    2    1    2    0    0 -0.97291572879E+01  0.40941561907E+02  0.39380296369E+03  0.41533002943E+03  0.12508953252E+03 0.  0.
          5    1    3    3  502    0 -0.91379681059E+01  0.44316511292E+02  0.40251810029E+03  0.40507499194E+03  0.41800000000E+01 0. -1.
         -5    1    3    3    0  502 -0.59118918203E+00 -0.33749493852E+01 -0.87151366022E+01  0.10255037494E+02  0.41800000000E+01 0. -1.
        -11    1    1    2    0    0  0.41532735862E+02 -0.45787158965E+02  0.16311674523E+03  0.17443768127E+03  0.00000000000E+00 0.  1.
         11    1    1    2    0    0 -0.31803578574E+02  0.48455970579E+01  0.25070571952E+02  0.40785794083E+02  0.00000000000E+00 0. -1.
</event>
<event>
 7    1  0.4394360E-006  0.1328411E+03  0.7561462E-02  0.1223300E+00
         -4   -1    0    0    0  501 -0.00000000000E+00  0.00000000000E+00  0.16453802074E+03  0.16453802074E+03  0.00000000000E+00 0.  1.
          4   -1    0    0  501    0  0.00000000000E+00 -0.00000000000E+00 -0.11281048183E+03  0.11281048183E+03  0.00000000000E+00 0. -1.
         23    2    1    2    0    0  0.25386238322E+02  0.72807272117E+02  0.57856164836E+02  0.15792407729E+03  0.12508924179E+03 0.  0.
          5    1    3    3  502    0  0.30285253755E+02 -0.30543932366E+02  0.20597989138E+02  0.47873562181E+02  0.41800000000E+01 0. -1.
         -5    1    3    3    0  502 -0.48990154333E+01  0.10335120448E+03  0.37258175697E+02  0.11005051511E+03  0.41800000000E+01 0. -1.
        -11    1    1    2    0    0 -0.22091201568E+02  0.17724691347E+02  0.24421937331E+01  0.28427982347E+02  0.00000000000E+00 0.  1.
         11    1    1    2    0    0 -0.32950367537E+01 -0.90531963465E+02 -0.85708196629E+01  0.90996442929E+02  0.00000000000E+00 0. -1.
</event>
<event>
 7    1  0.4394360E-006  0.2482607E+03  0.7561462E-02  0.1114409E+00
         -1   -1    0    0    0  501 -0.00000000000E+00  0.00000000000E+00  0.89256670464E+03  0.89256670464E+03  0.00000000000E+00 0.  1.
          1   -1    0    0  501    0  0.00000000000E+00 -0.00000000000E+00 -0.83724536927E+02  0.83724536927E+02  0.00000000000E+00 0. -1.
         23    2    1    2    0    0  0.11444522736E+03 -0.19875514213E+03  0.58958541923E+03  0.64487175187E+03  0.12508914104E+03 0.  0.
          5    1    3    3  502    0 -0.21690347563E+02 -0.38615225843E+02  0.16782650954E+03  0.17362262683E+03  0.41800000000E+01 0. -1.
         -5    1    3    3    0  502  0.13613557492E+03 -0.16013991628E+03  0.42175890969E+03  0.47124912504E+03  0.41800000000E+01 0. -1.
        -11    1    1    2    0    0  0.84103915169E+01  0.41020098744E+02  0.71322588738E+02  0.82706075054E+02  0.00000000000E+00 0.  1.
         11    1    1    2    0    0 -0.12285561888E+03  0.15773504338E+03  0.14793415974E+03  0.24871341464E+03  0.00000000000E+00 0. -1.
</event>
<event>
 7    1  0.4394360E-006  0.1109701E+03  0.7561462E-02  0.1258784E+00
         -2   -1    0    0    0  501 -0.00000000000E+00  0.00000000000E+00  0.52257291454E+02  0.52257291454E+02  0.00000000000E+00 0. -1.
          2   -1    0    0  501    0  0.00000000000E+00 -0.00000000000E+00 -0.30219160597E+03  0.30219160597E+03  0.00000000000E+00 0.  1.
         23    2    1    2    0    0 -0.36249349864E+02 -0.52477136301E+02 -0.15244651746E+03  0.20725663572E+03  0.12508999626E+03 0.  0.
          5    1    3    3  502    0 -0.11287797326E+02 -0.77066710196E+02 -0.15325176481E+03  0.17196007678E+03  0.41800000000E+01 0. -1.
         -5    1    3    3    0  502 -0.24961552538E+02  0.24589573896E+02  0.80524735248E+00  0.35296558937E+02  0.41800000000E+01 0. -1.
        -11    1    1    2    0    0  0.48535328512E+02  0.71253289088E+02 -0.86795850688E+02  0.12233653999E+03  0.00000000000E+00 0.  1.
         11    1    1    2    0    0 -0.12285978648E+02 -0.18776152787E+02 -0.10691946364E+02  0.24855721713E+02  0.00000000000E+00 0. -1.
</event>
<event>
 7    1  0.4394360E-006  0.1079917E+03  0.7561462E-02  0.1264335E+00
          1   -1    0    0  501    0  0.00000000000E+00  0.00000000000E+00  0.29367017051E+03  0.29367017051E+03  0.00000000000E+00 0. -1.
         -1   -1    0    0    0  501 -0.00000000000E+00 -0.00000000000E+00 -0.50784466066E+02  0.50784466066E+02  0.00000000000E+00 0.  1.
         23    2    1    2    0    0 -0.20109523301E+02 -0.51376209975E+02  0.12308123039E+03  0.18395037212E+03  0.12507934382E+03 0.  0.
          5    1    3    3  502    0  0.38554026835E+02 -0.64199378145E+02  0.81685012347E+02  0.11089583753E+03  0.41800000000E+01 0.  1.
         -5    1    3    3    0  502 -0.58663550136E+02  0.12823168170E+02  0.41396218038E+02  0.73054534591E+02  0.41800000000E+01 0.  1.
        -11    1    1    2    0    0 -0.17731354373E+02  0.35633673261E+02  0.11189521857E+03  0.11876320784E+03  0.00000000000E+00 0. -1.
         11    1    1    2    0    0  0.37840877674E+02  0.15742536714E+02  0.79092554958E+01  0.41741056620E+02  0.00000000000E+00 0.  1.
</event>
<event>
 7    1  0.4394360E-006  0.8984585E+02  0.7561462E-02  0.1303225E+00
         -1   -1    0    0    0  501 -0.00000000000E+00  0.00000000000E+00  0.30148778314E+02  0.30148778314E+02  0.00000000000E+00 0.  1.
          1   -1    0    0  501    0  0.00000000000E+00 -0.00000000000E+00 -0.71240840833E+03  0.71240840833E+03  0.00000000000E+00 0. -1.
         23    2    1    2    0    0  0.64782713455E+02  0.34292803632E+02 -0.19340030425E+03  0.23970847782E+03  0.12117623658E+03 0.  0.
          5    1    3    3  502    0  0.21543763056E+01  0.69167573949E+01 -0.16558629559E+03  0.16579739611E+03  0.41800000000E+01 0. -1.
         -5    1    3    3    0  502  0.62628337150E+02  0.27376046237E+02 -0.27814008656E+02  0.73911081708E+02  0.41800000000E+01 0.  1.
        -11    1    1    2    0    0 -0.20386591536E+02  0.22762036810E+02 -0.54215635702E+02  0.62233902246E+02  0.00000000000E+00 0.  1.
         11    1    1    2    0    0 -0.44396121919E+02 -0.57054840442E+02 -0.43464369007E+03  0.44061480658E+03  0.00000000000E+00 0. -1.
</event>
<event>
 7    1  0.4394360E-006  0.1326101E+03  0.7561462E-02  0.1223633E+00
         -1   -1    0    0    0  501 -0.00000000000E+00  0.00000000000E+00  0.47442190308E+02  0.47442190308E+02  0.00000000000E+00 0.  1.
          1   -1    0    0  501    0  0.00000000000E+00 -0.00000000000E+00 -0.71534585631E+03  0.71534585631E+03  0.00000000000E+00 0. -1.
         23    2    1    2    0    0 -0.98258013244E+02  0.30340210786E+02 -0.13022524776E+03  0.20780186755E+03  0.12509130843E+03 0.  0.
          5    1    3    3  502    0 -0.56642929130E+02 -0.28168553170E+02 -0.11924107635E+03  0.13504738242E+03  0.41800000000E+01 0.  1.
         -5    1    3    3    0  502 -0.41615084114E+02  0.58508763956E+02 -0.10984171414E+02  0.72754485134E+02  0.41800000000E+01 0.  1.
        -11    1    1    2    0    0  0.47740343735E+02  0.25891908064E+02 -0.13955896431E+03  0.14975391762E+03  0.00000000000E+00 0.  1.
         11    1    1    2    0    0  0.50517669510E+02 -0.56232118850E+02 -0.39811945393E+03  0.40523226145E+03  0.00000000000E+00 0. -1.
</event>
<event>
 7    1  0.4394360E-006  0.6854108E+02  0.7561462E-02  0.1365126E+00
         -2   -1    0    0    0  501 -0.00000000000E+00  0.00000000000E+00  0.27375108267E+02  0.27375108267E+02  0.00000000000E+00 0. -1.
          2   -1    0    0  501    0  0.00000000000E+00 -0.00000000000E+00 -0.45448041833E+03  0.45448041833E+03  0.00000000000E+00 0.  1.
         23    2    1    2    0    0 -0.92595720689E+01  0.16831568178E+02 -0.20681641538E+03  0.24246348150E+03  0.12508584582E+03 0.  0.
          5    1    3    3  502    0 -0.18518980793E+02  0.36823607833E+02 -0.21472450327E+03  0.21868473986E+03  0.41800000000E+01 0.  1.
         -5    1    3    3    0  502  0.92594087243E+01 -0.19992039655E+02  0.79080878899E+01  0.23778741631E+02  0.41800000000E+01 0.  1.
        -11    1    1    2    0    0  0.26738712760E+02 -0.37564833892E+02 -0.20072657817E+03  0.20595444809E+03  0.00000000000E+00 0.  1.
         11    1    1    2    0    0 -0.17479140691E+02  0.20733265715E+02 -0.19562316512E+02  0.33437597010E+02  0.00000000000E+00 0. -1.
</event>
<event>
 7    1  0.4394360E-006  0.1066886E+03  0.7561462E-02  0.1266828E+00
          1   -1    0    0  501    0  0.00000000000E+00  0.00000000000E+00  0.75011597723E+03  0.75011597723E+03  0.00000000000E+00 0. -1.
         -1   -1    0    0    0  501 -0.00000000000E+00 -0.00000000000E+00 -0.20345586723E+02  0.20345586723E+02  0.00000000000E+00 0.  1.
         23    2    1    2    0    0 -0.32747646909E+02 -0.50752294201E+02  0.39733234751E+03  0.42091614694E+03  0.12509678105E+03 0.  0.
          5    1    3    3  502    0 -0.29037811248E+02  0.22058836579E+02  0.33067609565E+02  0.49403703866E+02  0.41800000000E+01 0. -1.
         -5    1    3    3    0  502 -0.37098356605E+01 -0.72811130780E+02  0.36426473795E+03  0.37151244307E+03  0.41800000000E+01 0. -1.
        -11    1    1    2    0    0 -0.17726332745E+01 -0.22551801693E+02  0.12135657164E+03  0.12344692571E+03  0.00000000000E+00 0.  1.
         11    1    1    2    0    0  0.34520280183E+02  0.73304095894E+02  0.21108147136E+03  0.22609849130E+03  0.00000000000E+00 0. -1.
</event>
<event>
 7    1  0.4394360E-006  0.2124091E+03  0.7561462E-02  0.1139672E+00
          2   -1    0    0  501    0  0.00000000000E+00  0.00000000000E+00  0.12921313374E+03  0.12921313374E+03  0.00000000000E+00 0. -1.
         -2   -1    0    0    0  501 -0.00000000000E+00 -0.00000000000E+00 -0.43369818823E+03  0.43369818823E+03  0.00000000000E+00 0.  1.
         23    2    1    2    0    0 -0.56727470264E+02 -0.18960563767E+03 -0.24154787672E+03  0.33639367923E+03  0.12508807680E+03 0.  0.
          5    1    3    3  502    0  0.62114793648E+01 -0.13615158396E+03 -0.20450070743E+03  0.24579228635E+03  0.41800000000E+01 0.  1.
         -5    1    3    3    0  502 -0.62938949629E+02 -0.53454053713E+02 -0.37047169286E+02  0.90601392875E+02  0.41800000000E+01 0.  1.
        -11    1    1    2    0    0 -0.27177588261E+01  0.88150352583E+02 -0.63928949760E+02  0.10892557776E+03  0.00000000000E+00 0. -1.
         11    1    1    2    0    0  0.59445229090E+02  0.10145528509E+03  0.99177198719E+00  0.11759206498E+03  0.00000000000E+00 0.  1.
</event>
<event>
 7    1  0.4394360E-006  0.1001053E+03  0.7561462E-02  0.1280075E+00
          2   -1    0    0  501    0  0.00000000000E+00  0.00000000000E+00  0.39766952331E+03  0.39766952331E+03  0.00000000000E+00 0. -1.
         -2   -1    0    0    0  501 -0.00000000000E+00 -0.00000000000E+00 -0.43319119734E+02  0.43319119734E+02  0.00000000000E+00 0.  1.
         23    2    1    2    0    0 -0.11975093786E+02  0.71735872496E+02  0.15999590391E+03  0.21571943738E+03  0.12508696224E+03 0.  0.
          5    1    3    3  502    0 -0.25115581495E+02  0.83871116554E+02  0.43623533187E+02  0.97906290266E+02  0.41800000000E+01 0.  1.
         -5    1    3    3    0  502  0.13140487709E+02 -0.12135244059E+02  0.11637237072E+03  0.11781314711E+03  0.41800000000E+01 0.  1.
        -11    1    1    2    0    0  0.31438346945E+02 -0.16247806797E+02  0.14262994867E+03  0.14695462953E+03  0.00000000000E+00 0. -1.
         11    1    1    2    0    0 -0.19463253159E+02 -0.55488065699E+02  0.51724550999E+02  0.78314576131E+02  0.00000000000E+00 0.  1.
</event>
<event>
 7    1  0.4394360E-006  0.1115546E+03  0.7561462E-02  0.1257718E+00
         -1   -1    0    0    0  501 -0.00000000000E+00  0.00000000000E+00  0.13803668109E+03  0.13803668109E+03  0.00000000000E+00 0.  1.
          1   -1    0    0  501    0  0.00000000000E+00 -0.00000000000E+00 -0.93893085929E+02  0.93893085929E+02  0.00000000000E+00 0. -1.
         23    2    1    2    0    0  0.48077072203E+01 -0.21960696117E+02  0.42242159093E+02  0.13392869328E+03  0.12508840336E+03 0.  0.
          5    1    3    3  502    0  0.30927323898E+02  0.45082160040E+02  0.21881808944E+02  0.59035467983E+02  0.41800000000E+01 0. -1.
         -5    1    3    3    0  502 -0.26119616677E+02 -0.67042856157E+02  0.20360350149E+02  0.74893225296E+02  0.41800000000E+01 0. -1.
        -11    1    1    2    0    0 -0.54108415833E+01  0.58957182255E+02  0.10208560479E+02  0.60078625593E+02  0.00000000000E+00 0.  1.
         11    1    1    2    0    0  0.60313436310E+00 -0.36996486138E+02 -0.83071244101E+01  0.37922448149E+02  0.00000000000E+00 0. -1.
</event>
<event>
 7    1  0.4394360E-006  0.1045787E+03  0.7561462E-02  0.1270952E+00
         -2   -1    0    0    0  501 -0.00000000000E+00  0.00000000000E+00  0.17886391319E+03  0.17886391319E+03  0.00000000000E+00 0.  1.
          2   -1    0    0  501    0  0.00000000000E+00 -0.00000000000E+00 -0.11023223233E+03  0.11023223233E+03  0.00000000000E+00 0. -1.
         23    2    1    2    0    0  0.52356020490E+02  0.43604305450E+02  0.95657794928E+02  0.17159114991E+03  0.12510244067E+03 0.  0.
          5    1    3    3  502    0  0.92374818123E+02  0.39458750935E+02  0.56656444106E+02  0.11540158191E+03  0.41800000000E+01 0. -1.
         -5    1    3    3    0  502 -0.40018797633E+02  0.41455545147E+01  0.39001350822E+02  0.56189568001E+02  0.41800000000E+01 0. -1.
        -11    1    1    2    0    0 -0.11059232410E+02 -0.80601710897E+01 -0.54705157170E+02  0.56390843233E+02  0.00000000000E+00 0. -1.
         11    1    1    2    0    0 -0.41296788080E+02 -0.35544134360E+02  0.27679043106E+02  0.61114152374E+02  0.00000000000E+00 0.  1.
</event>
<event>
 7    1  0.4394360E-006  0.8924294E+02  0.7561462E-02  0.1304695E+00
          2   -1    0    0  501    0  0.00000000000E+00  0.00000000000E+00  0.56844861566E+03  0.56844861566E+03  0.00000000000E+00 0. -1.
         -2   -1    0    0    0  501 -0.00000000000E+00 -0.00000000000E+00 -0.25881762169E+02  0.25881762169E+02  0.00000000000E+00 0.  1.
         23    2    1    2    0    0 -0.43581624123E+02  0.31307909119E+02  0.26874242040E+03  0.29998829702E+03  0.12202846672E+03 0.  0.
          5    1    3    3  502    0 -0.33802936155E+02 -0.83817577189E+01  0.25388244596E+03  0.25629409108E+03  0.41800000000E+01 0.  1.
         -5    1    3    3    0  502 -0.97786879681E+01  0.39689666838E+02  0.14859974440E+02  0.43694205937E+02  0.41800000000E+01 0.  1.
        -11    1    1    2    0    0  0.47511217114E+01 -0.56066542172E+02  0.10241439048E+03  0.11685348812E+03  0.00000000000E+00 0.  1.
         11    1    1    2    0    0  0.38830502412E+02  0.24758633053E+02  0.17141004262E+03  0.17748859270E+03  0.00000000000E+00 0. -1.
</event>
<event>
 7    1  0.4394360E-006  0.9998429E+02  0.7561462E-02  0.1280329E+00
         -3   -1    0    0    0  501 -0.00000000000E+00  0.00000000000E+00  0.45664313856E+03  0.45664313856E+03  0.00000000000E+00 0.  1.
          3   -1    0    0  501    0  0.00000000000E+00 -0.00000000000E+00 -0.42857221446E+02  0.42857221446E+02  0.00000000000E+00 0. -1.
         23    2    1    2    0    0  0.23602014313E+01  0.71214901707E+02  0.32527329862E+03  0.35570594842E+03  0.12508745010E+03 0.  0.
          5    1    3    3  502    0  0.23949660701E+02  0.84897794613E+02  0.12100848909E+03  0.14980570286E+03  0.41800000000E+01 0.  1.
         -5    1    3    3    0  502 -0.21589459269E+02 -0.13682892907E+02  0.20426480953E+03  0.20590024556E+03  0.41800000000E+01 0.  1.
        -11    1    1    2    0    0  0.21313585530E+02 -0.19523336721E+02  0.81542912808E+02  0.86514023338E+02  0.00000000000E+00 0.  1.
         11    1    1    2    0    0 -0.23673786961E+02 -0.51691564986E+02  0.69697056814E+01  0.57280388241E+02  0.00000000000E+00 0. -1.
</event>
<event>
 7    1  0.4394360E-006  0.1569700E+03  0.7561462E-02  0.1192161E+00
          2   -1    0    0  501    0  0.00000000000E+00  0.00000000000E+00  0.58047989920E+03  0.58047989920E+03  0.00000000000E+00 0.  1.
         -2   -1    0    0    0  501 -0.00000000000E+00 -0.00000000000E+00 -0.54564411084E+02  0.54564411084E+02  0.00000000000E+00 0. -1.
         23    2    1    2    0    0 -0.11334069083E+03 -0.23491197362E+02  0.14621483710E+03  0.22455306361E+03  0.12508937299E+03 0.  0.
          5    1    3    3  502    0 -0.11463001519E+03 -0.58619380977E+02  0.13683984117E+03  0.18793319755E+03  0.41800000000E+01 0.  1.
         -5    1    3    3    0  502  0.12893243653E+01  0.35128183615E+02  0.93749959325E+01  0.36619866058E+02  0.41800000000E+01 0.  1.
        -11    1    1    2    0    0  0.12395394619E+03  0.82617484201E-02  0.34928033962E+03  0.37062290335E+03  0.00000000000E+00 0.  1.
         11    1    1    2    0    0 -0.10613255360E+02  0.23482935614E+02  0.30420311398E+02  0.39868343330E+02  0.00000000000E+00 0. -1.
</event>
<event>
 7    1  0.4394360E-006  0.1318302E+03  0.7561462E-02  0.1224765E+00
          1   -1    0    0  501    0  0.00000000000E+00  0.00000000000E+00  0.15532670727E+03  0.15532670727E+03  0.00000000000E+00 0.  1.
         -1   -1    0    0    0  501 -0.00000000000E+00 -0.00000000000E+00 -0.15079151195E+03  0.15079151195E+03  0.00000000000E+00 0. -1.
         23    2    1    2    0    0  0.10003547744E+03  0.35543335304E+02  0.18434542406E+02  0.16509927587E+03  0.12509002002E+03 0.  0.
          5    1    3    3  502    0  0.11786480662E+03  0.48982942547E+01  0.38482982022E+02  0.12415521830E+03  0.41800000000E+01 0.  1.
         -5    1    3    3    0  502 -0.17829329176E+02  0.30645041049E+02 -0.20048439617E+02  0.40944057577E+02  0.41800000000E+01 0.  1.
        -11    1    1    2    0    0 -0.61583066350E+02 -0.68929583928E+01 -0.51107391176E+02  0.80324046022E+02  0.00000000000E+00 0. -1.
         11    1    1    2    0    0 -0.38452411090E+02 -0.28650376911E+02  0.37208044089E+02  0.60694897320E+02  0.00000000000E+00 0.  1.
</event>
<event>
 7    1  0.4394360E-006  0.1665882E+03  0.7561462E-02  0.1181453E+00
         -3   -1    0    0    0  501 -0.00000000000E+00  0.00000000000E+00  0.15699862546E+04  0.15699862546E+04  0.00000000000E+00 0. -1.
          3   -1    0    0  501    0  0.00000000000E+00 -0.00000000000E+00 -0.18061181200E+02  0.18061181200E+02  0.00000000000E+00 0.  1.
         23    2    1    2    0    0 -0.12121372275E+03  0.53874468086E+02  0.93843281328E+03  0.95598066687E+03  0.12509062913E+03 0.  0.
          5    1    3    3  502    0 -0.69561695382E+02 -0.36010499102E+02  0.42211736714E+03  0.42934383605E+03  0.41800000000E+01 0. -1.
         -5    1    3    3    0  502 -0.51652027364E+02  0.89884967187E+02  0.51631544614E+03  0.52663683082E+03  0.41800000000E+01 0. -1.
        -11    1    1    2    0    0  0.40397840656E+02  0.16675469439E+02  0.14467325577E+03  0.15113043290E+03  0.00000000000E+00 0.  1.
         11    1    1    2    0    0  0.80815882090E+02 -0.70549937525E+02  0.46881900437E+03  0.48093633606E+03  0.00000000000E+00 0. -1.
</event>
<event>
 7    1  0.4394360E-006  0.1420662E+03  0.7561462E-02  0.1210576E+00
         -1   -1    0    0    0  501 -0.00000000000E+00  0.00000000000E+00  0.38318230503E+02  0.38318230503E+02  0.00000000000E+00 0.  1.
          1   -1    0    0  501    0  0.00000000000E+00 -0.00000000000E+00 -0.70977895105E+03  0.70977895105E+03  0.00000000000E+00 0. -1.
         23    2    1    2    0    0  0.10679916811E+03 -0.55558497242E+02 -0.28997911937E+03  0.33797618999E+03  0.12508879409E+03 0.  0.
          5    1    3    3  502    0  0.12445219931E+03 -0.32347272747E+02 -0.27771031075E+03  0.30606402118E+03  0.41800000000E+01 0. -1.
         -5    1    3    3    0  502 -0.17653031198E+02 -0.23211224495E+02 -0.12268808617E+02  0.31912168806E+02  0.41800000000E+01 0. -1.
        -11    1    1    2    0    0 -0.58380721697E+02  0.50759840406E+02 -0.11100717010E+03  0.13530506967E+03  0.00000000000E+00 0.  1.
         11    1    1    2    0    0 -0.48418446411E+02  0.47986568362E+01 -0.27047443108E+03  0.27481592190E+03  0.00000000000E+00 0. -1.
</event>
<event>
 7    1  0.4394360E-006  0.1122958E+03  0.7561462E-02  0.1256376E+00
         -1   -1    0    0    0  501 -0.00000000000E+00  0.00000000000E+00  0.50883782664E+02  0.50883782664E+02  0.00000000000E+00 0.  1.
          1   -1    0    0  501    0  0.00000000000E+00 -0.00000000000E+00 -0.26746956341E+03  0.26746956341E+03  0.00000000000E+00 0. -1.
         23    2    1    2    0    0 -0.60284489004E-01 -0.23781577937E+02 -0.11157463368E+03  0.16930084469E+03  0.12509320544E+03 0.  0.
          5    1    3    3  502    0 -0.18086895719E+02  0.45400122966E+02 -0.73031250743E+02  0.87973535493E+02  0.41800000000E+01 0.  1.
         -5    1    3    3    0  502  0.18026611230E+02 -0.69181700903E+02 -0.38543382939E+02  0.81327309193E+02  0.41800000000E+01 0.  1.
        -11    1    1    2    0    0 -0.27395208131E+02  0.55551650631E+02 -0.48605080408E+02  0.78733329397E+02  0.00000000000E+00 0. -1.
         11    1    1    2    0    0  0.27455492620E+02 -0.31770072694E+02 -0.56406066658E+02  0.70319171993E+02  0.00000000000E+00 0.  1.
</event>
<event>
 7    1  0.4394360E-006  0.1156795E+03  0.7561462E-02  0.1250400E+00
         -4   -1    0    0    0  501 -0.00000000000E+00  0.00000000000E+00  0.27957318738E+02  0.27957318738E+02  0.00000000000E+00 0.  1.
          4   -1    0    0  501    0  0.00000000000E+00 -0.00000000000E+00 -0.57001118435E+03  0.57001118435E+03  0.00000000000E+00 0. -1.
         23    2    1    2    0    0  0.53493312906E+02  0.36642238179E+02 -0.28948837382E+03  0.32194441318E+03  0.12506197845E+03 0.  0.
          5    1    3    3  502    0  0.52309581755E+02  0.78689158190E+02 -0.16151620146E+03  0.18717166370E+03  0.41800000000E+01 0. -1.
         -5    1    3    3    0  502  0.11837311507E+01 -0.42046920011E+02 -0.12797217236E+03  0.13477274948E+03  0.41800000000E+01 0. -1.
        -11    1    1    2    0    0 -0.65578201440E+01 -0.46153309392E+02 -0.52070077793E+02  0.69888668425E+02  0.00000000000E+00 0.  1.
         11    1    1    2    0    0 -0.46935492762E+02  0.95110712122E+01 -0.20049541400E+03  0.20613542149E+03  0.00000000000E+00 0. -1.
</event>
<event>
 7    1  0.4394360E-006  0.1303845E+03  0.7561462E-02  0.1226886E+00
         -2   -1    0    0    0  501 -0.00000000000E+00  0.00000000000E+00  0.52157643316E+03  0.52157643316E+03  0.00000000000E+00 0.  1.
          2   -1    0    0  501    0  0.00000000000E+00 -0.00000000000E+00 -0.39968899814E+02  0.39968899814E+02  0.00000000000E+00 0. -1.
         23    2    1    2    0    0  0.17951968334E+02  0.85602868834E+02  0.34034595391E+03  0.37300566414E+03  0.12509089822E+03 0.  0.
          5    1    3    3  502    0 -0.52556862750E+02  0.31319031737E+02  0.17091263879E+03  0.18158113357E+03  0.41800000000E+01 0. -1.
         -5    1    3    3    0  502  0.70508831084E+02  0.54283837097E+02  0.16943331512E+03  0.19142453057E+03  0.41800000000E+01 0. -1.
        -11    1    1    2    0    0 -0.36919800343E+02 -0.19827017761E+02  0.10045054687E+03  0.10884160352E+03  0.00000000000E+00 0.  1.
         11    1    1    2    0    0  0.18967832009E+02 -0.65775851073E+02  0.40811032564E+02  0.79698065311E+02  0.00000000000E+00 0. -1.
</event>
<event>
 6    1  0.4394360E-006  0.1292652E+03  0.7561462E-02  0.1228550E+00
          1   -1    0    0  501    0  0.00000000000E+00  0.00000000000E+00  0.20002041339E+03  0.20002041339E+03  0.00000000000E+00 0. -1.
         -1   -1    0    0    0  501 -0.00000000000E+00 -0.00000000000E+00 -0.16281122918E+03  0.16281122918E+03  0.00000000000E+00 0.  1.
          5    1    1    2  502    0  0.35694026692E+01  0.57653400552E+02  0.70862916645E+01  0.58346749354E+02  0.41800000000E+01 0. -1.
         -5    1    1    2    0  502  0.73356613603E+02 -0.27705151023E+02 -0.99168529622E+02  0.12649362759E+03  0.41800000000E+01 0.  1.
        -11    1    1    2    0    0  0.20520573839E+02 -0.90514846319E+01  0.19592128018E+02  0.29780443331E+02  0.00000000000E+00 0.  1.
         11    1    1    2    0    0 -0.97446590112E+02 -0.20896764897E+02  0.10969929415E+03  0.14821082229E+03  0.00000000000E+00 0. -1.
</event>
<event>
 7    1  0.4394360E-006  0.2358814E+03  0.7561462E-02  0.1122567E+00
         -2   -1    0    0    0  501 -0.00000000000E+00  0.00000000000E+00  0.14104724708E+04  0.14104724708E+04  0.00000000000E+00 0.  1.
          2   -1    0    0  501    0  0.00000000000E+00 -0.00000000000E+00 -0.46635956296E+02  0.46635956296E+02  0.00000000000E+00 0. -1.
         23    2    1    2    0    0 -0.19826296240E+03  0.10276979672E+03  0.87502341906E+03  0.91169442707E+03  0.12510360137E+03 0.  0.
          5    1    3    3  502    0 -0.12664072768E+03  0.12015623016E+03  0.50386972644E+03  0.53327063221E+03  0.41800000000E+01 0. -1.
         -5    1    3    3    0  502 -0.71622234715E+02 -0.17386433440E+02  0.37115369262E+03  0.37842379486E+03  0.41800000000E+01 0. -1.
        -11    1    1    2    0    0  0.77740919870E+02 -0.39530115483E+02  0.30158428315E+03  0.31394165142E+03  0.00000000000E+00 0.  1.
         11    1    1    2    0    0  0.12052204253E+03 -0.63239681234E+02  0.18722881231E+03  0.23147234863E+03  0.00000000000E+00 0. -1.
</event>
<event>
 7    1  0.4394360E-006  0.1494531E+03  0.7561462E-02  0.1201147E+00
          4   -1    0    0  501    0  0.00000000000E+00  0.00000000000E+00  0.38325238551E+02  0.38325238551E+02  0.00000000000E+00 0. -1.
         -4   -1    0    0    0  501 -0.00000000000E+00 -0.00000000000E+00 -0.80205247573E+03  0.80205247573E+03  0.00000000000E+00 0.  1.
         23    2    1    2    0    0  0.66054354700E+02 -0.11834491918E+03 -0.44276281535E+03  0.47964166361E+03  0.12509403323E+03 0.  0.
          5    1    3    3  502    0  0.72180869601E+02 -0.85223324613E+02 -0.16186060555E+03  0.19669626591E+03  0.41800000000E+01 0. -1.
         -5    1    3    3    0  502 -0.61265149003E+01 -0.33121594566E+02 -0.28090220980E+03  0.28294539771E+03  0.41800000000E+01 0. -1.
        -11    1    1    2    0    0 -0.70191480938E+02  0.53575342598E+02 -0.11627391532E+03  0.14600268735E+03  0.00000000000E+00 0.  1.
         11    1    1    2    0    0  0.41371262376E+01  0.64769576580E+02 -0.20469050651E+03  0.21473336332E+03  0.00000000000E+00 0. -1.
</event>
<event>
 7    1  0.4394360E-006  0.4025803E+03  0.7561462E-02  0.1042890E+00
         -1   -1    0    0    0  501 -0.00000000000E+00  0.00000000000E+00  0.15075226513E+03  0.15075226513E+03  0.00000000000E+00 0.  1.
          1   -1    0    0  501    0  0.00000000000E+00 -0.00000000000E+00 -0.12149014606E+04  0.12149014606E+04  0.00000000000E+00 0. -1.
         23    2    1    2    0    0  0.15804953376E+02  0.40090627666E+03 -0.37634162559E+03  0.56414090692E+03  0.12508518890E+03 0.  0.
          5    1    3    3  502    0 -0.10083949970E+02  0.26721276067E+03 -0.31913685851E+03  0.41637741578E+03  0.41800000000E+01 0. -1.
         -5    1    3    3    0  502  0.25888903347E+02  0.13369351600E+03 -0.57204767080E+02  0.14776349114E+03  0.41800000000E+01 0. -1.
        -11    1    1    2    0    0 -0.15517643816E+02 -0.20827275071E+03 -0.44499795009E+03  0.49157045430E+03  0.00000000000E+00 0. -1.
         11    1    1    2    0    0 -0.28730956004E+00 -0.19263352596E+03 -0.24280961983E+03  0.30994236456E+03  0.00000000000E+00 0.  1.
</event>
<event>
 7    1  0.4394360E-006  0.1606757E+03  0.7561462E-02  0.1187936E+00
         -2   -1    0    0    0  501 -0.00000000000E+00  0.00000000000E+00  0.35127868050E+03  0.35127868050E+03  0.00000000000E+00 0.  1.
          2   -1    0    0  501    0  0.00000000000E+00 -0.00000000000E+00 -0.10236824252E+03  0.10236824252E+03  0.00000000000E+00 0. -1.
         23    2    1    2    0    0  0.96514914762E+02 -0.47287729252E+02  0.13473756038E+03  0.21295812926E+03  0.12508275873E+03 0.  0.
          5    1    3    3  502    0 -0.23431798006E+02  0.15429543212E+02  0.33407567822E+02  0.43825311743E+02  0.41800000000E+01 0. -1.
         -5    1    3    3    0  502  0.11994671277E+03 -0.62717272464E+02  0.10132999256E+03  0.16913281752E+03  0.41800000000E+01 0. -1.
        -11    1    1    2    0    0  0.58175128830E+01 -0.29222223296E+02  0.10879750196E+03  0.11280371547E+03  0.00000000000E+00 0.  1.
         11    1    1    2    0    0 -0.10233242765E+03  0.76509952548E+02  0.53753756426E+01  0.12788507829E+03  0.00000000000E+00 0. -1.
</event>
<event>
 7    1  0.4394360E-006  0.1148225E+03  0.7561462E-02  0.1251891E+00
         -1   -1    0    0    0  501 -0.00000000000E+00  0.00000000000E+00  0.66076844936E+02  0.66076844936E+02  0.00000000000E+00 0.  1.
          1   -1    0    0  501    0  0.00000000000E+00 -0.00000000000E+00 -0.27693742473E+03  0.27693742473E+03  0.00000000000E+00 0. -1.
         23    2    1    2    0    0 -0.22108549912E+02  0.65719735621E+02 -0.63952355016E+02  0.15667167830E+03  0.12509292322E+03 0.  0.
          5    1    3    3  502    0 -0.70476582441E+02  0.13866474477E+02 -0.30271792061E+02  0.78058193558E+02  0.41800000000E+01 0. -1.
         -5    1    3    3    0  502  0.48368032528E+02  0.51853261143E+02 -0.33680562955E+02  0.78613484739E+02  0.41800000000E+01 0. -1.
        -11    1    1    2    0    0 -0.15770885628E+02 -0.33134233599E+02 -0.12760547893E+03  0.13277709337E+03  0.00000000000E+00 0. -1.
         11    1    1    2    0    0  0.37879435541E+02 -0.32585502021E+02 -0.19302745846E+02  0.53565498001E+02  0.00000000000E+00 0.  1.
</event>
<event>
 7    1  0.4394360E-006  0.9861516E+02  0.7561462E-02  0.1283235E+00
         -2   -1    0    0    0  501 -0.00000000000E+00  0.00000000000E+00  0.75265123748E+02  0.75265123748E+02  0.00000000000E+00 0.  1.
          2   -1    0    0  501    0  0.00000000000E+00 -0.00000000000E+00 -0.22728320201E+03  0.22728320201E+03  0.00000000000E+00 0. -1.
         23    2    1    2    0    0  0.55310964217E+02 -0.44899322651E+02 -0.69834454270E+02  0.16003007344E+03  0.12513001825E+03 0.  0.
          5    1    3    3  502    0  0.94466783033E+01 -0.40885559220E+02 -0.97448483687E+02  0.10618167477E+03  0.41800000000E+01 0.  1.
         -5    1    3    3    0  502  0.45864285914E+02 -0.40137634314E+01  0.27614029417E+02  0.53848398675E+02  0.41800000000E+01 0.  1.
        -11    1    1    2    0    0  0.33006858913E+01  0.49897566710E+02 -0.63441123498E+02  0.80780182234E+02  0.00000000000E+00 0. -1.
         11    1    1    2    0    0 -0.58611650108E+02 -0.49982440593E+01 -0.18742500489E+02  0.61738070075E+02  0.00000000000E+00 0.  1.
</event>
<event>
 7    1  0.4394360E-006  0.1101290E+03  0.7561462E-02  0.1260331E+00
         -2   -1    0    0    0  501 -0.00000000000E+00  0.00000000000E+00  0.20088770478E+02  0.20088770478E+02  0.00000000000E+00 0.  1.
          2   -1    0    0  501    0  0.00000000000E+00 -0.00000000000E+00 -0.73413441053E+03  0.73413441053E+03  0.00000000000E+00 0. -1.
         23    2    1    2    0    0  0.13316391785E+02 -0.53194871982E+02 -0.39395385942E+03  0.41695710436E+03  0.12508622156E+03 0.  0.
          5    1    3    3  502    0 -0.25066161478E+02  0.19896208242E+02 -0.31148205064E+02  0.44853702549E+02  0.41800000000E+01 0.  1.
         -5    1    3    3    0  502  0.38382553263E+02 -0.73091080223E+02 -0.36280565436E+03  0.37210340181E+03  0.41800000000E+01 0.  1.
        -11    1    1    2    0    0  0.32817416600E+02  0.49031120250E+02 -0.15685881024E+03  0.16758794687E+03  0.00000000000E+00 0.  1.
         11    1    1    2    0    0 -0.46133808386E+02  0.41637517312E+01 -0.16323297039E+03  0.16967812979E+03  0.00000000000E+00 0. -1.
</event>
<event>
 7    1  0.4394360E-006  0.2268455E+03  0.7561462E-02  0.1128880E+00
          2   -1    0    0  501    0  0.00000000000E+00  0.00000000000E+00  0.95583881783E+03  0.95583881783E+03  0.00000000000E+00 0. -1.
         -2   -1    0    0    0  501 -0.00000000000E+00 -0.00000000000E+00 -0.68180208245E+02  0.68180208245E+02  0.00000000000E+00 0.  1.
         23    2    1    2    0    0  0.16475499114E+03 -0.11833176049E+03  0.23580883584E+03  0.33526126062E+03  0.12509073973E+03 0.  0.
          5    1    3    3  502    0  0.15588835692E+03 -0.43854585464E+02  0.14500569012E+03  0.21741326330E+03  0.41800000000E+01 0. -1.
         -5    1    3    3    0  502  0.88666342270E+01 -0.74477175023E+02  0.90803145718E+02  0.11784799733E+03  0.41800000000E+01 0. -1.
        -11    1    1    2    0    0 -0.16506265138E+03  0.89540172477E+02  0.60766962638E+03  0.63602318841E+03  0.00000000000E+00 0.  1.
         11    1    1    2    0    0  0.30766023608E+00  0.28791588010E+02  0.44180147361E+02  0.52734577042E+02  0.00000000000E+00 0. -1.
</event>
<event>
 7    1  0.4394360E-006  0.3691766E+03  0.7561462E-02  0.1055008E+00
         -2   -1    0    0    0  501 -0.00000000000E+00  0.00000000000E+00  0.15597397228E+03  0.15597397228E+03  0.00000000000E+00 0.  1.
          2   -1    0    0  501    0  0.00000000000E+00 -0.00000000000E+00 -0.88468855558E+03  0.88468855558E+03  0.00000000000E+00 0. -1.
         23    2    1    2    0    0  0.31611162657E+03 -0.15949003433E+03 -0.33105255871E+03  0.50060615345E+03  0.12508833975E+03 0.  0.
          5    1    3    3  502    0  0.47156529945E+02 -0.83344118476E+02 -0.89734087021E+02  0.13129988261E+03  0.41800000000E+01 0. -1.
         -5    1    3    3    0  502  0.26895509662E+03 -0.76145915852E+02 -0.24131847169E+03  0.36930627083E+03  0.41800000000E+01 0. -1.
        -11    1    1    2    0    0 -0.25493677626E+03  0.89984242575E+02 -0.32227294307E+03  0.42065398327E+03  0.00000000000E+00 0.  1.
         11    1    1    2    0    0 -0.61174850309E+02  0.69505791754E+02 -0.75389081522E+02  0.11940239114E+03  0.00000000000E+00 0. -1.
</event>
<event>
 7    1  0.4394360E-006  0.1016656E+03  0.7561462E-02  0.1276832E+00
          3   -1    0    0  501    0  0.00000000000E+00  0.00000000000E+00  0.12427759888E+03  0.12427759888E+03  0.00000000000E+00 0. -1.
         -3   -1    0    0    0  501 -0.00000000000E+00 -0.00000000000E+00 -0.14372378898E+03  0.14372378898E+03  0.00000000000E+00 0.  1.
         23    2    1    2    0    0 -0.14824050683E+02  0.18642586571E+02 -0.69436513166E+02  0.14503855352E+03  0.12508978429E+03 0.  0.
          5    1    3    3  502    0  0.30687942575E+02 -0.23454808574E+02 -0.73111740716E+02  0.82792976123E+02  0.41800000000E+01 0. -1.
         -5    1    3    3    0  502 -0.45511993258E+02  0.42097395145E+02  0.36752275507E+01  0.62245577400E+02  0.41800000000E+01 0. -1.
        -11    1    1    2    0    0 -0.36213165332E+02 -0.33349494452E+02 -0.11324328707E+01  0.49242913478E+02  0.00000000000E+00 0.  1.
         11    1    1    2    0    0  0.51037216014E+02  0.14706907881E+02  0.51122755931E+02  0.73719920862E+02  0.00000000000E+00 0. -1.
</event>
<event>
 7    1  0.4394360E-006  0.1276823E+03  0.7561462E-02  0.1230936E+00
         -2   -1    0    0    0  501 -0.00000000000E+00  0.00000000000E+00  0.55212693311E+02  0.55212693311E+02  0.00000000000E+00 0.  1.
          2   -1    0    0  501    0  0.00000000000E+00 -0.00000000000E+00 -0.39273865307E+03  0.39273865307E+03  0.00000000000E+00 0. -1.
         23    2    1    2    0    0 -0.97247403476E+01 -0.95190933976E+02 -0.14659047656E+03  0.21515292191E+03  0.12508448147E+03 0.  0.
          5    1    3    3  502    0  0.19394477463E+02  0.85848227728E+01  0.10943336965E+02  0.24229609201E+02  0.41800000000E+01 0.  1.
         -5    1    3    3    0  502 -0.29119217811E+02 -0.10377575675E+03 -0.15753381352E+03  0.19092331271E+03  0.41800000000E+01 0.  1.
        -11    1    1    2    0    0  0.31007210687E+02  0.99455232600E+02 -0.12148745712E+03  0.16003747262E+03  0.00000000000E+00 0.  1.
         11    1    1    2    0    0 -0.21282470339E+02 -0.42642986242E+01 -0.69448026083E+02  0.72760951844E+02  0.00000000000E+00 0. -1.
</event>
<event>
 7    1  0.4394360E-006  0.1012562E+03  0.7561462E-02  0.1277676E+00
         -2   -1    0    0    0  501 -0.00000000000E+00  0.00000000000E+00  0.10053057094E+03  0.10053057094E+03  0.00000000000E+00 0.  1.
          2   -1    0    0  501    0  0.00000000000E+00 -0.00000000000E+00 -0.12939982134E+03  0.12939982134E+03  0.00000000000E+00 0. -1.
         23    2    1    2    0    0  0.18804573600E+02 -0.71435525330E+01  0.26012973731E+02  0.12052225131E+03  0.11594954044E+03 0.  0.
          5    1    3    3  502    0 -0.56401322367E+01  0.49992576544E+02 -0.53858246316E+01  0.50769560842E+02  0.41800000000E+01 0. -1.
         -5    1    3    3    0  502  0.24444705836E+02 -0.57136129077E+02  0.31398798363E+02  0.69752690471E+02  0.41800000000E+01 0.  1.
        -11    1    1    2    0    0  0.59430859958E+01 -0.37892427635E+02 -0.41073044013E+02  0.56197431327E+02  0.00000000000E+00 0.  1.
         11    1    1    2    0    0 -0.24747659595E+02  0.45035980168E+02 -0.13809180122E+02  0.53210709643E+02  0.00000000000E+00 0. -1.
</event>
<event>
 7    1  0.4394360E-006  0.1240592E+03  0.7561462E-02  0.1236547E+00
         -1   -1    0    0    0  501 -0.00000000000E+00  0.00000000000E+00  0.35632662225E+02  0.35632662225E+02  0.00000000000E+00 0.  1.
          1   -1    0    0  501    0  0.00000000000E+00 -0.00000000000E+00 -0.57917384742E+03  0.57917384742E+03  0.00000000000E+00 0. -1.
         23    2    1    2    0    0 -0.53499625548E+02 -0.30437381107E+02 -0.14439257379E+03  0.20071302745E+03  0.12509140626E+03 0.  0.
          5    1    3    3  502    0 -0.94449164450E+02 -0.19207861184E+02 -0.10581888403E+03  0.14319460609E+03  0.41800000000E+01 0. -1.
         -5    1    3    3    0  502  0.40949538901E+02 -0.11229519923E+02 -0.38573689756E+02  0.57518421357E+02  0.41800000000E+01 0. -1.
        -11    1    1    2    0    0  0.76957800793E+02  0.35859048379E+02 -0.28233235107E+03  0.29482186302E+03  0.00000000000E+00 0.  1.
         11    1    1    2    0    0 -0.23458175245E+02 -0.54216672721E+01 -0.11681626033E+03  0.11927161917E+03  0.00000000000E+00 0. -1.
</event>
<event>
 7    1  0.4394360E-006  0.1851046E+03  0.7561462E-02  0.1162952E+00
          2   -1    0    0  501    0  0.00000000000E+00  0.00000000000E+00  0.15145399940E+03  0.15145399940E+03  0.00000000000E+00 0. -1.
         -2   -1    0    0    0  501 -0.00000000000E+00 -0.00000000000E+00 -0.53275346336E+03  0.53275346336E+03  0.00000000000E+00 0.  1.
         23    2    1    2    0    0  0.16020741993E+03 -0.50135907420E+02 -0.43691094658E+03  0.48448503444E+03  0.12511813113E+03 0.  0.
          5    1    3    3  502    0  0.11913643223E+03  0.17478947066E+02 -0.18821217478E+03  0.22347326061E+03  0.41800000000E+01 0. -1.
         -5    1    3    3    0  502  0.41070987702E+02 -0.67614854486E+02 -0.24869877181E+03  0.26101177383E+03  0.41800000000E+01 0. -1.
        -11    1    1    2    0    0 -0.95706071900E+02  0.14457602385E+02 -0.14643703163E+02  0.97893373154E+02  0.00000000000E+00 0.  1.
         11    1    1    2    0    0 -0.64501348029E+02  0.35678305035E+02  0.70255185783E+02  0.10182905517E+03  0.00000000000E+00 0. -1.
</event>
<event>
 7    1  0.4394360E-006  0.1162530E+03  0.7561462E-02  0.1249410E+00
          2   -1    0    0  501    0  0.00000000000E+00  0.00000000000E+00  0.21368156488E+03  0.21368156488E+03  0.00000000000E+00 0. -1.
         -2   -1    0    0    0  501 -0.00000000000E+00 -0.00000000000E+00 -0.70641280459E+02  0.70641280459E+02  0.00000000000E+00 0.  1.
         23    2    1    2    0    0  0.26877473937E+01 -0.46331830524E+02  0.37765067206E+02  0.13865456130E+03  0.12508007261E+03 0.  0.
          5    1    3    3  502    0 -0.53162381166E+02 -0.53343534474E+02  0.31940926036E+02  0.81911333754E+02  0.41800000000E+01 0. -1.
         -5    1    3    3    0  502  0.55850128559E+02  0.70117039502E+01  0.58241411703E+01  0.56743227550E+02  0.41800000000E+01 0. -1.
        -11    1    1    2    0    0  0.35408970598E+02  0.51176279032E+02  0.62993451704E+02  0.88549317851E+02  0.00000000000E+00 0.  1.
         11    1    1    2    0    0 -0.38096717992E+02 -0.48444485084E+01  0.42281765510E+02  0.57118966182E+02  0.00000000000E+00 0. -1.
</event>
<event>
 7    1  0.4394360E-006  0.9844223E+02  0.7561462E-02  0.1283606E+00
         -2   -1    0    0    0  501 -0.00000000000E+00  0.00000000000E+00  0.13252684685E+03  0.13252684685E+03  0.00000000000E+00 0.  1.
          2   -1    0    0  501    0  0.00000000000E+00 -0.00000000000E+00 -0.13171191736E+03  0.13171191736E+03  0.00000000000E+00 0. -1.
         23    2    1    2    0    0  0.31958438770E+02 -0.56950770516E+02  0.36800593867E+02  0.14583354579E+03  0.12509359415E+03 0.  0.
          5    1    3    3  502    0 -0.11582368488E+02 -0.30679652884E+02 -0.41078257484E+02  0.52728436340E+02  0.41800000000E+01 0. -1.
         -5    1    3    3    0  502  0.43540807258E+02 -0.26271117632E+02  0.77878851351E+02  0.93105109452E+02  0.41800000000E+01 0. -1.
        -11    1    1    2    0    0  0.32126123210E+02  0.11044115524E+02 -0.11191190446E+02  0.35767345775E+02  0.00000000000E+00 0.  1.
         11    1    1    2    0    0 -0.64084561980E+02  0.45906654992E+02 -0.24794473927E+02  0.82637872637E+02  0.00000000000E+00 0. -1.
</event>
<event>
 7    1  0.4394360E-006  0.1106964E+03  0.7561462E-02  0.1259286E+00
         -2   -1    0    0    0  501 -0.00000000000E+00  0.00000000000E+00  0.34463296890E+02  0.34463296890E+02  0.00000000000E+00 0.  1.
          2   -1    0    0  501    0  0.00000000000E+00 -0.00000000000E+00 -0.50678854208E+03  0.50678854208E+03  0.00000000000E+00 0. -1.
         23    2    1    2    0    0 -0.61968516037E+02 -0.54916778759E+02 -0.25173698888E+03  0.28849568787E+03  0.11402763167E+03 0.  0.
          5    1    3    3  502    0 -0.44854447415E+02 -0.53169640716E+01 -0.22487009691E+03  0.22939970454E+03  0.41800000000E+01 0. -1.
         -5    1    3    3    0  502 -0.17114068622E+02 -0.49599814688E+02 -0.26866891968E+02  0.59095983331E+02  0.41800000000E+01 0.  1.
        -11    1    1    2    0    0  0.59087650435E+02  0.79272006810E+02 -0.17681476014E+03  0.20258050474E+03  0.00000000000E+00 0. -1.
         11    1    1    2    0    0  0.28808656026E+01 -0.24355228050E+02 -0.43773496165E+02  0.50175646349E+02  0.00000000000E+00 0.  1.
</event>
<event>
 7    1  0.4394360E-006  0.1316750E+03  0.7561462E-02  0.1224991E+00
          1   -1    0    0  501    0  0.00000000000E+00  0.00000000000E+00  0.29486745387E+03  0.29486745387E+03  0.00000000000E+00 0. -1.
         -1   -1    0    0    0  501 -0.00000000000E+00 -0.00000000000E+00 -0.96877014454E+02  0.96877014454E+02  0.00000000000E+00 0.  1.
         23    2    1    2    0    0  0.68024668543E+02 -0.50780366127E+02 -0.81461455106E+01  0.15139388429E+03  0.12509095651E+03 0.  0.
          5    1    3    3  502    0 -0.76222755745E-01  0.38386000685E+02  0.19707167363E+01  0.38663251065E+02  0.41800000000E+01 0.  1.
         -5    1    3    3    0  502  0.68100891299E+02 -0.89166366811E+02 -0.10116862247E+02  0.11273063323E+03  0.41800000000E+01 0.  1.
        -11    1    1    2    0    0 -0.30696240649E+02 -0.16994410013E+02  0.11782296136E+03  0.12293624114E+03  0.00000000000E+00 0. -1.
         11    1    1    2    0    0 -0.37328427895E+02  0.67774776140E+02  0.88313623574E+02  0.11741434290E+03  0.00000000000E+00 0.  1.
</event>
<event>
 7    1  0.4394360E-006  0.9612700E+02  0.7561462E-02  0.1288658E+00
         -2   -1    0    0    0  501 -0.00000000000E+00  0.00000000000E+00  0.11505827992E+03  0.11505827992E+03  0.00000000000E+00 0.  1.
          2   -1    0    0  501    0  0.00000000000E+00 -0.00000000000E+00 -0.10425206714E+03  0.10425206714E+03  0.00000000000E+00 0. -1.
         23    2    1    2    0    0 -0.14103628966E+02 -0.48950549541E+01  0.38732018437E+01  0.12602328413E+03  0.12507594708E+03 0.  0.
          5    1    3    3  502    0  0.18029282254E+02 -0.56143358448E+02  0.21461885288E+02  0.62890513088E+02  0.41800000000E+01 0. -1.
         -5    1    3    3    0  502 -0.32132911219E+02  0.51248303494E+02 -0.17588683444E+02  0.63132771044E+02  0.41800000000E+01 0. -1.
        -11    1    1    2    0    0  0.30828741320E+02 -0.24033704608E+02  0.32801071197E+02  0.51028820486E+02  0.00000000000E+00 0.  1.
         11    1    1    2    0    0 -0.16725112354E+02  0.28928759562E+02 -0.25868060254E+02  0.42258242443E+02  0.00000000000E+00 0. -1.
</event>
<event>
 7    1  0.4394360E-006  0.1026690E+03  0.7561462E-02  0.1274781E+00
          2   -1    0    0  501    0  0.00000000000E+00  0.00000000000E+00  0.13643430315E+03  0.13643430315E+03  0.00000000000E+00 0. -1.
         -2   -1    0    0    0  501 -0.00000000000E+00 -0.00000000000E+00 -0.19746247286E+03  0.19746247286E+03  0.00000000000E+00 0.  1.
         23    2    1    2    0    0  0.12795076311E+01 -0.67066360229E+02 -0.13978189765E+03  0.19586879391E+03  0.11969156906E+03 0.  0.
          5    1    3    3  502    0  0.13595783682E+02  0.95666028448E+01  0.14927790680E+02  0.22730520419E+02  0.41800000000E+01 0. -1.
         -5    1    3    3    0  502 -0.12316276051E+02 -0.76632963074E+02 -0.15470968833E+03  0.17313827349E+03  0.41800000000E+01 0.  1.
        -11    1    1    2    0    0 -0.30601159330E+02 -0.64904354081E+01  0.37190453048E+02  0.48597186154E+02  0.00000000000E+00 0.  1.
         11    1    1    2    0    0  0.29321651699E+02  0.73556795637E+02  0.41563274894E+02  0.89430795941E+02  0.00000000000E+00 0. -1.
</event>
<event>
 7    1  0.4394360E-006  0.1181143E+03  0.7561462E-02  0.1246241E+00
          1   -1    0    0  501    0  0.00000000000E+00  0.00000000000E+00  0.12008666858E+03  0.12008666858E+03  0.00000000000E+00 0. -1.
         -1   -1    0    0    0  501 -0.00000000000E+00 -0.00000000000E+00 -0.16178433188E+03  0.16178433188E+03  0.00000000000E+00 0.  1.
         23    2    1    2    0    0 -0.27792718351E+02 -0.18454230938E+02  0.84445698502E+00  0.12946426335E+03  0.12508912241E+03 0.  0.
          5    1    3    3  502    0 -0.69974799428E+02 -0.40834960144E+02 -0.43915023961E+01  0.81244841179E+02  0.41800000000E+01 0. -1.
         -5    1    3    3    0  502  0.42182081077E+02  0.22380729206E+02  0.52359593812E+01  0.48219422170E+02  0.41800000000E+01 0. -1.
        -11    1    1    2    0    0  0.62596192026E+02  0.31406024160E+02 -0.75339123784E+02  0.10286206872E+03  0.00000000000E+00 0.  1.
         11    1    1    2    0    0 -0.34803473675E+02 -0.12951793222E+02  0.32797003502E+02  0.49544668393E+02  0.00000000000E+00 0. -1.
</event>
<event>
 7    1  0.4394360E-006  0.9354254E+02  0.7561462E-02  0.1294493E+00
         -2   -1    0    0    0  501 -0.00000000000E+00  0.00000000000E+00  0.36330293741E+02  0.36330293741E+02  0.00000000000E+00 0.  1.
          2   -1    0    0  501    0  0.00000000000E+00 -0.00000000000E+00 -0.38252119594E+03  0.38252119594E+03  0.00000000000E+00 0. -1.
         23    2    1    2    0    0  0.96302712309E+00 -0.42052262390E+02 -0.16046849333E+03  0.20837218584E+03  0.12609326027E+03 0.  0.
          5    1    3    3  502    0  0.28838250256E+02  0.18652389677E+02 -0.10071059192E+00  0.34598249394E+02  0.41800000000E+01 0. -1.
         -5    1    3    3    0  502 -0.27875223133E+02 -0.60704652068E+02 -0.16036778273E+03  0.17377393644E+03  0.41800000000E+01 0. -1.
        -11    1    1    2    0    0  0.34463822212E+02  0.59447335881E+01 -0.27868888466E+02  0.44718786245E+02  0.00000000000E+00 0.  1.
         11    1    1    2    0    0 -0.35426849335E+02  0.36107528802E+02 -0.15785352040E+03  0.16576051760E+03  0.00000000000E+00 0. -1.
</event>
<event>
 7    1  0.4394360E-006  0.1133233E+03  0.7561462E-02  0.1254537E+00
          2   -1    0    0  501    0  0.00000000000E+00  0.00000000000E+00  0.11189890632E+04  0.11189890632E+04  0.00000000000E+00 0.  1.
         -2   -1    0    0    0  501 -0.00000000000E+00 -0.00000000000E+00 -0.13699531340E+02  0.13699531340E+02  0.00000000000E+00 0. -1.
         23    2    1    2    0    0 -0.54409186517E+02 -0.46671324341E+00  0.54983185461E+03  0.56650211981E+03  0.12509598718E+03 0.  0.
          5    1    3    3  502    0 -0.20475984809E+02 -0.51710445222E+02  0.12060120012E+03  0.13287346601E+03  0.41800000000E+01 0. -1.
         -5    1    3    3    0  502 -0.33933201708E+02  0.51243731978E+02  0.42923065449E+03  0.43362865380E+03  0.41800000000E+01 0. -1.
        -11    1    1    2    0    0 -0.25301457817E+02 -0.12975083203E+02  0.16754414516E+03  0.16993986328E+03  0.00000000000E+00 0.  1.
         11    1    1    2    0    0  0.79710644334E+02  0.13441796446E+02  0.38791353211E+03  0.39624661147E+03  0.00000000000E+00 0. -1.
</event>
<event>
 7    1  0.4394360E-006  0.1152240E+03  0.7561462E-02  0.1251191E+00
         -1   -1    0    0    0  501 -0.00000000000E+00  0.00000000000E+00  0.60741575805E+02  0.60741575805E+02  0.00000000000E+00 0.  1.
          1   -1    0    0  501    0  0.00000000000E+00 -0.00000000000E+00 -0.30369086184E+03  0.30369086184E+03  0.00000000000E+00 0. -1.
         23    2    1    2    0    0  0.41002727513E+02 -0.44058492125E+02 -0.60744309502E+02  0.15152602833E+03  0.12509153341E+03 0.  0.
          5    1    3    3  502    0  0.78165014088E+02 -0.27192367441E+02 -0.71130965486E+02  0.10920751314E+03  0.41800000000E+01 0.  1.
         -5    1    3    3    0  502 -0.37162286575E+02 -0.16866124684E+02  0.10386655985E+02  0.42318515190E+02  0.41800000000E+01 0.  1.
        -11    1    1    2    0    0 -0.54926808336E+02  0.62657947399E+02 -0.11663061824E+03  0.14333762157E+03  0.00000000000E+00 0.  1.
         11    1    1    2    0    0  0.13924080823E+02 -0.18599455274E+02 -0.65574358293E+02  0.69568787748E+02  0.00000000000E+00 0. -1.
</event>
<event>
 7    1  0.4394360E-006  0.1020940E+03  0.7561462E-02  0.1275953E+00
          1   -1    0    0  501    0  0.00000000000E+00  0.00000000000E+00  0.16374435907E+02  0.16374435907E+02  0.00000000000E+00 0. -1.
         -1   -1    0    0    0  501 -0.00000000000E+00 -0.00000000000E+00 -0.94828589966E+03  0.94828589966E+03  0.00000000000E+00 0.  1.
         23    2    1    2    0    0  0.11377822061E+02  0.25418631932E+02 -0.73673974423E+03  0.74545237430E+03  0.11017363540E+03 0.  0.
          5    1    3    3  502    0 -0.47233021620E+02  0.18336055378E+02 -0.43518274534E+03  0.43814228682E+03  0.41800000000E+01 0. -1.
         -5    1    3    3    0  502  0.58610843681E+02  0.70825765541E+01 -0.30155699889E+03  0.30731008748E+03  0.41800000000E+01 0.  1.
        -11    1    1    2    0    0  0.12089238599E+02  0.30884212727E+02 -0.10678193992E+03  0.11181398382E+03  0.00000000000E+00 0.  1.
         11    1    1    2    0    0 -0.23467060659E+02 -0.56302844659E+02 -0.88389779608E+02  0.10739397745E+03  0.00000000000E+00 0. -1.
</event>
<event>
 7    1  0.4394360E-006  0.8362491E+02  0.7561462E-02  0.1319068E+00
         -2   -1    0    0    0  501 -0.00000000000E+00  0.00000000000E+00  0.71080251638E+02  0.71080251638E+02  0.00000000000E+00 0. -1.
          2   -1    0    0  501    0  0.00000000000E+00 -0.00000000000E+00 -0.23694404372E+03  0.23694404372E+03  0.00000000000E+00 0.  1.
         23    2    1    2    0    0  0.40485283960E+02  0.17458363954E+02 -0.25357399694E+02  0.13503826179E+03  0.12509389170E+03 0.  0.
          5    1    3    3  502    0  0.30783013112E+02  0.48737327218E+02 -0.62645986996E+02  0.85234459272E+02  0.41800000000E+01 0. -1.
         -5    1    3    3    0  502  0.97022708482E+01 -0.31278963264E+02  0.37288587303E+02  0.49803802521E+02  0.41800000000E+01 0. -1.
        -11    1    1    2    0    0 -0.44743952818E+02 -0.35991263721E+02 -0.38295523414E+02  0.69021297377E+02  0.00000000000E+00 0. -1.
         11    1    1    2    0    0  0.42586688580E+01  0.18532899767E+02 -0.10221086897E+03  0.10396473618E+03  0.00000000000E+00 0.  1.
</event>
<event>
 7    1  0.4394360E-006  0.8085544E+02  0.7561462E-02  0.1326641E+00
         -2   -1    0    0    0  501 -0.00000000000E+00  0.00000000000E+00  0.50527907479E+02  0.50527907479E+02  0.00000000000E+00 0.  1.
          2   -1    0    0  501    0  0.00000000000E+00 -0.00000000000E+00 -0.28596945352E+03  0.28596945352E+03  0.00000000000E+00 0. -1.
         23    2    1    2    0    0 -0.16257697549E+02 -0.48556732915E+02 -0.13755358700E+03  0.19284619663E+03  0.12508635905E+03 0.  0.
          5    1    3    3  502    0 -0.47522682311E+01  0.13767965386E+02  0.18763373117E+02  0.24117991105E+02  0.41800000000E+01 0. -1.
         -5    1    3    3    0  502 -0.11505429318E+02 -0.62324698301E+02 -0.15631696011E+03  0.16872820553E+03  0.41800000000E+01 0. -1.
        -11    1    1    2    0    0 -0.37919235984E+01 -0.15481383747E+02 -0.68612779813E+02  0.70439800404E+02  0.00000000000E+00 0. -1.
         11    1    1    2    0    0  0.20049621147E+02  0.64038116662E+02 -0.29275179227E+02  0.73211363957E+02  0.00000000000E+00 0.  1.
</event>
<event>
 7    1  0.4394360E-006  0.9705296E+02  0.7561462E-02  0.1286618E+00
         -2   -1    0    0    0  501 -0.00000000000E+00  0.00000000000E+00  0.47843082111E+02  0.47843082111E+02  0.00000000000E+00 0.  1.
          2   -1    0    0  501    0  0.00000000000E+00 -0.00000000000E+00 -0.29883009500E+03  0.29883009500E+03  0.00000000000E+00 0. -1.
         23    2    1    2    0    0 -0.22539159592E+02 -0.25195335082E+01 -0.74432191524E+02  0.14731185358E+03  0.12508504829E+03 0.  0.
          5    1    3    3  502    0 -0.53534003615E+02  0.25734489477E+02 -0.85073096437E+02  0.10384150244E+03  0.41800000000E+01 0. -1.
         -5    1    3    3    0  502  0.30994844023E+02 -0.28254022985E+02  0.10640904913E+02  0.43470351140E+02  0.41800000000E+01 0. -1.
        -11    1    1    2    0    0  0.96129952847E+01  0.46029933529E+02 -0.83630346184E+02  0.95943729664E+02  0.00000000000E+00 0. -1.
         11    1    1    2    0    0  0.12926164307E+02 -0.43510400021E+02 -0.92924475179E+02  0.10341759387E+03  0.00000000000E+00 0.  1.
</event>
<event>
 7    1  0.4394360E-006  0.8718133E+02  0.7561462E-02  0.1309825E+00
         -2   -1    0    0    0  501 -0.00000000000E+00  0.00000000000E+00  0.71091782377E+02  0.71091782377E+02  0.00000000000E+00 0.  1.
          2   -1    0    0  501    0  0.00000000000E+00 -0.00000000000E+00 -0.11026441354E+03  0.11026441354E+03  0.00000000000E+00 0. -1.
         23    2    1    2    0    0  0.36167062645E+01 -0.10002679528E+02 -0.29723980300E+02  0.12901287767E+03  0.12509066088E+03 0.  0.
          5    1    3    3  502    0 -0.34504037109E+02 -0.55717433628E+02 -0.11908440777E+02  0.66740125477E+02  0.41800000000E+01 0. -1.
         -5    1    3    3    0  502  0.38120743373E+02  0.45714754100E+02 -0.17815539523E+02  0.62272752198E+02  0.41800000000E+01 0. -1.
        -11    1    1    2    0    0 -0.17569345251E+02  0.23679530492E+02  0.22489523876E+01  0.29571267198E+02  0.00000000000E+00 0.  1.
         11    1    1    2    0    0  0.13952638986E+02 -0.13676850964E+02 -0.11697603251E+02  0.22772051045E+02  0.00000000000E+00 0. -1.
</event>
<event>
 7    1  0.4394360E-006  0.1043174E+03  0.7561462E-02  0.1271470E+00
         -3   -1    0    0    0  501 -0.00000000000E+00  0.00000000000E+00  0.26637376732E+03  0.26637376732E+03  0.00000000000E+00 0.  1.
          3   -1    0    0  501    0  0.00000000000E+00 -0.00000000000E+00 -0.51981256196E+02  0.51981256196E+02  0.00000000000E+00 0. -1.
         23    2    1    2    0    0 -0.23851977578E+01 -0.20647306964E+02  0.17299926003E+03  0.21449932336E+03  0.12509682369E+03 0.  0.
          5    1    3    3  502    0  0.42867885535E+02 -0.53265550828E+02  0.74365705758E+02  0.10110689941E+03  0.41800000000E+01 0. -1.
         -5    1    3    3    0  502 -0.45253083293E+02  0.32618243864E+02  0.98633554274E+02  0.11339242395E+03  0.41800000000E+01 0. -1.
        -11    1    1    2    0    0  0.16493447487E+01  0.52403514109E+02  0.48370056788E+02  0.71333800002E+02  0.00000000000E+00 0.  1.
         11    1    1    2    0    0  0.73585300912E+00 -0.31756207145E+02 -0.69768056988E+01  0.32521900154E+02  0.00000000000E+00 0. -1.
</event>
<event>
 7    1  0.4394360E-006  0.8668961E+02  0.7561462E-02  0.1311072E+00
          2   -1    0    0  501    0  0.00000000000E+00  0.00000000000E+00  0.31295910056E+03  0.31295910056E+03  0.00000000000E+00 0. -1.
         -2   -1    0    0    0  501 -0.00000000000E+00 -0.00000000000E+00 -0.49679932680E+02  0.49679932680E+02  0.00000000000E+00 0.  1.
         23    2    1    2    0    0 -0.32838114370E+02  0.50482532908E+02  0.12099891217E+03  0.18396580245E+03  0.12480325252E+03 0.  0.
          5    1    3    3  502    0 -0.26135014972E+02  0.50953018857E+02  0.14645503805E+03  0.15730797726E+03  0.41800000000E+01 0. -1.
         -5    1    3    3    0  502 -0.67030993986E+01 -0.47048594904E+00 -0.25456125887E+02  0.26657825188E+02  0.41800000000E+01 0. -1.
        -11    1    1    2    0    0  0.49548857763E+02  0.52861307893E+01  0.63606666859E+02  0.80801241037E+02  0.00000000000E+00 0.  1.
         11    1    1    2    0    0 -0.16710743393E+02 -0.55768663697E+02  0.78673588856E+02  0.97871989756E+02  0.00000000000E+00 0. -1.
</event>
<event>
 7    1  0.4394360E-006  0.1088655E+03  0.7561462E-02  0.1262685E+00
         -1   -1    0    0    0  501 -0.00000000000E+00  0.00000000000E+00  0.51789797250E+02  0.51789797250E+02  0.00000000000E+00 0.  1.
          1   -1    0    0  501    0  0.00000000000E+00 -0.00000000000E+00 -0.42415651557E+03  0.42415651557E+03  0.00000000000E+00 0. -1.
         23    2    1    2    0    0  0.33421551118E+02 -0.94648165266E+02 -0.17623715941E+03  0.23828970788E+03  0.12508866160E+03 0.  0.
          5    1    3    3  502    0  0.21867651043E+02 -0.37427832017E+02 -0.17438000426E+03  0.17973562545E+03  0.41800000000E+01 0. -1.
         -5    1    3    3    0  502  0.11553900074E+02 -0.57220333249E+02 -0.18571551474E+01  0.58554082431E+02  0.41800000000E+01 0. -1.
        -11    1    1    2    0    0  0.16479968372E+02  0.20970520987E+02 -0.11222760194E+03  0.11535331267E+03  0.00000000000E+00 0. -1.
         11    1    1    2    0    0 -0.49901519490E+02  0.73677644279E+02 -0.83901956977E+02  0.12230329226E+03  0.00000000000E+00 0.  1.
</event>
<event>
 7    1  0.4394360E-006  0.1469804E+03  0.7561462E-02  0.1204233E+00
         -1   -1    0    0    0  501 -0.00000000000E+00  0.00000000000E+00  0.98244777987E+02  0.98244777987E+02  0.00000000000E+00 0.  1.
          1   -1    0    0  501    0  0.00000000000E+00 -0.00000000000E+00 -0.33929543404E+03  0.33929543404E+03  0.00000000000E+00 0. -1.
         23    2    1    2    0    0  0.98914168308E+02 -0.86359664935E+02 -0.49534894777E+02  0.18799529303E+03  0.12508605031E+03 0.  0.
          5    1    3    3  502    0  0.42107153859E+02 -0.94736685498E+02 -0.71895837760E+02  0.12623207149E+03  0.41800000000E+01 0.  1.
         -5    1    3    3    0  502  0.56807014449E+02  0.83770205627E+01  0.22360942983E+02  0.61763221541E+02  0.41800000000E+01 0.  1.
        -11    1    1    2    0    0 -0.76544032955E+02  0.55644307878E+02 -0.18911568917E+03  0.21147108992E+03  0.00000000000E+00 0. -1.
         11    1    1    2    0    0 -0.22370135353E+02  0.30715357057E+02 -0.24000721063E+01  0.38073829082E+02  0.00000000000E+00 0.  1.
</event>
<event>
 7    1  0.4394360E-006  0.2782250E+03  0.7561462E-02  0.1096662E+00
          4   -1    0    0  501    0  0.00000000000E+00  0.00000000000E+00  0.47559622082E+03  0.47559622082E+03  0.00000000000E+00 0.  1.
         -4   -1    0    0    0  501 -0.00000000000E+00 -0.00000000000E+00 -0.24946920145E+03  0.24946920145E+03  0.00000000000E+00 0. -1.
         23    2    1    2    0    0 -0.13741541459E+02  0.26391924743E+03 -0.87155824799E+02  0.30509933202E+03  0.12508903020E+03 0.  0.
          5    1    3    3  502    0  0.36176165148E+02  0.74298840480E+02 -0.69719677461E+02  0.10820045493E+03  0.41800000000E+01 0. -1.
         -5    1    3    3    0  502 -0.49917706607E+02  0.18962040695E+03 -0.17436147338E+02  0.19689887709E+03  0.41800000000E+01 0. -1.
        -11    1    1    2    0    0 -0.19578708555E+02 -0.10961774043E+02  0.41567068310E+02  0.47236717569E+02  0.00000000000E+00 0. -1.
         11    1    1    2    0    0  0.33320250014E+02 -0.25295747339E+03  0.27171577587E+03  0.37272937268E+03  0.00000000000E+00 0.  1.
</event>
<event>
 7    1  0.4394360E-006  0.1297433E+03  0.7561462E-02  0.1227837E+00
         -1   -1    0    0    0  501 -0.00000000000E+00  0.00000000000E+00  0.68169199348E+02  0.68169199348E+02  0.00000000000E+00 0.  1.
          1   -1    0    0  501    0  0.00000000000E+00 -0.00000000000E+00 -0.25780209605E+03  0.25780209605E+03  0.00000000000E+00 0. -1.
         23    2    1    2    0    0 -0.62611819092E+02 -0.43394055418E+02 -0.10257401115E+03  0.17880877693E+03  0.12509143460E+03 0.  0.
          5    1    3    3  502    0 -0.90439305391E+02 -0.11037787562E+01 -0.42158956764E+02  0.99876605481E+02  0.41800000000E+01 0. -1.
         -5    1    3    3    0  502  0.27827486299E+02 -0.42290276662E+02 -0.60415054384E+02  0.78932171451E+02  0.41800000000E+01 0. -1.
        -11    1    1    2    0    0  0.82124454570E+02  0.51588760258E+02 -0.66029202675E+02  0.11732724249E+03  0.00000000000E+00 0. -1.
         11    1    1    2    0    0 -0.19512635478E+02 -0.81947048404E+01 -0.21029682876E+02  0.29835275976E+02  0.00000000000E+00 0.  1.
</event>
<event>
 7    1  0.4394360E-006  0.4709354E+02  0.7561462E-02  0.1461680E+00
         -2   -1    0    0    0  501 -0.00000000000E+00  0.00000000000E+00  0.16128176117E+03  0.16128176117E+03  0.00000000000E+00 0.  1.
          2   -1    0    0  501    0  0.00000000000E+00 -0.00000000000E+00 -0.19298667589E+03  0.19298667589E+03  0.00000000000E+00 0. -1.
         23    2    1    2    0    0 -0.11794127466E+02  0.19559719590E+02  0.12048961222E+03  0.17517546378E+03  0.12508801855E+03 0.  0.
          5    1    3    3  502    0 -0.20777442773E+01  0.38002138701E+01 -0.26393487310E+02  0.27071151049E+02  0.41800000000E+01 0. -1.
         -5    1    3    3    0  502 -0.97163831890E+01  0.15759505720E+02  0.14688309953E+03  0.14810431273E+03  0.41800000000E+01 0. -1.
        -11    1    1    2    0    0  0.21861157213E+02 -0.40460619503E+02 -0.30445564470E+02  0.55153461551E+02  0.00000000000E+00 0.  1.
         11    1    1    2    0    0 -0.10067029747E+02  0.20900899912E+02 -0.12174896247E+03  0.12393951173E+03  0.00000000000E+00 0. -1.
</event>
<event>
 7    1  0.4394360E-006  0.1017334E+03  0.7561462E-02  0.1276692E+00
         -3   -1    0    0    0  501 -0.00000000000E+00  0.00000000000E+00  0.73572186148E+02  0.73572186148E+02  0.00000000000E+00 0.  1.
          3   -1    0    0  501    0  0.00000000000E+00 -0.00000000000E+00 -0.30583631386E+03  0.30583631386E+03  0.00000000000E+00 0. -1.
         23    2    1    2    0    0 -0.93557215508E+02  0.11201641887E+01 -0.71173389786E+02  0.17167335186E+03  0.12510747773E+03 0.  0.
          5    1    3    3  502    0 -0.88567231886E+02 -0.29894619264E+01  0.10771451042E+02  0.89367712313E+02  0.41800000000E+01 0. -1.
         -5    1    3    3    0  502 -0.49899836223E+01  0.41096261151E+01 -0.81944840827E+02  0.82305639549E+02  0.41800000000E+01 0. -1.
        -11    1    1    2    0    0  0.85796898336E+02  0.16888183684E+02 -0.63179065965E+02  0.10787915873E+03  0.00000000000E+00 0.  1.
         11    1    1    2    0    0  0.77603171718E+01 -0.18008347873E+02 -0.97911671964E+02  0.99855989417E+02  0.00000000000E+00 0. -1.
</event>
<event>
 7    1  0.4394360E-006  0.9094608E+02  0.7561462E-02  0.1300577E+00
          1   -1    0    0  501    0  0.00000000000E+00  0.00000000000E+00  0.40983657698E+03  0.40983657698E+03  0.00000000000E+00 0. -1.
         -1   -1    0    0    0  501 -0.00000000000E+00 -0.00000000000E+00 -0.27975226862E+02  0.27975226862E+02  0.00000000000E+00 0.  1.
         23    2    1    2    0    0  0.74257321750E+01 -0.54522905029E+01  0.20812333008E+03  0.24299735372E+03  0.12509006524E+03 0.  0.
          5    1    3    3  502    0 -0.34962100561E+02 -0.48245795689E+02  0.68527967301E+02  0.90904125207E+02  0.41800000000E+01 0.  1.
         -5    1    3    3    0  502  0.42387832736E+02  0.42793505186E+02  0.13959536278E+03  0.15209322852E+03  0.41800000000E+01 0.  1.
        -11    1    1    2    0    0  0.16234296356E+01  0.32871760048E+02  0.20268435768E+02  0.38652265405E+02  0.00000000000E+00 0.  1.
         11    1    1    2    0    0 -0.90491618106E+01 -0.27419469545E+02  0.15346958426E+03  0.15616218471E+03  0.00000000000E+00 0. -1.
</event>
<event>
 7    1  0.4394360E-006  0.8085257E+02  0.7561462E-02  0.1326649E+00
          2   -1    0    0  501    0  0.00000000000E+00  0.00000000000E+00  0.38598245346E+03  0.38598245346E+03  0.00000000000E+00 0.  1.
         -2   -1    0    0    0  501 -0.00000000000E+00 -0.00000000000E+00 -0.55891002770E+02  0.55891002770E+02  0.00000000000E+00 0. -1.
         23    2    1    2    0    0 -0.55546219253E+02 -0.14986916028E+02  0.57458508228E+02  0.14919657348E+03  0.12509255472E+03 0.  0.
          5    1    3    3  502    0 -0.28640122271E+02 -0.76427499414E+01  0.96498821712E+02  0.10103545527E+03  0.41800000000E+01 0.  1.
         -5    1    3    3    0  502 -0.26906096982E+02 -0.73441660865E+01 -0.39040313484E+02  0.48161118210E+02  0.41800000000E+01 0.  1.
        -11    1    1    2    0    0  0.12157963332E+02 -0.35191219600E+02  0.13257538044E+03  0.13770428282E+03  0.00000000000E+00 0. -1.
         11    1    1    2    0    0  0.43388255921E+02  0.50178135628E+02  0.14005756202E+03  0.15497259992E+03  0.00000000000E+00 0.  1.
</event>
<event>
 7    1  0.4394360E-006  0.1812013E+03  0.7561462E-02  0.1166646E+00
          2   -1    0    0  501    0  0.00000000000E+00  0.00000000000E+00  0.29524505893E+03  0.29524505893E+03  0.00000000000E+00 0. -1.
         -2   -1    0    0    0  501 -0.00000000000E+00 -0.00000000000E+00 -0.11233373145E+03  0.11233373145E+03  0.00000000000E+00 0.  1.
         23    2    1    2    0    0 -0.47963032763E+02 -0.14382848590E+03  0.89790614143E+02  0.21609290293E+03  0.12508677965E+03 0.  0.
          5    1    3    3  502    0 -0.90646901473E+02 -0.93614509030E+02  0.55703132515E+02  0.14177746090E+03  0.41800000000E+01 0. -1.
         -5    1    3    3    0  502  0.42683868710E+02 -0.50213976865E+02  0.34087481628E+02  0.74315442032E+02  0.41800000000E+01 0. -1.
        -11    1    1    2    0    0  0.10974832132E+02  0.12310164557E+03  0.58444954777E+02  0.13671237991E+03  0.00000000000E+00 0.  1.
         11    1    1    2    0    0  0.36988200630E+02  0.20726840326E+02  0.34675758561E+02  0.54773507534E+02  0.00000000000E+00 0. -1.
</event>
<event>
 7    1  0.6183269E-006  0.1504222E+03  0.7561462E-02  0.1199955E+00
          1   -1    0    0  501    0  0.00000000000E+00  0.00000000000E+00  0.80891565267E+03  0.80891565267E+03  0.00000000000E+00 0. -1.
         -1   -1    0    0    0  501 -0.00000000000E+00 -0.00000000000E+00 -0.41972256677E+02  0.41972256677E+02  0.00000000000E+00 0.  1.
         23    2    1    2    0    0  0.43173143875E+02  0.13313823492E+03  0.29204844504E+03  0.34717347732E+03  0.12508964448E+03 0.  0.
          5    1    3    3  502    0  0.24243642289E+02  0.84454929101E+02  0.27988019178E+03  0.29337822583E+03  0.41800000000E+01 0. -1.
         -5    1    3    3    0  502  0.18929501587E+02  0.48683305815E+02  0.12168253258E+02  0.53795251489E+02  0.41800000000E+01 0. -1.
        -11    1    1    2    0    0 -0.62018313048E+02 -0.65242843997E+02  0.33758942424E+03  0.34938448621E+03  0.00000000000E+00 0. -1.
         11    1    1    2    0    0  0.18845169173E+02 -0.67895390919E+02  0.13730552671E+03  0.15432994581E+03  0.00000000000E+00 0.  1.
</event>
<event>
 7    1  0.4394360E-006  0.1437004E+03  0.7561462E-02  0.1208435E+00
         -1   -1    0    0    0  501 -0.00000000000E+00  0.00000000000E+00  0.44776434368E+03  0.44776434368E+03  0.00000000000E+00 0.  1.
          1   -1    0    0  501    0  0.00000000000E+00 -0.00000000000E+00 -0.55777113285E+02  0.55777113285E+02  0.00000000000E+00 0. -1.
         23    2    1    2    0    0 -0.59659217821E+02  0.82216917411E+02  0.28908987782E+03  0.33096867190E+03  0.12509380697E+03 0.  0.
          5    1    3    3  502    0 -0.18403621130E+02  0.10310189228E+03  0.14047128890E+03  0.17526650812E+03  0.41800000000E+01 0.  1.
         -5    1    3    3    0  502 -0.41255596692E+02 -0.20884974872E+02  0.14861858892E+03  0.15570216379E+03  0.41800000000E+01 0.  1.
        -11    1    1    2    0    0  0.94625666127E+01 -0.85339907964E+02  0.79834559815E+02  0.11724332390E+03  0.00000000000E+00 0. -1.
         11    1    1    2    0    0  0.50196651209E+02  0.31229905531E+01  0.23062792754E+02  0.55329461159E+02  0.00000000000E+00 0.  1.
</event>
<event>
 6    1  0.4394360E-006  0.1998688E+03  0.7561462E-02  0.1149850E+00
         -1   -1    0    0    0  501 -0.00000000000E+00  0.00000000000E+00  0.11913727115E+03  0.11913727115E+03  0.00000000000E+00 0.  1.
          1   -1    0    0  501    0  0.00000000000E+00 -0.00000000000E+00 -0.48194809007E+03  0.48194809007E+03  0.00000000000E+00 0. -1.
          5    1    1    2  502    0 -0.81410279366E+01 -0.32699819542E+02  0.39656763355E+02  0.52208101035E+02  0.41800000000E+01 0. -1.
         -5    1    1    2    0  502  0.49194911439E+02 -0.15148861264E+03 -0.13480125684E+03  0.20870503184E+03  0.41800000000E+01 0.  1.
        -11    1    1    2    0    0  0.26096834780E+02  0.52648464511E+02 -0.50133780881E+02  0.77241838315E+02  0.00000000000E+00 0.  1.
         11    1    1    2    0    0 -0.67150718282E+02  0.13153996767E+03 -0.21753254456E+03  0.26293039003E+03  0.00000000000E+00 0. -1.
</event>
<event>
 7    1  0.4394360E-006  0.1096912E+03  0.7561462E-02  0.1261143E+00
          2   -1    0    0  501    0  0.00000000000E+00  0.00000000000E+00  0.65197995727E+03  0.65197995727E+03  0.00000000000E+00 0. -1.
         -2   -1    0    0    0  501 -0.00000000000E+00 -0.00000000000E+00 -0.20111722492E+02  0.20111722492E+02  0.00000000000E+00 0.  1.
         23    2    1    2    0    0  0.31273456355E+02  0.10829438461E+02  0.29799804598E+03  0.32488105647E+03  0.12509819996E+03 0.  0.
          5    1    3    3  502    0  0.38440714869E+02 -0.52599058188E+02  0.14267945435E+03  0.15690522163E+03  0.41800000000E+01 0.  1.
         -5    1    3    3    0  502 -0.71672585141E+01  0.63428496649E+02  0.15531859163E+03  0.16797583483E+03  0.41800000000E+01 0.  1.
        -11    1    1    2    0    0 -0.46984192093E+02  0.23384802689E+02  0.13568771314E+03  0.14548374068E+03  0.00000000000E+00 0.  1.
         11    1    1    2    0    0  0.15710735738E+02 -0.34214241150E+02  0.19818247565E+03  0.20172688261E+03  0.00000000000E+00 0. -1.
</event>
<event>
 6    1  0.4394360E-006  0.1333277E+03  0.7561462E-02  0.1222600E+00
          2   -1    0    0  501    0  0.00000000000E+00  0.00000000000E+00  0.88541098934E+03  0.88541098934E+03  0.00000000000E+00 0. -1.
         -2   -1    0    0    0  501 -0.00000000000E+00 -0.00000000000E+00 -0.26584705018E+02  0.26584705018E+02  0.00000000000E+00 0.  1.
          5    1    1    2  502    0  0.47865416726E+02 -0.25012324673E+02  0.85692664709E+02  0.10137760941E+03  0.41800000000E+01 0. -1.
         -5    1    1    2    0  502 -0.22699021265E+02  0.92295966371E+02  0.15837581177E+03  0.18475432641E+03  0.41800000000E+01 0.  1.
        -11    1    1    2    0    0 -0.60213770682E+02 -0.34709101315E+02  0.35690402258E+03  0.36360816992E+03  0.00000000000E+00 0. -1.
         11    1    1    2    0    0  0.35047375221E+02 -0.32574540383E+02  0.25785378526E+03  0.26225558862E+03  0.00000000000E+00 0.  1.
</event>
<event>
 7    1  0.4394360E-006  0.1029293E+03  0.7561462E-02  0.1274254E+00
          3   -1    0    0  501    0  0.00000000000E+00  0.00000000000E+00  0.96301245079E+02  0.96301245079E+02  0.00000000000E+00 0. -1.
         -3   -1    0    0    0  501 -0.00000000000E+00 -0.00000000000E+00 -0.13453305177E+03  0.13453305177E+03  0.00000000000E+00 0.  1.
         23    2    1    2    0    0 -0.22841494439E+02  0.63297943575E+01 -0.52649909683E+02  0.13777141629E+03  0.12508856859E+03 0.  0.
          5    1    3    3  502    0  0.45765456305E+02  0.27872967344E+01  0.71545367643E+01  0.46592980268E+02  0.41800000000E+01 0. -1.
         -5    1    3    3    0  502 -0.68606950744E+02  0.35424976231E+01 -0.59804446447E+02  0.91178436018E+02  0.41800000000E+01 0. -1.
        -11    1    1    2    0    0 -0.33538344563E+02 -0.84023348523E+01 -0.95482915030E+00  0.34588025178E+02  0.00000000000E+00 0. -1.
         11    1    1    2    0    0  0.56379839002E+02  0.20725404948E+01  0.15372932141E+02  0.58474855387E+02  0.00000000000E+00 0.  1.
</event>
<event>
 7    1  0.4394360E-006  0.8175037E+02  0.7561462E-02  0.1324156E+00
          2   -1    0    0  501    0  0.00000000000E+00  0.00000000000E+00  0.89216587320E+02  0.89216587320E+02  0.00000000000E+00 0.  1.
         -2   -1    0    0    0  501 -0.00000000000E+00 -0.00000000000E+00 -0.29265313619E+03  0.29265313619E+03  0.00000000000E+00 0. -1.
         23    2    1    2    0    0  0.47130643671E+02  0.21343474701E+02 -0.23588077366E+03  0.27196339045E+03  0.12508998713E+03 0.  0.
          5    1    3    3  502    0 -0.17228389003E+02 -0.18150985929E+02 -0.16934196260E+03  0.17123214761E+03  0.41800000000E+01 0.  1.
         -5    1    3    3    0  502  0.64359032674E+02  0.39494460630E+02 -0.66538811056E+02  0.10073124284E+03  0.41800000000E+01 0.  1.
        -11    1    1    2    0    0 -0.16274330244E+02  0.95243379117E+01 -0.28967923025E+02  0.34564539660E+02  0.00000000000E+00 0. -1.
         11    1    1    2    0    0 -0.30856313427E+02 -0.30867812613E+02  0.61412147812E+02  0.75341793399E+02  0.00000000000E+00 0.  1.
</event>
<event>
 7    1  0.4394360E-006  0.1050059E+03  0.7561462E-02  0.1270108E+00
         -1   -1    0    0    0  501 -0.00000000000E+00  0.00000000000E+00  0.28736252455E+03  0.28736252455E+03  0.00000000000E+00 0.  1.
          1   -1    0    0  501    0  0.00000000000E+00 -0.00000000000E+00 -0.81333973233E+02  0.81333973233E+02  0.00000000000E+00 0. -1.
         23    2    1    2    0    0  0.33959126142E+02  0.82247516964E+02  0.18379564802E+03  0.23946961408E+03  0.12508788727E+03 0.  0.
          5    1    3    3  502    0  0.44888757063E+02  0.29162750238E+02  0.65685078692E+01  0.54093291707E+02  0.41800000000E+01 0.  1.
         -5    1    3    3    0  502 -0.10929630921E+02  0.53084766726E+02  0.17722714015E+03  0.18537632237E+03  0.41800000000E+01 0.  1.
        -11    1    1    2    0    0 -0.23574141393E+02 -0.51040557025E+01  0.42432872296E+02  0.48809222267E+02  0.00000000000E+00 0.  1.
         11    1    1    2    0    0 -0.10384984749E+02 -0.77143461261E+02 -0.20199968998E+02  0.80417661438E+02  0.00000000000E+00 0. -1.
</event>
<event>
 7    1  0.4394360E-006  0.1208988E+03  0.7561462E-02  0.1241622E+00
         -3   -1    0    0    0  501 -0.00000000000E+00  0.00000000000E+00  0.25573955470E+03  0.25573955470E+03  0.00000000000E+00 0.  1.
          3   -1    0    0  501    0  0.00000000000E+00 -0.00000000000E+00 -0.10505247510E+03  0.10505247510E+03  0.00000000000E+00 0. -1.
         23    2    1    2    0    0  0.98516968212E+02  0.47001396347E+02  0.13956657122E+03  0.21688861960E+03  0.12508845361E+03 0.  0.
          5    1    3    3  502    0  0.69951985652E+02  0.31283681526E+02  0.16051025195E+03  0.17791279439E+03  0.41800000000E+01 0.  1.
         -5    1    3    3    0  502  0.28564982560E+02  0.15717714821E+02 -0.20943680734E+02  0.38975825207E+02  0.41800000000E+01 0.  1.
        -11    1    1    2    0    0 -0.21482991412E+02 -0.50697944977E+02 -0.22870198018E+02  0.59622533511E+02  0.00000000000E+00 0. -1.
         11    1    1    2    0    0 -0.77033976799E+02  0.36965486300E+01  0.33990706397E+02  0.84280876684E+02  0.00000000000E+00 0.  1.
</event>
<event>
 7    1  0.4394360E-006  0.1773497E+03  0.7561462E-02  0.1170393E+00
         -2   -1    0    0    0  501 -0.00000000000E+00  0.00000000000E+00  0.97999967829E+02  0.97999967829E+02  0.00000000000E+00 0.  1.
          2   -1    0    0  501    0  0.00000000000E+00 -0.00000000000E+00 -0.70055130457E+03  0.70055130457E+03  0.00000000000E+00 0. -1.
         23    2    1    2    0    0 -0.15031244346E+03  0.41572507050E+02 -0.34962780692E+02  0.20295862907E+03  0.12509078735E+03 0.  0.
          5    1    3    3  502    0 -0.12246751259E+03 -0.25849304791E+02 -0.34466394526E+02  0.12989181248E+03  0.41800000000E+01 0.  1.
         -5    1    3    3    0  502 -0.27844930864E+02  0.67421811842E+02 -0.49638616651E+00  0.73066816587E+02  0.41800000000E+01 0.  1.
        -11    1    1    2    0    0  0.10078070381E+03 -0.33569117972E+02 -0.50144173019E+03  0.51256945356E+03  0.00000000000E+00 0. -1.
         11    1    1    2    0    0  0.49531739644E+02 -0.80033890786E+01 -0.66146825855E+02  0.83023189770E+02  0.00000000000E+00 0.  1.
</event>
<event>
 7    1  0.4394360E-006  0.1023670E+03  0.7561462E-02  0.1275396E+00
         -1   -1    0    0    0  501 -0.00000000000E+00  0.00000000000E+00  0.25977456762E+03  0.25977456762E+03  0.00000000000E+00 0. -1.
          1   -1    0    0  501    0  0.00000000000E+00 -0.00000000000E+00 -0.61452649087E+02  0.61452649087E+02  0.00000000000E+00 0.  1.
         23    2    1    2    0    0  0.42034059818E+02  0.63799719298E+00  0.17603329123E+03  0.22000634028E+03  0.12509117041E+03 0.  0.
          5    1    3    3  502    0  0.61358827782E+02  0.45710029407E+02  0.73059555972E+02  0.10587484901E+03  0.41800000000E+01 0.  1.
         -5    1    3    3    0  502 -0.19324767964E+02 -0.45072032214E+02  0.10297373526E+03  0.11413149126E+03  0.41800000000E+01 0.  1.
        -11    1    1    2    0    0 -0.57526319505E+02 -0.13108184495E+02  0.42616671151E+02  0.72782433297E+02  0.00000000000E+00 0. -1.
         11    1    1    2    0    0  0.15492259687E+02  0.12470187302E+02 -0.20328043843E+02  0.28438443137E+02  0.00000000000E+00 0.  1.
</event>
<event>
 7    1  0.4394360E-006  0.9155302E+02  0.7561462E-02  0.1299134E+00
          1   -1    0    0  501    0  0.00000000000E+00  0.00000000000E+00  0.66687210586E+03  0.66687210586E+03  0.00000000000E+00 0. -1.
         -1   -1    0    0    0  501 -0.00000000000E+00 -0.00000000000E+00 -0.25806046228E+02  0.25806046228E+02  0.00000000000E+00 0.  1.
         23    2    1    2    0    0  0.67206232880E+02 -0.33448361804E+02  0.37347118096E+03  0.40095255636E+03  0.12508700491E+03 0.  0.
          5    1    3    3  502    0  0.47116456206E+02 -0.27796257538E+02  0.42765302741E+02  0.69562460401E+02  0.41800000000E+01 0.  1.
         -5    1    3    3    0  502  0.20089776674E+02 -0.56521042661E+01  0.33070587822E+03  0.33139009596E+03  0.41800000000E+01 0.  1.
        -11    1    1    2    0    0 -0.41462645857E+02 -0.21186193681E+02  0.62592755482E+02  0.78011914750E+02  0.00000000000E+00 0.  1.
         11    1    1    2    0    0 -0.25743587024E+02  0.54634555485E+02  0.20500212319E+03  0.21371368098E+03  0.00000000000E+00 0. -1.
</event>
<event>
 7    1  0.4394360E-006  0.1519513E+03  0.7561462E-02  0.1198096E+00
         -2   -1    0    0    0  501 -0.00000000000E+00  0.00000000000E+00  0.59743098282E+03  0.59743098282E+03  0.00000000000E+00 0.  1.
          2   -1    0    0  501    0  0.00000000000E+00 -0.00000000000E+00 -0.42341026986E+02  0.42341026986E+02  0.00000000000E+00 0. -1.
         23    2    1    2    0    0 -0.50463571377E+02 -0.10415555514E+03  0.28243198425E+03  0.32986472583E+03  0.12509180595E+03 0.  0.
          5    1    3    3  502    0 -0.65346927395E+02 -0.11939111470E+03  0.27509795722E+03  0.30695409698E+03  0.41800000000E+01 0. -1.
         -5    1    3    3    0  502  0.14883356018E+02  0.15235559563E+02  0.73340270360E+01  0.22910628846E+02  0.41800000000E+01 0. -1.
        -11    1    1    2    0    0  0.48318942234E+02  0.69694561890E+01  0.11119362651E+03  0.12143852797E+03  0.00000000000E+00 0.  1.
         11    1    1    2    0    0  0.21446291425E+01  0.97186098949E+02  0.16146434507E+03  0.18846875601E+03  0.00000000000E+00 0. -1.
</event>
<event>
 7    1  0.4394360E-006  0.9439026E+02  0.7561462E-02  0.1292555E+00
         -2   -1    0    0    0  501 -0.00000000000E+00  0.00000000000E+00  0.30175534120E+02  0.30175534120E+02  0.00000000000E+00 0.  1.
          2   -1    0    0  501    0  0.00000000000E+00 -0.00000000000E+00 -0.66891593592E+03  0.66891593592E+03  0.00000000000E+00 0. -1.
         23    2    1    2    0    0  0.68675155486E+02  0.10725457508E+02 -0.19864988988E+03  0.24483516206E+03  0.12510461787E+03 0.  0.
          5    1    3    3  502    0  0.78154113454E+02  0.57176692977E+01 -0.44414950736E+02  0.90171599968E+02  0.41800000000E+01 0.  1.
         -5    1    3    3    0  502 -0.94789579679E+01  0.50077882099E+01 -0.15423493914E+03  0.15466356209E+03  0.41800000000E+01 0.  1.
        -11    1    1    2    0    0 -0.79519334025E+02 -0.22649338115E+02 -0.42201592397E+03  0.43003925063E+03  0.00000000000E+00 0. -1.
         11    1    1    2    0    0  0.10844178540E+02  0.11923880607E+02 -0.18074587959E+02  0.24217057353E+02  0.00000000000E+00 0.  1.
</event>
<event>
 7    1  0.4394360E-006  0.1159665E+03  0.7561462E-02  0.1249903E+00
          1   -1    0    0  501    0  0.00000000000E+00  0.00000000000E+00  0.46266613090E+03  0.46266613090E+03  0.00000000000E+00 0. -1.
         -1   -1    0    0    0  501 -0.00000000000E+00 -0.00000000000E+00 -0.40892039489E+02  0.40892039489E+02  0.00000000000E+00 0.  1.
         23    2    1    2    0    0  0.50462928305E+02  0.11903782678E+02  0.10887326566E+03  0.17374617629E+03  0.12508452591E+03 0.  0.
          5    1    3    3  502    0 -0.42050833620E+02  0.38112542441E+01  0.35271186509E+02  0.55175422652E+02  0.41800000000E+01 0.  1.
         -5    1    3    3    0  502  0.92513761925E+02  0.80925284344E+01  0.73602079154E+02  0.11857075364E+03  0.41800000000E+01 0.  1.
        -11    1    1    2    0    0 -0.62390478098E+02  0.17510910072E+02  0.14335878815E+03  0.15732433337E+03  0.00000000000E+00 0.  1.
         11    1    1    2    0    0  0.11927549793E+02 -0.29414692751E+02  0.16954203759E+03  0.17248766073E+03  0.00000000000E+00 0. -1.
</event>
<event>
 7    1  0.4394360E-006  0.2421032E+03  0.7561462E-02  0.1118400E+00
          2   -1    0    0  501    0  0.00000000000E+00  0.00000000000E+00  0.16081941954E+03  0.16081941954E+03  0.00000000000E+00 0. -1.
         -2   -1    0    0    0  501 -0.00000000000E+00 -0.00000000000E+00 -0.39599787010E+03  0.39599787010E+03  0.00000000000E+00 0.  1.
         23    2    1    2    0    0  0.17464329819E+03 -0.13223756046E+03 -0.18782588654E+03  0.31450445700E+03  0.12508971108E+03 0.  0.
          5    1    3    3  502    0  0.11053490916E+03 -0.63482903971E+01 -0.77572673299E+02  0.13525257475E+03  0.41800000000E+01 0. -1.
         -5    1    3    3    0  502  0.64108389034E+02 -0.12588927006E+03 -0.11025321324E+03  0.17925188225E+03  0.41800000000E+01 0. -1.
        -11    1    1    2    0    0 -0.13630058438E+03  0.13722176392E+03 -0.58515058522E+02  0.20206848807E+03  0.00000000000E+00 0.  1.
         11    1    1    2    0    0 -0.38342713810E+02 -0.49842034677E+01  0.11162494499E+02  0.40244344571E+02  0.00000000000E+00 0. -1.
</event>
<event>
 7    1  0.4394360E-006  0.1101207E+03  0.7561462E-02  0.1260347E+00
         -3   -1    0    0    0  501 -0.00000000000E+00  0.00000000000E+00  0.38025827904E+03  0.38025827904E+03  0.00000000000E+00 0.  1.
          3   -1    0    0  501    0  0.00000000000E+00 -0.00000000000E+00 -0.59767248399E+02  0.59767248399E+02  0.00000000000E+00 0. -1.
         23    2    1    2    0    0  0.38781871121E+02  0.56913116533E+02  0.28818226580E+03  0.32162173683E+03  0.12509351269E+03 0.  0.
          5    1    3    3  502    0  0.63474399028E+02  0.32819342857E+02  0.68053550471E+02  0.98766728857E+02  0.41800000000E+01 0.  1.
         -5    1    3    3    0  502 -0.24692527907E+02  0.24093773677E+02  0.22012871533E+03  0.22285500797E+03  0.41800000000E+01 0.  1.
        -11    1    1    2    0    0 -0.51226503175E+02 -0.75682949633E+02  0.25810200280E+02  0.94964361374E+02  0.00000000000E+00 0.  1.
         11    1    1    2    0    0  0.12444632054E+02  0.18769833099E+02  0.64985645571E+01  0.23439429234E+02  0.00000000000E+00 0. -1.
</event>
<event>
 7    1  0.4394360E-006  0.1284469E+03  0.7561462E-02  0.1229779E+00
         -1   -1    0    0    0  501 -0.00000000000E+00  0.00000000000E+00  0.45847285736E+03  0.45847285736E+03  0.00000000000E+00 0.  1.
          1   -1    0    0  501    0  0.00000000000E+00 -0.00000000000E+00 -0.38554927324E+02  0.38554927324E+02  0.00000000000E+00 0. -1.
         23    2    1    2    0    0  0.46801919877E+02  0.52592288260E+02  0.29533857113E+03  0.32836961262E+03  0.12508142309E+03 0.  0.
          5    1    3    3  502    0  0.62742641092E+02  0.85849793728E+02  0.21849672459E+03  0.24303316060E+03  0.41800000000E+01 0. -1.
         -5    1    3    3    0  502 -0.15940721215E+02 -0.33257505468E+02  0.76841846542E+02  0.85336452017E+02  0.41800000000E+01 0. -1.
        -11    1    1    2    0    0 -0.70872519489E+02 -0.54222666308E+02  0.10311617612E+03  0.13636699505E+03  0.00000000000E+00 0.  1.
         11    1    1    2    0    0  0.24070599611E+02  0.16303780482E+01  0.21463182778E+02  0.32291177018E+02  0.00000000000E+00 0. -1.
</event>
<event>
 7    1  0.4394360E-006  0.1338442E+03  0.7561462E-02  0.1221861E+00
          1   -1    0    0  501    0  0.00000000000E+00  0.00000000000E+00  0.38695147589E+02  0.38695147589E+02  0.00000000000E+00 0. -1.
         -1   -1    0    0    0  501 -0.00000000000E+00 -0.00000000000E+00 -0.58416273819E+03  0.58416273819E+03  0.00000000000E+00 0.  1.
         23    2    1    2    0    0  0.53291701441E+02  0.76864978630E+02 -0.35279240405E+03  0.38582186802E+03  0.12509117918E+03 0.  0.
          5    1    3    3  502    0  0.83490789990E+01  0.98838609534E+02 -0.17632767508E+03  0.20235537861E+03  0.41800000000E+01 0.  1.
         -5    1    3    3    0  502  0.44942622441E+02 -0.21973630904E+02 -0.17646472897E+03  0.18346648941E+03  0.41800000000E+01 0.  1.
        -11    1    1    2    0    0 -0.21615175054E+02 -0.83150927370E+02 -0.71940215533E+02  0.11205662464E+03  0.00000000000E+00 0. -1.
         11    1    1    2    0    0 -0.31676526386E+02  0.62859487398E+01 -0.12073497102E+03  0.12497939312E+03  0.00000000000E+00 0.  1.
</event>
<event>
 7    1  0.4394360E-006  0.8627325E+02  0.7561462E-02  0.1312136E+00
         -2   -1    0    0    0  501 -0.00000000000E+00  0.00000000000E+00  0.16931762146E+03  0.16931762146E+03  0.00000000000E+00 0.  1.
          2   -1    0    0  501    0  0.00000000000E+00 -0.00000000000E+00 -0.11744998207E+03  0.11744998207E+03  0.00000000000E+00 0. -1.
         23    2    1    2    0    0  0.44873311734E+02  0.67124647170E+02  0.69879978306E+02  0.16447113600E+03  0.12509280893E+03 0.  0.
          5    1    3    3  502    0  0.27688998520E+02  0.23076019295E+02  0.10126318105E+03  0.10756806005E+03  0.41800000000E+01 0.  1.
         -5    1    3    3    0  502  0.17184313214E+02  0.44048627875E+02 -0.31383202748E+02  0.56903075954E+02  0.41800000000E+01 0.  1.
        -11    1    1    2    0    0 -0.10329200333E+02 -0.48423661949E+02 -0.50941117969E+02  0.71039009819E+02  0.00000000000E+00 0. -1.
         11    1    1    2    0    0 -0.34544111401E+02 -0.18700985221E+02  0.32928779056E+02  0.51257457709E+02  0.00000000000E+00 0.  1.
</event>
<event>
 7    1  0.4619098E-006  0.1003246E+03  0.7561462E-02  0.1279615E+00
          1   -1    0    0  501    0  0.00000000000E+00  0.00000000000E+00  0.28292310444E+03  0.28292310444E+03  0.00000000000E+00 0. -1.
         -1   -1    0    0    0  501 -0.00000000000E+00 -0.00000000000E+00 -0.75442048373E+02  0.75442048373E+02  0.00000000000E+00 0.  1.
         23    2    1    2    0    0 -0.23724910517E+02  0.85299308611E+02  0.58470615177E+02  0.16402749753E+03  0.12508942272E+03 0.  0.
          5    1    3    3  502    0 -0.15757152663E+01  0.49585231515E+01 -0.36789213110E+02  0.37389683492E+02  0.41800000000E+01 0.  1.
         -5    1    3    3    0  502 -0.22149195250E+02  0.80340785460E+02  0.95259828287E+02  0.12663781404E+03  0.41800000000E+01 0.  1.
        -11    1    1    2    0    0 -0.22639909268E+02 -0.38442473391E+02  0.18841141062E+02  0.48429101257E+02  0.00000000000E+00 0.  1.
         11    1    1    2    0    0  0.46364819785E+02 -0.46856835221E+02  0.13016929982E+03  0.14590855402E+03  0.00000000000E+00 0. -1.
</event>
<event>
 7    1  0.4394360E-006  0.8237041E+02  0.7561462E-02  0.1322456E+00
          1   -1    0    0  501    0  0.00000000000E+00  0.00000000000E+00  0.11824839685E+03  0.11824839685E+03  0.00000000000E+00 0. -1.
         -1   -1    0    0    0  501 -0.00000000000E+00 -0.00000000000E+00 -0.16339864278E+03  0.16339864278E+03  0.00000000000E+00 0.  1.
         23    2    1    2    0    0 -0.21409958072E+02 -0.49151518359E+02 -0.80824354140E+02  0.15828368208E+03  0.12508752827E+03 0.  0.
          5    1    3    3  502    0 -0.16776836940E+02 -0.25645664989E+02 -0.11345024297E+03  0.11759078374E+03  0.41800000000E+01 0.  1.
         -5    1    3    3    0  502 -0.46331211319E+01 -0.23505853370E+02  0.32625888826E+02  0.40692898346E+02  0.41800000000E+01 0.  1.
        -11    1    1    2    0    0 -0.38094401068E+02  0.22952228994E+02  0.37717361943E+02  0.58314557363E+02  0.00000000000E+00 0. -1.
         11    1    1    2    0    0  0.59504359140E+02  0.26199289365E+02 -0.20432537393E+01  0.65048800187E+02  0.00000000000E+00 0.  1.
</event>
<event>
 7    1  0.4394360E-006  0.1046064E+03  0.7561462E-02  0.1270897E+00
          2   -1    0    0  501    0  0.00000000000E+00  0.00000000000E+00  0.48812461788E+02  0.48812461788E+02  0.00000000000E+00 0. -1.
         -2   -1    0    0    0  501 -0.00000000000E+00 -0.00000000000E+00 -0.29710040209E+03  0.29710040209E+03  0.00000000000E+00 0.  1.
         23    2    1    2    0    0  0.26823258319E+02 -0.23023499315E+02 -0.19317595685E+03  0.23284158008E+03  0.12509469375E+03 0.  0.
          5    1    3    3  502    0  0.16552093830E+02  0.41699965256E+02 -0.23324312392E+02  0.50738100684E+02  0.41800000000E+01 0.  1.
         -5    1    3    3    0  502  0.10271164489E+02 -0.64723464570E+02 -0.16985164445E+03  0.18210347940E+03  0.41800000000E+01 0.  1.
        -11    1    1    2    0    0  0.23229820560E+02  0.39472217309E+02 -0.21677114967E+02  0.50671272096E+02  0.00000000000E+00 0.  1.
         11    1    1    2    0    0 -0.50053078879E+02 -0.16448717994E+02 -0.33434868489E+02  0.62400011698E+02  0.00000000000E+00 0. -1.
</event>
<event>
 7    1  0.4394360E-006  0.1288708E+03  0.7561462E-02  0.1229141E+00
         -2   -1    0    0    0  501 -0.00000000000E+00  0.00000000000E+00  0.43712048798E+03  0.43712048798E+03  0.00000000000E+00 0.  1.
          2   -1    0    0  501    0  0.00000000000E+00 -0.00000000000E+00 -0.47031458274E+02  0.47031458274E+02  0.00000000000E+00 0. -1.
         23    2    1    2    0    0  0.25573731233E+02  0.83762264547E+02  0.26150944798E+03  0.30282777968E+03  0.12508932836E+03 0.  0.
          5    1    3    3  502    0  0.24611700420E+02  0.11180060382E+03  0.24384570297E+03  0.26941289886E+03  0.41800000000E+01 0.  1.
         -5    1    3    3    0  502  0.96203081285E+00 -0.28038339274E+02  0.17663745008E+02  0.33414880820E+02  0.41800000000E+01 0.  1.
        -11    1    1    2    0    0 -0.16775872245E+02  0.10735442960E+02  0.62716138251E+02  0.65802687045E+02  0.00000000000E+00 0.  1.
         11    1    1    2    0    0 -0.87978589886E+01 -0.94497707507E+02  0.65863443471E+02  0.11552147953E+03  0.00000000000E+00 0. -1.
</event>
<event>
 7    1  0.4394360E-006  0.1683732E+03  0.7561462E-02  0.1179555E+00
          2   -1    0    0  501    0  0.00000000000E+00  0.00000000000E+00  0.87709932848E+03  0.87709932848E+03  0.00000000000E+00 0.  1.
         -2   -1    0    0    0  501 -0.00000000000E+00 -0.00000000000E+00 -0.48166731506E+02  0.48166731506E+02  0.00000000000E+00 0. -1.
         23    2    1    2    0    0  0.14892134921E+03  0.68027967788E+00  0.22794435570E+03  0.29964028645E+03  0.12509053095E+03 0.  0.
          5    1    3    3  502    0  0.11731344594E+03 -0.50201205030E+02  0.18896482612E+03  0.22805215082E+03  0.41800000000E+01 0.  1.
         -5    1    3    3    0  502  0.31607903270E+02  0.50881484708E+02  0.38979529586E+02  0.71588135623E+02  0.41800000000E+01 0.  1.
        -11    1    1    2    0    0 -0.32710638115E+02  0.21801511396E+01  0.35535734010E+02  0.48347981308E+02  0.00000000000E+00 0. -1.
         11    1    1    2    0    0 -0.11621071110E+03 -0.28604308175E+01  0.56545250726E+03  0.57727779223E+03  0.00000000000E+00 0.  1.
</event>
<event>
 7    1  0.4394360E-006  0.7299680E+02  0.7561462E-02  0.1350189E+00
         -2   -1    0    0    0  501 -0.00000000000E+00  0.00000000000E+00  0.12380801335E+03  0.12380801335E+03  0.00000000000E+00 0.  1.
          2   -1    0    0  501    0  0.00000000000E+00 -0.00000000000E+00 -0.15567069613E+03  0.15567069613E+03  0.00000000000E+00 0. -1.
         23    2    1    2    0    0  0.30732644420E+02 -0.89643938624E+01  0.63615284782E+02  0.14393423482E+03  0.12508118846E+03 0.  0.
          5    1    3    3  502    0  0.43529359328E+02 -0.46619465334E+02  0.78529163183E+02  0.10125453838E+03  0.41800000000E+01 0. -1.
         -5    1    3    3    0  502 -0.12796714908E+02  0.37655071471E+02 -0.14913878401E+02  0.42679696448E+02  0.41800000000E+01 0. -1.
        -11    1    1    2    0    0 -0.18594460396E+02 -0.87986768354E+01 -0.10847554938E+03  0.11040885600E+03  0.00000000000E+00 0. -1.
         11    1    1    2    0    0 -0.12138184023E+02  0.17763070698E+02  0.12997581815E+02  0.25135618652E+02  0.00000000000E+00 0.  1.
</event>
<event>
 7    1  0.4394360E-006  0.1787838E+03  0.7561462E-02  0.1168985E+00
         -1   -1    0    0    0  501 -0.00000000000E+00  0.00000000000E+00  0.26160676133E+02  0.26160676133E+02  0.00000000000E+00 0.  1.
          1   -1    0    0  501    0  0.00000000000E+00 -0.00000000000E+00 -0.13104432916E+04  0.13104432916E+04  0.00000000000E+00 0. -1.
         23    2    1    2    0    0 -0.14651460964E+03  0.23007347862E+02 -0.74052051889E+03  0.76551555074E+03  0.12509017003E+03 0.  0.
          5    1    3    3  502    0  0.10552082786E+02 -0.19039264519E+02 -0.19521809720E+03  0.19647243552E+03  0.41800000000E+01 0.  1.
         -5    1    3    3    0  502 -0.15706669242E+03  0.42046612381E+02 -0.54530242169E+03  0.56904311522E+03  0.41800000000E+01 0.  1.
        -11    1    1    2    0    0  0.15833059890E+03 -0.26264880725E+02 -0.47888361127E+03  0.50506230868E+03  0.00000000000E+00 0.  1.
         11    1    1    2    0    0 -0.11815989270E+02  0.32575328630E+01 -0.64878485336E+02  0.66026108338E+02  0.00000000000E+00 0. -1.
</event>
<event>
 7    1  0.4394360E-006  0.1854101E+03  0.7561462E-02  0.1162667E+00
          1   -1    0    0  501    0  0.00000000000E+00  0.00000000000E+00  0.22859266183E+03  0.22859266183E+03  0.00000000000E+00 0. -1.
         -1   -1    0    0    0  501 -0.00000000000E+00 -0.00000000000E+00 -0.17452235458E+03  0.17452235458E+03  0.00000000000E+00 0.  1.
         23    2    1    2    0    0  0.61011714531E+02  0.15222067156E+03 -0.82293357450E+01  0.20669179998E+03  0.12553969910E+03 0.  0.
          5    1    3    3  502    0  0.91424941559E+02  0.13712603359E+03  0.14688449655E+02  0.16551523187E+03  0.41800000000E+01 0. -1.
         -5    1    3    3    0  502 -0.30413227028E+02  0.15094637976E+02 -0.22917785400E+02  0.41176568112E+02  0.41800000000E+01 0.  1.
        -11    1    1    2    0    0 -0.10585260724E+02 -0.94551349344E+02  0.71849011731E+02  0.11922368009E+03  0.00000000000E+00 0. -1.
         11    1    1    2    0    0 -0.50426453806E+02 -0.57669322218E+02 -0.95493687283E+01  0.77199536344E+02  0.00000000000E+00 0.  1.
</event>
<event>
 7    1  0.4394360E-006  0.1410558E+03  0.7561462E-02  0.1211915E+00
          1   -1    0    0  501    0  0.00000000000E+00  0.00000000000E+00  0.17039838164E+03  0.17039838164E+03  0.00000000000E+00 0. -1.
         -1   -1    0    0    0  501 -0.00000000000E+00 -0.00000000000E+00 -0.18325581161E+03  0.18325581161E+03  0.00000000000E+00 0.  1.
         23    2    1    2    0    0 -0.27135977520E+02  0.13312599018E+03 -0.37204904549E+02  0.18838824001E+03  0.12508810302E+03 0.  0.
          5    1    3    3  502    0 -0.87784519663E+01  0.82754680771E+02  0.41484299299E+02  0.93079632019E+02  0.41800000000E+01 0.  1.
         -5    1    3    3    0  502 -0.18357525553E+02  0.50371309407E+02 -0.78689203849E+02  0.95308607996E+02  0.41800000000E+01 0.  1.
        -11    1    1    2    0    0  0.39240920252E+02 -0.65842771610E+02  0.50808722130E+02  0.91960027403E+02  0.00000000000E+00 0. -1.
         11    1    1    2    0    0 -0.12104942732E+02 -0.67283218568E+02 -0.26461247550E+02  0.73305925827E+02  0.00000000000E+00 0.  1.
</event>
<event>
 7    1  0.4394360E-006  0.9258262E+02  0.7561462E-02  0.1296715E+00
         -2   -1    0    0    0  501 -0.00000000000E+00  0.00000000000E+00  0.32720473179E+02  0.32720473179E+02  0.00000000000E+00 0.  1.
          2   -1    0    0  501    0  0.00000000000E+00 -0.00000000000E+00 -0.42305744120E+03  0.42305744120E+03  0.00000000000E+00 0. -1.
         23    2    1    2    0    0 -0.12714433728E+02  0.30500077930E+02 -0.16292253847E+03  0.20804630238E+03  0.12509036259E+03 0.  0.
          5    1    3    3  502    0 -0.56645818112E+02  0.11586213534E+01 -0.13849286802E+03  0.14969247812E+03  0.41800000000E+01 0.  1.
         -5    1    3    3    0  502  0.43931384383E+02  0.29341456576E+02 -0.24429670455E+02  0.58353824265E+02  0.41800000000E+01 0.  1.
        -11    1    1    2    0    0  0.39551341912E+02 -0.27890455084E+02 -0.21029629446E+03  0.21579322880E+03  0.00000000000E+00 0. -1.
         11    1    1    2    0    0 -0.26836908184E+02 -0.26096228460E+01 -0.17118135085E+02  0.31938383194E+02  0.00000000000E+00 0.  1.
</event>
<event>
 7    1  0.4394360E-006  0.6858105E+02  0.7561462E-02  0.1364986E+00
         -2   -1    0    0    0  501 -0.00000000000E+00  0.00000000000E+00  0.93702380597E+02  0.93702380597E+02  0.00000000000E+00 0.  1.
          2   -1    0    0  501    0  0.00000000000E+00 -0.00000000000E+00 -0.20960475030E+03  0.20960475030E+03  0.00000000000E+00 0. -1.
         23    2    1    2    0    0  0.55154810895E+02 -0.26367138682E+02  0.60469658093E+01  0.13935887728E+03  0.12508817576E+03 0.  0.
          5    1    3    3  502    0 -0.14291188091E+01 -0.12528657626E+02  0.59029215448E+02  0.60505622209E+02  0.41800000000E+01 0. -1.
         -5    1    3    3    0  502  0.56583929705E+02 -0.13838481056E+02 -0.52982249639E+02  0.78853255073E+02  0.41800000000E+01 0. -1.
        -11    1    1    2    0    0 -0.36980213286E+02  0.29152464353E+02 -0.13395387513E+03  0.14198958770E+03  0.00000000000E+00 0. -1.
         11    1    1    2    0    0 -0.18174597609E+02 -0.27853256717E+01  0.12004539618E+02  0.21958665916E+02  0.00000000000E+00 0.  1.
</event>
<event>
 7    1  0.4394360E-006  0.3269980E+03  0.7561462E-02  0.1072473E+00
         -2   -1    0    0    0  501 -0.00000000000E+00  0.00000000000E+00  0.11525635896E+03  0.11525635896E+03  0.00000000000E+00 0.  1.
          2   -1    0    0  501    0  0.00000000000E+00 -0.00000000000E+00 -0.14170126311E+04  0.14170126311E+04  0.00000000000E+00 0. -1.
         23    2    1    2    0    0 -0.13552608815E+03 -0.29322356544E+03 -0.24737703128E+03  0.42566466809E+03  0.12509050387E+03 0.  0.
          5    1    3    3  502    0 -0.12936964778E+03 -0.20704913869E+03 -0.23389061873E+03  0.33812445272E+03  0.41800000000E+01 0. -1.
         -5    1    3    3    0  502 -0.61564403692E+01 -0.86174426747E+02 -0.13486412551E+02  0.87540215368E+02  0.41800000000E+01 0. -1.
        -11    1    1    2    0    0  0.89558703510E+02  0.20877255427E+03 -0.86341139720E+03  0.89279671909E+03  0.00000000000E+00 0. -1.
         11    1    1    2    0    0  0.45967384641E+02  0.84451011169E+02 -0.19096784361E+03  0.21380760284E+03  0.00000000000E+00 0.  1.
</event>
<event>
 7    1  0.4394360E-006  0.1239070E+03  0.7561462E-02  0.1236787E+00
         -2   -1    0    0    0  501 -0.00000000000E+00  0.00000000000E+00  0.13560604308E+03  0.13560604308E+03  0.00000000000E+00 0.  1.
          2   -1    0    0  501    0  0.00000000000E+00 -0.00000000000E+00 -0.23348984635E+03  0.23348984635E+03  0.00000000000E+00 0. -1.
         23    2    1    2    0    0  0.44036714575E+02 -0.47309286114E+02  0.78136606237E+02  0.16102587571E+03  0.12508638067E+03 0.  0.
          5    1    3    3  502    0  0.26652616038E+02 -0.89334230376E+02  0.40016145954E+02  0.10153684551E+03  0.41800000000E+01 0.  1.
         -5    1    3    3    0  502  0.17384098537E+02  0.42024944262E+02  0.38120460283E+02  0.59489030202E+02  0.41800000000E+01 0.  1.
        -11    1    1    2    0    0  0.77783993659E+01  0.55781762615E+02 -0.70726864919E+02  0.90412377241E+02  0.00000000000E+00 0.  1.
         11    1    1    2    0    0 -0.51815113941E+02 -0.84724765006E+01 -0.10529354459E+03  0.11765763649E+03  0.00000000000E+00 0. -1.
</event>
<event>
 7    1  0.4394360E-006  0.1098087E+03  0.7561462E-02  0.1260925E+00
         -2   -1    0    0    0  501 -0.00000000000E+00  0.00000000000E+00  0.40553495544E+02  0.40553495544E+02  0.00000000000E+00 0.  1.
          2   -1    0    0  501    0  0.00000000000E+00 -0.00000000000E+00 -0.49493284402E+03  0.49493284402E+03  0.00000000000E+00 0. -1.
         23    2    1    2    0    0  0.25912623388E+02 -0.58944775865E+02 -0.12689412468E+03  0.18946080962E+03  0.12508928352E+03 0.  0.
          5    1    3    3  502    0  0.43757789324E+02  0.15174564300E+02 -0.96803156744E+02  0.10739336611E+03  0.41800000000E+01 0.  1.
         -5    1    3    3    0  502 -0.17845165937E+02 -0.74119340165E+02 -0.30090967935E+02  0.82067443515E+02  0.41800000000E+01 0.  1.
        -11    1    1    2    0    0  0.25092199406E+02  0.25473100424E+02 -0.47403978319E+02  0.59377053452E+02  0.00000000000E+00 0.  1.
         11    1    1    2    0    0 -0.51004822794E+02  0.33471675441E+02 -0.28008124548E+03  0.28664847649E+03  0.00000000000E+00 0. -1.
</event>
<event>
 7    1  0.4394360E-006  0.1590572E+03  0.7561462E-02  0.1189765E+00
          3   -1    0    0  501    0  0.00000000000E+00  0.00000000000E+00  0.31493983517E+02  0.31493983517E+02  0.00000000000E+00 0. -1.
         -3   -1    0    0    0  501 -0.00000000000E+00 -0.00000000000E+00 -0.97825233126E+03  0.97825233126E+03  0.00000000000E+00 0.  1.
         23    2    1    2    0    0  0.42800251907E+02 -0.12142221941E+03 -0.63895961344E+03  0.66369637210E+03  0.12509304457E+03 0.  0.
          5    1    3    3  502    0 -0.28647407177E+02 -0.15960642096E+02 -0.29563477169E+03  0.29747740530E+03  0.41800000000E+01 0. -1.
         -5    1    3    3    0  502  0.71447659083E+02 -0.10546157731E+03 -0.34332484175E+03  0.36621896680E+03  0.41800000000E+01 0. -1.
        -11    1    1    2    0    0  0.18569341719E+02  0.83324744202E+02 -0.18094081110E+03  0.20006851469E+03  0.00000000000E+00 0.  1.
         11    1    1    2    0    0 -0.61369593625E+02  0.38097475204E+02 -0.12685792321E+03  0.14598142799E+03  0.00000000000E+00 0. -1.
</event>
<event>
 7    1  0.4394360E-006  0.1336756E+03  0.7561462E-02  0.1222102E+00
         -3   -1    0    0    0  501 -0.00000000000E+00  0.00000000000E+00  0.58335709986E+02  0.58335709986E+02  0.00000000000E+00 0.  1.
          3   -1    0    0  501    0  0.00000000000E+00 -0.00000000000E+00 -0.37583524103E+03  0.37583524103E+03  0.00000000000E+00 0. -1.
         23    2    1    2    0    0  0.30491919949E+02 -0.88619151458E+02 -0.11531047618E+03  0.19423151141E+03  0.12508502278E+03 0.  0.
          5    1    3    3  502    0 -0.15579550891E+01  0.25583181649E+02  0.36075956355E+01  0.26218572685E+02  0.41800000000E+01 0. -1.
         -5    1    3    3    0  502  0.32049875038E+02 -0.11420233311E+03 -0.11891807181E+03  0.16801293873E+03  0.41800000000E+01 0. -1.
        -11    1    1    2    0    0 -0.55868574734E+02  0.76075811871E+02 -0.11791953639E+03  0.15104252334E+03  0.00000000000E+00 0.  1.
         11    1    1    2    0    0  0.25376654786E+02  0.12543339586E+02 -0.84269518477E+02  0.88896916259E+02  0.00000000000E+00 0. -1.
</event>
<event>
 7    1  0.4394360E-006  0.1271694E+03  0.7561462E-02  0.1231717E+00
          1   -1    0    0  501    0  0.00000000000E+00  0.00000000000E+00  0.73881731902E+03  0.73881731902E+03  0.00000000000E+00 0. -1.
         -1   -1    0    0    0  501 -0.00000000000E+00 -0.00000000000E+00 -0.35428292050E+02  0.35428292050E+02  0.00000000000E+00 0.  1.
         23    2    1    2    0    0 -0.58173702619E+01  0.11886759963E+03  0.35356373722E+03  0.39345334447E+03  0.12503947360E+03 0.  0.
          5    1    3    3  502    0  0.20260024201E+02  0.10150185370E+03  0.12333715080E+03  0.16106712903E+03  0.41800000000E+01 0. -1.
         -5    1    3    3    0  502 -0.26077394462E+02  0.17365745934E+02  0.23022658642E+03  0.23238621544E+03  0.41800000000E+01 0. -1.
        -11    1    1    2    0    0  0.63492648812E+01 -0.74107355506E+02  0.88245775569E+02  0.11541026909E+03  0.00000000000E+00 0.  1.
         11    1    1    2    0    0 -0.53189461934E+00 -0.44760244127E+02  0.26157951418E+03  0.26538199751E+03  0.00000000000E+00 0. -1.
</event>
<event>
 7    1  0.4394360E-006  0.1000112E+03  0.7561462E-02  0.1280272E+00
         -2   -1    0    0    0  501 -0.00000000000E+00  0.00000000000E+00  0.43798623900E+02  0.43798623900E+02  0.00000000000E+00 0.  1.
          2   -1    0    0  501    0  0.00000000000E+00 -0.00000000000E+00 -0.28274808352E+03  0.28274808352E+03  0.00000000000E+00 0. -1.
         23    2    1    2    0    0 -0.38754411022E+01 -0.21500589809E+02 -0.11798248817E+03  0.17333538534E+03  0.12509194175E+03 0.  0.
          5    1    3    3  502    0  0.38844682558E+02 -0.43497461466E+02 -0.16147980288E+02  0.60656147128E+02  0.41800000000E+01 0. -1.
         -5    1    3    3    0  502 -0.42720123660E+02  0.21996871657E+02 -0.10183450788E+03  0.11267923821E+03  0.41800000000E+01 0. -1.
        -11    1    1    2    0    0  0.12433808772E+02 -0.34500022350E+02 -0.38597760969E+02  0.53241321307E+02  0.00000000000E+00 0.  1.
         11    1    1    2    0    0 -0.85583676696E+01  0.56000612159E+02 -0.82369210483E+02  0.99970000775E+02  0.00000000000E+00 0. -1.
</event>
<event>
 7    1  0.4394360E-006  0.2204024E+03  0.7561462E-02  0.1133583E+00
          2   -1    0    0  501    0  0.00000000000E+00  0.00000000000E+00  0.10082440056E+04  0.10082440056E+04  0.00000000000E+00 0. -1.
         -2   -1    0    0    0  501 -0.00000000000E+00 -0.00000000000E+00 -0.50587617244E+02  0.50587617244E+02  0.00000000000E+00 0.  1.
         23    2    1    2    0    0  0.19226688067E+03 -0.42314145463E+02  0.41455997599E+03  0.47567271983E+03  0.12509005713E+03 0.  0.
          5    1    3    3  502    0  0.96611059610E+02  0.39510885954E+02  0.22525099510E+03  0.24829476462E+03  0.41800000000E+01 0.  1.
         -5    1    3    3    0  502  0.95655821058E+02 -0.81825031417E+02  0.18930898089E+03  0.22737795521E+03  0.41800000000E+01 0.  1.
        -11    1    1    2    0    0 -0.55944628526E+02  0.48345119077E+02  0.15404075806E+03  0.17086722080E+03  0.00000000000E+00 0.  1.
         11    1    1    2    0    0 -0.13632225214E+03 -0.60309736138E+01  0.38905565429E+03  0.41229168220E+03  0.00000000000E+00 0. -1.
</event>
<event>
 6    1  0.4394360E-006  0.1464385E+03  0.7561462E-02  0.1204919E+00
          3   -1    0    0  501    0  0.00000000000E+00  0.00000000000E+00  0.65496426574E+02  0.65496426574E+02  0.00000000000E+00 0. -1.
         -3   -1    0    0    0  501 -0.00000000000E+00 -0.00000000000E+00 -0.88040365829E+03  0.88040365829E+03  0.00000000000E+00 0.  1.
          5    1    1    2  502    0  0.35962860162E+02  0.39057764162E+01 -0.56722729716E+02  0.67405659012E+02  0.41800000000E+01 0. -1.
         -5    1    1    2    0  502 -0.85087017416E+02 -0.98007479687E+02 -0.62234513614E+03  0.63574854108E+03  0.41800000000E+01 0.  1.
        -11    1    1    2    0    0  0.14141272325E+02  0.90318086411E+02  0.10698797999E+02  0.92042363043E+02  0.00000000000E+00 0. -1.
         11    1    1    2    0    0  0.34982884930E+02  0.37836168597E+01 -0.14653816386E+03  0.15070352173E+03  0.00000000000E+00 0.  1.
</event>
<event>
 7    1  0.4394360E-006  0.7091667E+02  0.7561462E-02  0.1357003E+00
         -2   -1    0    0    0  501 -0.00000000000E+00  0.00000000000E+00  0.55673281464E+02  0.55673281464E+02  0.00000000000E+00 0.  1.
          2   -1    0    0  501    0  0.00000000000E+00 -0.00000000000E+00 -0.23972822554E+03  0.23972822554E+03  0.00000000000E+00 0. -1.
         23    2    1    2    0    0 -0.31670982232E+01  0.32049987785E+02 -0.73145280453E+02  0.14844265386E+03  0.12509099570E+03 0.  0.
          5    1    3    3  502    0 -0.14618265415E+02  0.54458297420E+02 -0.97798913881E+02  0.11296680839E+03  0.41800000000E+01 0. -1.
         -5    1    3    3    0  502  0.11451167192E+02 -0.22408309636E+02  0.24653633428E+02  0.35475845472E+02  0.41800000000E+01 0. -1.
        -11    1    1    2    0    0 -0.21087611125E+02 -0.28218597076E+02 -0.19662095582E+01  0.35282326226E+02  0.00000000000E+00 0.  1.
         11    1    1    2    0    0  0.24254709348E+02 -0.38313907088E+01 -0.10894345406E+03  0.11167652691E+03  0.00000000000E+00 0. -1.
</event>
<event>
 6    1  0.4394360E-006  0.9887265E+02  0.7561462E-02  0.1282685E+00
          1   -1    0    0  501    0  0.00000000000E+00  0.00000000000E+00  0.77582452457E+02  0.77582452457E+02  0.00000000000E+00 0. -1.
         -1   -1    0    0    0  501 -0.00000000000E+00 -0.00000000000E+00 -0.59212039422E+03  0.59212039422E+03  0.00000000000E+00 0.  1.
          5    1    1    2  502    0 -0.47314097132E+02 -0.60058210351E+02 -0.23834363015E+02  0.80194523992E+02  0.41800000000E+01 0. -1.
         -5    1    1    2    0  502  0.44752434589E+02  0.32400247472E+02 -0.49092431343E+03  0.49404120310E+03  0.41800000000E+01 0.  1.
        -11    1    1    2    0    0  0.16937000862E+02 -0.13825309416E+02  0.33758282626E+02  0.40219682054E+02  0.00000000000E+00 0. -1.
         11    1    1    2    0    0 -0.14375338319E+02  0.41483272295E+02 -0.33537547941E+02  0.55247437533E+02  0.00000000000E+00 0.  1.
</event>
<event>
 7    1  0.4394360E-006  0.1074638E+03  0.7561462E-02  0.1265340E+00
          1   -1    0    0  501    0  0.00000000000E+00  0.00000000000E+00  0.34785705382E+03  0.34785705382E+03  0.00000000000E+00 0. -1.
         -1   -1    0    0    0  501 -0.00000000000E+00 -0.00000000000E+00 -0.37668140287E+02  0.37668140287E+02  0.00000000000E+00 0.  1.
         23    2    1    2    0    0 -0.24986926270E+02  0.18615993812E+02  0.14582090987E+03  0.19463412867E+03  0.12509118505E+03 0.  0.
          5    1    3    3  502    0 -0.10313340552E+02 -0.48604749635E+02  0.10035440319E+03  0.11205920453E+03  0.41800000000E+01 0.  1.
         -5    1    3    3    0  502 -0.14673585718E+02  0.67220743447E+02  0.45466506682E+02  0.82574924143E+02  0.41800000000E+01 0.  1.
        -11    1    1    2    0    0  0.31021464385E+02  0.32345639797E+02  0.89919893824E+02  0.10046969181E+03  0.00000000000E+00 0. -1.
         11    1    1    2    0    0 -0.60345381150E+01 -0.50961633609E+02  0.74448109842E+02  0.90421373632E+02  0.00000000000E+00 0.  1.
</event>
<event>
 7    1  0.4394360E-006  0.1035698E+03  0.7561462E-02  0.1272963E+00
          1   -1    0    0  501    0  0.00000000000E+00  0.00000000000E+00  0.15499838746E+03  0.15499838746E+03  0.00000000000E+00 0. -1.
         -1   -1    0    0    0  501 -0.00000000000E+00 -0.00000000000E+00 -0.17953734450E+03  0.17953734450E+03  0.00000000000E+00 0.  1.
         23    2    1    2    0    0  0.21590698642E+02  0.48063339572E+02 -0.13117710050E+03  0.18496801547E+03  0.11928743510E+03 0.  0.
          5    1    3    3  502    0  0.54037126599E+02  0.46994554780E+01 -0.14554222149E+02  0.56315128654E+02  0.41800000000E+01 0. -1.
         -5    1    3    3    0  502 -0.32446427957E+02  0.43363884094E+02 -0.11662287835E+03  0.12865288681E+03  0.41800000000E+01 0.  1.
        -11    1    1    2    0    0  0.26491252177E+02  0.48391253362E+01  0.86718486251E+01  0.28291421571E+02  0.00000000000E+00 0.  1.
         11    1    1    2    0    0 -0.48081950819E+02 -0.52902464908E+02  0.97966294836E+02  0.12127629493E+03  0.00000000000E+00 0. -1.
</event>
<event>
 7    1  0.4394360E-006  0.9496056E+02  0.7561462E-02  0.1291265E+00
          1   -1    0    0  501    0  0.00000000000E+00  0.00000000000E+00  0.37022212809E+02  0.37022212809E+02  0.00000000000E+00 0. -1.
         -1   -1    0    0    0  501 -0.00000000000E+00 -0.00000000000E+00 -0.42187117270E+03  0.42187117270E+03  0.00000000000E+00 0.  1.
         23    2    1    2    0    0  0.14382727188E+02  0.14769445855E+02 -0.33219826302E+03  0.35556756354E+03  0.12509039500E+03 0.  0.
          5    1    3    3  502    0 -0.13280130534E+02 -0.52271525189E+02 -0.14619751925E+03  0.15588412763E+03  0.41800000000E+01 0.  1.
         -5    1    3    3    0  502  0.27662857721E+02  0.67040971044E+02 -0.18600074376E+03  0.19968343591E+03  0.41800000000E+01 0.  1.
        -11    1    1    2    0    0 -0.19537400039E+02 -0.36202920752E+02  0.51543207638E+01  0.41459962540E+02  0.00000000000E+00 0. -1.
         11    1    1    2    0    0  0.51546728515E+01  0.21433474897E+02 -0.57805017641E+02  0.61865859428E+02  0.00000000000E+00 0.  1.
</event>
<event>
 7    1  0.4394360E-006  0.8446562E+02  0.7561462E-02  0.1316836E+00
          1   -1    0    0  501    0  0.00000000000E+00  0.00000000000E+00  0.38359403469E+03  0.38359403469E+03  0.00000000000E+00 0. -1.
         -1   -1    0    0    0  501 -0.00000000000E+00 -0.00000000000E+00 -0.31720138210E+02  0.31720138210E+02  0.00000000000E+00 0.  1.
         23    2    1    2    0    0  0.93127494508E+01  0.12783873161E+02  0.17458285282E+03  0.21535505990E+03  0.12509386321E+03 0.  0.
          5    1    3    3  502    0  0.26871401254E+02  0.48561865077E+02  0.25941155291E+02  0.61406374937E+02  0.41800000000E+01 0.  1.
         -5    1    3    3    0  502 -0.17558651803E+02 -0.35777991916E+02  0.14864169753E+03  0.15394868496E+03  0.41800000000E+01 0.  1.
        -11    1    1    2    0    0  0.25931486906E+00 -0.42233449241E+02  0.36556122197E+02  0.55857690151E+02  0.00000000000E+00 0.  1.
         11    1    1    2    0    0 -0.95720643198E+01  0.29449576080E+02  0.14073492146E+03  0.14410142285E+03  0.00000000000E+00 0. -1.
</event>
<event>
 7    1  0.4394360E-006  0.1873142E+03  0.7561462E-02  0.1160906E+00
          1   -1    0    0  501    0  0.00000000000E+00  0.00000000000E+00  0.56018686038E+03  0.56018686038E+03  0.00000000000E+00 0. -1.
         -1   -1    0    0    0  501 -0.00000000000E+00 -0.00000000000E+00 -0.73106701577E+02  0.73106701577E+02  0.00000000000E+00 0.  1.
         23    2    1    2    0    0 -0.15956048669E+03 -0.44098985112E+02  0.16989187256E+03  0.26817038700E+03  0.12509132145E+03 0.  0.
          5    1    3    3  502    0 -0.15630686170E+03 -0.59860804631E+01  0.92584328182E+02  0.18181583649E+03  0.41800000000E+01 0. -1.
         -5    1    3    3    0  502 -0.32536249934E+01 -0.38112904649E+02  0.77307544374E+02  0.86354550509E+02  0.41800000000E+01 0. -1.
        -11    1    1    2    0    0  0.27977649377E+02 -0.18922075425E+02  0.77231574918E+02  0.84294187032E+02  0.00000000000E+00 0.  1.
         11    1    1    2    0    0  0.13158283732E+03  0.63021060537E+02  0.23995671133E+03  0.28082898793E+03  0.00000000000E+00 0. -1.
</event>
<event>
 7    1  0.4394360E-006  0.1205947E+03  0.7561462E-02  0.1242119E+00
          1   -1    0    0  501    0  0.00000000000E+00  0.00000000000E+00  0.10185888732E+04  0.10185888732E+04  0.00000000000E+00 0. -1.
         -1   -1    0    0    0  501 -0.00000000000E+00 -0.00000000000E+00 -0.14855626171E+02  0.14855626171E+02  0.00000000000E+00 0.  1.
         23    2    1    2    0    0  0.29166794574E+02 -0.45252426752E+02  0.48283436982E+03  0.50167215415E+03  0.12508971795E+03 0.  0.
          5    1    3    3  502    0 -0.37487139266E+01 -0.84465168250E+02  0.31232368433E+03  0.32359229549E+03  0.41800000000E+01 0. -1.
         -5    1    3    3    0  502  0.32915508501E+02  0.39212741498E+02  0.17051068549E+03  0.17807985866E+03  0.41800000000E+01 0. -1.
        -11    1    1    2    0    0 -0.55677706845E+02  0.35953802038E+01  0.22711478708E+03  0.23386761279E+03  0.00000000000E+00 0.  1.
         11    1    1    2    0    0  0.26510912271E+02  0.41657046548E+02  0.29378409013E+03  0.29790473244E+03  0.00000000000E+00 0. -1.
</event>
<event>
 7    1  0.4394360E-006  0.1722962E+03  0.7561462E-02  0.1175474E+00
         -1   -1    0    0    0  501 -0.00000000000E+00  0.00000000000E+00  0.96332798861E+02  0.96332798861E+02  0.00000000000E+00 0.  1.
          1   -1    0    0  501    0  0.00000000000E+00 -0.00000000000E+00 -0.36404233022E+03  0.36404233022E+03  0.00000000000E+00 0. -1.
         23    2    1    2    0    0  0.95772977916E+02  0.10363512993E+03 -0.64545688148E+02  0.19933383548E+03  0.12512045658E+03 0.  0.
          5    1    3    3  502    0 -0.14141823764E+02  0.61196627777E+02  0.37926128098E+01  0.63062466987E+02  0.41800000000E+01 0. -1.
         -5    1    3    3    0  502  0.10991480168E+03  0.42438502156E+02 -0.68338300958E+02  0.13627136850E+03  0.41800000000E+01 0. -1.
        -11    1    1    2    0    0 -0.81492885777E+02 -0.27084887888E+02 -0.11238297750E+03  0.14143767255E+03  0.00000000000E+00 0.  1.
         11    1    1    2    0    0 -0.14280092139E+02 -0.76550242045E+02 -0.90780865706E+02  0.11960362105E+03  0.00000000000E+00 0. -1.
</event>
<event>
 7    1  0.4394360E-006  0.1094387E+03  0.7561462E-02  0.1261613E+00
          2   -1    0    0  501    0  0.00000000000E+00  0.00000000000E+00  0.44594379085E+02  0.44594379085E+02  0.00000000000E+00 0.  1.
         -2   -1    0    0    0  501 -0.00000000000E+00 -0.00000000000E+00 -0.35061731113E+03  0.35061731113E+03  0.00000000000E+00 0. -1.
         23    2    1    2    0    0 -0.50345043632E+02 -0.36430474905E+02 -0.17716800777E+03  0.22561338548E+03  0.12510433170E+03 0.  0.
          5    1    3    3  502    0 -0.77930460716E+02 -0.31669252934E+02 -0.17840113381E+03  0.19728288125E+03  0.41800000000E+01 0. -1.
         -5    1    3    3    0  502  0.27585417084E+02 -0.47612219704E+01  0.12331260372E+01  0.28330504234E+02  0.41800000000E+01 0. -1.
        -11    1    1    2    0    0  0.42631239979E+02 -0.21612807777E+02 -0.80673729897E+02  0.93769860710E+02  0.00000000000E+00 0.  1.
         11    1    1    2    0    0  0.77138036533E+01  0.58043282681E+02 -0.48181194375E+02  0.75828444021E+02  0.00000000000E+00 0. -1.
</event>
<event>
 7    1  0.4394360E-006  0.1740568E+03  0.7561462E-02  0.1173682E+00
         -1   -1    0    0    0  501 -0.00000000000E+00  0.00000000000E+00  0.63447745437E+02  0.63447745437E+02  0.00000000000E+00 0.  1.
          1   -1    0    0  501    0  0.00000000000E+00 -0.00000000000E+00 -0.60736654852E+03  0.60736654852E+03  0.00000000000E+00 0. -1.
         23    2    1    2    0    0 -0.15872813632E+03 -0.30845636639E+02 -0.31936430649E+03  0.37919221082E+03  0.12508836047E+03 0.  0.
          5    1    3    3  502    0 -0.34137341000E+02 -0.81072989189E+01 -0.20649330346E+03  0.20949473292E+03  0.41800000000E+01 0.  1.
         -5    1    3    3    0  502 -0.12459079532E+03 -0.22738337720E+02 -0.11287100303E+03  0.16969747790E+03  0.41800000000E+01 0.  1.
        -11    1    1    2    0    0  0.16370187138E+03  0.46056745112E+02 -0.20520496733E+03  0.26651192296E+03  0.00000000000E+00 0. -1.
         11    1    1    2    0    0 -0.49737350646E+01 -0.15211108473E+02 -0.19349529261E+02  0.25110160176E+02  0.00000000000E+00 0.  1.
</event>
<event>
 7    1  0.4394360E-006  0.3285292E+03  0.7561462E-02  0.1071790E+00
          2   -1    0    0  501    0  0.00000000000E+00  0.00000000000E+00  0.13313693229E+04  0.13313693229E+04  0.00000000000E+00 0. -1.
         -2   -1    0    0    0  501 -0.00000000000E+00 -0.00000000000E+00 -0.92389398161E+02  0.92389398161E+02  0.00000000000E+00 0.  1.
         23    2    1    2    0    0  0.15110547490E+03  0.27864419250E+03  0.41905785324E+03  0.54014742999E+03  0.12519708942E+03 0.  0.
          5    1    3    3  502    0 -0.70993313035E+01  0.75505322007E+02  0.14750407868E+03  0.16591075850E+03  0.41800000000E+01 0. -1.
         -5    1    3    3    0  502  0.15820480621E+03  0.20313887049E+03  0.27155377456E+03  0.37423667149E+03  0.41800000000E+01 0. -1.
        -11    1    1    2    0    0 -0.88032098132E+02 -0.22200821941E+03  0.52540550480E+03  0.57713797680E+03  0.00000000000E+00 0.  1.
         11    1    1    2    0    0 -0.63073376772E+02 -0.56635973085E+02  0.29451656670E+03  0.30647331428E+03  0.00000000000E+00 0. -1.
</event>
<event>
 7    1  0.4394360E-006  0.1545647E+03  0.7561462E-02  0.1194973E+00
          2   -1    0    0  501    0  0.00000000000E+00  0.00000000000E+00  0.46536051772E+03  0.46536051772E+03  0.00000000000E+00 0. -1.
         -2   -1    0    0    0  501 -0.00000000000E+00 -0.00000000000E+00 -0.62830973796E+02  0.62830973796E+02  0.00000000000E+00 0.  1.
         23    2    1    2    0    0 -0.56805327308E+02  0.11546122499E+03  0.26298722462E+03  0.31838850779E+03  0.12510324494E+03 0.  0.
          5    1    3    3  502    0  0.19405482698E+02 -0.17213154278E+02  0.34345574028E+02  0.43242991273E+02  0.41800000000E+01 0. -1.
         -5    1    3    3    0  502 -0.76210810005E+02  0.13267437926E+03  0.22864165059E+03  0.27514551652E+03  0.41800000000E+01 0. -1.
        -11    1    1    2    0    0  0.21302187915E+02 -0.62518769130E+02  0.11876341331E+02  0.67107579206E+02  0.00000000000E+00 0.  1.
         11    1    1    2    0    0  0.35503139392E+02 -0.52942455857E+02  0.12766597797E+03  0.14269540452E+03  0.00000000000E+00 0. -1.
</event>
<event>
 7    1  0.4394360E-006  0.1635581E+03  0.7561462E-02  0.1184737E+00
          1   -1    0    0  501    0  0.00000000000E+00  0.00000000000E+00  0.26679538115E+03  0.26679538115E+03  0.00000000000E+00 0. -1.
         -1   -1    0    0    0  501 -0.00000000000E+00 -0.00000000000E+00 -0.13621339584E+03  0.13621339584E+03  0.00000000000E+00 0.  1.
         23    2    1    2    0    0 -0.38471057768E+02 -0.13373255120E+03 -0.88695515210E+01  0.18732504009E+03  0.12509030403E+03 0.  0.
          5    1    3    3  502    0 -0.74323032682E+02 -0.63407831176E+02 -0.35322648994E+02  0.10396936171E+03  0.41800000000E+01 0. -1.
         -5    1    3    3    0  502  0.35851974913E+02 -0.70324720028E+02  0.26453097473E+02  0.83355678380E+02  0.41800000000E+01 0. -1.
        -11    1    1    2    0    0  0.17340171464E+02  0.26884218455E+01  0.56492286560E+02  0.59154776639E+02  0.00000000000E+00 0. -1.
         11    1    1    2    0    0  0.21130886305E+02  0.13104412936E+03  0.82959250272E+02  0.15652896026E+03  0.00000000000E+00 0.  1.
</event>
<event>
 7    1  0.4394360E-006  0.1087323E+03  0.7561462E-02  0.1262936E+00
          2   -1    0    0  501    0  0.00000000000E+00  0.00000000000E+00  0.18303560219E+03  0.18303560219E+03  0.00000000000E+00 0. -1.
         -2   -1    0    0    0  501 -0.00000000000E+00 -0.00000000000E+00 -0.17891716428E+03  0.17891716428E+03  0.00000000000E+00 0.  1.
         23    2    1    2    0    0 -0.71366096532E+02 -0.53960944547E+02 -0.11127666501E+03  0.18982516111E+03  0.12508474066E+03 0.  0.
          5    1    3    3  502    0 -0.70747311100E+02 -0.76060447206E+02 -0.34061281793E+02  0.10939843223E+03  0.41800000000E+01 0.  1.
         -5    1    3    3    0  502 -0.61878543266E+00  0.22099502659E+02 -0.77215383221E+02  0.80426728885E+02  0.41800000000E+01 0.  1.
        -11    1    1    2    0    0  0.29400076962E+02  0.12296910523E+02 -0.10072714212E+02  0.33422120001E+02  0.00000000000E+00 0.  1.
         11    1    1    2    0    0  0.41966019570E+02  0.41664034024E+02  0.12546781714E+03  0.13870548535E+03  0.00000000000E+00 0. -1.
</event>
<event>
 7    1  0.4394360E-006  0.1096565E+03  0.7561462E-02  0.1261207E+00
         -2   -1    0    0    0  501 -0.00000000000E+00  0.00000000000E+00  0.29766559220E+02  0.29766559220E+02  0.00000000000E+00 0.  1.
          2   -1    0    0  501    0  0.00000000000E+00 -0.00000000000E+00 -0.71549998604E+03  0.71549998604E+03  0.00000000000E+00 0. -1.
         23    2    1    2    0    0  0.31527280372E+02  0.73958276487E+02 -0.23556048739E+03  0.27856786953E+03  0.12509004217E+03 0.  0.
          5    1    3    3  502    0 -0.18732794797E+02  0.20128527285E+02  0.38255868551E+01  0.28074592185E+02  0.41800000000E+01 0.  1.
         -5    1    3    3    0  502  0.50260075169E+02  0.53829749202E+02 -0.23938607424E+03  0.25049327735E+03  0.41800000000E+01 0.  1.
        -11    1    1    2    0    0  0.30017223802E+02 -0.26002541879E+02 -0.93372267121E+02  0.10146697086E+03  0.00000000000E+00 0.  1.
         11    1    1    2    0    0 -0.61544504174E+02 -0.47955734608E+02 -0.35680067230E+03  0.36523170486E+03  0.00000000000E+00 0. -1.
</event>
<event>
 7    1  0.4394360E-006  0.1795001E+03  0.7561462E-02  0.1168288E+00
          1   -1    0    0  501    0  0.00000000000E+00  0.00000000000E+00  0.45610140592E+03  0.45610140592E+03  0.00000000000E+00 0. -1.
         -1   -1    0    0    0  501 -0.00000000000E+00 -0.00000000000E+00 -0.79959631781E+02  0.79959631781E+02  0.00000000000E+00 0.  1.
         23    2    1    2    0    0 -0.17133682255E+02 -0.15213905524E+03  0.15557456657E+03  0.25157655515E+03  0.12508981629E+03 0.  0.
          5    1    3    3  502    0 -0.64275430543E+02 -0.10530729143E+03  0.13254320067E+03  0.18112462297E+03  0.41800000000E+01 0. -1.
         -5    1    3    3    0  502  0.47141748288E+02 -0.46831763806E+02  0.23031365897E+02  0.70451932179E+02  0.41800000000E+01 0. -1.
        -11    1    1    2    0    0  0.40370857451E+02  0.50190361184E+02  0.13422666206E+03  0.14888141353E+03  0.00000000000E+00 0.  1.
         11    1    1    2    0    0 -0.23237175196E+02  0.10194869405E+03  0.86340545511E+02  0.13560306903E+03  0.00000000000E+00 0. -1.
</event>
<event>
 7    1  0.4394360E-006  0.9892247E+02  0.7561462E-02  0.1282578E+00
         -2   -1    0    0    0  501 -0.00000000000E+00  0.00000000000E+00  0.28774673463E+02  0.28774673463E+02  0.00000000000E+00 0.  1.
          2   -1    0    0  501    0  0.00000000000E+00 -0.00000000000E+00 -0.43873115727E+03  0.43873115727E+03  0.00000000000E+00 0. -1.
         23    2    1    2    0    0  0.13500585004E+02  0.26531686117E+02 -0.21032941141E+03  0.24652015271E+03  0.12509008043E+03 0.  0.
          5    1    3    3  502    0 -0.20611556571E+02  0.67539727654E+02 -0.15025183953E+03  0.16607088474E+03  0.41800000000E+01 0. -1.
         -5    1    3    3    0  502  0.34112141575E+02 -0.41008041536E+02 -0.60077571880E+02  0.80449267967E+02  0.41800000000E+01 0. -1.
        -11    1    1    2    0    0  0.18795549192E+02  0.12777011664E+02 -0.10317762292E+02  0.24959585638E+02  0.00000000000E+00 0.  1.
         11    1    1    2    0    0 -0.32296134196E+02 -0.39308697781E+02 -0.18930931010E+03  0.19602609238E+03  0.00000000000E+00 0. -1.
</event>
<event>
 7    1  0.4394360E-006  0.1079034E+03  0.7561462E-02  0.1264502E+00
         -1   -1    0    0    0  501 -0.00000000000E+00  0.00000000000E+00  0.12196716945E+03  0.12196716945E+03  0.00000000000E+00 0.  1.
          1   -1    0    0  501    0  0.00000000000E+00 -0.00000000000E+00 -0.12322728411E+03  0.12322728411E+03  0.00000000000E+00 0. -1.
         23    2    1    2    0    0  0.47602827709E+02 -0.10976065788E+02  0.29444098364E+02  0.13748074218E+03  0.12508995290E+03 0.  0.
          5    1    3    3  502    0  0.80936678981E+02  0.24392984993E+02  0.26171925084E+02  0.88590099807E+02  0.41800000000E+01 0. -1.
         -5    1    3    3    0  502 -0.33333851272E+02 -0.35369050781E+02  0.32721732801E+01  0.48890642374E+02  0.41800000000E+01 0. -1.
        -11    1    1    2    0    0 -0.62948890878E+02 -0.94763469298E+00 -0.49948609155E+02  0.80363700952E+02  0.00000000000E+00 0. -1.
         11    1    1    2    0    0  0.15346063169E+02  0.11923700481E+02  0.19244396134E+02  0.27350010430E+02  0.00000000000E+00 0.  1.
</event>
<event>
 7    1  0.4394360E-006  0.4643381E+03  0.7561462E-02  0.1023531E+00
         -2   -1    0    0    0  501 -0.00000000000E+00  0.00000000000E+00  0.15779445855E+03  0.15779445855E+03  0.00000000000E+00 0. -1.
          2   -1    0    0  501    0  0.00000000000E+00 -0.00000000000E+00 -0.19639299496E+04  0.19639299496E+04  0.00000000000E+00 0.  1.
         23    2    1    2    0    0 -0.22914848147E+03 -0.39320535201E+03 -0.33444536518E+03  0.57846407076E+03  0.12508998145E+03 0.  0.
          5    1    3    3  502    0 -0.23651520030E+03 -0.36545397227E+03 -0.28248720323E+03  0.51895331024E+03  0.41800000000E+01 0. -1.
         -5    1    3    3    0  502  0.73667188346E+01 -0.27751379738E+02 -0.51958161954E+02  0.59510760518E+02  0.41800000000E+01 0. -1.
        -11    1    1    2    0    0  0.10258752356E+03  0.26506707492E+03 -0.87907937968E+03  0.92388598322E+03  0.00000000000E+00 0. -1.
         11    1    1    2    0    0  0.12656095790E+03  0.12813827709E+03 -0.59261074614E+03  0.61937435413E+03  0.00000000000E+00 0.  1.
</event>
<event>
 7    1  0.4394360E-006  0.1221394E+03  0.7561462E-02  0.1239609E+00
         -1   -1    0    0    0  501 -0.00000000000E+00  0.00000000000E+00  0.37842708020E+02  0.37842708020E+02  0.00000000000E+00 0.  1.
          1   -1    0    0  501    0  0.00000000000E+00 -0.00000000000E+00 -0.44092519042E+03  0.44092519042E+03  0.00000000000E+00 0. -1.
         23    2    1    2    0    0 -0.65527086439E+02  0.27415030249E+02 -0.21946796339E+03  0.26240961382E+03  0.12508891051E+03 0.  0.
          5    1    3    3  502    0 -0.24237988061E+02 -0.43422628929E+02 -0.36381109960E+02  0.61758095261E+02  0.41800000000E+01 0. -1.
         -5    1    3    3    0  502 -0.41289098378E+02  0.70837659177E+02 -0.18308685343E+03  0.20065151856E+03  0.41800000000E+01 0. -1.
        -11    1    1    2    0    0  0.54179951473E+02  0.24263947217E+02 -0.11779878616E+03  0.13191194145E+03  0.00000000000E+00 0. -1.
         11    1    1    2    0    0  0.11347134966E+02 -0.51678977466E+02 -0.65815732853E+02  0.84446343171E+02  0.00000000000E+00 0.  1.
</event>
<event>
 7    1  0.4394360E-006  0.1902524E+03  0.7561462E-02  0.1158234E+00
         -2   -1    0    0    0  501 -0.00000000000E+00  0.00000000000E+00  0.82036799394E+02  0.82036799394E+02  0.00000000000E+00 0.  1.
          2   -1    0    0  501    0  0.00000000000E+00 -0.00000000000E+00 -0.59003693526E+03  0.59003693526E+03  0.00000000000E+00 0. -1.
         23    2    1    2    0    0  0.16091416317E+03 -0.96866866013E+02 -0.20991970569E+03  0.30820765035E+03  0.12509642383E+03 0.  0.
          5    1    3    3  502    0  0.15081765248E+03 -0.89458233954E+02 -0.10918118791E+03  0.20660770585E+03  0.41800000000E+01 0. -1.
         -5    1    3    3    0  502  0.10096510683E+02 -0.74086320592E+01 -0.10073851778E+03  0.10159994450E+03  0.41800000000E+01 0. -1.
        -11    1    1    2    0    0 -0.11720916839E+03  0.89737145289E+02 -0.15481176271E+03  0.21390985548E+03  0.00000000000E+00 0.  1.
         11    1    1    2    0    0 -0.43704994781E+02  0.71297207241E+01 -0.14326866746E+03  0.14995622882E+03  0.00000000000E+00 0. -1.
</event>
<event>
 6    1  0.4394360E-006  0.1299071E+03  0.7561462E-02  0.1227594E+00
         -1   -1    0    0    0  501 -0.00000000000E+00  0.00000000000E+00  0.10521690116E+03  0.10521690116E+03  0.00000000000E+00 0.  1.
          1   -1    0    0  501    0  0.00000000000E+00 -0.00000000000E+00 -0.20272168448E+03  0.20272168448E+03  0.00000000000E+00 0. -1.
          5    1    1    2  502    0  0.66255744196E+02  0.24879604246E+02 -0.42239225588E+02  0.82525407753E+02  0.41800000000E+01 0. -1.
         -5    1    1    2    0  502 -0.98383562984E+02  0.28223061677E+02 -0.28364548904E+01  0.10247626336E+03  0.41800000000E+01 0.  1.
        -11    1    1    2    0    0 -0.15370066290E+02 -0.18257342640E+00  0.17439274066E+02  0.23246516960E+02  0.00000000000E+00 0. -1.
         11    1    1    2    0    0  0.47497885078E+02 -0.52920092497E+02 -0.69868376906E+02  0.99690397573E+02  0.00000000000E+00 0.  1.
</event>
<event>
 7    1  0.4394360E-006  0.1387759E+03  0.7561462E-02  0.1214986E+00
         -2   -1    0    0    0  501 -0.00000000000E+00  0.00000000000E+00  0.35641708322E+02  0.35641708322E+02  0.00000000000E+00 0.  1.
          2   -1    0    0  501    0  0.00000000000E+00 -0.00000000000E+00 -0.61554508311E+03  0.61554508311E+03  0.00000000000E+00 0. -1.
         23    2    1    2    0    0  0.96550374911E+02  0.20128830891E+02 -0.32612786866E+03  0.36295159397E+03  0.12508928061E+03 0.  0.
          5    1    3    3  502    0  0.21115806754E+02 -0.47551599896E+02 -0.68838871372E+02  0.86390361495E+02  0.41800000000E+01 0. -1.
         -5    1    3    3    0  502  0.75434568157E+02  0.67680430786E+02 -0.25728899728E+03  0.27656123247E+03  0.41800000000E+01 0. -1.
        -11    1    1    2    0    0 -0.13394729540E+02 -0.36756548285E+02 -0.31158013634E+02  0.50012842699E+02  0.00000000000E+00 0.  1.
         11    1    1    2    0    0 -0.83155645371E+02  0.16627717394E+02 -0.22261749250E+03  0.23822235476E+03  0.00000000000E+00 0. -1.
</event>
<event>
 7    1  0.4394360E-006  0.8936229E+02  0.7561462E-02  0.1304403E+00
          1   -1    0    0  501    0  0.00000000000E+00  0.00000000000E+00  0.15261452503E+03  0.15261452503E+03  0.00000000000E+00 0. -1.
         -1   -1    0    0    0  501 -0.00000000000E+00 -0.00000000000E+00 -0.13209736193E+03  0.13209736193E+03  0.00000000000E+00 0.  1.
         23    2    1    2    0    0 -0.54018750495E+02  0.64718538957E+02 -0.28304746271E+02  0.15350855835E+03  0.12512875024E+03 0.  0.
          5    1    3    3  502    0 -0.26742877892E+02  0.49402515065E+02 -0.77045392446E+02  0.95442416723E+02  0.41800000000E+01 0. -1.
         -5    1    3    3    0  502 -0.27275872602E+02  0.15316023892E+02  0.48740646176E+02  0.58066141629E+02  0.41800000000E+01 0. -1.
        -11    1    1    2    0    0 -0.42453589687E+01 -0.10164168309E+02 -0.21930434309E+02  0.24541339392E+02  0.00000000000E+00 0.  1.
         11    1    1    2    0    0  0.58264109464E+02 -0.54554370648E+02  0.70752343682E+02  0.10666198922E+03  0.00000000000E+00 0. -1.
</event>
<event>
 7    1  0.4394360E-006  0.1133439E+03  0.7561462E-02  0.1254500E+00
          1   -1    0    0  501    0  0.00000000000E+00  0.00000000000E+00  0.92413442143E+02  0.92413442143E+02  0.00000000000E+00 0. -1.
         -1   -1    0    0    0  501 -0.00000000000E+00 -0.00000000000E+00 -0.20862760071E+03  0.20862760071E+03  0.00000000000E+00 0.  1.
         23    2    1    2    0    0  0.84164914534E+02  0.22026338641E+02 -0.81675375231E+02  0.17288056005E+03  0.12509168115E+03 0.  0.
          5    1    3    3  502    0 -0.81677692805E+01  0.34892146384E+02  0.14490714300E+02  0.38879654515E+02  0.41800000000E+01 0. -1.
         -5    1    3    3    0  502  0.92332683815E+02 -0.12865807743E+02 -0.96166089531E+02  0.13400090554E+03  0.41800000000E+01 0. -1.
        -11    1    1    2    0    0 -0.20474192019E+02 -0.26448239173E+02 -0.52129913849E+02  0.61937305496E+02  0.00000000000E+00 0.  1.
         11    1    1    2    0    0 -0.63690722516E+02  0.44219005315E+01  0.17591130516E+02  0.66223177300E+02  0.00000000000E+00 0. -1.
</event>
<event>
 7    1  0.4394360E-006  0.1212844E+03  0.7561462E-02  0.1240993E+00
         -1   -1    0    0    0  501 -0.00000000000E+00  0.00000000000E+00  0.25574866860E+02  0.25574866860E+02  0.00000000000E+00 0.  1.
          1   -1    0    0  501    0  0.00000000000E+00 -0.00000000000E+00 -0.67364543233E+03  0.67364543233E+03  0.00000000000E+00 0. -1.
         23    2    1    2    0    0  0.87850091346E+01 -0.54705956031E+02 -0.22905777716E+03  0.26680923819E+03  0.12509910589E+03 0.  0.
          5    1    3    3  502    0 -0.55286523616E+02 -0.45098679031E+02 -0.10946782164E+03  0.13073318981E+03  0.41800000000E+01 0. -1.
         -5    1    3    3    0  502  0.64071532750E+02 -0.96072769998E+01 -0.11958995552E+03  0.13607604837E+03  0.41800000000E+01 0. -1.
        -11    1    1    2    0    0  0.20742049544E+02  0.69939974094E+02 -0.30873971568E+03  0.31724130348E+03  0.00000000000E+00 0. -1.
         11    1    1    2    0    0 -0.29527058678E+02 -0.15234018063E+02 -0.11027307263E+03  0.11516975752E+03  0.00000000000E+00 0.  1.
</event>
<event>
 6    1  0.4394360E-006  0.1676603E+03  0.7561462E-02  0.1180310E+00
         -2   -1    0    0    0  501 -0.00000000000E+00  0.00000000000E+00  0.12788252340E+03  0.12788252340E+03  0.00000000000E+00 0.  1.
          2   -1    0    0  501    0  0.00000000000E+00 -0.00000000000E+00 -0.74729204366E+03  0.74729204366E+03  0.00000000000E+00 0. -1.
          5    1    1    2  502    0  0.76265278665E+01  0.40095854795E+02 -0.65041871636E+01  0.41540562704E+02  0.41800000000E+01 0. -1.
         -5    1    1    2    0  502  0.11234048886E+03 -0.10569538697E+03  0.44601715974E+02  0.16061969285E+03  0.41800000000E+01 0.  1.
        -11    1    1    2    0    0 -0.10320937964E+03  0.42890068097E+02 -0.57642985088E+03  0.58716531486E+03  0.00000000000E+00 0. -1.
         11    1    1    2    0    0 -0.16757637088E+02  0.22709464078E+02 -0.81077198182E+02  0.85848996642E+02  0.00000000000E+00 0.  1.
</event>
<event>
 7    1  0.4394360E-006  0.1032645E+03  0.7561462E-02  0.1273577E+00
          2   -1    0    0  501    0  0.00000000000E+00  0.00000000000E+00  0.41647371263E+02  0.41647371263E+02  0.00000000000E+00 0. -1.
         -2   -1    0    0    0  501 -0.00000000000E+00 -0.00000000000E+00 -0.35330942176E+03  0.35330942176E+03  0.00000000000E+00 0.  1.
         23    2    1    2    0    0  0.21016916241E+02  0.87165541099E+00 -0.22614694667E+03  0.25928942895E+03  0.12508435524E+03 0.  0.
          5    1    3    3  502    0 -0.48398243631E+02  0.16560612223E+02 -0.63087220048E+02  0.81327200844E+02  0.41800000000E+01 0.  1.
         -5    1    3    3    0  502  0.69415159872E+02 -0.15688956812E+02 -0.16305972662E+03  0.17796222810E+03  0.41800000000E+01 0.  1.
        -11    1    1    2    0    0  0.31442976388E+02 -0.92719439451E+00 -0.76132189105E+02  0.82374939584E+02  0.00000000000E+00 0.  1.
         11    1    1    2    0    0 -0.52459892629E+02  0.55538983516E-01 -0.93829147206E+01  0.53292424489E+02  0.00000000000E+00 0. -1.
</event>
<event>
 7    1  0.4394360E-006  0.1213613E+03  0.7561462E-02  0.1240868E+00
          1   -1    0    0  501    0  0.00000000000E+00  0.00000000000E+00  0.59275692194E+03  0.59275692194E+03  0.00000000000E+00 0. -1.
         -1   -1    0    0    0  501 -0.00000000000E+00 -0.00000000000E+00 -0.29331997871E+02  0.29331997871E+02  0.00000000000E+00 0.  1.
         23    2    1    2    0    0  0.52051984470E+02  0.37498629170E+02  0.22354866458E+03  0.26407721241E+03  0.12508881806E+03 0.  0.
          5    1    3    3  502    0  0.81761381487E+02  0.59879672372E+02  0.14370266344E+03  0.17589322484E+03  0.41800000000E+01 0. -1.
         -5    1    3    3    0  502 -0.29709397017E+02 -0.22381043202E+02  0.79846001141E+02  0.88183987572E+02  0.41800000000E+01 0. -1.
        -11    1    1    2    0    0  0.19101093843E+02 -0.25253273141E+02  0.17757805926E+03  0.18037889766E+03  0.00000000000E+00 0. -1.
         11    1    1    2    0    0 -0.71153078313E+02 -0.12245356029E+02  0.16229820023E+03  0.17763280974E+03  0.00000000000E+00 0.  1.
</event>
<event>
 7    1  0.4394360E-006  0.6569271E+02  0.7561462E-02  0.1375385E+00
          1   -1    0    0  501    0  0.00000000000E+00  0.00000000000E+00  0.27173534703E+02  0.27173534703E+02  0.00000000000E+00 0. -1.
         -1   -1    0    0    0  501 -0.00000000000E+00 -0.00000000000E+00 -0.44564596838E+03  0.44564596838E+03  0.00000000000E+00 0.  1.
         23    2    1    2    0    0 -0.37117237842E+01 -0.21492503628E+02 -0.25755577298E+03  0.28714812024E+03  0.12507342705E+03 0.  0.
          5    1    3    3  502    0 -0.13393289343E+02  0.18287308737E+01 -0.26094654653E+03  0.26132986244E+03  0.41800000000E+01 0. -1.
         -5    1    3    3    0  502  0.96815655591E+01 -0.23321234502E+02  0.33907735530E+01  0.25818257797E+02  0.41800000000E+01 0. -1.
        -11    1    1    2    0    0 -0.17646662295E+02  0.51709877612E+02 -0.10886849133E+03  0.12180995254E+03  0.00000000000E+00 0. -1.
         11    1    1    2    0    0  0.21358386079E+02 -0.30217373984E+02 -0.52048169364E+02  0.63861430304E+02  0.00000000000E+00 0.  1.
</event>
<event>
 7    1  0.4394360E-006  0.1357705E+03  0.7561462E-02  0.1219136E+00
         -1   -1    0    0    0  501 -0.00000000000E+00  0.00000000000E+00  0.14706404696E+03  0.14706404696E+03  0.00000000000E+00 0. -1.
          1   -1    0    0  501    0  0.00000000000E+00 -0.00000000000E+00 -0.22539450916E+03  0.22539450916E+03  0.00000000000E+00 0.  1.
         23    2    1    2    0    0  0.24597103991E+02 -0.10521064426E+03  0.58960617872E+02  0.17549131597E+03  0.12508617163E+03 0.  0.
          5    1    3    3  502    0  0.31796841640E+02 -0.62911589209E+01  0.68367572195E+02  0.75777405252E+02  0.41800000000E+01 0.  1.
         -5    1    3    3    0  502 -0.71997376489E+01 -0.98919485338E+02 -0.94069543231E+01  0.99713910722E+02  0.41800000000E+01 0.  1.
        -11    1    1    2    0    0 -0.58110039443E+02  0.70079421149E+02 -0.10334611329E+03  0.13772552808E+03  0.00000000000E+00 0. -1.
         11    1    1    2    0    0  0.33512935452E+02  0.35131223110E+02 -0.33944966778E+02  0.59241712073E+02  0.00000000000E+00 0.  1.
</event>
<event>
 7    1  0.4394360E-006  0.1153334E+03  0.7561462E-02  0.1251000E+00
         -1   -1    0    0    0  501 -0.00000000000E+00  0.00000000000E+00  0.29179104137E+03  0.29179104137E+03  0.00000000000E+00 0.  1.
          1   -1    0    0  501    0  0.00000000000E+00 -0.00000000000E+00 -0.62324700593E+02  0.62324700593E+02  0.00000000000E+00 0. -1.
         23    2    1    2    0    0  0.12559351686E+02 -0.68902389074E+02  0.15842267065E+03  0.21366331842E+03  0.12509594128E+03 0.  0.
          5    1    3    3  502    0 -0.17682076071E+02  0.32586042002E+02  0.38204664238E+02  0.53400137800E+02  0.41800000000E+01 0.  1.
         -5    1    3    3    0  502  0.30241427758E+02 -0.10148843108E+03  0.12021800642E+03  0.16026318062E+03  0.41800000000E+01 0.  1.
        -11    1    1    2    0    0  0.20435672168E+02  0.21948112173E+02  0.77118183143E+02  0.82743884947E+02  0.00000000000E+00 0.  1.
         11    1    1    2    0    0 -0.32995023855E+02  0.46954276901E+02 -0.60745130209E+01  0.57708538596E+02  0.00000000000E+00 0. -1.
</event>
<event>
 7    1  0.4394360E-006  0.9189517E+02  0.7561462E-02  0.1298326E+00
          1   -1    0    0  501    0  0.00000000000E+00  0.00000000000E+00  0.11113383072E+03  0.11113383072E+03  0.00000000000E+00 0. -1.
         -1   -1    0    0    0  501 -0.00000000000E+00 -0.00000000000E+00 -0.17349446538E+03  0.17349446538E+03  0.00000000000E+00 0.  1.
         23    2    1    2    0    0 -0.48193226067E+01  0.72648854729E+02 -0.74925584352E+02  0.16297876265E+03  0.12508857630E+03 0.  0.
          5    1    3    3  502    0 -0.16688208337E+01  0.18714473874E+02  0.35270146705E+02  0.40180494571E+02  0.41800000000E+01 0. -1.
         -5    1    3    3    0  502 -0.31505017730E+01  0.53934380855E+02 -0.11019573106E+03  0.12279826808E+03  0.41800000000E+01 0. -1.
        -11    1    1    2    0    0 -0.35178616321E+02 -0.57850384551E+02  0.31874107277E+02  0.74834221808E+02  0.00000000000E+00 0. -1.
         11    1    1    2    0    0  0.39997938927E+02 -0.14798470177E+02 -0.19309157585E+02  0.46815311647E+02  0.00000000000E+00 0.  1.
</event>
<event>
 7    1  0.4394360E-006  0.1197043E+03  0.7561462E-02  0.1243586E+00
         -2   -1    0    0    0  501 -0.00000000000E+00  0.00000000000E+00  0.10115202214E+03  0.10115202214E+03  0.00000000000E+00 0.  1.
          2   -1    0    0  501    0  0.00000000000E+00 -0.00000000000E+00 -0.19909368695E+03  0.19909368695E+03  0.00000000000E+00 0. -1.
         23    2    1    2    0    0  0.84126686768E+02 -0.35817427596E+02 -0.39544473824E+02  0.15991488178E+03  0.12509522956E+03 0.  0.
          5    1    3    3  502    0 -0.10046954180E+02  0.47353035836E+01  0.32455223009E+02  0.34556884826E+02  0.41800000000E+01 0. -1.
         -5    1    3    3    0  502  0.94173640948E+02 -0.40552731180E+02 -0.71999696833E+02  0.12535799695E+03  0.41800000000E+01 0. -1.
        -11    1    1    2    0    0  0.16760522780E+02  0.13680053917E+02 -0.21901436204E+02  0.30785254698E+02  0.00000000000E+00 0.  1.
         11    1    1    2    0    0 -0.10088720955E+03  0.22137373679E+02 -0.36495754776E+02  0.10954557262E+03  0.00000000000E+00 0. -1.
</event>
<event>
 7    1  0.4394360E-006  0.1173239E+03  0.7561462E-02  0.1247578E+00
         -2   -1    0    0    0  501 -0.00000000000E+00  0.00000000000E+00  0.36598346123E+02  0.36598346123E+02  0.00000000000E+00 0.  1.
          2   -1    0    0  501    0  0.00000000000E+00 -0.00000000000E+00 -0.42620446663E+03  0.42620446663E+03  0.00000000000E+00 0. -1.
         23    2    1    2    0    0 -0.29040653008E+02  0.42545583739E+02 -0.15627114498E+03  0.20669258935E+03  0.12509064519E+03 0.  0.
          5    1    3    3  502    0 -0.61397955650E+02 -0.18501051032E+02 -0.92113966511E+02  0.11231408226E+03  0.41800000000E+01 0.  1.
         -5    1    3    3    0  502  0.32357302642E+02  0.61046634770E+02 -0.64157178473E+02  0.94378507091E+02  0.41800000000E+01 0.  1.
        -11    1    1    2    0    0 -0.10009418270E+02  0.22880977420E+02 -0.94465828471E+02  0.97711413512E+02  0.00000000000E+00 0. -1.
         11    1    1    2    0    0  0.39050071278E+02 -0.65426561158E+02 -0.13886914705E+03  0.15839880989E+03  0.00000000000E+00 0.  1.
</event>
<event>
 7    1  0.4394360E-006  0.8754791E+02  0.7561462E-02  0.1308901E+00
         -2   -1    0    0    0  501 -0.00000000000E+00  0.00000000000E+00  0.91466005990E+02  0.91466005990E+02  0.00000000000E+00 0.  1.
          2   -1    0    0  501    0  0.00000000000E+00 -0.00000000000E+00 -0.18970115878E+03  0.18970115878E+03  0.00000000000E+00 0. -1.
         23    2    1    2    0    0 -0.28716960758E+02  0.12562969025E+02  0.42087440429E+02  0.12332743380E+03  0.11160560587E+03 0.  0.
          5    1    3    3  502    0  0.30526993570E+02  0.27834244353E+02 -0.10179711957E+02  0.42752092705E+02  0.41800000000E+01 0. -1.
         -5    1    3    3    0  502 -0.59243954328E+02 -0.15271275328E+02  0.52267152387E+02  0.80575341099E+02  0.41800000000E+01 0.  1.
        -11    1    1    2    0    0  0.49930726897E+02 -0.84218233492E+01 -0.10002027866E+03  0.11210736256E+03  0.00000000000E+00 0. -1.
         11    1    1    2    0    0 -0.21213766138E+02 -0.41411456760E+01 -0.40302314564E+02  0.45732368411E+02  0.00000000000E+00 0.  1.
</event>
<event>
 7    1  0.4394360E-006  0.1291300E+03  0.7561462E-02  0.1228752E+00
         -2   -1    0    0    0  501 -0.00000000000E+00  0.00000000000E+00  0.31355931253E+02  0.31355931253E+02  0.00000000000E+00 0. -1.
          2   -1    0    0  501    0  0.00000000000E+00 -0.00000000000E+00 -0.59086569027E+03  0.59086569027E+03  0.00000000000E+00 0.  1.
         23    2    1    2    0    0 -0.22944496382E+02  0.67160219909E+02 -0.21183407650E+03  0.25604366155E+03  0.12509090935E+03 0.  0.
          5    1    3    3  502    0  0.51190526462E+02  0.38526919553E+02 -0.97384562922E+02  0.11664484140E+03  0.41800000000E+01 0.  1.
         -5    1    3    3    0  502 -0.74135022844E+02  0.28633300356E+02 -0.11444951358E+03  0.13939882015E+03  0.41800000000E+01 0.  1.
        -11    1    1    2    0    0 -0.33215227969E+02 -0.10844715299E+02 -0.91689189348E+02  0.98121183555E+02  0.00000000000E+00 0. -1.
         11    1    1    2    0    0  0.56159724350E+02 -0.56315504611E+02 -0.25598649317E+03  0.26805677642E+03  0.00000000000E+00 0.  1.
</event>
<event>
 7    1  0.4394360E-006  0.1333215E+03  0.7561462E-02  0.1222609E+00
         -3   -1    0    0    0  501 -0.00000000000E+00  0.00000000000E+00  0.18307365691E+02  0.18307365691E+02  0.00000000000E+00 0.  1.
          3   -1    0    0  501    0  0.00000000000E+00 -0.00000000000E+00 -0.13238766906E+04  0.13238766906E+04  0.00000000000E+00 0. -1.
         23    2    1    2    0    0 -0.99303623369E+02  0.45733897774E+02 -0.73058215228E+03  0.74923167906E+03  0.12508008895E+03 0.  0.
          5    1    3    3  502    0 -0.95195360680E+02  0.21729492767E+02 -0.71104819218E+03  0.71773346833E+03  0.41800000000E+01 0. -1.
         -5    1    3    3    0  502 -0.41082626887E+01  0.24004405006E+02 -0.19533960099E+02  0.31498210730E+02  0.41800000000E+01 0. -1.
        -11    1    1    2    0    0  0.10940054643E+03 -0.61482036917E+02 -0.47948871568E+03  0.49563892996E+03  0.00000000000E+00 0. -1.
         11    1    1    2    0    0 -0.10096923063E+02  0.15748139143E+02 -0.95498456974E+02  0.97313447304E+02  0.00000000000E+00 0.  1.
</event>
<event>
 7    1  0.4394360E-006  0.1871766E+03  0.7561462E-02  0.1161033E+00
          1   -1    0    0  501    0  0.00000000000E+00  0.00000000000E+00  0.30953062183E+03  0.30953062183E+03  0.00000000000E+00 0. -1.
         -1   -1    0    0    0  501 -0.00000000000E+00 -0.00000000000E+00 -0.15600381731E+03  0.15600381731E+03  0.00000000000E+00 0.  1.
         23    2    1    2    0    0 -0.97976265812E+01  0.16128046710E+03 -0.28002686797E+02  0.20625080828E+03  0.12509141814E+03 0.  0.
          5    1    3    3  502    0 -0.56671041879E+02  0.91649802292E+02  0.19689805150E+02  0.10961958801E+03  0.41800000000E+01 0. -1.
         -5    1    3    3    0  502  0.46873415298E+02  0.69630664809E+02 -0.47692491948E+02  0.96631220274E+02  0.41800000000E+01 0. -1.
        -11    1    1    2    0    0 -0.26616877902E+02 -0.12689894301E+02  0.14772467616E+02  0.32980561034E+02  0.00000000000E+00 0.  1.
         11    1    1    2    0    0  0.36414504483E+02 -0.14859057280E+03  0.16675702370E+03  0.22630306983E+03  0.00000000000E+00 0. -1.
</event>
<event>
 7    1  0.4394360E-006  0.8179916E+02  0.7561462E-02  0.1324022E+00
         -1   -1    0    0    0  501 -0.00000000000E+00  0.00000000000E+00  0.83012340994E+02  0.83012340994E+02  0.00000000000E+00 0.  1.
          1   -1    0    0  501    0  0.00000000000E+00 -0.00000000000E+00 -0.25056935933E+03  0.25056935933E+03  0.00000000000E+00 0. -1.
         23    2    1    2    0    0  0.52958987502E+02  0.18875136859E+02  0.41600399513E+01  0.13721473423E+03  0.12509856997E+03 0.  0.
          5    1    3    3  502    0  0.28119552072E+02  0.37121830485E+02 -0.53896428413E+02  0.71351502458E+02  0.41800000000E+01 0.  1.
         -5    1    3    3    0  502  0.24839435431E+02 -0.18246693626E+02  0.58056468365E+02  0.65863231774E+02  0.41800000000E+01 0.  1.
        -11    1    1    2    0    0  0.16568637350E-02  0.20025787884E+02 -0.86326548217E+02  0.88618875587E+02  0.00000000000E+00 0. -1.
         11    1    1    2    0    0 -0.52960644366E+02 -0.38900924743E+02 -0.85390510069E+02  0.10774809050E+03  0.00000000000E+00 0.  1.
</event>
<event>
 7    1  0.4394360E-006  0.8610345E+02  0.7561462E-02  0.1312572E+00
          1   -1    0    0  501    0  0.00000000000E+00  0.00000000000E+00  0.43209206028E+03  0.43209206028E+03  0.00000000000E+00 0. -1.
         -1   -1    0    0    0  501 -0.00000000000E+00 -0.00000000000E+00 -0.43397783958E+02  0.43397783958E+02  0.00000000000E+00 0.  1.
         23    2    1    2    0    0 -0.20344206635E+02 -0.25710292748E+02  0.80377445648E+02  0.15225303432E+03  0.12508216018E+03 0.  0.
          5    1    3    3  502    0 -0.84065205316E+00  0.23536486260E+02  0.94332675382E+02  0.97318029810E+02  0.41800000000E+01 0.  1.
         -5    1    3    3    0  502 -0.19503554582E+02 -0.49246779008E+02 -0.13955229734E+02  0.54935004514E+02  0.41800000000E+01 0.  1.
        -11    1    1    2    0    0 -0.33487162492E+02  0.24174253958E+02  0.10292945259E+03  0.11090652288E+03  0.00000000000E+00 0.  1.
         11    1    1    2    0    0  0.53831369127E+02  0.15360387904E+01  0.20538737808E+03  0.21233028703E+03  0.00000000000E+00 0. -1.
</event>
<event>
 7    1  0.4394360E-006  0.7773460E+02  0.7561462E-02  0.1335606E+00
         -1   -1    0    0    0  501 -0.00000000000E+00  0.00000000000E+00  0.98183884885E+02  0.98183884885E+02  0.00000000000E+00 0.  1.
          1   -1    0    0  501    0  0.00000000000E+00 -0.00000000000E+00 -0.15861816202E+03  0.15861816202E+03  0.00000000000E+00 0. -1.
         23    2    1    2    0    0 -0.37407100305E+02  0.30604607570E+02  0.52676739504E+01  0.13420490258E+03  0.12508906559E+03 0.  0.
          5    1    3    3  502    0 -0.14819159063E+02  0.23215798301E+02  0.64493003753E+02  0.70252407070E+02  0.41800000000E+01 0. -1.
         -5    1    3    3    0  502 -0.22587941242E+02  0.73888092690E+01 -0.59225329803E+02  0.63952495512E+02  0.41800000000E+01 0. -1.
        -11    1    1    2    0    0 -0.23253784180E+02  0.14927694262E+02 -0.18724394358E+02  0.33379297157E+02  0.00000000000E+00 0. -1.
         11    1    1    2    0    0  0.60660884484E+02 -0.45532301832E+02 -0.46977556727E+02  0.89217847164E+02  0.00000000000E+00 0.  1.
</event>
<event>
 7    1  0.4394360E-006  0.9236967E+02  0.7561462E-02  0.1297213E+00
          4   -1    0    0  501    0  0.00000000000E+00  0.00000000000E+00  0.22397516924E+03  0.22397516924E+03  0.00000000000E+00 0. -1.
         -4   -1    0    0    0  501 -0.00000000000E+00 -0.00000000000E+00 -0.92453331765E+02  0.92453331765E+02  0.00000000000E+00 0.  1.
         23    2    1    2    0    0  0.32769991990E+02  0.51110314223E+02 -0.71752156382E+01  0.13922900638E+03  0.12508835238E+03 0.  0.
          5    1    3    3  502    0 -0.38367623887E+02  0.76250801711E+01  0.28362882531E+02  0.48498885717E+02  0.41800000000E+01 0.  1.
         -5    1    3    3    0  502  0.71137615877E+02  0.43485234052E+02 -0.35538098169E+02  0.90730120658E+02  0.41800000000E+01 0.  1.
        -11    1    1    2    0    0 -0.11746397506E+02 -0.88157735552E+01 -0.12194007157E+02  0.19088989714E+02  0.00000000000E+00 0.  1.
         11    1    1    2    0    0 -0.21023594484E+02 -0.42294540667E+02  0.15089106027E+03  0.15811050492E+03  0.00000000000E+00 0. -1.
</event>
<event>
 7    1  0.4394360E-006  0.1141734E+03  0.7561462E-02  0.1253031E+00
         -1   -1    0    0    0  501 -0.00000000000E+00  0.00000000000E+00  0.28755806321E+02  0.28755806321E+02  0.00000000000E+00 0.  1.
          1   -1    0    0  501    0  0.00000000000E+00 -0.00000000000E+00 -0.64630006227E+03  0.64630006227E+03  0.00000000000E+00 0. -1.
         23    2    1    2    0    0  0.37987722663E+02 -0.69700884181E+02 -0.28088752324E+03  0.31756618008E+03  0.12509675333E+03 0.  0.
          5    1    3    3  502    0 -0.21479351934E+02 -0.26838269123E+01  0.68079281793E+00  0.22056775949E+02  0.41800000000E+01 0. -1.
         -5    1    3    3    0  502  0.59467074598E+02 -0.67017057269E+02 -0.28156831605E+03  0.29550940413E+03  0.41800000000E+01 0. -1.
        -11    1    1    2    0    0 -0.27240961318E+02 -0.15087052839E+02 -0.13357210398E+03  0.13715391390E+03  0.00000000000E+00 0. -1.
         11    1    1    2    0    0 -0.10746761346E+02  0.84787937020E+02 -0.20308462873E+03  0.22033577461E+03  0.00000000000E+00 0.  1.
</event>
<event>
 7    1  0.4394360E-006  0.1073230E+03  0.7561462E-02  0.1265609E+00
         -3   -1    0    0    0  501 -0.00000000000E+00  0.00000000000E+00  0.30426169984E+02  0.30426169984E+02  0.00000000000E+00 0.  1.
          3   -1    0    0  501    0  0.00000000000E+00 -0.00000000000E+00 -0.56236122717E+03  0.56236122717E+03  0.00000000000E+00 0. -1.
         23    2    1    2    0    0 -0.39204181837E+02 -0.60652093796E+02 -0.22319425772E+03  0.26156721578E+03  0.11569825987E+03 0.  0.
          5    1    3    3  502    0 -0.19660885498E+01  0.13069345244E+02 -0.15145737212E+03  0.15209037201E+03  0.41800000000E+01 0. -1.
         -5    1    3    3    0  502 -0.37238093287E+02 -0.73721439040E+02 -0.71736885596E+02  0.10947684377E+03  0.41800000000E+01 0.  1.
        -11    1    1    2    0    0 -0.17123138643E+02  0.59321258523E+02 -0.13222734167E+03  0.14593246203E+03  0.00000000000E+00 0.  1.
         11    1    1    2    0    0  0.56327320480E+02  0.13308352733E+01 -0.17651345780E+03  0.18528771935E+03  0.00000000000E+00 0. -1.
</event>
<event>
 7    1  0.4394360E-006  0.1300405E+03  0.7561462E-02  0.1227396E+00
          2   -1    0    0  501    0  0.00000000000E+00  0.00000000000E+00  0.26472319587E+03  0.26472319587E+03  0.00000000000E+00 0. -1.
         -2   -1    0    0    0  501 -0.00000000000E+00 -0.00000000000E+00 -0.83551740819E+02  0.83551740819E+02  0.00000000000E+00 0.  1.
         23    2    1    2    0    0 -0.78568190741E+02  0.17442136150E+02  0.25194146824E+02  0.15088085697E+03  0.12511234653E+03 0.  0.
          5    1    3    3  502    0 -0.83752827694E+02 -0.35355713584E+02 -0.21904227658E+01  0.91032043708E+02  0.41800000000E+01 0.  1.
         -5    1    3    3    0  502  0.51846369529E+01  0.52797849734E+02  0.27384569589E+02  0.59848813259E+02  0.41800000000E+01 0.  1.
        -11    1    1    2    0    0  0.10016096036E+02 -0.41895462146E+02  0.87182855902E+02  0.97244034735E+02  0.00000000000E+00 0. -1.
         11    1    1    2    0    0  0.68552094705E+02  0.24453325996E+02  0.68794452330E+02  0.10015004499E+03  0.00000000000E+00 0.  1.
</event>
<event>
 7    1  0.4394360E-006  0.1016330E+03  0.7561462E-02  0.1276899E+00
          4   -1    0    0  501    0  0.00000000000E+00  0.00000000000E+00  0.24582064402E+03  0.24582064402E+03  0.00000000000E+00 0.  1.
         -4   -1    0    0    0  501 -0.00000000000E+00 -0.00000000000E+00 -0.63380790599E+02  0.63380790599E+02  0.00000000000E+00 0. -1.
         23    2    1    2    0    0  0.31724073155E+01 -0.57715595508E+02  0.62707386065E+02  0.15139857445E+03  0.12509259749E+03 0.  0.
          5    1    3    3  502    0 -0.10073326770E+02 -0.96098356496E+02  0.39734867267E+02  0.10455954337E+03  0.41800000000E+01 0.  1.
         -5    1    3    3    0  502  0.13245734085E+02  0.38382760989E+02  0.22972518798E+02  0.46839031080E+02  0.41800000000E+01 0.  1.
        -11    1    1    2    0    0 -0.17111013238E+02  0.36983494860E+02  0.12568109572E+03  0.13212230503E+03  0.00000000000E+00 0.  1.
         11    1    1    2    0    0  0.13938605923E+02  0.20732100647E+02 -0.59486283662E+01  0.25680555130E+02  0.00000000000E+00 0. -1.
</event>
<event>
 7    1  0.4394360E-006  0.1308995E+03  0.7561462E-02  0.1226127E+00
          1   -1    0    0  501    0  0.00000000000E+00  0.00000000000E+00  0.58001800937E+03  0.58001800937E+03  0.00000000000E+00 0. -1.
         -1   -1    0    0    0  501 -0.00000000000E+00 -0.00000000000E+00 -0.43839833334E+02  0.43839833334E+02  0.00000000000E+00 0.  1.
         23    2    1    2    0    0  0.61047397805E+02 -0.36543648608E+02  0.11020928439E+03  0.18126141893E+03  0.12508953830E+03 0.  0.
          5    1    3    3  502    0  0.70392408891E+02 -0.75201528916E+02  0.70410616206E+02  0.12484185378E+03  0.41800000000E+01 0. -1.
         -5    1    3    3    0  502 -0.93450110863E+01  0.38657880307E+02  0.39798668183E+02  0.56419565146E+02  0.41800000000E+01 0. -1.
        -11    1    1    2    0    0 -0.51425805438E+02  0.68322577273E+02  0.33550907919E+03  0.34623536828E+03  0.00000000000E+00 0. -1.
         11    1    1    2    0    0 -0.96215923669E+01 -0.31778928665E+02  0.90459812460E+02  0.96361055499E+02  0.00000000000E+00 0.  1.
</event>
<event>
 7    1  0.4394360E-006  0.1068109E+03  0.7561462E-02  0.1266592E+00
          2   -1    0    0  501    0  0.00000000000E+00  0.00000000000E+00  0.88623578498E+03  0.88623578498E+03  0.00000000000E+00 0. -1.
         -2   -1    0    0    0  501 -0.00000000000E+00 -0.00000000000E+00 -0.20331627029E+02  0.20331627029E+02  0.00000000000E+00 0.  1.
         23    2    1    2    0    0  0.69135917358E+02 -0.33100509298E+02  0.44624547259E+03  0.46974237767E+03  0.12508981087E+03 0.  0.
          5    1    3    3  502    0 -0.17586755066E+02 -0.20117707224E+02  0.28386227802E+03  0.28514782373E+03  0.41800000000E+01 0.  1.
         -5    1    3    3    0  502  0.86722672425E+02 -0.12982802074E+02  0.16238319457E+03  0.18459455393E+03  0.41800000000E+01 0.  1.
        -11    1    1    2    0    0 -0.77173651349E+02  0.14499724103E+02  0.40304144343E+03  0.41061955578E+03  0.00000000000E+00 0. -1.
         11    1    1    2    0    0  0.80377339903E+01  0.18600785195E+02  0.16617241920E+02  0.26205478560E+02  0.00000000000E+00 0.  1.
</event>
<event>
 7    1  0.4394360E-006  0.1724060E+03  0.7561462E-02  0.1175362E+00
         -2   -1    0    0    0  501 -0.00000000000E+00  0.00000000000E+00  0.79617827178E+02  0.79617827178E+02  0.00000000000E+00 0.  1.
          2   -1    0    0  501    0  0.00000000000E+00 -0.00000000000E+00 -0.49972445979E+03  0.49972445979E+03  0.00000000000E+00 0. -1.
         23    2    1    2    0    0  0.94838503005E+02 -0.12875146192E+03 -0.15002320779E+03  0.25244036441E+03  0.12509154292E+03 0.  0.
          5    1    3    3  502    0 -0.42216365216E+01 -0.62109622641E+02 -0.10997779522E+03  0.12644372377E+03  0.41800000000E+01 0.  1.
         -5    1    3    3    0  502  0.99060139527E+02 -0.66641839281E+02 -0.40045412575E+02  0.12599664065E+03  0.41800000000E+01 0.  1.
        -11    1    1    2    0    0 -0.41121673801E+02  0.31295869129E+02 -0.16844000153E+03  0.17618869883E+03  0.00000000000E+00 0. -1.
         11    1    1    2    0    0 -0.53716829204E+02  0.97455592793E+02 -0.10164342329E+03  0.15071322372E+03  0.00000000000E+00 0.  1.
</event>
<event>
 7    1  0.4394360E-006  0.1070078E+03  0.7561462E-02  0.1266213E+00
         -1   -1    0    0    0  501 -0.00000000000E+00  0.00000000000E+00  0.40388719765E+02  0.40388719765E+02  0.00000000000E+00 0.  1.
          1   -1    0    0  501    0  0.00000000000E+00 -0.00000000000E+00 -0.37581533155E+03  0.37581533155E+03  0.00000000000E+00 0. -1.
         23    2    1    2    0    0  0.38798153352E+02  0.43075090821E+02 -0.17373239681E+03  0.22179111364E+03  0.12509033631E+03 0.  0.
          5    1    3    3  502    0  0.61980149042E+02  0.56544491056E+01 -0.16543195713E+03  0.17680134759E+03  0.41800000000E+01 0. -1.
         -5    1    3    3    0  502 -0.23181995689E+02  0.37420641715E+02 -0.83004396776E+01  0.44989766051E+02  0.41800000000E+01 0. -1.
        -11    1    1    2    0    0  0.37518672571E+01  0.26012185933E+02 -0.31741877024E+02  0.41209914850E+02  0.00000000000E+00 0. -1.
         11    1    1    2    0    0 -0.42550020609E+02 -0.69087276753E+02 -0.12995233796E+03  0.15320302283E+03  0.00000000000E+00 0.  1.
</event>
<event>
 7    1  0.4394360E-006  0.8903385E+02  0.7561462E-02  0.1305208E+00
          1   -1    0    0  501    0  0.00000000000E+00  0.00000000000E+00  0.16032673913E+03  0.16032673913E+03  0.00000000000E+00 0. -1.
         -1   -1    0    0    0  501 -0.00000000000E+00 -0.00000000000E+00 -0.10071784572E+03  0.10071784572E+03  0.00000000000E+00 0.  1.
         23    2    1    2    0    0  0.28649123888E+02  0.25623526975E+02 -0.22063626092E+02  0.13268481314E+03  0.12506445781E+03 0.  0.
          5    1    3    3  502    0 -0.25779040387E+02  0.39304697588E+02 -0.50934131238E+02  0.69434690902E+02  0.41800000000E+01 0. -1.
         -5    1    3    3    0  502  0.54428164275E+02 -0.13681170613E+02  0.28870505146E+02  0.63250122237E+02  0.41800000000E+01 0. -1.
        -11    1    1    2    0    0 -0.46240015205E+02 -0.35508327186E+01  0.49852763280E+01  0.46643331777E+02  0.00000000000E+00 0.  1.
         11    1    1    2    0    0  0.17590891317E+02 -0.22072694256E+02  0.76687243172E+02  0.81716439928E+02  0.00000000000E+00 0. -1.
</event>
<event>
 6    1  0.4394360E-006  0.3683841E+02  0.7561462E-02  0.1532856E+00
          2   -1    0    0  501    0  0.00000000000E+00  0.00000000000E+00  0.56904550841E+02  0.56904550841E+02  0.00000000000E+00 0. -1.
         -2   -1    0    0    0  501 -0.00000000000E+00 -0.00000000000E+00 -0.22926990598E+03  0.22926990598E+03  0.00000000000E+00 0.  1.
          5    1    1    2  502    0 -0.21429658615E+02 -0.37383965712E+01  0.17888615463E+02  0.28472457577E+02  0.41800000000E+01 0. -1.
         -5    1    1    2    0  502  0.20958901529E+01 -0.78181450802E+01 -0.18244182955E+03  0.18266912634E+03  0.41800000000E+01 0.  1.
        -11    1    1    2    0    0  0.29976249052E+02  0.66916489130E+01  0.25376851350E+02  0.39841413840E+02  0.00000000000E+00 0. -1.
         11    1    1    2    0    0 -0.10642480589E+02  0.48648927384E+01 -0.33188992403E+02  0.35191459066E+02  0.00000000000E+00 0.  1.
</event>
<event>
 7    1  0.4394360E-006  0.1103181E+03  0.7561462E-02  0.1259982E+00
          1   -1    0    0  501    0  0.00000000000E+00  0.00000000000E+00  0.21218545083E+03  0.21218545083E+03  0.00000000000E+00 0. -1.
         -1   -1    0    0    0  501 -0.00000000000E+00 -0.00000000000E+00 -0.94750386856E+02  0.94750386856E+02  0.00000000000E+00 0.  1.
         23    2    1    2    0    0  0.15055616400E+01  0.78795279539E+02  0.17599151348E+02  0.14889794131E+03  0.12509957635E+03 0.  0.
          5    1    3    3  502    0  0.41684149198E+02  0.60907378444E+02  0.54088260345E+02  0.91598522644E+02  0.41800000000E+01 0. -1.
         -5    1    3    3    0  502 -0.40178587558E+02  0.17887901094E+02 -0.36489108997E+02  0.57299418663E+02  0.41800000000E+01 0. -1.
        -11    1    1    2    0    0  0.27267970280E+02 -0.65275479221E+02  0.10420365669E+03  0.12594773701E+03  0.00000000000E+00 0. -1.
         11    1    1    2    0    0 -0.28773531920E+02 -0.13519800318E+02 -0.43677440679E+01  0.32090159364E+02  0.00000000000E+00 0.  1.
</event>
<event>
 7    1  0.4394360E-006  0.1242180E+03  0.7561462E-02  0.1236297E+00
         -1   -1    0    0    0  501 -0.00000000000E+00  0.00000000000E+00  0.70189577210E+02  0.70189577210E+02  0.00000000000E+00 0.  1.
          1   -1    0    0  501    0  0.00000000000E+00 -0.00000000000E+00 -0.24821740109E+03  0.24821740109E+03  0.00000000000E+00 0. -1.
         23    2    1    2    0    0  0.68913874492E+02  0.20294171029E+02 -0.64908909528E+02  0.15818490402E+03  0.12509325261E+03 0.  0.
          5    1    3    3  502    0  0.10177207532E+03  0.34242785107E+02 -0.55914171026E+02  0.12113624795E+03  0.41800000000E+01 0.  1.
         -5    1    3    3    0  502 -0.32858200824E+02 -0.13948614078E+02 -0.89947385022E+01  0.37048656073E+02  0.41800000000E+01 0.  1.
        -11    1    1    2    0    0 -0.40914706639E+02 -0.49738496093E+02 -0.97162636149E+02  0.11656976056E+03  0.00000000000E+00 0. -1.
         11    1    1    2    0    0 -0.27999167853E+02  0.29444325064E+02 -0.15956278201E+02  0.43652313718E+02  0.00000000000E+00 0.  1.
</event>
<event>
 7    1  0.4394360E-006  0.2024274E+03  0.7561462E-02  0.1147707E+00
          1   -1    0    0  501    0  0.00000000000E+00  0.00000000000E+00  0.49954679977E+03  0.49954679977E+03  0.00000000000E+00 0. -1.
         -1   -1    0    0    0  501 -0.00000000000E+00 -0.00000000000E+00 -0.94588438739E+02  0.94588438739E+02  0.00000000000E+00 0.  1.
         23    2    1    2    0    0 -0.16205157064E+03  0.90281497640E+02  0.16797476057E+03  0.27977503304E+03  0.12508832303E+03 0.  0.
          5    1    3    3  502    0 -0.58495749878E+02 -0.89404206046E+01  0.11009710006E+03  0.12506209544E+03  0.41800000000E+01 0.  1.
         -5    1    3    3    0  502 -0.10355582076E+03  0.99221918245E+02  0.57877660515E+02  0.15471293760E+03  0.41800000000E+01 0.  1.
        -11    1    1    2    0    0  0.18232777206E+02  0.15168601046E+02  0.10101454869E+02  0.25779061519E+02  0.00000000000E+00 0.  1.
         11    1    1    2    0    0  0.14381879343E+03 -0.10545009869E+03  0.22688214559E+03  0.28858114395E+03  0.00000000000E+00 0. -1.
</event>
<event>
 7    1  0.4394360E-006  0.7083617E+02  0.7561462E-02  0.1357272E+00
          1   -1    0    0  501    0  0.00000000000E+00  0.00000000000E+00  0.16860523769E+02  0.16860523769E+02  0.00000000000E+00 0. -1.
         -1   -1    0    0    0  501 -0.00000000000E+00 -0.00000000000E+00 -0.10877843753E+04  0.10877843753E+04  0.00000000000E+00 0.  1.
         23    2    1    2    0    0 -0.16021627779E+02 -0.48542073868E+02 -0.84968755030E+03  0.86036501860E+03  0.12508399820E+03 0.  0.
          5    1    3    3  502    0 -0.11410401173E+02 -0.19807160086E+02 -0.81308204609E+03  0.81341404396E+03  0.41800000000E+01 0.  1.
         -5    1    3    3    0  502 -0.46112266061E+01 -0.28734913782E+02 -0.36605504212E+02  0.46950974639E+02  0.41800000000E+01 0.  1.
        -11    1    1    2    0    0 -0.21692717860E+02  0.46444491638E+02 -0.18487409099E+03  0.19184914472E+03  0.00000000000E+00 0.  1.
         11    1    1    2    0    0  0.37714345639E+02  0.20975822305E+01 -0.36362210274E+02  0.52430735778E+02  0.00000000000E+00 0. -1.
</event>
<event>
 7    1  0.4394360E-006  0.1061821E+03  0.7561462E-02  0.1267808E+00
         -3   -1    0    0    0  501 -0.00000000000E+00  0.00000000000E+00  0.11334961712E+04  0.11334961712E+04  0.00000000000E+00 0.  1.
          3   -1    0    0  501    0  0.00000000000E+00 -0.00000000000E+00 -0.18698512981E+02  0.18698512981E+02  0.00000000000E+00 0. -1.
         23    2    1    2    0    0  0.10310028587E+02 -0.55608869224E+01  0.98598645598E+03  0.99395848447E+03  0.12508779844E+03 0.  0.
          5    1    3    3  502    0  0.50106408747E+02 -0.45652419634E+02  0.60151738868E+03  0.60533910901E+03  0.41800000000E+01 0.  1.
         -5    1    3    3    0  502 -0.39796380160E+02  0.40091532712E+02  0.38446906730E+03  0.38861937546E+03  0.41800000000E+01 0.  1.
        -11    1    1    2    0    0 -0.29281831639E+02 -0.33432474025E+02  0.88487752410E+02  0.99021403293E+02  0.00000000000E+00 0.  1.
         11    1    1    2    0    0  0.18971803052E+02  0.38993360947E+02  0.40323449834E+02  0.59214796424E+02  0.00000000000E+00 0. -1.
</event>
<event>
 7    1  0.4394360E-006  0.1085013E+03  0.7561462E-02  0.1263371E+00
         -1   -1    0    0    0  501 -0.00000000000E+00  0.00000000000E+00  0.17641766549E+03  0.17641766549E+03  0.00000000000E+00 0.  1.
          1   -1    0    0  501    0  0.00000000000E+00 -0.00000000000E+00 -0.92744632630E+02  0.92744632630E+02  0.00000000000E+00 0. -1.
         23    2    1    2    0    0 -0.66883799408E+02  0.45205994247E+01  0.33865743280E+02  0.14590495688E+03  0.12508992538E+03 0.  0.
          5    1    3    3  502    0  0.13925444974E+02 -0.44771059220E+02  0.86808831462E+01  0.47866438071E+02  0.41800000000E+01 0.  1.
         -5    1    3    3    0  502 -0.80809244382E+02  0.49291658644E+02  0.25184860133E+02  0.98038518805E+02  0.41800000000E+01 0.  1.
        -11    1    1    2    0    0  0.29967722941E+02 -0.19048726671E+02  0.70185967543E+02  0.78657411895E+02  0.00000000000E+00 0.  1.
         11    1    1    2    0    0  0.36916076467E+02  0.14528127246E+02 -0.20378677958E+02  0.44599929353E+02  0.00000000000E+00 0. -1.
</event>
<event>
 7    1  0.4394360E-006  0.7846466E+02  0.7561462E-02  0.1333466E+00
         -1   -1    0    0    0  501 -0.00000000000E+00  0.00000000000E+00  0.24096667682E+02  0.24096667682E+02  0.00000000000E+00 0.  1.
          1   -1    0    0  501    0  0.00000000000E+00 -0.00000000000E+00 -0.49237859603E+03  0.49237859603E+03  0.00000000000E+00 0. -1.
         23    2    1    2    0    0 -0.43720754203E+01  0.14915518874E+02 -0.29419251658E+03  0.32005864755E+03  0.12508682309E+03 0.  0.
          5    1    3    3  502    0  0.29320624769E+02  0.13790325775E+02 -0.10465824199E+02  0.34305655481E+02  0.41800000000E+01 0.  1.
         -5    1    3    3    0  502 -0.33692700189E+02  0.11251930993E+01 -0.28372669238E+03  0.28575299207E+03  0.41800000000E+01 0.  1.
        -11    1    1    2    0    0 -0.41925606788E+02 -0.13220863195E+02 -0.96628284163E+02  0.10615824522E+03  0.00000000000E+00 0.  1.
         11    1    1    2    0    0  0.46297682208E+02 -0.16946556792E+01 -0.77461127609E+02  0.90258370948E+02  0.00000000000E+00 0. -1.
</event>
<event>
 7    1  0.4394360E-006  0.1253431E+03  0.7561462E-02  0.1234534E+00
          2   -1    0    0  501    0  0.00000000000E+00  0.00000000000E+00  0.84165469508E+03  0.84165469508E+03  0.00000000000E+00 0. -1.
         -2   -1    0    0    0  501 -0.00000000000E+00 -0.00000000000E+00 -0.19048296701E+02  0.19048296701E+02  0.00000000000E+00 0.  1.
         23    2    1    2    0    0  0.52409846746E+02  0.40020356079E+02  0.48823325054E+03  0.50829836188E+03  0.12508835607E+03 0.  0.
          5    1    3    3  502    0  0.76244023357E+02 -0.17200853629E+02  0.24172197223E+03  0.25407873725E+03  0.41800000000E+01 0.  1.
         -5    1    3    3    0  502 -0.23834176611E+02  0.57221209708E+02  0.24651127831E+03  0.25421962464E+03  0.41800000000E+01 0.  1.
        -11    1    1    2    0    0  0.24140494004E+02 -0.19504104898E+02  0.11658010031E+03  0.12064034710E+03  0.00000000000E+00 0.  1.
         11    1    1    2    0    0 -0.76550340750E+02 -0.20516251181E+02  0.21779304753E+03  0.23176428280E+03  0.00000000000E+00 0. -1.
</event>
<event>
 7    1  0.4394360E-006  0.1073703E+03  0.7561462E-02  0.1265519E+00
          1   -1    0    0  501    0  0.00000000000E+00  0.00000000000E+00  0.51132086732E+02  0.51132086732E+02  0.00000000000E+00 0. -1.
         -1   -1    0    0    0  501 -0.00000000000E+00 -0.00000000000E+00 -0.33342962108E+03  0.33342962108E+03  0.00000000000E+00 0.  1.
         23    2    1    2    0    0  0.30846543166E+02 -0.39979355029E+02 -0.23047726318E+03  0.26704688246E+03  0.12507761805E+03 0.  0.
          5    1    3    3  502    0  0.63201877345E+02  0.15990302754E+02 -0.80473612375E+02  0.10365154013E+03  0.41800000000E+01 0.  1.
         -5    1    3    3    0  502 -0.32355334179E+02 -0.55969657783E+02 -0.15000365080E+03  0.16339534233E+03  0.41800000000E+01 0.  1.
        -11    1    1    2    0    0  0.15505777234E+02 -0.83950148123E+01  0.14808994804E+02  0.23026326855E+02  0.00000000000E+00 0. -1.
         11    1    1    2    0    0 -0.46352320400E+02  0.48374369841E+02 -0.66629265976E+02  0.94488498499E+02  0.00000000000E+00 0.  1.
</event>
<event>
 7    1  0.4394360E-006  0.9747718E+02  0.7561462E-02  0.1285692E+00
         -2   -1    0    0    0  501 -0.00000000000E+00  0.00000000000E+00  0.15195195398E+03  0.15195195398E+03  0.00000000000E+00 0. -1.
          2   -1    0    0  501    0  0.00000000000E+00 -0.00000000000E+00 -0.14271887921E+03  0.14271887921E+03  0.00000000000E+00 0.  1.
         23    2    1    2    0    0 -0.27496926893E+02 -0.13099256155E+01  0.10151947327E+03  0.16343687906E+03  0.12509041966E+03 0.  0.
          5    1    3    3  502    0 -0.61930316415E+02 -0.20153870169E+02  0.10519242854E+03  0.12379201103E+03  0.41800000000E+01 0.  1.
         -5    1    3    3    0  502  0.34433389522E+02  0.18843944554E+02 -0.36729552706E+01  0.39644868025E+02  0.41800000000E+01 0.  1.
        -11    1    1    2    0    0  0.43113385353E+02 -0.31825706692E+02 -0.70706144642E+02  0.88718647945E+02  0.00000000000E+00 0.  1.
         11    1    1    2    0    0 -0.15616458460E+02  0.33135632308E+02 -0.21580253858E+02  0.42515306183E+02  0.00000000000E+00 0. -1.
</event>
<event>
 7    1  0.4394360E-006  0.6919365E+02  0.7561462E-02  0.1362857E+00
          1   -1    0    0  501    0  0.00000000000E+00  0.00000000000E+00  0.45333121762E+03  0.45333121762E+03  0.00000000000E+00 0. -1.
         -1   -1    0    0    0  501 -0.00000000000E+00 -0.00000000000E+00 -0.27293951935E+02  0.27293951935E+02  0.00000000000E+00 0.  1.
         23    2    1    2    0    0 -0.17553458058E+02  0.18387124165E+02  0.23095969635E+03  0.26388502606E+03  0.12508683150E+03 0.  0.
          5    1    3    3  502    0 -0.36692397130E+02  0.20432472529E+02  0.23893584294E+03  0.24263476128E+03  0.41800000000E+01 0.  1.
         -5    1    3    3    0  502  0.19138939072E+02 -0.20453483634E+01 -0.79761465883E+01  0.21250264778E+02  0.41800000000E+01 0.  1.
        -11    1    1    2    0    0  0.91494637748E+01 -0.46371928690E+02  0.50218419623E+02  0.68963455012E+02  0.00000000000E+00 0.  1.
         11    1    1    2    0    0  0.84039942833E+01  0.27984804525E+02  0.14485914971E+03  0.14777668849E+03  0.00000000000E+00 0. -1.
</event>
<event>
 7    1  0.4394360E-006  0.1152344E+03  0.7561462E-02  0.1251173E+00
         -2   -1    0    0    0  501 -0.00000000000E+00  0.00000000000E+00  0.13854920609E+03  0.13854920609E+03  0.00000000000E+00 0.  1.
          2   -1    0    0  501    0  0.00000000000E+00 -0.00000000000E+00 -0.18470427160E+03  0.18470427160E+03  0.00000000000E+00 0. -1.
         23    2    1    2    0    0  0.19036985871E+02  0.78536146736E+02  0.64082333966E+02  0.16212792394E+03  0.12509430451E+03 0.  0.
          5    1    3    3  502    0  0.21153276668E+02  0.11249757502E+03  0.51767955272E+02  0.12570027483E+03  0.41800000000E+01 0.  1.
         -5    1    3    3    0  502 -0.21162907975E+01 -0.33961428280E+02  0.12314378694E+02  0.36427649117E+02  0.41800000000E+01 0.  1.
        -11    1    1    2    0    0 -0.29666600561E+01 -0.36764341817E+02  0.52623514350E+01  0.37257351540E+02  0.00000000000E+00 0.  1.
         11    1    1    2    0    0 -0.16070325814E+02 -0.41771804919E+02 -0.11549975091E+03  0.12386820221E+03  0.00000000000E+00 0. -1.
</event>
<event>
 7    1  0.4394360E-006  0.2493517E+03  0.7561462E-02  0.1113715E+00
          1   -1    0    0  501    0  0.00000000000E+00  0.00000000000E+00  0.25089129506E+03  0.25089129506E+03  0.00000000000E+00 0. -1.
         -1   -1    0    0    0  501 -0.00000000000E+00 -0.00000000000E+00 -0.26648307588E+03  0.26648307588E+03  0.00000000000E+00 0.  1.
         23    2    1    2    0    0 -0.13580015770E+03 -0.18958846622E+03 -0.25758195538E+02  0.26588518435E+03  0.12508388091E+03 0.  0.
          5    1    3    3  502    0 -0.14724328236E+03 -0.18285503211E+03  0.20194564970E+01  0.23481502842E+03  0.41800000000E+01 0. -1.
         -5    1    3    3    0  502  0.11443124660E+02 -0.67334341120E+01 -0.27777652035E+02  0.31070155930E+02  0.41800000000E+01 0. -1.
        -11    1    1    2    0    0 -0.10027766961E+02  0.39333811332E+02  0.11172319619E+02  0.42101372303E+02  0.00000000000E+00 0.  1.
         11    1    1    2    0    0  0.14582792466E+03  0.15025465489E+03 -0.10059049038E+01  0.20938781428E+03  0.00000000000E+00 0. -1.
</event>
<event>
 7    1  0.4394360E-006  0.1591139E+03  0.7561462E-02  0.1189701E+00
          3   -1    0    0  501    0  0.00000000000E+00  0.00000000000E+00  0.51928619453E+02  0.51928619453E+02  0.00000000000E+00 0. -1.
         -3   -1    0    0    0  501 -0.00000000000E+00 -0.00000000000E+00 -0.49100266718E+03  0.49100266718E+03  0.00000000000E+00 0.  1.
         23    2    1    2    0    0 -0.65944399497E+02  0.96989940599E+02 -0.23558820054E+03  0.29138133640E+03  0.12508225520E+03 0.  0.
          5    1    3    3  502    0 -0.80969182521E+02  0.85056642407E+01 -0.11699582519E+03  0.14259681047E+03  0.41800000000E+01 0.  1.
         -5    1    3    3    0  502  0.15024783024E+02  0.88484276358E+02 -0.11859237535E+03  0.14878452594E+03  0.41800000000E+01 0.  1.
        -11    1    1    2    0    0  0.71003592496E+02 -0.25887704888E+02 -0.89861087306E+02  0.11741677233E+03  0.00000000000E+00 0.  1.
         11    1    1    2    0    0 -0.50591929987E+01 -0.71102235711E+02 -0.11362475988E+03  0.13413317790E+03  0.00000000000E+00 0. -1.
</event>
<event>
 7    1  0.4394360E-006  0.1011641E+03  0.7561462E-02  0.1277867E+00
          1   -1    0    0  501    0  0.00000000000E+00  0.00000000000E+00  0.39496266978E+02  0.39496266978E+02  0.00000000000E+00 0. -1.
         -1   -1    0    0    0  501 -0.00000000000E+00 -0.00000000000E+00 -0.52500006660E+03  0.52500006660E+03  0.00000000000E+00 0.  1.
         23    2    1    2    0    0 -0.41431779445E+02  0.19196962700E+02 -0.42378080555E+03  0.44421002833E+03  0.12508901788E+03 0.  0.
          5    1    3    3  502    0  0.34458731849E+01  0.64673939504E+02 -0.26879583648E+03  0.27651992081E+03  0.41800000000E+01 0.  1.
         -5    1    3    3    0  502 -0.44877652630E+02 -0.45476976803E+02 -0.15498496906E+03  0.16769010752E+03  0.41800000000E+01 0.  1.
        -11    1    1    2    0    0 -0.10712788721E+02 -0.18349608750E+02 -0.64650628938E+02  0.68052742822E+02  0.00000000000E+00 0.  1.
         11    1    1    2    0    0  0.52144568167E+02 -0.84735395005E+00  0.29276348632E+01  0.52233562428E+02  0.00000000000E+00 0. -1.
</event>
<event>
 7    1  0.4394360E-006  0.1242821E+03  0.7561462E-02  0.1236196E+00
          2   -1    0    0  501    0  0.00000000000E+00  0.00000000000E+00  0.29215352175E+03  0.29215352175E+03  0.00000000000E+00 0. -1.
         -2   -1    0    0    0  501 -0.00000000000E+00 -0.00000000000E+00 -0.92212402230E+02  0.92212402230E+02  0.00000000000E+00 0.  1.
         23    2    1    2    0    0  0.59223213708E+02  0.84561022611E+02  0.28579339108E+02  0.16468715038E+03  0.12508846186E+03 0.  0.
          5    1    3    3  502    0  0.14826096519E+02  0.57823486467E+02  0.74333772687E+02  0.95427202029E+02  0.41800000000E+01 0. -1.
         -5    1    3    3    0  502  0.44397117188E+02  0.26737536143E+02 -0.45754433579E+02  0.69259948353E+02  0.41800000000E+01 0. -1.
        -11    1    1    2    0    0  0.21827692281E+02 -0.36417275811E+02  0.43111472313E+02  0.60508389276E+02  0.00000000000E+00 0.  1.
         11    1    1    2    0    0 -0.81050905988E+02 -0.48143746800E+02  0.12825030810E+03  0.15917038432E+03  0.00000000000E+00 0. -1.
</event>
<event>
 7    1  0.4394360E-006  0.1247175E+03  0.7561462E-02  0.1235512E+00
         -2   -1    0    0    0  501 -0.00000000000E+00  0.00000000000E+00  0.37436484070E+03  0.37436484070E+03  0.00000000000E+00 0.  1.
          2   -1    0    0  501    0  0.00000000000E+00 -0.00000000000E+00 -0.44940279237E+02  0.44940279237E+02  0.00000000000E+00 0. -1.
         23    2    1    2    0    0 -0.55522418150E+02  0.37856247154E+02  0.22248175572E+03  0.26393490239E+03  0.12509063397E+03 0.  0.
          5    1    3    3  502    0 -0.95098108942E+02  0.27495166679E+02  0.13697968188E+03  0.16905780124E+03  0.41800000000E+01 0.  1.
         -5    1    3    3    0  502  0.39575690791E+02  0.10361080475E+02  0.85502073846E+02  0.94877101147E+02  0.41800000000E+01 0.  1.
        -11    1    1    2    0    0  0.56595979992E+02 -0.62641888092E+02  0.97130689878E+02  0.12869142167E+03  0.00000000000E+00 0.  1.
         11    1    1    2    0    0 -0.10735618419E+01  0.24785640938E+02  0.98121158647E+01  0.26678795878E+02  0.00000000000E+00 0. -1.
</event>
<event>
 7    1  0.4394360E-006  0.7605774E+02  0.7561462E-02  0.1340626E+00
          4   -1    0    0  501    0  0.00000000000E+00  0.00000000000E+00  0.32353645296E+02  0.32353645296E+02  0.00000000000E+00 0. -1.
         -4   -1    0    0    0  501 -0.00000000000E+00 -0.00000000000E+00 -0.41753149144E+03  0.41753149144E+03  0.00000000000E+00 0.  1.
         23    2    1    2    0    0 -0.72280641997E+01 -0.41238040275E+02 -0.21992357369E+03  0.25644968456E+03  0.12508893464E+03 0.  0.
          5    1    3    3  502    0  0.98240915725E+01  0.69952254968E+01 -0.20151558671E+03  0.20191941473E+03  0.41800000000E+01 0.  1.
         -5    1    3    3    0  502 -0.17052155772E+02 -0.48233265772E+02 -0.18407986975E+02  0.54530269832E+02  0.41800000000E+01 0.  1.
        -11    1    1    2    0    0  0.33692045461E+02 -0.56682904727E+01 -0.22627544205E+02  0.40979131286E+02  0.00000000000E+00 0. -1.
         11    1    1    2    0    0 -0.26463981261E+02  0.46906330748E+02 -0.14262672825E+03  0.15245632089E+03  0.00000000000E+00 0.  1.
</event>
<event>
 7    1  0.4394360E-006  0.1102764E+03  0.7561462E-02  0.1260059E+00
          4   -1    0    0  501    0  0.00000000000E+00  0.00000000000E+00  0.60372491030E+02  0.60372491030E+02  0.00000000000E+00 0. -1.
         -4   -1    0    0    0  501 -0.00000000000E+00 -0.00000000000E+00 -0.21140423657E+03  0.21140423657E+03  0.00000000000E+00 0.  1.
         23    2    1    2    0    0 -0.29565637130E+02  0.16171306925E+01 -0.10068849073E+03  0.16328622159E+03  0.12508987163E+03 0.  0.
          5    1    3    3  502    0 -0.61079945861E+02  0.41665933640E+02 -0.40845147517E+02  0.84573094351E+02  0.41800000000E+01 0. -1.
         -5    1    3    3    0  502  0.31514308731E+02 -0.40048802947E+02 -0.59843343218E+02  0.78713127239E+02  0.41800000000E+01 0. -1.
        -11    1    1    2    0    0  0.54859737900E+00  0.42530674866E+02 -0.15822309861E+02  0.45381766746E+02  0.00000000000E+00 0.  1.
         11    1    1    2    0    0  0.29017039751E+02 -0.44147805559E+02 -0.34520944946E+02  0.63108739264E+02  0.00000000000E+00 0. -1.
</event>
<event>
 7    1  0.4394360E-006  0.1662593E+03  0.7561462E-02  0.1181806E+00
          2   -1    0    0  501    0  0.00000000000E+00  0.00000000000E+00  0.75211391768E+03  0.75211391768E+03  0.00000000000E+00 0. -1.
         -2   -1    0    0    0  501 -0.00000000000E+00 -0.00000000000E+00 -0.58088403358E+02  0.58088403358E+02  0.00000000000E+00 0.  1.
         23    2    1    2    0    0  0.50221017630E+01 -0.15291924243E+03  0.18476266389E+03  0.27054058942E+03  0.12508178263E+03 0.  0.
          5    1    3    3  502    0 -0.49689710674E+01 -0.15208623538E+03  0.93527472084E+02  0.17866105927E+03  0.41800000000E+01 0. -1.
         -5    1    3    3    0  502  0.99910728304E+01 -0.83300705052E+00  0.91235191805E+02  0.91879530151E+02  0.41800000000E+01 0. -1.
        -11    1    1    2    0    0 -0.36780389713E+02  0.11036931318E+03  0.26052037980E+03  0.28531570348E+03  0.00000000000E+00 0.  1.
         11    1    1    2    0    0  0.31758287950E+02  0.42549929246E+02  0.24874247063E+03  0.25434602813E+03  0.00000000000E+00 0. -1.
</event>
<event>
 7    1  0.4394360E-006  0.1136356E+03  0.7561462E-02  0.1253982E+00
          1   -1    0    0  501    0  0.00000000000E+00  0.00000000000E+00  0.17721443545E+03  0.17721443545E+03  0.00000000000E+00 0. -1.
         -1   -1    0    0    0  501 -0.00000000000E+00 -0.00000000000E+00 -0.77741931055E+02  0.77741931055E+02  0.00000000000E+00 0.  1.
         23    2    1    2    0    0  0.11116569657E+02 -0.41032503191E+02  0.39908461556E+02  0.13801590656E+03  0.12509380769E+03 0.  0.
          5    1    3    3  502    0 -0.38496011186E+01  0.42322996832E+02  0.30977402361E+02  0.52755353725E+02  0.41800000000E+01 0.  1.
         -5    1    3    3    0  502  0.14966170776E+02 -0.83355500022E+02  0.89310591955E+01  0.85260552837E+02  0.41800000000E+01 0.  1.
        -11    1    1    2    0    0 -0.28480047100E+02  0.64544346866E+02  0.48849910442E+02  0.85810253148E+02  0.00000000000E+00 0. -1.
         11    1    1    2    0    0  0.17363477443E+02 -0.23511843676E+02  0.10714132393E+02  0.31130206791E+02  0.00000000000E+00 0.  1.
</event>
<event>
 7    1  0.4394360E-006  0.1158010E+03  0.7561462E-02  0.1250189E+00
          1   -1    0    0  501    0  0.00000000000E+00  0.00000000000E+00  0.46996833366E+03  0.46996833366E+03  0.00000000000E+00 0. -1.
         -1   -1    0    0    0  501 -0.00000000000E+00 -0.00000000000E+00 -0.38593894258E+02  0.38593894258E+02  0.00000000000E+00 0.  1.
         23    2    1    2    0    0  0.57204860754E+02  0.89904090263E+01  0.13418132733E+03  0.19236934868E+03  0.12509242247E+03 0.  0.
          5    1    3    3  502    0 -0.42767228333E+01 -0.50438562745E+02  0.36893122255E+02  0.62776698222E+02  0.41800000000E+01 0.  1.
         -5    1    3    3    0  502  0.61481583587E+02  0.59428971771E+02  0.97288205079E+02  0.12959265046E+03  0.41800000000E+01 0.  1.
        -11    1    1    2    0    0  0.13033027970E+02  0.16010299986E+02  0.18570230205E+02  0.27767660571E+02  0.00000000000E+00 0.  1.
         11    1    1    2    0    0 -0.70237888723E+02 -0.25000709012E+02  0.27862288186E+03  0.28842521866E+03  0.00000000000E+00 0. -1.
</event>
<event>
 7    1  0.4394360E-006  0.9515727E+02  0.7561462E-02  0.1290822E+00
          2   -1    0    0  501    0  0.00000000000E+00  0.00000000000E+00  0.13192836731E+03  0.13192836731E+03  0.00000000000E+00 0. -1.
         -2   -1    0    0    0  501 -0.00000000000E+00 -0.00000000000E+00 -0.11249667490E+03  0.11249667490E+03  0.00000000000E+00 0.  1.
         23    2    1    2    0    0  0.46945766800E+02  0.83057343695E+01 -0.41043243607E+00  0.13386868217E+03  0.12509102833E+03 0.  0.
          5    1    3    3  502    0  0.61821717703E+02 -0.35647446627E+02 -0.31227900099E+02  0.78008457076E+02  0.41800000000E+01 0.  1.
         -5    1    3    3    0  502 -0.14875950902E+02  0.43953180997E+02  0.30817467663E+02  0.55860225099E+02  0.41800000000E+01 0.  1.
        -11    1    1    2    0    0 -0.14848782120E+02 -0.30016837860E+02 -0.31672858006E+02  0.46094108298E+02  0.00000000000E+00 0.  1.
         11    1    1    2    0    0 -0.32096984680E+02  0.21711103490E+02  0.51514982859E+02  0.64462251739E+02  0.00000000000E+00 0. -1.
</event>
<event>
 7    1  0.4394360E-006  0.1109702E+03  0.7561462E-02  0.1258784E+00
         -1   -1    0    0    0  501 -0.00000000000E+00  0.00000000000E+00  0.55120984949E+02  0.55120984949E+02  0.00000000000E+00 0.  1.
          1   -1    0    0  501    0  0.00000000000E+00 -0.00000000000E+00 -0.34108267836E+03  0.34108267836E+03  0.00000000000E+00 0. -1.
         23    2    1    2    0    0  0.27165292449E+02 -0.48509966478E+02 -0.66870070224E+02  0.15235609361E+03  0.12509837332E+03 0.  0.
          5    1    3    3  502    0  0.71328559300E+02 -0.19600317141E+02 -0.66269249904E+02  0.99403328348E+02  0.41800000000E+01 0. -1.
         -5    1    3    3    0  502 -0.44163266851E+02 -0.28909649336E+02 -0.60082032043E+00  0.52952765261E+02  0.41800000000E+01 0. -1.
        -11    1    1    2    0    0  0.16559093560E+02 -0.11853813137E+02 -0.11740045643E+02  0.23506278674E+02  0.00000000000E+00 0. -1.
         11    1    1    2    0    0 -0.43724386009E+02  0.60363779615E+02 -0.20735157755E+03  0.22034129103E+03  0.00000000000E+00 0.  1.
</event>
<event>
 7    1  0.4394360E-006  0.1188361E+03  0.7561462E-02  0.1245029E+00
         -4   -1    0    0    0  501 -0.00000000000E+00  0.00000000000E+00  0.19326726140E+03  0.19326726140E+03  0.00000000000E+00 0.  1.
          4   -1    0    0  501    0  0.00000000000E+00 -0.00000000000E+00 -0.24208897191E+03  0.24208897191E+03  0.00000000000E+00 0. -1.
         23    2    1    2    0    0  0.93086139217E+02  0.66511637932E+02  0.12361841607E+03  0.20980520662E+03  0.12509150505E+03 0.  0.
          5    1    3    3  502    0  0.10262139137E+02  0.30017333152E+02 -0.21624541367E+02  0.38619230683E+02  0.41800000000E+01 0. -1.
         -5    1    3    3    0  502  0.82824000080E+02  0.36494304781E+02  0.14524295744E+03  0.17118597593E+03  0.41800000000E+01 0. -1.
        -11    1    1    2    0    0 -0.59896484707E+02 -0.49885384874E+02 -0.17153869870E+03  0.18841885695E+03  0.00000000000E+00 0. -1.
         11    1    1    2    0    0 -0.33189654510E+02 -0.16626253059E+02 -0.90142787971E+00  0.37132169739E+02  0.00000000000E+00 0.  1.
</event>
<event>
 7    1  0.4394360E-006  0.2840339E+03  0.7561462E-02  0.1093506E+00
          2   -1    0    0  501    0  0.00000000000E+00  0.00000000000E+00  0.12995569988E+04  0.12995569988E+04  0.00000000000E+00 0. -1.
         -2   -1    0    0    0  501 -0.00000000000E+00 -0.00000000000E+00 -0.76362192815E+02  0.76362192815E+02  0.00000000000E+00 0.  1.
         23    2    1    2    0    0  0.19961969092E+03  0.19270160065E+03  0.39823043870E+03  0.50121679320E+03  0.12509541793E+03 0.  0.
          5    1    3    3  502    0  0.30339771142E+02 -0.35826540347E+01  0.65536814553E+01  0.31523963322E+02  0.41800000000E+01 0.  1.
         -5    1    3    3    0  502  0.16927991977E+03  0.19628425468E+03  0.39167675725E+03  0.46969282988E+03  0.41800000000E+01 0.  1.
        -11    1    1    2    0    0 -0.52914263172E+02 -0.40751196742E+02  0.32775955380E+03  0.33449499906E+03  0.00000000000E+00 0. -1.
         11    1    1    2    0    0 -0.14670542774E+03 -0.15195040391E+03  0.49720481351E+03  0.54020739939E+03  0.00000000000E+00 0.  1.
</event>
<event>
 7    1  0.4394360E-006  0.1837903E+03  0.7561462E-02  0.1164184E+00
         -2   -1    0    0    0  501 -0.00000000000E+00  0.00000000000E+00  0.58269317148E+02  0.58269317148E+02  0.00000000000E+00 0.  1.
          2   -1    0    0  501    0  0.00000000000E+00 -0.00000000000E+00 -0.76760759320E+03  0.76760759320E+03  0.00000000000E+00 0. -1.
         23    2    1    2    0    0  0.14080397813E+03  0.68210849242E+02 -0.18954211733E+03  0.27578640404E+03  0.12511373305E+03 0.  0.
          5    1    3    3  502    0  0.65228164908E+02 -0.32568020958E+02 -0.84772433197E+02  0.11188935301E+03  0.41800000000E+01 0.  1.
         -5    1    3    3    0  502  0.75575813219E+02  0.10077887020E+03 -0.10476968413E+03  0.16389705103E+03  0.41800000000E+01 0.  1.
        -11    1    1    2    0    0 -0.10232161105E+03 -0.78171928087E+02 -0.29605058852E+03  0.32284131302E+03  0.00000000000E+00 0.  1.
         11    1    1    2    0    0 -0.38482367075E+02  0.99610788451E+01 -0.22374557020E+03  0.22724919329E+03  0.00000000000E+00 0. -1.
</event>
<event>
 7    1  0.4394360E-006  0.9773187E+02  0.7561462E-02  0.1285139E+00
         -2   -1    0    0    0  501 -0.00000000000E+00  0.00000000000E+00  0.26245300026E+02  0.26245300026E+02  0.00000000000E+00 0.  1.
          2   -1    0    0  501    0  0.00000000000E+00 -0.00000000000E+00 -0.73657440358E+03  0.73657440358E+03  0.00000000000E+00 0. -1.
         23    2    1    2    0    0 -0.71038557801E+02  0.16588244009E+02 -0.24816534374E+03  0.28732398166E+03  0.12508951223E+03 0.  0.
          5    1    3    3  502    0 -0.56385362426E+01 -0.10667149299E+02  0.12077596452E+02  0.17576174248E+02  0.41800000000E+01 0.  1.
         -5    1    3    3    0  502 -0.65400021559E+02  0.27255393308E+02 -0.26024294019E+03  0.26974780741E+03  0.41800000000E+01 0.  1.
        -11    1    1    2    0    0  0.90734961419E+02 -0.14904612048E+02 -0.37295057950E+03  0.38411862156E+03  0.00000000000E+00 0.  1.
         11    1    1    2    0    0 -0.19696403618E+02 -0.16836319608E+01 -0.89213180315E+02  0.91377100381E+02  0.00000000000E+00 0. -1.
</event>
<event>
 7    1  0.4394360E-006  0.8612954E+02  0.7561462E-02  0.1312505E+00
          2   -1    0    0  501    0  0.00000000000E+00  0.00000000000E+00  0.44465268326E+03  0.44465268326E+03  0.00000000000E+00 0.  1.
         -2   -1    0    0    0  501 -0.00000000000E+00 -0.00000000000E+00 -0.33541654065E+02  0.33541654065E+02  0.00000000000E+00 0. -1.
         23    2    1    2    0    0 -0.23433708772E+02 -0.49470772929E+02  0.21113234555E+03  0.25143497771E+03  0.12508470969E+03 0.  0.
          5    1    3    3  502    0 -0.43575487817E+02 -0.62282623006E+02  0.21389980627E+03  0.22704305273E+03  0.41800000000E+01 0.  1.
         -5    1    3    3    0  502  0.20141779045E+02  0.12811850077E+02 -0.27674607279E+01  0.24391924983E+02  0.41800000000E+01 0.  1.
        -11    1    1    2    0    0  0.35771238237E+02  0.22555215140E+02  0.24650330883E+02  0.48948524264E+02  0.00000000000E+00 0. -1.
         11    1    1    2    0    0 -0.12337529465E+02  0.26915557790E+02  0.17532835276E+03  0.17781083534E+03  0.00000000000E+00 0.  1.
</event>
<event>
 7    1  0.4394360E-006  0.1319959E+03  0.7561462E-02  0.1224524E+00
         -4   -1    0    0    0  501 -0.00000000000E+00  0.00000000000E+00  0.80210436108E+02  0.80210436108E+02  0.00000000000E+00 0.  1.
          4   -1    0    0  501    0  0.00000000000E+00 -0.00000000000E+00 -0.23014219184E+03  0.23014219184E+03  0.00000000000E+00 0. -1.
         23    2    1    2    0    0  0.72407354143E+02  0.31319817588E+02 -0.56681808197E+02  0.15838628130E+03  0.12509848447E+03 0.  0.
          5    1    3    3  502    0 -0.35678202374E+02  0.11992305809E+02 -0.17627374495E+02  0.41772553846E+02  0.41800000000E+01 0. -1.
         -5    1    3    3    0  502  0.10808555652E+03  0.19327511779E+02 -0.39054433702E+02  0.11661372745E+03  0.41800000000E+01 0. -1.
        -11    1    1    2    0    0 -0.25232907759E+02 -0.57139549631E+02 -0.68695602374E+02  0.92847797774E+02  0.00000000000E+00 0. -1.
         11    1    1    2    0    0 -0.47174446384E+02  0.25819732043E+02 -0.24554345159E+02  0.59118548871E+02  0.00000000000E+00 0.  1.
</event>
<event>
 7    1  0.4394360E-006  0.8394070E+02  0.7561462E-02  0.1318226E+00
         -1   -1    0    0    0  501 -0.00000000000E+00  0.00000000000E+00  0.27959432544E+02  0.27959432544E+02  0.00000000000E+00 0.  1.
          1   -1    0    0  501    0  0.00000000000E+00 -0.00000000000E+00 -0.55314207394E+03  0.55314207394E+03  0.00000000000E+00 0. -1.
         23    2    1    2    0    0  0.58636536767E+02 -0.92696823844E+01 -0.25518330223E+03  0.29032232185E+03  0.12507742550E+03 0.  0.
          5    1    3    3  502    0  0.37500016870E+02  0.10108815355E+02 -0.60729946769E+01  0.39532177748E+02  0.41800000000E+01 0. -1.
         -5    1    3    3    0  502  0.21136519897E+02 -0.19378497739E+02 -0.24911030755E+03  0.25079014410E+03  0.41800000000E+01 0. -1.
        -11    1    1    2    0    0  0.20360485018E+02  0.60798930683E+00 -0.11290251559E+03  0.11472531119E+03  0.00000000000E+00 0. -1.
         11    1    1    2    0    0 -0.78997021785E+02  0.86616930776E+01 -0.15709682358E+03  0.17605387345E+03  0.00000000000E+00 0.  1.
</event>
<event>
 7    1  0.4394360E-006  0.7461555E+02  0.7561462E-02  0.1345066E+00
         -2   -1    0    0    0  501 -0.00000000000E+00  0.00000000000E+00  0.28597616617E+02  0.28597616617E+02  0.00000000000E+00 0.  1.
          2   -1    0    0  501    0  0.00000000000E+00 -0.00000000000E+00 -0.54559986304E+03  0.54559986304E+03  0.00000000000E+00 0. -1.
         23    2    1    2    0    0 -0.35671331491E+02  0.99041578579E+01 -0.17118037063E+03  0.21522321752E+03  0.12509107817E+03 0.  0.
          5    1    3    3  502    0  0.17343183409E+00  0.32403695461E+02 -0.16954532900E+03  0.17266476347E+03  0.41800000000E+01 0.  1.
         -5    1    3    3    0  502 -0.35844763325E+02 -0.22499537603E+02 -0.16350416324E+01  0.42558454053E+02  0.41800000000E+01 0.  1.
        -11    1    1    2    0    0 -0.12526358589E+02  0.15192947285E+02 -0.17997601296E+02  0.26676749411E+02  0.00000000000E+00 0.  1.
         11    1    1    2    0    0  0.48197690080E+02 -0.25097105143E+02 -0.32782427449E+03  0.33229751272E+03  0.00000000000E+00 0. -1.
</event>
<event>
 7    1  0.4394360E-006  0.2073527E+03  0.7561462E-02  0.1143680E+00
         -1   -1    0    0    0  501 -0.00000000000E+00  0.00000000000E+00  0.54617263261E+03  0.54617263261E+03  0.00000000000E+00 0.  1.
          1   -1    0    0  501    0  0.00000000000E+00 -0.00000000000E+00 -0.87391195439E+02  0.87391195439E+02  0.00000000000E+00 0. -1.
         23    2    1    2    0    0  0.10658040243E+03 -0.15652263501E+03  0.24131952561E+03  0.33127216130E+03  0.12508962369E+03 0.  0.
          5    1    3    3  502    0  0.92254694296E+01 -0.10481805433E+03  0.16980176986E+03  0.19980502308E+03  0.41800000000E+01 0.  1.
         -5    1    3    3    0  502  0.97354933000E+02 -0.51704580680E+02  0.71517755753E+02  0.13146713822E+03  0.41800000000E+01 0.  1.
        -11    1    1    2    0    0 -0.95718334405E+02  0.16102694276E+03  0.22128312919E+03  0.28992740316E+03  0.00000000000E+00 0. -1.
         11    1    1    2    0    0 -0.10862068024E+02 -0.45043077461E+01 -0.38212176358E+01  0.12364263596E+02  0.00000000000E+00 0.  1.
</event>
<event>
 7    1  0.4394360E-006  0.9263748E+02  0.7561462E-02  0.1296587E+00
         -2   -1    0    0    0  501 -0.00000000000E+00  0.00000000000E+00  0.26919793815E+02  0.26919793815E+02  0.00000000000E+00 0.  1.
          2   -1    0    0  501    0  0.00000000000E+00 -0.00000000000E+00 -0.52130432268E+03  0.52130432268E+03  0.00000000000E+00 0. -1.
         23    2    1    2    0    0  0.22664248537E+02 -0.23838632899E+02 -0.20378027923E+03  0.24137267025E+03  0.12510961258E+03 0.  0.
          5    1    3    3  502    0  0.54558717738E+02 -0.50722173474E+02 -0.74387929264E+02  0.10535857337E+03  0.41800000000E+01 0.  1.
         -5    1    3    3    0  502 -0.31894469200E+02  0.26883540575E+02 -0.12939234997E+03  0.13601409688E+03  0.41800000000E+01 0.  1.
        -11    1    1    2    0    0 -0.40256822207E+02  0.29887012648E+02 -0.28187952936E+03  0.28630388459E+03  0.00000000000E+00 0. -1.
         11    1    1    2    0    0  0.17592573670E+02 -0.60483797490E+01 -0.87247202691E+01  0.20547561648E+02  0.00000000000E+00 0.  1.
</event>
<event>
 7    1  0.4394360E-006  0.1053466E+03  0.7561462E-02  0.1269438E+00
         -2   -1    0    0    0  501 -0.00000000000E+00  0.00000000000E+00  0.34659519782E+02  0.34659519782E+02  0.00000000000E+00 0.  1.
          2   -1    0    0  501    0  0.00000000000E+00 -0.00000000000E+00 -0.46154567337E+03  0.46154567337E+03  0.00000000000E+00 0. -1.
         23    2    1    2    0    0 -0.37176779308E+02 -0.53535643028E+02 -0.23151622469E+03  0.27110071866E+03  0.12509060465E+03 0.  0.
          5    1    3    3  502    0 -0.27031078147E+02  0.16979496666E+02 -0.18057051185E+03  0.18341800523E+03  0.41800000000E+01 0.  1.
         -5    1    3    3    0  502 -0.10145701161E+02 -0.70515139694E+02 -0.50945712834E+02  0.87682713429E+02  0.41800000000E+01 0.  1.
        -11    1    1    2    0    0 -0.24618685120E+02  0.34675052615E+02 -0.47613100223E+02  0.63839221829E+02  0.00000000000E+00 0.  1.
         11    1    1    2    0    0  0.61795464428E+02  0.18860590413E+02 -0.14775682868E+03  0.16126525266E+03  0.00000000000E+00 0. -1.
</event>
<event>
 7    1  0.4589914E-006  0.2036159E+03  0.7561462E-02  0.1146724E+00
         -1   -1    0    0    0  501 -0.00000000000E+00  0.00000000000E+00  0.45126910316E+02  0.45126910316E+02  0.00000000000E+00 0.  1.
          1   -1    0    0  501    0  0.00000000000E+00 -0.00000000000E+00 -0.11697850911E+04  0.11697850911E+04  0.00000000000E+00 0. -1.
         23    2    1    2    0    0  0.72983666933E+02  0.17414682106E+03 -0.39028457491E+03  0.45124625153E+03  0.12508956467E+03 0.  0.
          5    1    3    3  502    0  0.48606200323E+02  0.91274717587E+01 -0.15533849419E+03  0.16307480991E+03  0.41800000000E+01 0.  1.
         -5    1    3    3    0  502  0.24377466610E+02  0.16501934930E+03 -0.23494608071E+03  0.28817144162E+03  0.41800000000E+01 0.  1.
        -11    1    1    2    0    0 -0.41126080706E+02 -0.12961622017E+03 -0.64234363106E+03  0.65657981952E+03  0.00000000000E+00 0.  1.
         11    1    1    2    0    0 -0.31857586227E+02 -0.44530600892E+02 -0.92029974846E+02  0.10708593038E+03  0.00000000000E+00 0. -1.
</event>
<event>
 7    1  0.4394360E-006  0.8685814E+02  0.7561462E-02  0.1310644E+00
         -1   -1    0    0    0  501 -0.00000000000E+00  0.00000000000E+00  0.42037397263E+02  0.42037397263E+02  0.00000000000E+00 0. -1.
          1   -1    0    0  501    0  0.00000000000E+00 -0.00000000000E+00 -0.37339265426E+03  0.37339265426E+03  0.00000000000E+00 0.  1.
         23    2    1    2    0    0 -0.21454807166E+02 -0.25082596398E+02 -0.97189702638E+02  0.16181135085E+03  0.12509048554E+03 0.  0.
          5    1    3    3  502    0 -0.44577810848E+02 -0.42878939242E+02 -0.18528212713E+01  0.62021689731E+02  0.41800000000E+01 0.  1.
         -5    1    3    3    0  502  0.23123003681E+02  0.17796342844E+02 -0.95336881367E+02  0.99789661121E+02  0.41800000000E+01 0.  1.
        -11    1    1    2    0    0  0.24372482647E+02 -0.23333954416E+02 -0.16926627416E+03  0.17259653214E+03  0.00000000000E+00 0.  1.
         11    1    1    2    0    0 -0.29176754809E+01  0.48416550814E+02 -0.64899280201E+02  0.81022168531E+02  0.00000000000E+00 0. -1.
</event>
<event>
 7    1  0.4394360E-006  0.1372973E+03  0.7561462E-02  0.1217013E+00
         -2   -1    0    0    0  501 -0.00000000000E+00  0.00000000000E+00  0.13901549662E+03  0.13901549662E+03  0.00000000000E+00 0.  1.
          2   -1    0    0  501    0  0.00000000000E+00 -0.00000000000E+00 -0.31111132271E+03  0.31111132271E+03  0.00000000000E+00 0. -1.
         23    2    1    2    0    0 -0.97865810864E+02  0.65412860613E+02  0.56851174331E+02  0.18093110953E+03  0.12508977218E+03 0.  0.
          5    1    3    3  502    0 -0.50628254200E+02  0.78540602427E+02 -0.14092457831E+02  0.94593425356E+02  0.41800000000E+01 0. -1.
         -5    1    3    3    0  502 -0.47237556665E+02 -0.13127741814E+02  0.70943632161E+02  0.86337684177E+02  0.41800000000E+01 0. -1.
        -11    1    1    2    0    0  0.33256196356E+02  0.78485141254E+01 -0.22803725109E+02  0.41080209942E+02  0.00000000000E+00 0.  1.
         11    1    1    2    0    0  0.64609614509E+02 -0.73261374739E+02 -0.20614327531E+03  0.22811549985E+03  0.00000000000E+00 0. -1.
</event>
<event>
 7    1  0.4394360E-006  0.1186366E+03  0.7561462E-02  0.1245363E+00
         -1   -1    0    0    0  501 -0.00000000000E+00  0.00000000000E+00  0.28409702090E+03  0.28409702090E+03  0.00000000000E+00 0.  1.
          1   -1    0    0  501    0  0.00000000000E+00 -0.00000000000E+00 -0.12287436881E+03  0.12287436881E+03  0.00000000000E+00 0. -1.
         23    2    1    2    0    0  0.66237635653E+02  0.52730050002E+02  0.17787597763E+03  0.23335234404E+03  0.12508225494E+03 0.  0.
          5    1    3    3  502    0  0.37784648505E+02 -0.21907020446E+02  0.13633770716E+03  0.14322374105E+03  0.41800000000E+01 0. -1.
         -5    1    3    3    0  502  0.28452987148E+02  0.74637070448E+02  0.41538270465E+02  0.90128602984E+02  0.41800000000E+01 0. -1.
        -11    1    1    2    0    0 -0.69195947024E+02 -0.92272860199E+01  0.55589094768E+02  0.89237712594E+02  0.00000000000E+00 0.  1.
         11    1    1    2    0    0  0.29583113710E+01 -0.43502763982E+02 -0.72242420303E+02  0.84381333075E+02  0.00000000000E+00 0. -1.
</event>
<event>
 7    1  0.4394360E-006  0.1272809E+03  0.7561462E-02  0.1231547E+00
          1   -1    0    0  501    0  0.00000000000E+00  0.00000000000E+00  0.57958301686E+03  0.57958301686E+03  0.00000000000E+00 0. -1.
         -1   -1    0    0    0  501 -0.00000000000E+00 -0.00000000000E+00 -0.42150765095E+02  0.42150765095E+02  0.00000000000E+00 0.  1.
         23    2    1    2    0    0  0.10445189655E+03  0.37668294844E+02  0.25775526143E+03  0.30727028276E+03  0.12509257669E+03 0.  0.
          5    1    3    3  502    0  0.46328774787E+02  0.48707675335E+02  0.23379602509E+03  0.24330402126E+03  0.41800000000E+01 0. -1.
         -5    1    3    3    0  502  0.58123121759E+02 -0.11039380490E+02  0.23959236337E+02  0.63966261502E+02  0.41800000000E+01 0. -1.
        -11    1    1    2    0    0 -0.29831572134E+02  0.17965397113E+02  0.23789292257E+02  0.42173553508E+02  0.00000000000E+00 0.  1.
         11    1    1    2    0    0 -0.74620324412E+02 -0.55633691957E+02  0.25588769807E+03  0.27228994568E+03  0.00000000000E+00 0. -1.
</event>
<event>
 6    1  0.4394360E-006  0.1279032E+03  0.7561462E-02  0.1230601E+00
         -1   -1    0    0    0  501 -0.00000000000E+00  0.00000000000E+00  0.10128893456E+03  0.10128893456E+03  0.00000000000E+00 0.  1.
          1   -1    0    0  501    0  0.00000000000E+00 -0.00000000000E+00 -0.21537877860E+03  0.21537877860E+03  0.00000000000E+00 0. -1.
          5    1    1    2  502    0  0.74790684660E+02 -0.28292604491E+02 -0.16752704039E+02  0.81806133471E+02  0.41800000000E+01 0. -1.
         -5    1    1    2    0  502 -0.86766833308E+02  0.25827343666E+02  0.15195966826E+02  0.91890831158E+02  0.41800000000E+01 0.  1.
        -11    1    1    2    0    0 -0.35119154173E+02 -0.97637987122E+01 -0.67293765957E+02  0.76531939030E+02  0.00000000000E+00 0.  1.
         11    1    1    2    0    0  0.47095302821E+02  0.12229059537E+02 -0.45239340871E+02  0.66438809497E+02  0.00000000000E+00 0. -1.
</event>
<event>
 7    1  0.4394360E-006  0.1208395E+03  0.7561462E-02  0.1241719E+00
          3   -1    0    0  501    0  0.00000000000E+00  0.00000000000E+00  0.59748088873E+02  0.59748088873E+02  0.00000000000E+00 0. -1.
         -3   -1    0    0    0  501 -0.00000000000E+00 -0.00000000000E+00 -0.40777699204E+03  0.40777699204E+03  0.00000000000E+00 0.  1.
         23    2    1    2    0    0  0.69976968027E+02  0.57026470914E+02 -0.28832037650E+03  0.32699359078E+03  0.12508946585E+03 0.  0.
          5    1    3    3  502    0 -0.56401981434E+01  0.50244973924E+02 -0.32830039721E+02  0.60428909867E+02  0.41800000000E+01 0. -1.
         -5    1    3    3    0  502  0.75617166170E+02  0.67814969907E+01 -0.25549033678E+03  0.26656468091E+03  0.41800000000E+01 0. -1.
        -11    1    1    2    0    0 -0.80959248082E+02 -0.62838840224E+02 -0.70238716201E+02  0.12424410225E+03  0.00000000000E+00 0.  1.
         11    1    1    2    0    0  0.10982280055E+02  0.58123693100E+01  0.10530189539E+02  0.16287387880E+02  0.00000000000E+00 0. -1.
</event>
<event>
 7    1  0.4394360E-006  0.9834616E+02  0.7561462E-02  0.1283813E+00
         -3   -1    0    0    0  501 -0.00000000000E+00  0.00000000000E+00  0.25594062281E+03  0.25594062281E+03  0.00000000000E+00 0.  1.
          3   -1    0    0  501    0  0.00000000000E+00 -0.00000000000E+00 -0.97912961002E+02  0.97912961002E+02  0.00000000000E+00 0. -1.
         23    2    1    2    0    0 -0.89905299030E+02  0.30076478681E+01  0.17496738323E+03  0.22586574369E+03  0.11094926876E+03 0.  0.
          5    1    3    3  502    0 -0.64164387088E+02  0.10992167657E+02  0.19587534616E+02  0.68110500164E+02  0.41800000000E+01 0. -1.
         -5    1    3    3    0  502 -0.25740911941E+02 -0.79845197892E+01  0.15537984862E+03  0.15775524353E+03  0.41800000000E+01 0.  1.
        -11    1    1    2    0    0  0.71949467528E+02  0.20305283873E+02 -0.45057056364E+02  0.87287850007E+02  0.00000000000E+00 0.  1.
         11    1    1    2    0    0  0.17955831502E+02 -0.23312931741E+02  0.28117334936E+02  0.40699990113E+02  0.00000000000E+00 0. -1.
</event>
<event>
 7    1  0.4394360E-006  0.1020008E+03  0.7561462E-02  0.1276144E+00
          1   -1    0    0  501    0  0.00000000000E+00  0.00000000000E+00  0.35670952914E+02  0.35670952914E+02  0.00000000000E+00 0. -1.
         -1   -1    0    0    0  501 -0.00000000000E+00 -0.00000000000E+00 -0.54570861720E+03  0.54570861720E+03  0.00000000000E+00 0.  1.
         23    2    1    2    0    0 -0.51430795773E+02  0.17432807889E+02 -0.42422000972E+03  0.44559602850E+03  0.12507667417E+03 0.  0.
          5    1    3    3  502    0 -0.85742721607E+02  0.29704703568E+02 -0.36331485995E+03  0.37449878983E+03  0.41800000000E+01 0. -1.
         -5    1    3    3    0  502  0.34311925834E+02 -0.12271895679E+02 -0.60905149765E+02  0.71097238666E+02  0.41800000000E+01 0. -1.
        -11    1    1    2    0    0  0.30108534605E+02 -0.36890522164E+02 -0.94348150825E+02  0.10568352779E+03  0.00000000000E+00 0.  1.
         11    1    1    2    0    0  0.21322261168E+02  0.19457714275E+02  0.85304962566E+01  0.30100013829E+02  0.00000000000E+00 0. -1.
</event>
<event>
 7    1  0.4394360E-006  0.1011802E+03  0.7561462E-02  0.1277834E+00
         -1   -1    0    0    0  501 -0.00000000000E+00  0.00000000000E+00  0.52276166733E+02  0.52276166733E+02  0.00000000000E+00 0.  1.
          1   -1    0    0  501    0  0.00000000000E+00 -0.00000000000E+00 -0.27704693655E+03  0.27704693655E+03  0.00000000000E+00 0. -1.
         23    2    1    2    0    0  0.17750754372E+02 -0.10946516259E+02 -0.58035220015E+02  0.13946848479E+03  0.12509378877E+03 0.  0.
          5    1    3    3  502    0  0.27460486439E+02 -0.64278015799E+02 -0.46007473123E+02  0.83784853128E+02  0.41800000000E+01 0.  1.
         -5    1    3    3    0  502 -0.97097320671E+01  0.53331499539E+02 -0.12027746893E+02  0.55683631664E+02  0.41800000000E+01 0.  1.
        -11    1    1    2    0    0 -0.46759137844E+02  0.13973636637E+02 -0.14634503584E+03  0.15426778344E+03  0.00000000000E+00 0. -1.
         11    1    1    2    0    0  0.29008383472E+02 -0.30271203780E+01 -0.20390513970E+02  0.35586835058E+02  0.00000000000E+00 0.  1.
</event>
<event>
 7    1  0.4394360E-006  0.1648567E+03  0.7561462E-02  0.1183320E+00
          2   -1    0    0  501    0  0.00000000000E+00  0.00000000000E+00  0.46101917186E+03  0.46101917186E+03  0.00000000000E+00 0. -1.
         -2   -1    0    0    0  501 -0.00000000000E+00 -0.00000000000E+00 -0.66646156151E+02  0.66646156151E+02  0.00000000000E+00 0.  1.
         23    2    1    2    0    0 -0.13292234779E+03  0.15249179113E+02  0.16036012279E+03  0.24345299349E+03  0.12511236170E+03 0.  0.
          5    1    3    3  502    0 -0.84144601252E+02  0.66917200838E+02  0.69718323809E+02  0.12820430087E+03  0.41800000000E+01 0. -1.
         -5    1    3    3    0  502 -0.48777746541E+02 -0.51668021726E+02  0.90641798981E+02  0.11524869261E+03  0.41800000000E+01 0. -1.
        -11    1    1    2    0    0  0.93900389433E+02  0.22600747329E+02  0.97340070058E+02  0.13712463730E+03  0.00000000000E+00 0.  1.
         11    1    1    2    0    0  0.39021958360E+02 -0.37849926442E+02  0.13667282287E+03  0.14708769723E+03  0.00000000000E+00 0. -1.
</event>
<event>
 7    1  0.4394360E-006  0.1015473E+03  0.7561462E-02  0.1277075E+00
         -1   -1    0    0    0  501 -0.00000000000E+00  0.00000000000E+00  0.13958475929E+03  0.13958475929E+03  0.00000000000E+00 0.  1.
          1   -1    0    0  501    0  0.00000000000E+00 -0.00000000000E+00 -0.11991112610E+03  0.11991112610E+03  0.00000000000E+00 0. -1.
         23    2    1    2    0    0  0.54989081530E+02  0.11948725248E+02  0.56276890941E+02  0.14826195184E+03  0.12509175347E+03 0.  0.
          5    1    3    3  502    0  0.34883830967E+02  0.52595015191E+02 -0.13752398314E+02  0.64728032145E+02  0.41800000000E+01 0. -1.
         -5    1    3    3    0  502  0.20105250563E+02 -0.40646289943E+02  0.70029289254E+02  0.83533919696E+02  0.41800000000E+01 0. -1.
        -11    1    1    2    0    0 -0.76212808368E+01 -0.39013271127E+02  0.82622399366E+01  0.40600293772E+02  0.00000000000E+00 0.  1.
         11    1    1    2    0    0 -0.47367800693E+02  0.27064545879E+02 -0.44865497683E+02  0.70633639779E+02  0.00000000000E+00 0. -1.
</event>
<event>
 7    1  0.6559071E-006  0.2281190E+03  0.7561462E-02  0.1127971E+00
          2   -1    0    0  501    0  0.00000000000E+00  0.00000000000E+00  0.25378097434E+03  0.25378097434E+03  0.00000000000E+00 0.  1.
         -2   -1    0    0    0  501 -0.00000000000E+00 -0.00000000000E+00 -0.21850723945E+03  0.21850723945E+03  0.00000000000E+00 0. -1.
         23    2    1    2    0    0 -0.81467853404E+02 -0.19027167146E+03 -0.72946534194E+01  0.24195261039E+03  0.12509010196E+03 0.  0.
          5    1    3    3  502    0 -0.11932639438E+02  0.18065110890E+02 -0.28473556683E+01  0.22233217260E+02  0.41800000000E+01 0.  1.
         -5    1    3    3    0  502 -0.69535213966E+02 -0.20833678235E+03 -0.44472977511E+01  0.21971939313E+03  0.41800000000E+01 0.  1.
        -11    1    1    2    0    0  0.74975958200E+02  0.10514164566E+03  0.61269971403E+02  0.14293414343E+03  0.00000000000E+00 0.  1.
         11    1    1    2    0    0  0.64918952040E+01  0.85130025795E+02 -0.18701583094E+02  0.87401459973E+02  0.00000000000E+00 0. -1.
</event>
<event>
 7    1  0.4394360E-006  0.9038414E+02  0.7561462E-02  0.1301924E+00
          2   -1    0    0  501    0  0.00000000000E+00  0.00000000000E+00  0.17648694750E+03  0.17648694750E+03  0.00000000000E+00 0. -1.
         -2   -1    0    0    0  501 -0.00000000000E+00 -0.00000000000E+00 -0.71339802640E+02  0.71339802640E+02  0.00000000000E+00 0.  1.
         23    2    1    2    0    0 -0.86590294079E+01  0.22578527693E+02  0.37339337198E+02  0.13276641701E+03  0.12509167310E+03 0.  0.
          5    1    3    3  502    0  0.40370220207E+01 -0.34304957505E+02  0.60596650911E+02  0.69875275727E+02  0.41800000000E+01 0. -1.
         -5    1    3    3    0  502 -0.12696051429E+02  0.56883485198E+02 -0.23257313713E+02  0.62891141279E+02  0.41800000000E+01 0. -1.
        -11    1    1    2    0    0  0.42745938215E+02 -0.30543297230E+02  0.58927229599E+02  0.78946352846E+02  0.00000000000E+00 0.  1.
         11    1    1    2    0    0 -0.34086908807E+02  0.79647695371E+01  0.88805780674E+01  0.36113980293E+02  0.00000000000E+00 0. -1.
</event>
<event>
 7    1  0.4394360E-006  0.8347265E+02  0.7561462E-02  0.1319476E+00
         -2   -1    0    0    0  501 -0.00000000000E+00  0.00000000000E+00  0.12946631290E+03  0.12946631290E+03  0.00000000000E+00 0.  1.
          2   -1    0    0  501    0  0.00000000000E+00 -0.00000000000E+00 -0.10693377865E+03  0.10693377865E+03  0.00000000000E+00 0. -1.
         23    2    1    2    0    0  0.41197226977E+02  0.16314452544E+02  0.16536133733E+02  0.13373196855E+03  0.12508965913E+03 0.  0.
          5    1    3    3  502    0  0.11258020825E+02  0.45301784562E+02 -0.41202511336E+02  0.62402836937E+02  0.41800000000E+01 0.  1.
         -5    1    3    3    0  502  0.29939206152E+02 -0.28987332017E+02  0.57738645069E+02  0.71329131615E+02  0.41800000000E+01 0.  1.
        -11    1    1    2    0    0 -0.22247394230E+02  0.24563174365E+02  0.35692515984E+02  0.48705767443E+02  0.00000000000E+00 0.  1.
         11    1    1    2    0    0 -0.18949832747E+02 -0.40877626909E+02 -0.29696115466E+02  0.53962355551E+02  0.00000000000E+00 0. -1.
</event>
<event>
 7    1  0.4394360E-006  0.7375544E+02  0.7561462E-02  0.1347769E+00
          1   -1    0    0  501    0  0.00000000000E+00  0.00000000000E+00  0.80040458051E+03  0.80040458051E+03  0.00000000000E+00 0. -1.
         -1   -1    0    0    0  501 -0.00000000000E+00 -0.00000000000E+00 -0.16853271713E+02  0.16853271713E+02  0.00000000000E+00 0.  1.
         23    2    1    2    0    0 -0.23283669693E+02  0.27976448535E+02  0.38248129468E+03  0.40405850466E+03  0.12508606424E+03 0.  0.
          5    1    3    3  502    0 -0.24512812213E+02  0.47044978808E+01  0.37933014196E+03  0.38017343313E+03  0.41800000000E+01 0. -1.
         -5    1    3    3    0  502  0.12291425202E+01  0.23271950654E+02  0.31511527193E+01  0.23885071531E+02  0.41800000000E+01 0. -1.
        -11    1    1    2    0    0  0.57598199494E+02 -0.63059127084E+01  0.20864899771E+03  0.21654496385E+03  0.00000000000E+00 0. -1.
         11    1    1    2    0    0 -0.34314529801E+02 -0.21670535826E+02  0.19242101640E+03  0.19665438371E+03  0.00000000000E+00 0.  1.
</event>
<event>
 7    1  0.4394360E-006  0.1218038E+03  0.7561462E-02  0.1240151E+00
         -1   -1    0    0    0  501 -0.00000000000E+00  0.00000000000E+00  0.44243626567E+02  0.44243626567E+02  0.00000000000E+00 0.  1.
          1   -1    0    0  501    0  0.00000000000E+00 -0.00000000000E+00 -0.50512234908E+03  0.50512234908E+03  0.00000000000E+00 0. -1.
         23    2    1    2    0    0 -0.95125759409E+02  0.29702667439E+02 -0.23440552035E+03  0.28376928206E+03  0.12509156212E+03 0.  0.
          5    1    3    3  502    0  0.73253621095E+00 -0.54122905786E+00 -0.15642228831E+03  0.15648077907E+03  0.41800000000E+01 0. -1.
         -5    1    3    3    0  502 -0.95858295620E+02  0.30243896497E+02 -0.77983232045E+02  0.12728850300E+03  0.41800000000E+01 0. -1.
        -11    1    1    2    0    0  0.84052380592E+01  0.31488211842E+02 -0.51157699215E+02  0.60656950968E+02  0.00000000000E+00 0. -1.
         11    1    1    2    0    0  0.86720521350E+02 -0.61190879281E+02 -0.17531550294E+03  0.20493974261E+03  0.00000000000E+00 0.  1.
</event>
<event>
 7    1  0.4394360E-006  0.1187549E+03  0.7561462E-02  0.1245165E+00
         -1   -1    0    0    0  501 -0.00000000000E+00  0.00000000000E+00  0.45765234783E+02  0.45765234783E+02  0.00000000000E+00 0.  1.
          1   -1    0    0  501    0  0.00000000000E+00 -0.00000000000E+00 -0.36417326075E+03  0.36417326075E+03  0.00000000000E+00 0. -1.
         23    2    1    2    0    0  0.63001520157E+02 -0.31958413902E+02 -0.18300555085E+03  0.23265479426E+03  0.12508672947E+03 0.  0.
          5    1    3    3  502    0  0.98242137767E+02 -0.39439204106E+02 -0.12105310714E+03  0.16086732298E+03  0.41800000000E+01 0. -1.
         -5    1    3    3    0  502 -0.35240617610E+02  0.74807902045E+01 -0.61952443715E+02  0.71787471287E+02  0.41800000000E+01 0. -1.
        -11    1    1    2    0    0 -0.33157121292E+02  0.50315800599E+02 -0.12799620451E+03  0.14147120856E+03  0.00000000000E+00 0. -1.
         11    1    1    2    0    0 -0.29844398866E+02 -0.18357386698E+02 -0.74062706066E+01  0.35812492713E+02  0.00000000000E+00 0.  1.
</event>
<event>
 7    1  0.4394360E-006  0.2081756E+03  0.7561462E-02  0.1143019E+00
         -1   -1    0    0    0  501 -0.00000000000E+00  0.00000000000E+00  0.37132341517E+02  0.37132341517E+02  0.00000000000E+00 0.  1.
          1   -1    0    0  501    0  0.00000000000E+00 -0.00000000000E+00 -0.13079671954E+04  0.13079671954E+04  0.00000000000E+00 0. -1.
         23    2    1    2    0    0  0.26795650250E+02 -0.18062579261E+03 -0.48184635040E+03  0.53025158400E+03  0.12508858106E+03 0.  0.
          5    1    3    3  502    0  0.77105704084E+02 -0.11121985930E+03 -0.28646394806E+03  0.31685045786E+03  0.41800000000E+01 0. -1.
         -5    1    3    3    0  502 -0.50310053834E+02 -0.69405933309E+02 -0.19538240234E+03  0.21340112614E+03  0.41800000000E+01 0. -1.
        -11    1    1    2    0    0 -0.27760757359E+02  0.19323279343E+02 -0.66928677000E+02  0.74989976521E+02  0.00000000000E+00 0.  1.
         11    1    1    2    0    0  0.96510710893E+00  0.16130251327E+03 -0.72205982651E+03  0.73985797643E+03  0.00000000000E+00 0. -1.
</event>
<event>
 7    1  0.4394360E-006  0.1080579E+03  0.7561462E-02  0.1264209E+00
          2   -1    0    0  501    0  0.00000000000E+00  0.00000000000E+00  0.17286559463E+03  0.17286559463E+03  0.00000000000E+00 0. -1.
         -2   -1    0    0    0  501 -0.00000000000E+00 -0.00000000000E+00 -0.77633700329E+02  0.77633700329E+02  0.00000000000E+00 0.  1.
         23    2    1    2    0    0 -0.34099509477E+02  0.13565495810E+02  0.41423444122E+02  0.13678560067E+03  0.12509036576E+03 0.  0.
          5    1    3    3  502    0 -0.72167367657E+02  0.34818188292E+02  0.60100187083E+01  0.80461344230E+02  0.41800000000E+01 0.  1.
         -5    1    3    3    0  502  0.38067858180E+02 -0.21252692482E+02  0.35413425414E+02  0.56324256442E+02  0.41800000000E+01 0.  1.
        -11    1    1    2    0    0  0.14421264805E+02 -0.49256564022E+02  0.51780574192E+02  0.72906857300E+02  0.00000000000E+00 0. -1.
         11    1    1    2    0    0  0.19678244672E+02  0.35691068212E+02  0.20278759825E+01  0.40806836982E+02  0.00000000000E+00 0.  1.
</event>
<event>
 6    1  0.4394360E-006  0.1898678E+03  0.7561462E-02  0.1158581E+00
         -2   -1    0    0    0  501 -0.00000000000E+00  0.00000000000E+00  0.90121230734E+03  0.90121230734E+03  0.00000000000E+00 0.  1.
          2   -1    0    0  501    0  0.00000000000E+00 -0.00000000000E+00 -0.91975912190E+02  0.91975912190E+02  0.00000000000E+00 0. -1.
          5    1    1    2  502    0 -0.13392407825E+03 -0.48798771482E+02  0.36579885002E+02  0.14721596116E+03  0.41800000000E+01 0. -1.
         -5    1    1    2    0  502  0.11536972984E+03  0.32036711469E+02  0.66597824089E+03  0.67666905884E+03  0.41800000000E+01 0.  1.
        -11    1    1    2    0    0 -0.22397544684E+02 -0.40883881667E+02  0.82156053203E+02  0.94460356055E+02  0.00000000000E+00 0.  1.
         11    1    1    2    0    0  0.40951893092E+02  0.57645941680E+02  0.24522216052E+02  0.74842843480E+02  0.00000000000E+00 0. -1.
</event>
<event>
 7    1  0.4394360E-006  0.1252382E+03  0.7561462E-02  0.1234698E+00
         -1   -1    0    0    0  501 -0.00000000000E+00  0.00000000000E+00  0.22398608506E+02  0.22398608506E+02  0.00000000000E+00 0.  1.
          1   -1    0    0  501    0  0.00000000000E+00 -0.00000000000E+00 -0.78382442755E+03  0.78382442755E+03  0.00000000000E+00 0. -1.
         23    2    1    2    0    0  0.68828679829E+02  0.29085558401E+02 -0.39190668355E+03  0.41811683929E+03  0.12508991092E+03 0.  0.
          5    1    3    3  502    0  0.83355311136E+01 -0.47250127903E+02 -0.13519162371E+03  0.14351412191E+03  0.41800000000E+01 0.  1.
         -5    1    3    3    0  502  0.60493148715E+02  0.76335686304E+02 -0.25671505984E+03  0.27460271738E+03  0.41800000000E+01 0.  1.
        -11    1    1    2    0    0 -0.17862711532E+01 -0.37246166697E+02 -0.55210077662E+02  0.66622971817E+02  0.00000000000E+00 0.  1.
         11    1    1    2    0    0 -0.67042408675E+02  0.81606082960E+01 -0.31430905783E+03  0.32148322495E+03  0.00000000000E+00 0. -1.
</event>
<event>
 7    1  0.4394360E-006  0.1572488E+03  0.7561462E-02  0.1191838E+00
          1   -1    0    0  501    0  0.00000000000E+00  0.00000000000E+00  0.56663326198E+03  0.56663326198E+03  0.00000000000E+00 0. -1.
         -1   -1    0    0    0  501 -0.00000000000E+00 -0.00000000000E+00 -0.78870371871E+02  0.78870371871E+02  0.00000000000E+00 0.  1.
         23    2    1    2    0    0  0.88889383685E+02  0.11073732782E+03  0.82210592478E+02  0.20632341692E+03  0.12508674010E+03 0.  0.
          5    1    3    3  502    0  0.29754464779E+02  0.95658383043E+02 -0.43148669693E+01  0.10035907980E+03  0.41800000000E+01 0.  1.
         -5    1    3    3    0  502  0.59134918906E+02  0.15078944778E+02  0.86525459448E+02  0.10596433712E+03  0.41800000000E+01 0.  1.
        -11    1    1    2    0    0 -0.79015731905E+02 -0.54558702274E+02  0.15592837213E+03  0.18312235013E+03  0.00000000000E+00 0.  1.
         11    1    1    2    0    0 -0.98736517799E+01 -0.56178625547E+02  0.24962392550E+03  0.25605786680E+03  0.00000000000E+00 0. -1.
</event>
<event>
 7    1  0.4394360E-006  0.1794177E+03  0.7561462E-02  0.1168368E+00
          1   -1    0    0  501    0  0.00000000000E+00  0.00000000000E+00  0.73153384340E+02  0.73153384340E+02  0.00000000000E+00 0. -1.
         -1   -1    0    0    0  501 -0.00000000000E+00 -0.00000000000E+00 -0.49992323902E+03  0.49992323902E+03  0.00000000000E+00 0.  1.
         23    2    1    2    0    0  0.14696904131E+03 -0.47968279700E+02 -0.26797251706E+03  0.33370200000E+03  0.12508756910E+03 0.  0.
          5    1    3    3  502    0  0.10837993867E+02  0.23327513581E+02 -0.11089855815E+03  0.11391925913E+03  0.41800000000E+01 0.  1.
         -5    1    3    3    0  502  0.13613104744E+03 -0.71295793281E+02 -0.15707395891E+03  0.21978274087E+03  0.41800000000E+01 0.  1.
        -11    1    1    2    0    0  0.74961454495E+01  0.20932875657E+02 -0.21992618361E+02  0.31273834786E+02  0.00000000000E+00 0.  1.
         11    1    1    2    0    0 -0.15446518676E+03  0.27035404043E+02 -0.13680471926E+03  0.20810078857E+03  0.00000000000E+00 0. -1.
</event>
<event>
 6    1  0.4394360E-006  0.2877679E+03  0.7561462E-02  0.1091520E+00
         -2   -1    0    0    0  501 -0.00000000000E+00  0.00000000000E+00  0.98647391647E+02  0.98647391647E+02  0.00000000000E+00 0.  1.
          2   -1    0    0  501    0  0.00000000000E+00 -0.00000000000E+00 -0.10142771962E+04  0.10142771962E+04  0.00000000000E+00 0. -1.
          5    1    1    2  502    0 -0.17144903364E+03 -0.17222454400E+03 -0.51643446237E+03  0.57076973554E+03  0.41800000000E+01 0. -1.
         -5    1    1    2    0  502  0.14479992223E+03  0.18821992212E+03 -0.16689782508E+03  0.29028626039E+03  0.41800000000E+01 0.  1.
        -11    1    1    2    0    0 -0.31780060144E+02  0.63686237118E+01 -0.54796661359E+02  0.63664791579E+02  0.00000000000E+00 0.  1.
         11    1    1    2    0    0  0.58429171562E+02 -0.22364001830E+02 -0.17750085579E+03  0.18820380037E+03  0.00000000000E+00 0. -1.
</event>
<event>
 7    1  0.4394360E-006  0.1428504E+03  0.7561462E-02  0.1209544E+00
         -2   -1    0    0    0  501 -0.00000000000E+00  0.00000000000E+00  0.29472658076E+03  0.29472658076E+03  0.00000000000E+00 0.  1.
          2   -1    0    0  501    0  0.00000000000E+00 -0.00000000000E+00 -0.74978893572E+02  0.74978893572E+02  0.00000000000E+00 0. -1.
         23    2    1    2    0    0  0.10184830586E+03 -0.66257300567E+01  0.13027226002E+03  0.20745264790E+03  0.12509501063E+03 0.  0.
          5    1    3    3  502    0  0.65603477271E+02  0.56596415441E+02  0.85629959393E+02  0.12188901844E+03  0.41800000000E+01 0. -1.
         -5    1    3    3    0  502  0.36244828592E+02 -0.63222145498E+02  0.44642300630E+02  0.85563629461E+02  0.41800000000E+01 0. -1.
        -11    1    1    2    0    0  0.10708634535E+02  0.80496234382E+01  0.34438786830E+02  0.36952690422E+02  0.00000000000E+00 0.  1.
         11    1    1    2    0    0 -0.11255694040E+03 -0.14238933815E+01  0.55036640334E+02  0.12530013601E+03  0.00000000000E+00 0. -1.
</event>
<event>
 7    1  0.4394360E-006  0.3537149E+03  0.7561462E-02  0.1061101E+00
         -2   -1    0    0    0  501 -0.00000000000E+00  0.00000000000E+00  0.14134944271E+03  0.14134944271E+03  0.00000000000E+00 0.  1.
          2   -1    0    0  501    0  0.00000000000E+00 -0.00000000000E+00 -0.99581197355E+03  0.99581197355E+03  0.00000000000E+00 0. -1.
         23    2    1    2    0    0  0.12160586802E+03  0.31870998569E+03 -0.27701219607E+03  0.45689103255E+03  0.12509842821E+03 0.  0.
          5    1    3    3  502    0  0.13256945361E+03  0.24637847280E+03 -0.17069339790E+03  0.32776625875E+03  0.41800000000E+01 0. -1.
         -5    1    3    3    0  502 -0.10963585586E+02  0.72331512892E+02 -0.10631879816E+03  0.12912477380E+03  0.41800000000E+01 0. -1.
        -11    1    1    2    0    0 -0.13644297271E+03 -0.25814633090E+03 -0.42575174760E+03  0.51625649008E+03  0.00000000000E+00 0.  1.
         11    1    1    2    0    0  0.14837104689E+02 -0.60563654786E+02 -0.15169858717E+03  0.16401389364E+03  0.00000000000E+00 0. -1.
</event>
<event>
 7    1  0.4394360E-006  0.8099366E+02  0.7561462E-02  0.1326255E+00
          1   -1    0    0  501    0  0.00000000000E+00  0.00000000000E+00  0.43987331198E+02  0.43987331198E+02  0.00000000000E+00 0. -1.
         -1   -1    0    0    0  501 -0.00000000000E+00 -0.00000000000E+00 -0.33164893017E+03  0.33164893017E+03  0.00000000000E+00 0.  1.
         23    2    1    2    0    0  0.27665867843E+02  0.36140324326E+02 -0.19973168153E+03  0.24000524153E+03  0.12505298104E+03 0.  0.
          5    1    3    3  502    0  0.32922852803E+02  0.53295693771E+02 -0.30547578209E+02  0.69821000749E+02  0.41800000000E+01 0. -1.
         -5    1    3    3    0  502 -0.52569849602E+01 -0.17155369444E+02 -0.16918410333E+03  0.17018424078E+03  0.41800000000E+01 0. -1.
        -11    1    1    2    0    0  0.52732584417E+01  0.17254721406E+02 -0.67165098831E+02  0.69546266373E+02  0.00000000000E+00 0.  1.
         11    1    1    2    0    0 -0.32939126285E+02 -0.53395045732E+02 -0.20764818608E+02  0.66084753468E+02  0.00000000000E+00 0. -1.
</event>
<event>
 7    1  0.4394360E-006  0.1231748E+03  0.7561462E-02  0.1237950E+00
         -1   -1    0    0    0  501 -0.00000000000E+00  0.00000000000E+00  0.69687817932E+02  0.69687817932E+02  0.00000000000E+00 0.  1.
          1   -1    0    0  501    0  0.00000000000E+00 -0.00000000000E+00 -0.22768588793E+03  0.22768588793E+03  0.00000000000E+00 0. -1.
         23    2    1    2    0    0 -0.28377636212E+01  0.60749838070E+02 -0.82478005430E+02  0.16170691523E+03  0.12509160374E+03 0.  0.
          5    1    3    3  502    0  0.17432766350E+01  0.99216628422E+02 -0.66871765992E+02  0.11973422174E+03  0.41800000000E+01 0. -1.
         -5    1    3    3    0  502 -0.45810402561E+01 -0.38466790352E+02 -0.15606239438E+02  0.41972693495E+02  0.41800000000E+01 0. -1.
        -11    1    1    2    0    0 -0.39466793366E+02 -0.51289716266E+02 -0.25714643715E+02  0.69638392246E+02  0.00000000000E+00 0. -1.
         11    1    1    2    0    0  0.42304556987E+02 -0.94601218040E+01 -0.49805420853E+02  0.66028398381E+02  0.00000000000E+00 0.  1.
</event>
<event>
 7    1  0.4394360E-006  0.8409349E+02  0.7561462E-02  0.1317820E+00
         -1   -1    0    0    0  501 -0.00000000000E+00  0.00000000000E+00  0.16168208668E+03  0.16168208668E+03  0.00000000000E+00 0.  1.
          1   -1    0    0  501    0  0.00000000000E+00 -0.00000000000E+00 -0.75696279405E+02  0.75696279405E+02  0.00000000000E+00 0. -1.
         23    2    1    2    0    0 -0.62535750477E-01 -0.34049680213E+02  0.51958003885E+02  0.13966116128E+03  0.12508485587E+03 0.  0.
          5    1    3    3  502    0 -0.21017022037E+02  0.16907108512E+02 -0.30163956004E+02  0.40680488878E+02  0.41800000000E+01 0.  1.
         -5    1    3    3    0  502  0.20954486287E+02 -0.50956788726E+02  0.82121959889E+02  0.98980672401E+02  0.41800000000E+01 0.  1.
        -11    1    1    2    0    0 -0.24870768886E+02 -0.16102240794E+02 -0.41748165709E+01  0.29921002606E+02  0.00000000000E+00 0. -1.
         11    1    1    2    0    0  0.24933304637E+02  0.50151921007E+02  0.38202619959E+02  0.67796202198E+02  0.00000000000E+00 0.  1.
</event>
<event>
 7    1  0.4394360E-006  0.1516210E+03  0.7561462E-02  0.1198495E+00
         -1   -1    0    0    0  501 -0.00000000000E+00  0.00000000000E+00  0.29747368591E+02  0.29747368591E+02  0.00000000000E+00 0.  1.
          1   -1    0    0  501    0  0.00000000000E+00 -0.00000000000E+00 -0.10635651179E+04  0.10635651179E+04  0.00000000000E+00 0. -1.
         23    2    1    2    0    0 -0.12851999863E+03  0.49974062835E+02 -0.45605995910E+03  0.49259803764E+03  0.12508934165E+03 0.  0.
          5    1    3    3  502    0 -0.10813159904E+02  0.70940918350E+01 -0.25701968002E+03  0.25737878484E+03  0.41800000000E+01 0. -1.
         -5    1    3    3    0  502 -0.11770683872E+03  0.42879971000E+02 -0.19904027908E+03  0.23521925281E+03  0.41800000000E+01 0. -1.
        -11    1    1    2    0    0  0.10961323001E+03  0.13390267961E+01 -0.39826133141E+03  0.41307256176E+03  0.00000000000E+00 0.  1.
         11    1    1    2    0    0  0.18906768619E+02 -0.51313089631E+02 -0.17949645884E+03  0.18764188712E+03  0.00000000000E+00 0. -1.
</event>
<event>
 7    1  0.4394360E-006  0.1000363E+03  0.7561462E-02  0.1280220E+00
          1   -1    0    0  501    0  0.00000000000E+00  0.00000000000E+00  0.29159712972E+03  0.29159712972E+03  0.00000000000E+00 0. -1.
         -1   -1    0    0    0  501 -0.00000000000E+00 -0.00000000000E+00 -0.95764742573E+02  0.95764742573E+02  0.00000000000E+00 0.  1.
         23    2    1    2    0    0  0.13048256840E+02 -0.82842075376E+02 -0.64319703303E+01  0.15073704724E+03  0.12508885126E+03 0.  0.
          5    1    3    3  502    0  0.15537755180E+02  0.72802072322E+01  0.43955541728E+02  0.47370721992E+02  0.41800000000E+01 0. -1.
         -5    1    3    3    0  502 -0.24894983400E+01 -0.90122282609E+02 -0.50387512058E+02  0.10336632525E+03  0.41800000000E+01 0. -1.
        -11    1    1    2    0    0  0.98599228697E+01  0.56038199293E+02  0.19147682283E+03  0.19975202512E+03  0.00000000000E+00 0. -1.
         11    1    1    2    0    0 -0.22908179710E+02  0.26803876083E+02  0.10787534646E+02  0.36872799927E+02  0.00000000000E+00 0.  1.
</event>
<event>
 7    1  0.4394360E-006  0.1059908E+03  0.7561462E-02  0.1268180E+00
         -1   -1    0    0    0  501 -0.00000000000E+00  0.00000000000E+00  0.67888555360E+03  0.67888555360E+03  0.00000000000E+00 0.  1.
          1   -1    0    0  501    0  0.00000000000E+00 -0.00000000000E+00 -0.23050835329E+02  0.23050835329E+02  0.00000000000E+00 0. -1.
         23    2    1    2    0    0  0.51161669909E+02  0.35657530487E+02  0.36487758407E+03  0.39073261411E+03  0.12508936174E+03 0.  0.
          5    1    3    3  502    0  0.69743173209E+02  0.80706371409E+01  0.34427284119E+03  0.35138370334E+03  0.41800000000E+01 0. -1.
         -5    1    3    3    0  502 -0.18581503299E+02  0.27586893347E+02  0.20604742884E+02  0.39348910769E+02  0.41800000000E+01 0. -1.
        -11    1    1    2    0    0  0.19934099602E+02  0.11307974926E+02  0.39079089435E+02  0.45303574417E+02  0.00000000000E+00 0. -1.
         11    1    1    2    0    0 -0.71095769512E+02 -0.46965505413E+02  0.25187804476E+03  0.26590020041E+03  0.00000000000E+00 0.  1.
</event>
<event>
 7    1  0.4394360E-006  0.2532199E+03  0.7561462E-02  0.1111287E+00
          2   -1    0    0  501    0  0.00000000000E+00  0.00000000000E+00  0.28127804283E+03  0.28127804283E+03  0.00000000000E+00 0. -1.
         -2   -1    0    0    0  501 -0.00000000000E+00 -0.00000000000E+00 -0.25012051727E+03  0.25012051727E+03  0.00000000000E+00 0.  1.
         23    2    1    2    0    0  0.24102683221E+03 -0.14745032969E+02  0.58613475717E+02  0.27816927258E+03  0.12502501681E+03 0.  0.
          5    1    3    3  502    0  0.14136241438E+03  0.35404157381E+02  0.77227200903E+02  0.16497969426E+03  0.41800000000E+01 0. -1.
         -5    1    3    3    0  502  0.99664417832E+02 -0.50149190350E+02 -0.18613725186E+02  0.11318957832E+03  0.41800000000E+01 0. -1.
        -11    1    1    2    0    0 -0.15031517632E+03  0.38629193796E+02 -0.35086701856E+02  0.15911613210E+03  0.00000000000E+00 0.  1.
         11    1    1    2    0    0 -0.90711655890E+02 -0.23884160827E+02  0.76307516940E+01  0.94113155426E+02  0.00000000000E+00 0. -1.
</event>
<event>
 7    1  0.4394360E-006  0.1463692E+03  0.7561462E-02  0.1205007E+00
         -2   -1    0    0    0  501 -0.00000000000E+00  0.00000000000E+00  0.16917369217E+03  0.16917369217E+03  0.00000000000E+00 0.  1.
          2   -1    0    0  501    0  0.00000000000E+00 -0.00000000000E+00 -0.15575733466E+03  0.15575733466E+03  0.00000000000E+00 0. -1.
         23    2    1    2    0    0  0.62510490545E+02  0.81169641516E+02  0.70648116848E+02  0.17645272924E+03  0.12509331361E+03 0.  0.
          5    1    3    3  502    0 -0.38239254361E+02  0.16946675073E+02  0.15594201172E+02  0.44833936703E+02  0.41800000000E+01 0.  1.
         -5    1    3    3    0  502  0.10074974491E+03  0.64222966443E+02  0.55053915676E+02  0.13161879254E+03  0.41800000000E+01 0.  1.
        -11    1    1    2    0    0 -0.59455570679E+02 -0.10450345312E+02 -0.51282016786E+01  0.60584429142E+02  0.00000000000E+00 0.  1.
         11    1    1    2    0    0 -0.30549198657E+01 -0.70719296204E+02 -0.52103557659E+02  0.87893868453E+02  0.00000000000E+00 0. -1.
</event>
<event>
 7    1  0.4394360E-006  0.1020812E+03  0.7561462E-02  0.1275979E+00
          2   -1    0    0  501    0  0.00000000000E+00  0.00000000000E+00  0.32574311466E+03  0.32574311466E+03  0.00000000000E+00 0. -1.
         -2   -1    0    0    0  501 -0.00000000000E+00 -0.00000000000E+00 -0.11907077973E+03  0.11907077973E+03  0.00000000000E+00 0.  1.
         23    2    1    2    0    0 -0.28032829504E+02 -0.31362980152E+02 -0.76450799752E+02  0.14478871483E+03  0.11554034406E+03 0.  0.
          5    1    3    3  502    0 -0.73285303688E+02 -0.18221028007E+02 -0.48308128570E+02  0.89743463741E+02  0.41800000000E+01 0. -1.
         -5    1    3    3    0  502  0.45252474184E+02 -0.13141952145E+02 -0.28142671182E+02  0.55045251086E+02  0.41800000000E+01 0.  1.
        -11    1    1    2    0    0 -0.21949663249E+02 -0.48731091949E+00  0.18095098985E+02  0.28450971793E+02  0.00000000000E+00 0.  1.
         11    1    1    2    0    0  0.49982492753E+02  0.31850291071E+02  0.26502803569E+03  0.27157420777E+03  0.00000000000E+00 0. -1.
</event>
<event>
 7    1  0.4394360E-006  0.1742007E+03  0.7561462E-02  0.1173537E+00
          2   -1    0    0  501    0  0.00000000000E+00  0.00000000000E+00  0.46008094996E+03  0.46008094996E+03  0.00000000000E+00 0. -1.
         -2   -1    0    0    0  501 -0.00000000000E+00 -0.00000000000E+00 -0.14492338488E+03  0.14492338488E+03  0.00000000000E+00 0.  1.
         23    2    1    2    0    0  0.11652636072E+03 -0.81247648696E+02 -0.54176517672E+02  0.19688078776E+03  0.12508947342E+03 0.  0.
          5    1    3    3  502    0  0.15389916142E+02 -0.71276786489E+02 -0.60685335659E+02  0.94960055682E+02  0.41800000000E+01 0. -1.
         -5    1    3    3    0  502  0.10113644458E+03 -0.99708622073E+01  0.65088179870E+01  0.10192073208E+03  0.41800000000E+01 0. -1.
        -11    1    1    2    0    0 -0.97652514384E+02  0.79663155002E+01  0.21038014414E+03  0.23207602375E+03  0.00000000000E+00 0.  1.
         11    1    1    2    0    0 -0.18873846337E+02  0.73281333196E+02  0.15895393861E+03  0.17604752333E+03  0.00000000000E+00 0. -1.
</event>
<event>
 7    1  0.4394360E-006  0.1593552E+03  0.7561462E-02  0.1189427E+00
         -2   -1    0    0    0  501 -0.00000000000E+00  0.00000000000E+00  0.63110599254E+02  0.63110599254E+02  0.00000000000E+00 0.  1.
          2   -1    0    0  501    0  0.00000000000E+00 -0.00000000000E+00 -0.67144220730E+03  0.67144220730E+03  0.00000000000E+00 0. -1.
         23    2    1    2    0    0 -0.13990257892E+03 -0.21074974979E+02 -0.13500401714E+03  0.23219171898E+03  0.12517996469E+03 0.  0.
          5    1    3    3  502    0 -0.13342264592E+03 -0.31815655072E+02 -0.49825020100E+02  0.14599261413E+03  0.41800000000E+01 0. -1.
         -5    1    3    3    0  502 -0.64799329994E+01  0.10740680093E+02 -0.85178997043E+02  0.86199104855E+02  0.41800000000E+01 0. -1.
        -11    1    1    2    0    0  0.10836150474E+03 -0.26149472566E+02 -0.30790725517E+03  0.32746433151E+03  0.00000000000E+00 0.  1.
         11    1    1    2    0    0  0.31541074177E+02  0.47224447545E+02 -0.16542033573E+03  0.17489675606E+03  0.00000000000E+00 0. -1.
</event>
<event>
 7    1  0.4394360E-006  0.1691893E+03  0.7561462E-02  0.1178696E+00
         -1   -1    0    0    0  501 -0.00000000000E+00  0.00000000000E+00  0.19880077452E+02  0.19880077452E+02  0.00000000000E+00 0.  1.
          1   -1    0    0  501    0  0.00000000000E+00 -0.00000000000E+00 -0.15049442827E+04  0.15049442827E+04  0.00000000000E+00 0. -1.
         23    2    1    2    0    0 -0.12866205666E+03 -0.14913911518E+02 -0.63672970433E+03  0.66170115742E+03  0.12508939112E+03 0.  0.
          5    1    3    3  502    0 -0.13301276818E+03  0.28614950489E+02 -0.48052616567E+03  0.49943375955E+03  0.41800000000E+01 0. -1.
         -5    1    3    3    0  502  0.43507115269E+01 -0.43528862007E+02 -0.15620353867E+03  0.16226739787E+03  0.41800000000E+01 0. -1.
        -11    1    1    2    0    0 -0.40758675267E+01 -0.20525358036E+02 -0.86132239404E+02  0.88637834379E+02  0.00000000000E+00 0. -1.
         11    1    1    2    0    0  0.13273792418E+03  0.35439269554E+02 -0.76220226149E+03  0.77448536834E+03  0.00000000000E+00 0.  1.
</event>
<event>
 6    1  0.4394360E-006  0.8602572E+02  0.7561462E-02  0.1312772E+00
         -1   -1    0    0    0  501 -0.00000000000E+00  0.00000000000E+00  0.25624564293E+03  0.25624564293E+03  0.00000000000E+00 0.  1.
          1   -1    0    0  501    0  0.00000000000E+00 -0.00000000000E+00 -0.48764656036E+03  0.48764656036E+03  0.00000000000E+00 0. -1.
          5    1    1    2  502    0 -0.22346886328E+02  0.21262987735E+01 -0.56423959086E+02  0.60869040029E+02  0.41800000000E+01 0. -1.
         -5    1    1    2    0  502  0.30975472434E+02 -0.41188642142E+02  0.24550372644E+03  0.25088949008E+03  0.41800000000E+01 0.  1.
        -11    1    1    2    0    0  0.39613970125E+02  0.88511388238E+01 -0.22072336508E+03  0.22442462695E+03  0.00000000000E+00 0.  1.
         11    1    1    2    0    0 -0.48242556231E+02  0.30211204545E+02 -0.19975731971E+03  0.20770904624E+03  0.00000000000E+00 0. -1.
</event>
<event>
 7    1  0.4394360E-006  0.1783876E+03  0.7561462E-02  0.1169373E+00
          2   -1    0    0  501    0  0.00000000000E+00  0.00000000000E+00  0.46805795173E+03  0.46805795173E+03  0.00000000000E+00 0. -1.
         -2   -1    0    0    0  501 -0.00000000000E+00 -0.00000000000E+00 -0.78183485037E+02  0.78183485037E+02  0.00000000000E+00 0.  1.
         23    2    1    2    0    0 -0.16151433925E+02 -0.15421323104E+03  0.16770639308E+03  0.26041441173E+03  0.12509053567E+03 0.  0.
          5    1    3    3  502    0  0.45878952509E+02 -0.27748915349E+02  0.72818819583E+02  0.90525871836E+02  0.41800000000E+01 0. -1.
         -5    1    3    3    0  502 -0.62030386434E+02 -0.12646431569E+03  0.94887573498E+02  0.16988853990E+03  0.41800000000E+01 0. -1.
        -11    1    1    2    0    0  0.13125163328E+02  0.70852209029E+01  0.79418222737E+02  0.80806709934E+02  0.00000000000E+00 0. -1.
         11    1    1    2    0    0  0.30262705970E+01  0.14712801013E+03  0.14274985088E+03  0.20502031511E+03  0.00000000000E+00 0.  1.
</event>
<event>
 7    1  0.4394360E-006  0.9536366E+02  0.7561462E-02  0.1290359E+00
          2   -1    0    0  501    0  0.00000000000E+00  0.00000000000E+00  0.66412922205E+03  0.66412922205E+03  0.00000000000E+00 0. -1.
         -2   -1    0    0    0  501 -0.00000000000E+00 -0.00000000000E+00 -0.21611342772E+02  0.21611342772E+02  0.00000000000E+00 0.  1.
         23    2    1    2    0    0  0.19387435209E+00 -0.48271576130E+02  0.31342729709E+03  0.34090355498E+03  0.12509348739E+03 0.  0.
          5    1    3    3  502    0  0.26846616540E+02  0.64685818897E+01  0.25463987803E+03  0.25616698315E+03  0.41800000000E+01 0.  1.
         -5    1    3    3    0  502 -0.26652742188E+02 -0.54740158019E+02  0.58787419061E+02  0.84736571833E+02  0.41800000000E+01 0.  1.
        -11    1    1    2    0    0  0.44524635989E+02  0.28583504466E+02  0.14424419015E+03  0.15364194196E+03  0.00000000000E+00 0.  1.
         11    1    1    2    0    0 -0.44718510341E+02  0.19688071664E+02  0.18484639203E+03  0.19119506788E+03  0.00000000000E+00 0. -1.
</event>
<event>
 7    1  0.4394360E-006  0.8159165E+02  0.7561462E-02  0.1324594E+00
         -1   -1    0    0    0  501 -0.00000000000E+00  0.00000000000E+00  0.37011736627E+03  0.37011736627E+03  0.00000000000E+00 0.  1.
          1   -1    0    0  501    0  0.00000000000E+00 -0.00000000000E+00 -0.37507550934E+02  0.37507550934E+02  0.00000000000E+00 0. -1.
         23    2    1    2    0    0 -0.32123510759E+02 -0.23396117849E+02  0.23095606525E+03  0.26564489553E+03  0.12508880114E+03 0.  0.
          5    1    3    3  502    0  0.19562821851E+02 -0.51334965017E+02  0.46770094292E+02  0.72269611540E+02  0.41800000000E+01 0. -1.
         -5    1    3    3    0  502 -0.51686332610E+02  0.27938847168E+02  0.18418597096E+03  0.19337528399E+03  0.41800000000E+01 0. -1.
        -11    1    1    2    0    0  0.81711430138E+01  0.23868704523E+02  0.11277860222E+03  0.11556598008E+03  0.00000000000E+00 0.  1.
         11    1    1    2    0    0  0.23952367745E+02 -0.47258667336E+00 -0.11124852127E+02  0.26414041599E+02  0.00000000000E+00 0. -1.
</event>
<event>
 7    1  0.4394360E-006  0.1890177E+03  0.7561462E-02  0.1159350E+00
          1   -1    0    0  501    0  0.00000000000E+00  0.00000000000E+00  0.81001792934E+02  0.81001792934E+02  0.00000000000E+00 0. -1.
         -1   -1    0    0    0  501 -0.00000000000E+00 -0.00000000000E+00 -0.45698159427E+03  0.45698159427E+03  0.00000000000E+00 0.  1.
         23    2    1    2    0    0 -0.10055682245E+03  0.12004007110E+03 -0.24055462290E+03  0.31310676496E+03  0.12509207192E+03 0.  0.
          5    1    3    3  502    0  0.36883409353E+01  0.91323969777E+02 -0.12349539002E+03  0.15369533197E+03  0.41800000000E+01 0.  1.
         -5    1    3    3    0  502 -0.10424516339E+03  0.28716101322E+02 -0.11705923288E+03  0.15941143299E+03  0.41800000000E+01 0.  1.
        -11    1    1    2    0    0  0.10846402226E+03 -0.73255774998E+02 -0.11043266653E+03  0.17124901907E+03  0.00000000000E+00 0. -1.
         11    1    1    2    0    0 -0.79071998068E+01 -0.46784296101E+02 -0.24992511912E+02  0.53627603173E+02  0.00000000000E+00 0.  1.
</event>
<event>
 6    1  0.4394360E-006  0.1204368E+03  0.7561462E-02  0.1242378E+00
          2   -1    0    0  501    0  0.00000000000E+00  0.00000000000E+00  0.42325290259E+03  0.42325290259E+03  0.00000000000E+00 0. -1.
         -2   -1    0    0    0  501 -0.00000000000E+00 -0.00000000000E+00 -0.27068600877E+03  0.27068600877E+03  0.00000000000E+00 0.  1.
          5    1    1    2  502    0  0.57322253456E+02  0.11950258150E+02 -0.23481030283E+02  0.63225632414E+02  0.41800000000E+01 0. -1.
         -5    1    1    2    0  502 -0.44708994503E+02 -0.39344377102E+02 -0.21105199703E+03  0.21933374581E+03  0.41800000000E+01 0.  1.
        -11    1    1    2    0    0 -0.23042056601E+02 -0.44345257700E+02  0.69443111556E+02  0.85555736193E+02  0.00000000000E+00 0.  1.
         11    1    1    2    0    0  0.10428797649E+02  0.71739376653E+02  0.31765680958E+03  0.32582379695E+03  0.00000000000E+00 0. -1.
</event>
<event>
 7    1  0.4394360E-006  0.2178410E+03  0.7561462E-02  0.1135503E+00
          2   -1    0    0  501    0  0.00000000000E+00  0.00000000000E+00  0.84790632679E+03  0.84790632679E+03  0.00000000000E+00 0. -1.
         -2   -1    0    0    0  501 -0.00000000000E+00 -0.00000000000E+00 -0.63055914121E+02  0.63055914121E+02  0.00000000000E+00 0.  1.
         23    2    1    2    0    0 -0.16341327929E+03  0.11597570619E+03  0.47089261438E+03  0.52682099471E+03  0.12508493879E+03 0.  0.
          5    1    3    3  502    0 -0.17049239310E+03  0.11602484048E+03  0.47483615248E+03  0.51770287214E+03  0.41800000000E+01 0.  1.
         -5    1    3    3    0  502  0.70791138061E+01 -0.49134297763E-01 -0.39435381029E+01  0.91181225714E+01  0.41800000000E+01 0.  1.
        -11    1    1    2    0    0  0.12245302456E+03 -0.30175895274E+02  0.17183159574E+03  0.21314648759E+03  0.00000000000E+00 0.  1.
         11    1    1    2    0    0  0.40960254736E+02 -0.85799810913E+02  0.14212620255E+03  0.17099475861E+03  0.00000000000E+00 0. -1.
</event>
<event>
 7    1  0.4394360E-006  0.9617634E+02  0.7561462E-02  0.1288548E+00
          2   -1    0    0  501    0  0.00000000000E+00  0.00000000000E+00  0.45729321615E+03  0.45729321615E+03  0.00000000000E+00 0. -1.
         -2   -1    0    0    0  501 -0.00000000000E+00 -0.00000000000E+00 -0.62909209104E+02  0.62909209104E+02  0.00000000000E+00 0.  1.
         23    2    1    2    0    0 -0.12964267427E+02  0.70273964009E+02  0.29110170855E+02  0.13741780643E+03  0.11370905518E+03 0.  0.
          5    1    3    3  502    0  0.97213828255E+01  0.27078881835E+02  0.68602424176E+02  0.74508631234E+02  0.41800000000E+01 0. -1.
         -5    1    3    3    0  502 -0.22685650253E+02  0.43195082174E+02 -0.39492253322E+02  0.62909175196E+02  0.41800000000E+01 0.  1.
        -11    1    1    2    0    0 -0.10433187109E+02 -0.85669659941E+02  0.28369865837E+03  0.29653510887E+03  0.00000000000E+00 0. -1.
         11    1    1    2    0    0  0.23397454537E+02  0.15395695932E+02  0.81575177820E+02  0.86249509960E+02  0.00000000000E+00 0.  1.
</event>
<event>
 7    1  0.4394360E-006  0.1254550E+03  0.7561462E-02  0.1234360E+00
         -2   -1    0    0    0  501 -0.00000000000E+00  0.00000000000E+00  0.22696615847E+03  0.22696615847E+03  0.00000000000E+00 0.  1.
          2   -1    0    0  501    0  0.00000000000E+00 -0.00000000000E+00 -0.99881873968E+02  0.99881873968E+02  0.00000000000E+00 0. -1.
         23    2    1    2    0    0 -0.87013456084E+02  0.41976625274E+02  0.11420004483E+03  0.19499323070E+03  0.12508929280E+03 0.  0.
          5    1    3    3  502    0 -0.86634680935E+02 -0.22310187317E+02  0.44242626034E+02  0.99890914288E+02  0.41800000000E+01 0. -1.
         -5    1    3    3    0  502 -0.37877514850E+00  0.64286812592E+02  0.69957418792E+02  0.95102316417E+02  0.41800000000E+01 0. -1.
        -11    1    1    2    0    0  0.10351925918E+02 -0.79564331284E+01  0.41289111841E+02  0.43304248694E+02  0.00000000000E+00 0.  1.
         11    1    1    2    0    0  0.76661530166E+02 -0.34020192146E+02 -0.28404872164E+02  0.88550553040E+02  0.00000000000E+00 0. -1.
</event>
<event>
 7    1  0.4394360E-006  0.9232835E+02  0.7561462E-02  0.1297309E+00
          3   -1    0    0  501    0  0.00000000000E+00  0.00000000000E+00  0.11065509676E+03  0.11065509676E+03  0.00000000000E+00 0.  1.
         -3   -1    0    0    0  501 -0.00000000000E+00 -0.00000000000E+00 -0.11514002378E+03  0.11514002378E+03  0.00000000000E+00 0. -1.
         23    2    1    2    0    0 -0.13793825930E+02 -0.28442880679E+02 -0.32504759241E+00  0.12902148528E+03  0.12508865222E+03 0.  0.
          5    1    3    3  502    0  0.29994322553E+02  0.28283256723E+02  0.29937354986E+02  0.51120637905E+02  0.41800000000E+01 0. -1.
         -5    1    3    3    0  502 -0.43788148484E+02 -0.56726137402E+02 -0.30262402578E+02  0.77900847377E+02  0.41800000000E+01 0. -1.
        -11    1    1    2    0    0  0.30440244932E+00 -0.20584785337E+02  0.29368325296E+02  0.35865367402E+02  0.00000000000E+00 0.  1.
         11    1    1    2    0    0  0.13489423481E+02  0.49027666016E+02 -0.33528204724E+02  0.60908267853E+02  0.00000000000E+00 0. -1.
</event>
<event>
 6    1  0.4394360E-006  0.1380616E+03  0.7561462E-02  0.1215961E+00
         -2   -1    0    0    0  501 -0.00000000000E+00  0.00000000000E+00  0.33712856738E+03  0.33712856738E+03  0.00000000000E+00 0.  1.
          2   -1    0    0  501    0  0.00000000000E+00 -0.00000000000E+00 -0.16444206532E+03  0.16444206532E+03  0.00000000000E+00 0. -1.
          5    1    1    2  502    0 -0.10244266083E+02  0.45787570158E+02  0.29320705061E+02  0.55485337827E+02  0.41800000000E+01 0. -1.
         -5    1    1    2    0  502 -0.49791745286E+02 -0.95881730018E+02  0.25714059382E+03  0.27894673585E+03  0.41800000000E+01 0.  1.
        -11    1    1    2    0    0 -0.72242983448E+01  0.53081532337E+02 -0.63699585232E+02  0.83231464727E+02  0.00000000000E+00 0. -1.
         11    1    1    2    0    0  0.67260309714E+02 -0.29873724766E+01 -0.50075211595E+02  0.83907094297E+02  0.00000000000E+00 0.  1.
</event>
<event>
 7    1  0.4394360E-006  0.1286994E+03  0.7561462E-02  0.1229398E+00
          1   -1    0    0  501    0  0.00000000000E+00  0.00000000000E+00  0.15131418332E+03  0.15131418332E+03  0.00000000000E+00 0. -1.
         -1   -1    0    0    0  501 -0.00000000000E+00 -0.00000000000E+00 -0.20527720171E+03  0.20527720171E+03  0.00000000000E+00 0.  1.
         23    2    1    2    0    0  0.31219231892E+02  0.66730434935E+02 -0.14912192529E+03  0.20811640344E+03  0.12508995720E+03 0.  0.
          5    1    3    3  502    0  0.74513906993E+02  0.14076537465E+02 -0.66723946137E+02  0.10109415725E+03  0.41800000000E+01 0. -1.
         -5    1    3    3    0  502 -0.43294675101E+02  0.52653897470E+02 -0.82397979148E+02  0.10702224619E+03  0.41800000000E+01 0. -1.
        -11    1    1    2    0    0  0.10387531072E+02  0.16848524241E+02  0.23859862861E+02  0.31001074605E+02  0.00000000000E+00 0. -1.
         11    1    1    2    0    0 -0.41606762964E+02 -0.83578959177E+02  0.71299044037E+02  0.11747390698E+03  0.00000000000E+00 0.  1.
</event>
<event>
 7    1  0.4394360E-006  0.8528199E+02  0.7561462E-02  0.1314697E+00
         -1   -1    0    0    0  501 -0.00000000000E+00  0.00000000000E+00  0.10869426023E+03  0.10869426023E+03  0.00000000000E+00 0.  1.
          1   -1    0    0  501    0  0.00000000000E+00 -0.00000000000E+00 -0.12997921686E+03  0.12997921686E+03  0.00000000000E+00 0. -1.
         23    2    1    2    0    0 -0.31106402528E+02 -0.15020940247E+02  0.25269228707E+02  0.13220724453E+03  0.12508790774E+03 0.  0.
          5    1    3    3  502    0 -0.34249391336E+02 -0.43046463215E+02  0.63756352849E+02  0.84311112736E+02  0.41800000000E+01 0.  1.
         -5    1    3    3    0  502  0.31429888081E+01  0.28025522968E+02 -0.38487124142E+02  0.47896131796E+02  0.41800000000E+01 0.  1.
        -11    1    1    2    0    0  0.58226823667E+02  0.13206811082E+02 -0.51488867892E+02  0.78840892753E+02  0.00000000000E+00 0. -1.
         11    1    1    2    0    0 -0.27120421140E+02  0.18141291651E+01  0.49346825497E+01  0.27625339804E+02  0.00000000000E+00 0.  1.
</event>
<event>
 7    1  0.4394360E-006  0.1572506E+03  0.7561462E-02  0.1191836E+00
          4   -1    0    0  501    0  0.00000000000E+00  0.00000000000E+00  0.77869605135E+02  0.77869605135E+02  0.00000000000E+00 0.  1.
         -4   -1    0    0    0  501 -0.00000000000E+00 -0.00000000000E+00 -0.42051223812E+03  0.42051223812E+03  0.00000000000E+00 0. -1.
         23    2    1    2    0    0 -0.63830279494E+02  0.12093179240E+03 -0.24387169954E+03  0.30629923480E+03  0.12508801865E+03 0.  0.
          5    1    3    3  502    0  0.16915007017E+02  0.27763141487E+01  0.57302744860E+01  0.18550844410E+02  0.41800000000E+01 0.  1.
         -5    1    3    3    0  502 -0.80745286511E+02  0.11815547825E+03 -0.24960197403E+03  0.28774839039E+03  0.41800000000E+01 0.  1.
        -11    1    1    2    0    0 -0.14702277383E+02 -0.30880149866E+02  0.40592752110E+01  0.34441520455E+02  0.00000000000E+00 0.  1.
         11    1    1    2    0    0  0.78532556877E+02 -0.90051642535E+02 -0.10283020865E+03  0.15764108800E+03  0.00000000000E+00 0. -1.
</event>
<event>
 7    1  0.4394360E-006  0.6477901E+02  0.7561462E-02  0.1378805E+00
          2   -1    0    0  501    0  0.00000000000E+00  0.00000000000E+00  0.12617839494E+02  0.12617839494E+02  0.00000000000E+00 0.  1.
         -2   -1    0    0    0  501 -0.00000000000E+00 -0.00000000000E+00 -0.13426312173E+04  0.13426312173E+04  0.00000000000E+00 0. -1.
         23    2    1    2    0    0  0.19596627403E+02 -0.24492018504E+02 -0.10757208856E+04  0.10834233946E+04  0.12508773533E+03 0.  0.
          5    1    3    3  502    0 -0.17658285018E+01 -0.20310701002E+02 -0.25261085934E+02  0.32729766086E+02  0.41800000000E+01 0.  1.
         -5    1    3    3    0  502  0.21362455905E+02 -0.41813175027E+01 -0.10504597997E+04  0.10506936285E+04  0.41800000000E+01 0.  1.
        -11    1    1    2    0    0 -0.51178115578E+02  0.18608822220E+02 -0.96579963096E+02  0.11087460056E+03  0.00000000000E+00 0.  1.
         11    1    1    2    0    0  0.31581488175E+02  0.58831962842E+01 -0.15771252913E+03  0.16095106163E+03  0.00000000000E+00 0. -1.
</event>
<event>
 7    1  0.4394360E-006  0.1068963E+03  0.7561462E-02  0.1266428E+00
          2   -1    0    0  501    0  0.00000000000E+00  0.00000000000E+00  0.46427979295E+02  0.46427979295E+02  0.00000000000E+00 0. -1.
         -2   -1    0    0    0  501 -0.00000000000E+00 -0.00000000000E+00 -0.43115029714E+03  0.43115029714E+03  0.00000000000E+00 0.  1.
         23    2    1    2    0    0 -0.40461129213E+02  0.22869911883E+01 -0.34919691167E+03  0.37313236208E+03  0.12508774205E+03 0.  0.
          5    1    3    3  502    0  0.26859648842E+02  0.32210696736E+02 -0.22297675220E+03  0.22692526113E+03  0.41800000000E+01 0.  1.
         -5    1    3    3    0  502 -0.67320778055E+02 -0.29923705547E+02 -0.12622015947E+03  0.14620710095E+03  0.41800000000E+01 0.  1.
        -11    1    1    2    0    0  0.60786135146E+01 -0.43647818426E+02 -0.20482432906E+02  0.48596416054E+02  0.00000000000E+00 0.  1.
         11    1    1    2    0    0  0.34382515698E+02  0.41360827237E+02 -0.15042973277E+02  0.55849498301E+02  0.00000000000E+00 0. -1.
</event>
<event>
 6    1  0.4394360E-006  0.9684377E+02  0.7561462E-02  0.1287077E+00
          2   -1    0    0  501    0  0.00000000000E+00  0.00000000000E+00  0.47693713340E+02  0.47693713340E+02  0.00000000000E+00 0. -1.
         -2   -1    0    0    0  501 -0.00000000000E+00 -0.00000000000E+00 -0.36387963016E+03  0.36387963016E+03  0.00000000000E+00 0.  1.
          5    1    1    2  502    0 -0.42633382808E+02  0.46019769043E+02 -0.36479732136E+02  0.72688841847E+02  0.41800000000E+01 0. -1.
         -5    1    1    2    0  502  0.56201231197E+02 -0.49059473325E+02 -0.25265407327E+03  0.26347099167E+03  0.41800000000E+01 0.  1.
        -11    1    1    2    0    0 -0.30515627578E+02 -0.12619624946E+02 -0.37600089295E+02  0.50042233916E+02  0.00000000000E+00 0. -1.
         11    1    1    2    0    0  0.16947779189E+02  0.15659329228E+02  0.10547977889E+02  0.25371276059E+02  0.00000000000E+00 0.  1.
</event>
<event>
 7    1  0.4394360E-006  0.2066238E+03  0.7561462E-02  0.1144268E+00
         -1   -1    0    0    0  501 -0.00000000000E+00  0.00000000000E+00  0.75124961755E+03  0.75124961755E+03  0.00000000000E+00 0.  1.
          1   -1    0    0  501    0  0.00000000000E+00 -0.00000000000E+00 -0.82425280714E+02  0.82425280714E+02  0.00000000000E+00 0. -1.
         23    2    1    2    0    0  0.11192723748E+03  0.13749619621E+03  0.57246898028E+03  0.61221021061E+03  0.12509075957E+03 0.  0.
          5    1    3    3  502    0  0.74093934713E+02  0.99441381115E+00  0.16901060055E+03  0.18458861156E+03  0.41800000000E+01 0. -1.
         -5    1    3    3    0  502  0.37833302763E+02  0.13650178240E+03  0.40345837974E+03  0.42762159905E+03  0.41800000000E+01 0. -1.
        -11    1    1    2    0    0  0.13726029598E+02 -0.47243077710E+01  0.16510600624E+02  0.21984606101E+02  0.00000000000E+00 0. -1.
         11    1    1    2    0    0 -0.12565326707E+03 -0.13277188844E+03  0.79844755929E+02  0.19948008155E+03  0.00000000000E+00 0.  1.
</event>
<event>
 7    1  0.4394360E-006  0.1253209E+03  0.7561462E-02  0.1234569E+00
         -2   -1    0    0    0  501 -0.00000000000E+00  0.00000000000E+00  0.79174136768E+03  0.79174136768E+03  0.00000000000E+00 0.  1.
          2   -1    0    0  501    0  0.00000000000E+00 -0.00000000000E+00 -0.22102869796E+02  0.22102869796E+02  0.00000000000E+00 0. -1.
         23    2    1    2    0    0 -0.67030811298E+02  0.15459683187E+00  0.52418597836E+03  0.54305743380E+03  0.12508909999E+03 0.  0.
          5    1    3    3  502    0 -0.39619923400E+02 -0.59042381722E+02  0.34610010395E+03  0.35335321637E+03  0.41800000000E+01 0. -1.
         -5    1    3    3    0  502 -0.27410887899E+02  0.59196978554E+02  0.17808587441E+03  0.18970421743E+03  0.41800000000E+01 0. -1.
        -11    1    1    2    0    0  0.83851624974E+02  0.21559732272E+02  0.19458679947E+03  0.21297873038E+03  0.00000000000E+00 0.  1.
         11    1    1    2    0    0 -0.16820813676E+02 -0.21714329104E+02  0.50865720055E+02  0.57808073293E+02  0.00000000000E+00 0. -1.
</event>
<event>
 6    1  0.4394360E-006  0.9805948E+02  0.7561462E-02  0.1284430E+00
         -2   -1    0    0    0  501 -0.00000000000E+00  0.00000000000E+00  0.82967464757E+02  0.82967464757E+02  0.00000000000E+00 0.  1.
          2   -1    0    0  501    0  0.00000000000E+00 -0.00000000000E+00 -0.34596339696E+03  0.34596339696E+03  0.00000000000E+00 0. -1.
          5    1    1    2  502    0 -0.13916631340E+02 -0.14549433798E+02 -0.50936591092E+02  0.54930568573E+02  0.41800000000E+01 0. -1.
         -5    1    1    2    0  502  0.67162754063E+01  0.74593388132E+02  0.45493676472E+02  0.87729293325E+02  0.41800000000E+01 0.  1.
        -11    1    1    2    0    0 -0.24692361334E+02  0.75361566589E+01 -0.10001408808E+02  0.27686360245E+02  0.00000000000E+00 0.  1.
         11    1    1    2    0    0  0.31892717268E+02 -0.67580110993E+02 -0.24755160878E+03  0.25858463958E+03  0.00000000000E+00 0. -1.
</event>
<event>
 7    1  0.4394360E-006  0.1050234E+03  0.7561462E-02  0.1270074E+00
          2   -1    0    0  501    0  0.00000000000E+00  0.00000000000E+00  0.85130713607E+02  0.85130713607E+02  0.00000000000E+00 0. -1.
         -2   -1    0    0    0  501 -0.00000000000E+00 -0.00000000000E+00 -0.17053949226E+03  0.17053949226E+03  0.00000000000E+00 0.  1.
         23    2    1    2    0    0  0.50861597762E+02  0.56430407014E+01 -0.61490110530E+02  0.14848148062E+03  0.12508785056E+03 0.  0.
          5    1    3    3  502    0  0.23015754284E+02 -0.54922079350E+02 -0.31171724758E+01  0.59777495010E+02  0.41800000000E+01 0. -1.
         -5    1    3    3    0  502  0.27845843477E+02  0.60565120051E+02 -0.58372938054E+02  0.88703985609E+02  0.41800000000E+01 0. -1.
        -11    1    1    2    0    0 -0.30774573404E+02 -0.35873071460E+02 -0.44961963420E+02  0.65234421732E+02  0.00000000000E+00 0.  1.
         11    1    1    2    0    0 -0.20087024358E+02  0.30230030758E+02  0.21043295291E+02  0.41954303521E+02  0.00000000000E+00 0. -1.
</event>
<event>
 7    1  0.4394360E-006  0.1020170E+03  0.7561462E-02  0.1276111E+00
          2   -1    0    0  501    0  0.00000000000E+00  0.00000000000E+00  0.63069438480E+02  0.63069438480E+02  0.00000000000E+00 0. -1.
         -2   -1    0    0    0  501 -0.00000000000E+00 -0.00000000000E+00 -0.32400513340E+03  0.32400513340E+03  0.00000000000E+00 0.  1.
         23    2    1    2    0    0 -0.33566354730E+00 -0.72988010660E+02 -0.21736363553E+03  0.26126401588E+03  0.12523806759E+03 0.  0.
          5    1    3    3  502    0 -0.11613810776E+01 -0.10027750670E+03 -0.10380561808E+03  0.14439531122E+03  0.41800000000E+01 0. -1.
         -5    1    3    3    0  502  0.82571753027E+00  0.27289496039E+02 -0.11355801745E+03  0.11686870467E+03  0.41800000000E+01 0. -1.
        -11    1    1    2    0    0  0.95972955611E+01  0.19223274844E+02  0.28328430786E+02  0.35554779828E+02  0.00000000000E+00 0. -1.
         11    1    1    2    0    0 -0.92616320138E+01  0.53764735816E+02 -0.71900490179E+02  0.90255776174E+02  0.00000000000E+00 0.  1.
</event>
<event>
 7    1  0.4394360E-006  0.5803089E+02  0.7561462E-02  0.1406286E+00
         -4   -1    0    0    0  501 -0.00000000000E+00  0.00000000000E+00  0.21204478427E+02  0.21204478427E+02  0.00000000000E+00 0.  1.
          4   -1    0    0  501    0  0.00000000000E+00 -0.00000000000E+00 -0.65342697944E+03  0.65342697944E+03  0.00000000000E+00 0. -1.
         23    2    1    2    0    0 -0.35723196078E+01  0.72006601915E+01 -0.20787480648E+03  0.24061703639E+03  0.12091324186E+03 0.  0.
          5    1    3    3  502    0  0.60325372428E+01  0.12699951723E+02 -0.22183419702E+03  0.22231860841E+03  0.41800000000E+01 0. -1.
         -5    1    3    3    0  502 -0.96048568506E+01 -0.54992915311E+01  0.13959390534E+02  0.18298427980E+02  0.41800000000E+01 0.  1.
        -11    1    1    2    0    0 -0.42849941468E+02 -0.32709083952E+01 -0.16434814752E+03  0.16987386473E+03  0.00000000000E+00 0.  1.
         11    1    1    2    0    0  0.46422261076E+02 -0.39297517963E+01 -0.25999954702E+03  0.26414055675E+03  0.00000000000E+00 0. -1.
</event>
<event>
 7    1  0.4394360E-006  0.1095344E+03  0.7561462E-02  0.1261435E+00
         -2   -1    0    0    0  501 -0.00000000000E+00  0.00000000000E+00  0.57576572693E+02  0.57576572693E+02  0.00000000000E+00 0.  1.
          2   -1    0    0  501    0  0.00000000000E+00 -0.00000000000E+00 -0.25713170302E+03  0.25713170302E+03  0.00000000000E+00 0. -1.
         23    2    1    2    0    0  0.32287130192E+02  0.46437102784E+02 -0.10916374305E+03  0.17539048782E+03  0.12508491967E+03 0.  0.
          5    1    3    3  502    0 -0.30835501510E+02  0.44425471642E+02 -0.96713477973E+02  0.11088471448E+03  0.41800000000E+01 0.  1.
         -5    1    3    3    0  502  0.63122631702E+02  0.20116311421E+01 -0.12450265077E+02  0.64505773334E+02  0.41800000000E+01 0.  1.
        -11    1    1    2    0    0 -0.58008046127E+02 -0.48666557654E+02 -0.47899470631E+02  0.89597581083E+02  0.00000000000E+00 0.  1.
         11    1    1    2    0    0  0.25720915935E+02  0.22294548690E+01 -0.42491916650E+02  0.49720206819E+02  0.00000000000E+00 0. -1.
</event>
<event>
 7    1  0.4394360E-006  0.1075120E+03  0.7561462E-02  0.1265248E+00
          1   -1    0    0  501    0  0.00000000000E+00  0.00000000000E+00  0.13665703665E+03  0.13665703665E+03  0.00000000000E+00 0. -1.
         -1   -1    0    0    0  501 -0.00000000000E+00 -0.00000000000E+00 -0.12077755252E+03  0.12077755252E+03  0.00000000000E+00 0.  1.
         23    2    1    2    0    0 -0.49866673490E+02  0.43665305685E+02 -0.15880446835E+02  0.14245166110E+03  0.12508774166E+03 0.  0.
          5    1    3    3  502    0  0.22306218007E+02  0.53203813124E+02 -0.34291729056E+02  0.67242904268E+02  0.41800000000E+01 0. -1.
         -5    1    3    3    0  502 -0.72172891497E+02 -0.95385074386E+01  0.18411282221E+02  0.75208756832E+02  0.41800000000E+01 0. -1.
        -11    1    1    2    0    0  0.39897072792E+02 -0.43774703399E+00 -0.21776081594E+02  0.45455096187E+02  0.00000000000E+00 0.  1.
         11    1    1    2    0    0  0.99696006977E+01 -0.43227558651E+02  0.53536012558E+02  0.69527831878E+02  0.00000000000E+00 0. -1.
</event>
<event>
 7    1  0.4394360E-006  0.1126569E+03  0.7561462E-02  0.1255727E+00
         -1   -1    0    0    0  501 -0.00000000000E+00  0.00000000000E+00  0.19615391138E+02  0.19615391138E+02  0.00000000000E+00 0.  1.
          1   -1    0    0  501    0  0.00000000000E+00 -0.00000000000E+00 -0.98846487462E+03  0.98846487462E+03  0.00000000000E+00 0. -1.
         23    2    1    2    0    0  0.67757859135E+02 -0.56042623365E+02 -0.49452553376E+03  0.51762395380E+03  0.12508857219E+03 0.  0.
          5    1    3    3  502    0 -0.24921686620E+02 -0.12294809638E+02 -0.26171691469E+03  0.26322133014E+03  0.41800000000E+01 0.  1.
         -5    1    3    3    0  502  0.92679545755E+02 -0.43747813727E+02 -0.23280861908E+03  0.25440262366E+03  0.41800000000E+01 0.  1.
        -11    1    1    2    0    0 -0.67818369288E+02  0.40281406238E+02 -0.46600619582E+03  0.47263484578E+03  0.00000000000E+00 0. -1.
         11    1    1    2    0    0  0.60510152694E-01  0.15761217127E+02 -0.83177538932E+01  0.17821466175E+02  0.00000000000E+00 0.  1.
</event>
<event>
 7    1  0.4394360E-006  0.1121932E+03  0.7561462E-02  0.1256561E+00
          1   -1    0    0  501    0  0.00000000000E+00  0.00000000000E+00  0.40516516133E+03  0.40516516133E+03  0.00000000000E+00 0. -1.
         -1   -1    0    0    0  501 -0.00000000000E+00 -0.00000000000E+00 -0.38136211692E+02  0.38136211692E+02  0.00000000000E+00 0.  1.
         23    2    1    2    0    0 -0.73457011907E+02  0.15471439060E+02  0.24811193088E+03  0.28782445891E+03  0.12509232940E+03 0.  0.
          5    1    3    3  502    0 -0.42118366268E+02 -0.42024908164E+02  0.19340936278E+03  0.20239739053E+03  0.41800000000E+01 0.  1.
         -5    1    3    3    0  502 -0.31338645639E+02  0.57496347224E+02  0.54702568102E+02  0.85427068377E+02  0.41800000000E+01 0.  1.
        -11    1    1    2    0    0  0.74663037216E+02  0.84809029230E+01  0.79942043608E+02  0.10971428885E+03  0.00000000000E+00 0.  1.
         11    1    1    2    0    0 -0.12060253084E+01 -0.23952341983E+02  0.38974975152E+02  0.45762625270E+02  0.00000000000E+00 0. -1.
</event>
<event>
 7    1  0.4394360E-006  0.1049971E+03  0.7561462E-02  0.1270125E+00
          2   -1    0    0  501    0  0.00000000000E+00  0.00000000000E+00  0.28022459131E+03  0.28022459131E+03  0.00000000000E+00 0. -1.
         -2   -1    0    0    0  501 -0.00000000000E+00 -0.00000000000E+00 -0.12197989906E+03  0.12197989906E+03  0.00000000000E+00 0.  1.
         23    2    1    2    0    0 -0.12304921178E+02 -0.32903786120E+02 -0.74273473600E+02  0.14965691310E+03  0.12508626037E+03 0.  0.
          5    1    3    3  502    0 -0.28330765437E+02 -0.74153232828E+02 -0.68307787719E+02  0.10480820804E+03  0.41800000000E+01 0. -1.
         -5    1    3    3    0  502  0.16025844259E+02  0.41249446708E+02 -0.59656858808E+01  0.44848705065E+02  0.41800000000E+01 0. -1.
        -11    1    1    2    0    0  0.14078610434E+02  0.58614395394E+02  0.20947550117E+03  0.21797669648E+03  0.00000000000E+00 0. -1.
         11    1    1    2    0    0 -0.17736892558E+01 -0.25710609274E+02  0.23042664686E+02  0.34570880791E+02  0.00000000000E+00 0.  1.
</event>
<event>
 7    1  0.4394360E-006  0.8846787E+02  0.7561462E-02  0.1306605E+00
          2   -1    0    0  501    0  0.00000000000E+00  0.00000000000E+00  0.63039774699E+02  0.63039774699E+02  0.00000000000E+00 0. -1.
         -2   -1    0    0    0  501 -0.00000000000E+00 -0.00000000000E+00 -0.22871767051E+03  0.22871767051E+03  0.00000000000E+00 0.  1.
         23    2    1    2    0    0 -0.13925052657E+02  0.21014623901E+02 -0.14749393828E+03  0.19503190664E+03  0.12508981281E+03 0.  0.
          5    1    3    3  502    0 -0.21469289085E+02  0.62901937897E+02 -0.13491163085E+03  0.15045333065E+03  0.41800000000E+01 0.  1.
         -5    1    3    3    0  502  0.75442364287E+01 -0.41887313996E+02 -0.12582307431E+02  0.44578575991E+02  0.41800000000E+01 0.  1.
        -11    1    1    2    0    0  0.36744472891E+02 -0.24953500259E+02 -0.43671064145E+02  0.62289608337E+02  0.00000000000E+00 0.  1.
         11    1    1    2    0    0 -0.22819420235E+02  0.39388763582E+01  0.25487106619E+02  0.34435930227E+02  0.00000000000E+00 0. -1.
</event>
<event>
 7    1  0.4394360E-006  0.1665974E+03  0.7561462E-02  0.1181443E+00
          2   -1    0    0  501    0  0.00000000000E+00  0.00000000000E+00  0.40833549035E+03  0.40833549035E+03  0.00000000000E+00 0.  1.
         -2   -1    0    0    0  501 -0.00000000000E+00 -0.00000000000E+00 -0.10398124795E+03  0.10398124795E+03  0.00000000000E+00 0. -1.
         23    2    1    2    0    0  0.15301745704E+02 -0.13636732117E+03  0.25718550019E+02  0.18745452703E+03  0.12509023217E+03 0.  0.
          5    1    3    3  502    0 -0.38879998834E+02 -0.21240773562E+02 -0.24264885570E+02  0.50686110944E+02  0.41800000000E+01 0.  1.
         -5    1    3    3    0  502  0.54181744538E+02 -0.11512654760E+03  0.49983435589E+02  0.13676841608E+03  0.41800000000E+01 0.  1.
        -11    1    1    2    0    0  0.18885364479E+02  0.12337795897E+03  0.24597063536E+03  0.27582663253E+03  0.00000000000E+00 0.  1.
         11    1    1    2    0    0 -0.34187110183E+02  0.12989362193E+02  0.32665057016E+02  0.49035578743E+02  0.00000000000E+00 0. -1.
</event>
<event>
 7    1  0.4394360E-006  0.2080529E+03  0.7561462E-02  0.1143117E+00
          2   -1    0    0  501    0  0.00000000000E+00  0.00000000000E+00  0.66042965867E+03  0.66042965867E+03  0.00000000000E+00 0. -1.
         -2   -1    0    0    0  501 -0.00000000000E+00 -0.00000000000E+00 -0.78921869635E+02  0.78921869635E+02  0.00000000000E+00 0.  1.
         23    2    1    2    0    0  0.11875550239E+03  0.15565372725E+03  0.22966182032E+03  0.32666837545E+03  0.12504688581E+03 0.  0.
          5    1    3    3  502    0  0.17691599446E+02  0.62771017195E+02  0.78952642744E+01  0.65825533713E+02  0.41800000000E+01 0. -1.
         -5    1    3    3    0  502  0.10106390295E+03  0.92882710054E+02  0.22176655604E+03  0.26084284173E+03  0.41800000000E+01 0. -1.
        -11    1    1    2    0    0 -0.19353820844E+02 -0.95069570553E+02  0.13074762657E+03  0.16281196357E+03  0.00000000000E+00 0.  1.
         11    1    1    2    0    0 -0.99401681548E+02 -0.60584156696E+02  0.22109834215E+03  0.24987118929E+03  0.00000000000E+00 0. -1.
</event>
<event>
 7    1  0.4394360E-006  0.1093824E+03  0.7561462E-02  0.1261718E+00
          1   -1    0    0  501    0  0.00000000000E+00  0.00000000000E+00  0.13099355120E+03  0.13099355120E+03  0.00000000000E+00 0. -1.
         -1   -1    0    0    0  501 -0.00000000000E+00 -0.00000000000E+00 -0.10044217575E+03  0.10044217575E+03  0.00000000000E+00 0.  1.
         23    2    1    2    0    0 -0.21573591103E+02  0.10397065217E+02 -0.12101941636E+02  0.12793100271E+03  0.12508543346E+03 0.  0.
          5    1    3    3  502    0 -0.72296448050E+02  0.20902574628E+02 -0.81611950692E+01  0.75814058931E+02  0.41800000000E+01 0.  1.
         -5    1    3    3    0  502  0.50722856947E+02 -0.10505509410E+02 -0.39407465670E+01  0.52116943774E+02  0.41800000000E+01 0.  1.
        -11    1    1    2    0    0 -0.34550370161E+02 -0.13641089866E+01  0.28786376194E+02  0.44991602839E+02  0.00000000000E+00 0.  1.
         11    1    1    2    0    0  0.56123961264E+02 -0.90329562308E+01  0.13866940892E+02  0.58513121400E+02  0.00000000000E+00 0. -1.
</event>
<event>
 7    1  0.4394360E-006  0.9982744E+02  0.7561462E-02  0.1280659E+00
          2   -1    0    0  501    0  0.00000000000E+00  0.00000000000E+00  0.10205241824E+03  0.10205241824E+03  0.00000000000E+00 0. -1.
         -2   -1    0    0    0  501 -0.00000000000E+00 -0.00000000000E+00 -0.13052811011E+03  0.13052811011E+03  0.00000000000E+00 0.  1.
         23    2    1    2    0    0  0.19255366301E+01 -0.37395370712E+02 -0.28912864628E+02  0.13373629911E+03  0.12508925819E+03 0.  0.
          5    1    3    3  502    0 -0.46364144888E+02 -0.50797731582E+01 -0.52976666798E+02  0.70706701603E+02  0.41800000000E+01 0.  1.
         -5    1    3    3    0  502  0.48289681518E+02 -0.32315597554E+02  0.24063802170E+02  0.63029597502E+02  0.41800000000E+01 0.  1.
        -11    1    1    2    0    0 -0.34643782411E+01  0.65917054519E+02 -0.13003610355E+02  0.67276696376E+02  0.00000000000E+00 0. -1.
         11    1    1    2    0    0  0.15388416110E+01 -0.28521683806E+02  0.13440783114E+02  0.31567532868E+02  0.00000000000E+00 0.  1.
</event>
<event>
 7    1  0.4394360E-006  0.1047836E+03  0.7561462E-02  0.1270547E+00
          1   -1    0    0  501    0  0.00000000000E+00  0.00000000000E+00  0.85363738831E+02  0.85363738831E+02  0.00000000000E+00 0. -1.
         -1   -1    0    0    0  501 -0.00000000000E+00 -0.00000000000E+00 -0.21185472248E+03  0.21185472248E+03  0.00000000000E+00 0.  1.
         23    2    1    2    0    0 -0.67715588829E+02 -0.47826754609E+00 -0.11343221545E+03  0.18193367783E+03  0.12508943168E+03 0.  0.
          5    1    3    3  502    0 -0.69960796032E+01  0.38428691670E+02  0.85165585290E+01  0.40195940622E+02  0.41800000000E+01 0. -1.
         -5    1    3    3    0  502 -0.60719509226E+02 -0.38906959216E+02 -0.12194877398E+03  0.14173773721E+03  0.41800000000E+01 0. -1.
        -11    1    1    2    0    0  0.26978535593E+02 -0.34886813836E+02 -0.35739297272E+02  0.56764676797E+02  0.00000000000E+00 0.  1.
         11    1    1    2    0    0  0.40737053236E+02  0.35365081382E+02  0.22680529066E+02  0.58520106683E+02  0.00000000000E+00 0. -1.
</event>
<event>
 6    1  0.4394360E-006  0.1594064E+03  0.7561462E-02  0.1189369E+00
          3   -1    0    0  501    0  0.00000000000E+00  0.00000000000E+00  0.12981882578E+03  0.12981882578E+03  0.00000000000E+00 0. -1.
         -3   -1    0    0    0  501 -0.00000000000E+00 -0.00000000000E+00 -0.27541629431E+03  0.27541629431E+03  0.00000000000E+00 0.  1.
          5    1    1    2  502    0 -0.10663151083E+03  0.87116930995E+02 -0.71663051367E+02  0.15528265872E+03  0.41800000000E+01 0. -1.
         -5    1    1    2    0  502  0.41528652545E+02 -0.49165454267E+02 -0.10877160309E+03  0.12645396361E+03  0.41800000000E+01 0.  1.
        -11    1    1    2    0    0  0.61729096965E+02 -0.64804008802E+02  0.17037528951E+02  0.91106083012E+02  0.00000000000E+00 0. -1.
         11    1    1    2    0    0  0.33737613239E+01  0.26852532075E+02  0.17799656975E+02  0.32392414741E+02  0.00000000000E+00 0.  1.
</event>
<event>
 7    1  0.4394360E-006  0.1762644E+03  0.7561462E-02  0.1171468E+00
         -2   -1    0    0    0  501 -0.00000000000E+00  0.00000000000E+00  0.18849199314E+03  0.18849199314E+03  0.00000000000E+00 0.  1.
          2   -1    0    0  501    0  0.00000000000E+00 -0.00000000000E+00 -0.24203077567E+03  0.24203077567E+03  0.00000000000E+00 0. -1.
         23    2    1    2    0    0  0.44713246498E+02 -0.13448993625E+03  0.85542270212E+02  0.20748854717E+03  0.12508876788E+03 0.  0.
          5    1    3    3  502    0 -0.30527271830E+02 -0.10248311219E+03  0.44394769478E+02  0.11585797585E+03  0.41800000000E+01 0.  1.
         -5    1    3    3    0  502  0.75240518328E+02 -0.32006824060E+02  0.41147500734E+02  0.91630571325E+02  0.41800000000E+01 0.  1.
        -11    1    1    2    0    0  0.17554224161E+02  0.76721467260E+02 -0.10567502210E+03  0.13176321421E+03  0.00000000000E+00 0. -1.
         11    1    1    2    0    0 -0.62267470659E+02  0.57768468993E+02 -0.33406030643E+02  0.91271007420E+02  0.00000000000E+00 0.  1.
</event>
<event>
 7    1  0.4394360E-006  0.1546135E+03  0.7561462E-02  0.1194916E+00
         -2   -1    0    0    0  501 -0.00000000000E+00  0.00000000000E+00  0.17796328860E+02  0.17796328860E+02  0.00000000000E+00 0.  1.
          2   -1    0    0  501    0  0.00000000000E+00 -0.00000000000E+00 -0.15539155158E+04  0.15539155158E+04  0.00000000000E+00 0. -1.
         23    2    1    2    0    0  0.41352034024E+02  0.10948868238E+03 -0.10601712749E+04  0.10739221305E+04  0.12509135897E+03 0.  0.
          5    1    3    3  502    0  0.56947331140E+02 -0.25341846167E+01 -0.41158715216E+03  0.41553685376E+03  0.41800000000E+01 0.  1.
         -5    1    3    3    0  502 -0.15595297116E+02  0.11202286700E+03 -0.64858412272E+03  0.65838527677E+03  0.41800000000E+01 0.  1.
        -11    1    1    2    0    0 -0.62950794150E+02 -0.72128741583E+02 -0.24889524505E+03  0.26667245987E+03  0.00000000000E+00 0.  1.
         11    1    1    2    0    0  0.21598760126E+02 -0.37359940796E+02 -0.22705266700E+03  0.23111725424E+03  0.00000000000E+00 0. -1.
</event>
<event>
 7    1  0.4394360E-006  0.1094624E+03  0.7561462E-02  0.1261569E+00
          2   -1    0    0  501    0  0.00000000000E+00  0.00000000000E+00  0.12564912693E+03  0.12564912693E+03  0.00000000000E+00 0. -1.
         -2   -1    0    0    0  501 -0.00000000000E+00 -0.00000000000E+00 -0.13689240724E+03  0.13689240724E+03  0.00000000000E+00 0.  1.
         23    2    1    2    0    0  0.17331936537E+02  0.33937571312E+02 -0.69513723191E+02  0.14808194241E+03  0.12507577378E+03 0.  0.
          5    1    3    3  502    0  0.59501344703E+02 -0.15255600457E+02 -0.52622779773E+02  0.80992423830E+02  0.41800000000E+01 0.  1.
         -5    1    3    3    0  502 -0.42169408167E+02  0.49193171769E+02 -0.16890943417E+02  0.67089518580E+02  0.41800000000E+01 0.  1.
        -11    1    1    2    0    0  0.14423833282E+02 -0.53312195946E+02  0.53609979550E+02  0.76969260815E+02  0.00000000000E+00 0.  1.
         11    1    1    2    0    0 -0.31755769819E+02  0.19374624634E+02  0.46604633329E+01  0.37490330953E+02  0.00000000000E+00 0. -1.
</event>
<event>
 6    1  0.4394360E-006  0.1270814E+03  0.7561462E-02  0.1231852E+00
         -2   -1    0    0    0  501 -0.00000000000E+00  0.00000000000E+00  0.66346827311E+02  0.66346827311E+02  0.00000000000E+00 0.  1.
          2   -1    0    0  501    0  0.00000000000E+00 -0.00000000000E+00 -0.69542556479E+03  0.69542556479E+03  0.00000000000E+00 0. -1.
          5    1    1    2  502    0  0.55402948275E+01  0.17672046083E+02 -0.77445712114E+02  0.79738991744E+02  0.41800000000E+01 0. -1.
         -5    1    1    2    0  502 -0.11838488970E+03  0.10023391703E+02 -0.45980637396E+01  0.11897085811E+03  0.41800000000E+01 0.  1.
        -11    1    1    2    0    0  0.84911072149E+02 -0.18669699594E+02 -0.50083718096E+03  0.50832699091E+03  0.00000000000E+00 0. -1.
         11    1    1    2    0    0  0.27933522721E+02 -0.90257381923E+01 -0.46197780670E+02  0.54735551339E+02  0.00000000000E+00 0.  1.
</event>
<event>
 7    1  0.4394360E-006  0.2476246E+03  0.7561462E-02  0.1114815E+00
         -1   -1    0    0    0  501 -0.00000000000E+00  0.00000000000E+00  0.14102745701E+03  0.14102745701E+03  0.00000000000E+00 0.  1.
          1   -1    0    0  501    0  0.00000000000E+00 -0.00000000000E+00 -0.46215038799E+03  0.46215038799E+03  0.00000000000E+00 0. -1.
         23    2    1    2    0    0  0.92536085201E+02  0.20321441055E+03 -0.94437331753E+02  0.27281458608E+03  0.12510141897E+03 0.  0.
          5    1    3    3  502    0  0.91045188181E+02  0.21989433751E+03 -0.92773554731E+02  0.25547436430E+03  0.41800000000E+01 0.  1.
         -5    1    3    3    0  502  0.14908970193E+01 -0.16679926956E+02 -0.16637770220E+01  0.17340221774E+02  0.41800000000E+01 0.  1.
        -11    1    1    2    0    0  0.11306207077E+02 -0.70710072159E+02 -0.59460637148E+02  0.93076914395E+02  0.00000000000E+00 0. -1.
         11    1    1    2    0    0 -0.10384229228E+03 -0.13250433839E+03 -0.16722496208E+03  0.23728634453E+03  0.00000000000E+00 0.  1.
</event>
<event>
 7    1  0.4394360E-006  0.1197040E+03  0.7561462E-02  0.1243586E+00
         -1   -1    0    0    0  501 -0.00000000000E+00  0.00000000000E+00  0.96712679750E+02  0.96712679750E+02  0.00000000000E+00 0.  1.
          1   -1    0    0  501    0  0.00000000000E+00 -0.00000000000E+00 -0.20712494139E+03  0.20712494139E+03  0.00000000000E+00 0. -1.
         23    2    1    2    0    0  0.34917425251E+02 -0.51372972219E+02  0.17417198641E+02  0.13179555842E+03  0.11492737511E+03 0.  0.
          5    1    3    3  502    0 -0.32212411354E+01 -0.81566250294E+02  0.13133496637E+02  0.82785208313E+02  0.41800000000E+01 0. -1.
         -5    1    3    3    0  502  0.38138666386E+02  0.30193278075E+02  0.42837020043E+01  0.49010350106E+02  0.41800000000E+01 0.  1.
        -11    1    1    2    0    0  0.23225485823E+02 -0.91125415775E+01 -0.57079586906E+02  0.62293987247E+02  0.00000000000E+00 0.  1.
         11    1    1    2    0    0 -0.58142911074E+02  0.60485513797E+02 -0.70749873374E+02  0.10974807547E+03  0.00000000000E+00 0. -1.
</event>
<event>
 7    1  0.4394360E-006  0.9427357E+02  0.7561462E-02  0.1292821E+00
          1   -1    0    0  501    0  0.00000000000E+00  0.00000000000E+00  0.11619843437E+02  0.11619843437E+02  0.00000000000E+00 0. -1.
         -1   -1    0    0    0  501 -0.00000000000E+00 -0.00000000000E+00 -0.12117372189E+04  0.12117372189E+04  0.00000000000E+00 0.  1.
         23    2    1    2    0    0 -0.64324281211E+01 -0.18321885536E+02 -0.93556275443E+03  0.94302629179E+03  0.11680690011E+03 0.  0.
          5    1    3    3  502    0 -0.40506278221E+02 -0.43496900211E+02 -0.28980162501E+03  0.29586347048E+03  0.41800000000E+01 0. -1.
         -5    1    3    3    0  502  0.34073850100E+02  0.25175014675E+02 -0.64576112941E+03  0.64716282131E+03  0.41800000000E+01 0.  1.
        -11    1    1    2    0    0 -0.38983743722E+02  0.95626970863E+01 -0.73385012524E+02  0.83645307778E+02  0.00000000000E+00 0. -1.
         11    1    1    2    0    0  0.45416171843E+02  0.87591884497E+01 -0.19116960856E+03  0.19668546282E+03  0.00000000000E+00 0.  1.
</event>
<event>
 7    1  0.4394360E-006  0.1655326E+03  0.7561462E-02  0.1182588E+00
          4   -1    0    0  501    0  0.00000000000E+00  0.00000000000E+00  0.54936750985E+02  0.54936750985E+02  0.00000000000E+00 0. -1.
         -4   -1    0    0    0  501 -0.00000000000E+00 -0.00000000000E+00 -0.55503784940E+03  0.55503784940E+03  0.00000000000E+00 0.  1.
         23    2    1    2    0    0 -0.96739551307E+01  0.13604780433E+03 -0.29510790732E+03  0.34833571701E+03  0.12508598769E+03 0.  0.
          5    1    3    3  502    0 -0.28262227459E+02 -0.15343294618E+02 -0.54882605476E+02  0.63747493869E+02  0.41800000000E+01 0.  1.
         -5    1    3    3    0  502  0.18588272329E+02  0.15139109894E+03 -0.24022530184E+03  0.28458822315E+03  0.41800000000E+01 0.  1.
        -11    1    1    2    0    0 -0.21518207557E+02 -0.64643653702E+02 -0.15432172987E+03  0.16869212054E+03  0.00000000000E+00 0.  1.
         11    1    1    2    0    0  0.31192162687E+02 -0.71404150623E+02 -0.50671461227E+02  0.92946762838E+02  0.00000000000E+00 0. -1.
</event>
<event>
 7    1  0.4394360E-006  0.6787929E+02  0.7561462E-02  0.1367457E+00
         -2   -1    0    0    0  501 -0.00000000000E+00  0.00000000000E+00  0.13437315442E+03  0.13437315442E+03  0.00000000000E+00 0. -1.
          2   -1    0    0  501    0  0.00000000000E+00 -0.00000000000E+00 -0.13957121205E+03  0.13957121205E+03  0.00000000000E+00 0.  1.
         23    2    1    2    0    0 -0.75710010646E+01 -0.15401045003E+02  0.79648727496E+02  0.14928354123E+03  0.12508854323E+03 0.  0.
          5    1    3    3  502    0 -0.37745290760E+02  0.53437165205E+00 -0.20668172585E+02  0.43239314120E+02  0.41800000000E+01 0. -1.
         -5    1    3    3    0  502  0.30174289695E+02 -0.15935416655E+02  0.10031690008E+03  0.10604422711E+03  0.41800000000E+01 0. -1.
        -11    1    1    2    0    0 -0.14680518420E+02  0.32286315774E+02 -0.89565489616E+02  0.96332241423E+02  0.00000000000E+00 0.  1.
         11    1    1    2    0    0  0.22251519485E+02 -0.16885270772E+02  0.47187044909E+01  0.28328583807E+02  0.00000000000E+00 0. -1.
</event>
<event>
 7    1  0.4394360E-006  0.2512291E+03  0.7561462E-02  0.1112531E+00
          2   -1    0    0  501    0  0.00000000000E+00  0.00000000000E+00  0.18014732411E+04  0.18014732411E+04  0.00000000000E+00 0. -1.
         -2   -1    0    0    0  501 -0.00000000000E+00 -0.00000000000E+00 -0.40830346048E+02  0.40830346048E+02  0.00000000000E+00 0.  1.
         23    2    1    2    0    0 -0.41600226813E+02 -0.23039236634E+03  0.62657186859E+03  0.68047136347E+03  0.12505098421E+03 0.  0.
          5    1    3    3  502    0 -0.12637427931E+02  0.96187859039E+01  0.96117680679E+02  0.97510545922E+02  0.41800000000E+01 0. -1.
         -5    1    3    3    0  502 -0.28962798882E+02 -0.24001115224E+03  0.53045418792E+03  0.58296081755E+03  0.41800000000E+01 0. -1.
        -11    1    1    2    0    0  0.33022143488E+02  0.33055599266E+02  0.12147667112E+03  0.13015266509E+03  0.00000000000E+00 0.  1.
         11    1    1    2    0    0  0.85780833247E+01  0.19733676707E+03  0.10125943553E+04  0.10316795586E+04  0.00000000000E+00 0. -1.
</event>
<event>
 7    1  0.4394360E-006  0.1111740E+03  0.7561462E-02  0.1258411E+00
         -2   -1    0    0    0  501 -0.00000000000E+00  0.00000000000E+00  0.71302739292E+02  0.71302739292E+02  0.00000000000E+00 0.  1.
          2   -1    0    0  501    0  0.00000000000E+00 -0.00000000000E+00 -0.21469759762E+03  0.21469759762E+03  0.00000000000E+00 0. -1.
         23    2    1    2    0    0  0.43281556978E+02  0.85337230302E+01 -0.34263653270E+02  0.13699946849E+03  0.12509491927E+03 0.  0.
          5    1    3    3  502    0  0.13252645837E+02  0.63649780503E+02  0.45330755629E+00  0.65150633669E+02  0.41800000000E+01 0.  1.
         -5    1    3    3    0  502  0.30028911142E+02 -0.55116057473E+02 -0.34716960826E+02  0.71848834818E+02  0.41800000000E+01 0.  1.
        -11    1    1    2    0    0  0.10770373750E+02 -0.33183071855E+02 -0.15641905183E+02  0.38233315397E+02  0.00000000000E+00 0.  1.
         11    1    1    2    0    0 -0.54051930729E+02  0.24649348825E+02 -0.93489299879E+02  0.11076755303E+03  0.00000000000E+00 0. -1.
</event>
<event>
 7    1  0.4394360E-006  0.1044651E+03  0.7561462E-02  0.1271177E+00
         -1   -1    0    0    0  501 -0.00000000000E+00  0.00000000000E+00  0.25940606229E+02  0.25940606229E+02  0.00000000000E+00 0.  1.
          1   -1    0    0  501    0  0.00000000000E+00 -0.00000000000E+00 -0.48964046077E+03  0.48964046077E+03  0.00000000000E+00 0. -1.
         23    2    1    2    0    0  0.19368684935E+02 -0.23242810302E+02 -0.26548127028E+03  0.29502698167E+03  0.12508093721E+03 0.  0.
          5    1    3    3  502    0 -0.46470710095E+02 -0.10064813663E+01 -0.17351540843E+03  0.17968196700E+03  0.41800000000E+01 0. -1.
         -5    1    3    3    0  502  0.65839395029E+02 -0.22236328936E+02 -0.91965861857E+02  0.11534501467E+03  0.41800000000E+01 0. -1.
        -11    1    1    2    0    0  0.27897782237E+02  0.34187210850E+02 -0.63172374956E+02  0.77057125543E+02  0.00000000000E+00 0.  1.
         11    1    1    2    0    0 -0.47266467172E+02 -0.10944400548E+02 -0.13504620930E+03  0.14349695979E+03  0.00000000000E+00 0. -1.
</event>
<event>
 7    1  0.4394360E-006  0.1600155E+03  0.7561462E-02  0.1188679E+00
         -1   -1    0    0    0  501 -0.00000000000E+00  0.00000000000E+00  0.28098950417E+03  0.28098950417E+03  0.00000000000E+00 0.  1.
          1   -1    0    0  501    0  0.00000000000E+00 -0.00000000000E+00 -0.11414813373E+03  0.11414813373E+03  0.00000000000E+00 0. -1.
         23    2    1    2    0    0 -0.13300340807E+03  0.46627869640E+02  0.10421685821E+03  0.21534537994E+03  0.12509362231E+03 0.  0.
          5    1    3    3  502    0 -0.12687081154E+03  0.25953275802E+02  0.23482949343E+02  0.13167648482E+03  0.41800000000E+01 0. -1.
         -5    1    3    3    0  502 -0.61325965355E+01  0.20674593838E+02  0.80733908865E+02  0.83668895124E+02  0.41800000000E+01 0. -1.
        -11    1    1    2    0    0  0.96210887960E+02  0.14355902874E+02  0.34363449448E+02  0.10316721169E+03  0.00000000000E+00 0.  1.
         11    1    1    2    0    0  0.36792520112E+02 -0.60983772514E+02  0.28261062782E+02  0.76625046269E+02  0.00000000000E+00 0. -1.
</event>
<event>
 7    1  0.4394360E-006  0.1146321E+03  0.7561462E-02  0.1252225E+00
         -1   -1    0    0    0  501 -0.00000000000E+00  0.00000000000E+00  0.27803111496E+03  0.27803111496E+03  0.00000000000E+00 0.  1.
          1   -1    0    0  501    0  0.00000000000E+00 -0.00000000000E+00 -0.70273717809E+02  0.70273717809E+02  0.00000000000E+00 0. -1.
         23    2    1    2    0    0 -0.37353603441E+02  0.19878620516E+01  0.21160195457E+03  0.24863862498E+03  0.12508611181E+03 0.  0.
          5    1    3    3  502    0  0.40616773626E+02 -0.24060484223E+02  0.64011118951E+02  0.79646248814E+02  0.41800000000E+01 0. -1.
         -5    1    3    3    0  502 -0.77970377067E+02  0.26048346275E+02  0.14759083562E+03  0.16899237617E+03  0.41800000000E+01 0. -1.
        -11    1    1    2    0    0  0.14356888866E+02 -0.46928674489E+02 -0.60392223277E+00  0.49079379267E+02  0.00000000000E+00 0.  1.
         11    1    1    2    0    0  0.22996714576E+02  0.44940812437E+02 -0.32406351826E+01  0.50586828525E+02  0.00000000000E+00 0. -1.
</event>
<event>
 7    1  0.4394360E-006  0.1067189E+03  0.7561462E-02  0.1266769E+00
          2   -1    0    0  501    0  0.00000000000E+00  0.00000000000E+00  0.27145037715E+02  0.27145037715E+02  0.00000000000E+00 0. -1.
         -2   -1    0    0    0  501 -0.00000000000E+00 -0.00000000000E+00 -0.51028923941E+03  0.51028923941E+03  0.00000000000E+00 0.  1.
         23    2    1    2    0    0  0.47455953903E+01  0.45703223821E+02 -0.28123019968E+03  0.31120408424E+03  0.12508497708E+03 0.  0.
          5    1    3    3  502    0 -0.57830567243E+02  0.10941701967E+02 -0.97326882222E+02  0.11381603469E+03  0.41800000000E+01 0.  1.
         -5    1    3    3    0  502  0.62576162633E+02  0.34761521854E+02 -0.18390331746E+03  0.19738804955E+03  0.41800000000E+01 0.  1.
        -11    1    1    2    0    0  0.14610317333E+02  0.13835693380E+02 -0.66767405656E+01  0.21200628492E+02  0.00000000000E+00 0. -1.
         11    1    1    2    0    0 -0.19355912724E+02 -0.59538917201E+02 -0.19523726145E+03  0.20502956440E+03  0.00000000000E+00 0.  1.
</event>
<event>
 7    1  0.4394360E-006  0.7504035E+02  0.7561462E-02  0.1343746E+00
          3   -1    0    0  501    0  0.00000000000E+00  0.00000000000E+00  0.39842895783E+02  0.39842895783E+02  0.00000000000E+00 0. -1.
         -3   -1    0    0    0  501 -0.00000000000E+00 -0.00000000000E+00 -0.30714917505E+03  0.30714917505E+03  0.00000000000E+00 0.  1.
         23    2    1    2    0    0  0.14199062742E+02  0.17396815358E+02 -0.15828143543E+03  0.20298849497E+03  0.12508818378E+03 0.  0.
          5    1    3    3  502    0  0.43849779390E+02  0.36080891094E+02 -0.20119499767E+02  0.60389572987E+02  0.41800000000E+01 0.  1.
         -5    1    3    3    0  502 -0.29650716648E+02 -0.18684075737E+02 -0.13816193567E+03  0.14259892199E+03  0.41800000000E+01 0.  1.
        -11    1    1    2    0    0 -0.18300128022E+02 -0.35148432932E+02 -0.11743228951E+03  0.12393808794E+03  0.00000000000E+00 0.  1.
         11    1    1    2    0    0  0.41010652803E+01  0.17751617574E+02  0.84074456712E+01  0.20065487925E+02  0.00000000000E+00 0. -1.
</event>
<event>
 7    1  0.4394360E-006  0.1150712E+03  0.7561462E-02  0.1251457E+00
          1   -1    0    0  501    0  0.00000000000E+00  0.00000000000E+00  0.21516357487E+03  0.21516357487E+03  0.00000000000E+00 0. -1.
         -1   -1    0    0    0  501 -0.00000000000E+00 -0.00000000000E+00 -0.11479091161E+03  0.11479091161E+03  0.00000000000E+00 0.  1.
         23    2    1    2    0    0  0.85533240445E+02 -0.17524700993E+02 -0.33999734892E+02  0.14508450820E+03  0.11077220852E+03 0.  0.
          5    1    3    3  502    0  0.47650984703E+02 -0.52827680642E+02  0.15936008118E+02  0.73026083969E+02  0.41800000000E+01 0. -1.
         -5    1    3    3    0  502  0.37882255742E+02  0.35302979649E+02 -0.49935743010E+02  0.72058424227E+02  0.41800000000E+01 0.  1.
        -11    1    1    2    0    0 -0.31334796097E+01  0.24063957280E+02 -0.30963048679E+01  0.24463847577E+02  0.00000000000E+00 0. -1.
         11    1    1    2    0    0 -0.82399760835E+02 -0.65392562873E+01  0.13746870302E+03  0.16040613071E+03  0.00000000000E+00 0.  1.
</event>
<event>
 7    1  0.4394360E-006  0.1286680E+03  0.7561462E-02  0.1229446E+00
         -2   -1    0    0    0  501 -0.00000000000E+00  0.00000000000E+00  0.20425199028E+02  0.20425199028E+02  0.00000000000E+00 0.  1.
          2   -1    0    0  501    0  0.00000000000E+00 -0.00000000000E+00 -0.10017272772E+04  0.10017272772E+04  0.00000000000E+00 0. -1.
         23    2    1    2    0    0  0.53590900859E+02 -0.73736697384E+02 -0.51481614125E+03  0.53757934032E+03  0.12508718022E+03 0.  0.
          5    1    3    3  502    0 -0.38105135375E+02 -0.43848381756E+02 -0.19370414094E+03  0.20227073081E+03  0.41800000000E+01 0.  1.
         -5    1    3    3    0  502  0.91696036234E+02 -0.29888315627E+02 -0.32111200031E+03  0.33530860951E+03  0.41800000000E+01 0.  1.
        -11    1    1    2    0    0 -0.24381534578E+02  0.12556695965E+01 -0.20754890651E+02  0.32043742298E+02  0.00000000000E+00 0.  1.
         11    1    1    2    0    0 -0.29209366281E+02  0.72481027787E+02 -0.44573104625E+03  0.45252939359E+03  0.00000000000E+00 0. -1.
</event>
<event>
 7    1  0.4394360E-006  0.1127077E+03  0.7561462E-02  0.1255636E+00
          2   -1    0    0  501    0  0.00000000000E+00  0.00000000000E+00  0.21929098045E+03  0.21929098045E+03  0.00000000000E+00 0. -1.
         -2   -1    0    0    0  501 -0.00000000000E+00 -0.00000000000E+00 -0.62602213350E+02  0.62602213350E+02  0.00000000000E+00 0.  1.
         23    2    1    2    0    0 -0.31295009292E+02 -0.23375448289E+02  0.69657656848E+02  0.14840976356E+03  0.12508988597E+03 0.  0.
          5    1    3    3  502    0  0.33907829966E+02 -0.44388231074E+02  0.88377892094E+01  0.56706568482E+02  0.41800000000E+01 0. -1.
         -5    1    3    3    0  502 -0.65202839259E+02  0.21012782785E+02  0.60819867638E+02  0.91703195077E+02  0.41800000000E+01 0. -1.
        -11    1    1    2    0    0 -0.32439073306E+02  0.17252844669E+02  0.37825034034E+02  0.52732222841E+02  0.00000000000E+00 0.  1.
         11    1    1    2    0    0  0.63734082598E+02  0.61226036197E+01  0.49206076220E+02  0.80751207401E+02  0.00000000000E+00 0. -1.
</event>
<event>
 7    1  0.4394360E-006  0.1042130E+03  0.7561462E-02  0.1271678E+00
         -2   -1    0    0    0  501 -0.00000000000E+00  0.00000000000E+00  0.22709176275E+02  0.22709176275E+02  0.00000000000E+00 0.  1.
          2   -1    0    0  501    0  0.00000000000E+00 -0.00000000000E+00 -0.60132504470E+03  0.60132504470E+03  0.00000000000E+00 0. -1.
         23    2    1    2    0    0 -0.26895699264E+00 -0.90519738509E+01 -0.21313948374E+03  0.24730755093E+03  0.12510225677E+03 0.  0.
          5    1    3    3  502    0 -0.15489405690E+02 -0.60872920946E+02 -0.69393499197E+02  0.93692925688E+02  0.41800000000E+01 0. -1.
         -5    1    3    3    0  502  0.15220448697E+02  0.51820947095E+02 -0.14374598454E+03  0.15361462524E+03  0.41800000000E+01 0. -1.
        -11    1    1    2    0    0 -0.31636007286E+02  0.37145801314E+02 -0.18765699887E+03  0.19389635566E+03  0.00000000000E+00 0. -1.
         11    1    1    2    0    0  0.31904964278E+02 -0.28093827463E+02 -0.17781938581E+03  0.18283031438E+03  0.00000000000E+00 0.  1.
</event>
<event>
 6    1  0.4394360E-006  0.1238504E+03  0.7561462E-02  0.1236877E+00
         -1   -1    0    0    0  501 -0.00000000000E+00  0.00000000000E+00  0.63232968010E+03  0.63232968010E+03  0.00000000000E+00 0.  1.
          1   -1    0    0  501    0  0.00000000000E+00 -0.00000000000E+00 -0.34226515122E+03  0.34226515122E+03  0.00000000000E+00 0. -1.
          5    1    1    2  502    0  0.38016442511E+02 -0.44764836546E+02  0.16206569603E+03  0.17242941374E+03  0.41800000000E+01 0. -1.
         -5    1    1    2    0  502 -0.80205215584E+02  0.34891916905E+01  0.43949951006E+03  0.44679116241E+03  0.41800000000E+01 0.  1.
        -11    1    1    2    0    0 -0.26380922864E+02  0.28221540209E+02 -0.26371374792E+01  0.38721607883E+02  0.00000000000E+00 0.  1.
         11    1    1    2    0    0  0.68569695938E+02  0.13054104647E+02 -0.30886353974E+03  0.31665264728E+03  0.00000000000E+00 0. -1.
</event>
<event>
 7    1  0.4394360E-006  0.1681015E+03  0.7561462E-02  0.1179842E+00
         -1   -1    0    0    0  501 -0.00000000000E+00  0.00000000000E+00  0.31311151192E+03  0.31311151192E+03  0.00000000000E+00 0.  1.
          1   -1    0    0  501    0  0.00000000000E+00 -0.00000000000E+00 -0.17971196529E+03  0.17971196529E+03  0.00000000000E+00 0. -1.
         23    2    1    2    0    0 -0.24784836666E+02 -0.14561745509E+03  0.22451413406E+03  0.29643991453E+03  0.12510513650E+03 0.  0.
          5    1    3    3  502    0 -0.48966356203E+02 -0.10049892056E+03  0.66172888187E+02  0.12997715416E+03  0.41800000000E+01 0.  1.
         -5    1    3    3    0  502  0.24181519537E+02 -0.45118534535E+02  0.15834124587E+03  0.16646276037E+03  0.41800000000E+01 0.  1.
        -11    1    1    2    0    0  0.54594130013E+02  0.12590963778E+03 -0.63463496384E+02  0.15119977279E+03  0.00000000000E+00 0.  1.
         11    1    1    2    0    0 -0.29809293348E+02  0.19707817315E+02 -0.27651091044E+02  0.45183789893E+02  0.00000000000E+00 0. -1.
</event>
<event>
 7    1  0.4394360E-006  0.1328790E+03  0.7561462E-02  0.1223245E+00
         -1   -1    0    0    0  501 -0.00000000000E+00  0.00000000000E+00  0.40847609873E+03  0.40847609873E+03  0.00000000000E+00 0.  1.
          1   -1    0    0  501    0  0.00000000000E+00 -0.00000000000E+00 -0.68727036495E+02  0.68727036495E+02  0.00000000000E+00 0. -1.
         23    2    1    2    0    0  0.52650958026E+02 -0.65466544314E+02  0.31860364217E+03  0.35244007561E+03  0.12509090410E+03 0.  0.
          5    1    3    3  502    0 -0.32812772553E+01  0.33762025780E+02  0.10358455631E+03  0.10907737562E+03  0.41800000000E+01 0. -1.
         -5    1    3    3    0  502  0.55932235281E+02 -0.99228570093E+02  0.21501908586E+03  0.24336269999E+03  0.41800000000E+01 0. -1.
        -11    1    1    2    0    0 -0.16317495147E+01  0.66546421437E+02  0.29923562985E+02  0.72982932486E+02  0.00000000000E+00 0.  1.
         11    1    1    2    0    0 -0.51019208511E+02 -0.10798771238E+01 -0.87781429215E+01  0.51780127123E+02  0.00000000000E+00 0. -1.
</event>
<event>
 7    1  0.4394360E-006  0.8515916E+02  0.7561462E-02  0.1315017E+00
          1   -1    0    0  501    0  0.00000000000E+00  0.00000000000E+00  0.11035082446E+03  0.11035082446E+03  0.00000000000E+00 0. -1.
         -1   -1    0    0    0  501 -0.00000000000E+00 -0.00000000000E+00 -0.12206211515E+03  0.12206211515E+03  0.00000000000E+00 0.  1.
         23    2    1    2    0    0  0.29351504560E+02 -0.25245351563E+02 -0.13593364430E+02  0.13164884158E+03  0.12509116411E+03 0.  0.
          5    1    3    3  502    0 -0.41364462703E+02 -0.12934916251E+02 -0.35829845165E+02  0.56387773831E+02  0.41800000000E+01 0.  1.
         -5    1    3    3    0  502  0.70715967262E+02 -0.12310435311E+02  0.22236480735E+02  0.75261067750E+02  0.41800000000E+01 0.  1.
        -11    1    1    2    0    0  0.66294729150E+01  0.16594997944E+02 -0.40639158324E+02  0.44394651223E+02  0.00000000000E+00 0.  1.
         11    1    1    2    0    0 -0.35980977475E+02  0.86503536187E+01  0.42521232056E+02  0.56369446807E+02  0.00000000000E+00 0. -1.
</event>
<event>
 7    1  0.4394360E-006  0.1115833E+03  0.7561462E-02  0.1257666E+00
          2   -1    0    0  501    0  0.00000000000E+00  0.00000000000E+00  0.54766087514E+03  0.54766087514E+03  0.00000000000E+00 0. -1.
         -2   -1    0    0    0  501 -0.00000000000E+00 -0.00000000000E+00 -0.30222356473E+02  0.30222356473E+02  0.00000000000E+00 0.  1.
         23    2    1    2    0    0  0.60831928291E+02 -0.28079593808E+02  0.23532431570E+03  0.27479119270E+03  0.12507469344E+03 0.  0.
          5    1    3    3  502    0  0.73442342138E+02  0.28853016222E+02  0.10054744655E+03  0.12788094296E+03  0.41800000000E+01 0. -1.
         -5    1    3    3    0  502 -0.12610413847E+02 -0.56932610030E+02  0.13477686914E+03  0.14691024974E+03  0.41800000000E+01 0. -1.
        -11    1    1    2    0    0  0.99856402901E+01  0.17762407804E+01 -0.88723080643E+00  0.10181120853E+02  0.00000000000E+00 0.  1.
         11    1    1    2    0    0 -0.70817568581E+02  0.26303353028E+02  0.28300143377E+03  0.29291091806E+03  0.00000000000E+00 0. -1.
</event>
<event>
 7    1  0.4394360E-006  0.8869529E+02  0.7561462E-02  0.1306042E+00
         -1   -1    0    0    0  501 -0.00000000000E+00  0.00000000000E+00  0.51318178881E+02  0.51318178881E+02  0.00000000000E+00 0.  1.
          1   -1    0    0  501    0  0.00000000000E+00 -0.00000000000E+00 -0.24379251743E+03  0.24379251743E+03  0.00000000000E+00 0. -1.
         23    2    1    2    0    0 -0.73135258478E+01 -0.27729813830E+02 -0.10360639829E+03  0.16493324345E+03  0.12508500626E+03 0.  0.
          5    1    3    3  502    0  0.31575929598E+02 -0.29404237689E+02  0.10241461333E+02  0.44542209805E+02  0.41800000000E+01 0. -1.
         -5    1    3    3    0  502 -0.38889455446E+02  0.16744238589E+01 -0.11384785962E+03  0.12039103364E+03  0.41800000000E+01 0. -1.
        -11    1    1    2    0    0  0.27671376961E+02 -0.25669450564E+02 -0.39839394950E+02  0.54879897824E+02  0.00000000000E+00 0. -1.
         11    1    1    2    0    0 -0.20357851114E+02  0.53399264394E+02 -0.49028545304E+02  0.75297555036E+02  0.00000000000E+00 0.  1.
</event>
<event>
 7    1  0.4394360E-006  0.1124401E+03  0.7561462E-02  0.1256117E+00
         -2   -1    0    0    0  501 -0.00000000000E+00  0.00000000000E+00  0.11753150986E+03  0.11753150986E+03  0.00000000000E+00 0. -1.
          2   -1    0    0  501    0  0.00000000000E+00 -0.00000000000E+00 -0.11775903038E+03  0.11775903038E+03  0.00000000000E+00 0.  1.
         23    2    1    2    0    0  0.29929926013E+02  0.35645660750E+02  0.29615227513E+01  0.13349791523E+03  0.12508600702E+03 0.  0.
          5    1    3    3  502    0 -0.18246662492E+02 -0.39641677579E+02  0.39083785426E+01  0.44013078922E+02  0.41800000000E+01 0. -1.
         -5    1    3    3    0  502  0.48176588505E+02  0.75287338329E+02 -0.94685579132E+00  0.89484836305E+02  0.41800000000E+01 0. -1.
        -11    1    1    2    0    0  0.21682491416E+02 -0.33499475234E+02  0.20615267616E+02  0.44914747398E+02  0.00000000000E+00 0. -1.
         11    1    1    2    0    0 -0.51612417429E+02 -0.21461855159E+01 -0.23804310892E+02  0.56877877617E+02  0.00000000000E+00 0.  1.
</event>
<event>
 6    1  0.4394360E-006  0.1965650E+03  0.7561462E-02  0.1152670E+00
          1   -1    0    0  501    0  0.00000000000E+00  0.00000000000E+00  0.74848354288E+03  0.74848354288E+03  0.00000000000E+00 0. -1.
         -1   -1    0    0    0  501 -0.00000000000E+00 -0.00000000000E+00 -0.62012247549E+02  0.62012247549E+02  0.00000000000E+00 0.  1.
          5    1    1    2  502    0 -0.44323840528E+02  0.86339248008E+02  0.88370671140E+02  0.13132370884E+03  0.41800000000E+01 0. -1.
         -5    1    1    2    0  502 -0.90631870743E+02 -0.11470205058E+03  0.19608797451E+03  0.24461942390E+03  0.41800000000E+01 0.  1.
        -11    1    1    2    0    0  0.69843415742E+02 -0.15098101294E+02  0.10230277375E+03  0.12478747093E+03  0.00000000000E+00 0.  1.
         11    1    1    2    0    0  0.65112295529E+02  0.43460903867E+02  0.29970987594E+03  0.30976518676E+03  0.00000000000E+00 0. -1.
</event>
<event>
 7    1  0.4394360E-006  0.9034586E+02  0.7561462E-02  0.1302016E+00
         -3   -1    0    0    0  501 -0.00000000000E+00  0.00000000000E+00  0.16155302420E+03  0.16155302420E+03  0.00000000000E+00 0.  1.
          3   -1    0    0  501    0  0.00000000000E+00 -0.00000000000E+00 -0.76085102115E+02  0.76085102115E+02  0.00000000000E+00 0. -1.
         23    2    1    2    0    0 -0.12838099208E+02 -0.71672290367E+01  0.30564134414E+02  0.12960709148E+03  0.12509055074E+03 0.  0.
          5    1    3    3  502    0 -0.37863799118E+02  0.37491480973E+02 -0.20438598547E+02  0.57223134655E+02  0.41800000000E+01 0.  1.
         -5    1    3    3    0  502  0.25025699910E+02 -0.44658710009E+02  0.51002732961E+02  0.72383956822E+02  0.41800000000E+01 0.  1.
        -11    1    1    2    0    0  0.28457184778E+02  0.34303032675E+02  0.61580151437E+02  0.76017264271E+02  0.00000000000E+00 0.  1.
         11    1    1    2    0    0 -0.15619085570E+02 -0.27135803638E+02 -0.66763637624E+01  0.32013770571E+02  0.00000000000E+00 0. -1.
</event>
<event>
 7    1  0.4394360E-006  0.8743581E+02  0.7561462E-02  0.1309183E+00
          3   -1    0    0  501    0  0.00000000000E+00  0.00000000000E+00  0.36471147602E+03  0.36471147602E+03  0.00000000000E+00 0. -1.
         -3   -1    0    0    0  501 -0.00000000000E+00 -0.00000000000E+00 -0.51463270847E+02  0.51463270847E+02  0.00000000000E+00 0.  1.
         23    2    1    2    0    0  0.11772642211E+02 -0.40778190903E+02  0.63059540130E+02  0.14637240535E+03  0.12508764722E+03 0.  0.
          5    1    3    3  502    0  0.10754966237E+02 -0.57947983432E+02  0.93824425514E+02  0.11087891281E+03  0.41800000000E+01 0. -1.
         -5    1    3    3    0  502  0.10176759744E+01  0.17169792529E+02 -0.30764885383E+02  0.35493492537E+02  0.41800000000E+01 0. -1.
        -11    1    1    2    0    0 -0.45022956457E+02  0.46069953155E+02  0.19268060184E+03  0.20316328782E+03  0.00000000000E+00 0. -1.
         11    1    1    2    0    0  0.33250314246E+02 -0.52917622513E+01  0.57508063208E+02  0.66639053708E+02  0.00000000000E+00 0.  1.
</event>
<event>
 7    1  0.4394360E-006  0.1423532E+03  0.7561462E-02  0.1210197E+00
          1   -1    0    0  501    0  0.00000000000E+00  0.00000000000E+00  0.74055685242E+02  0.74055685242E+02  0.00000000000E+00 0. -1.
         -1   -1    0    0    0  501 -0.00000000000E+00 -0.00000000000E+00 -0.36182271331E+03  0.36182271331E+03  0.00000000000E+00 0.  1.
         23    2    1    2    0    0  0.84048243667E+01 -0.34958012148E+02 -0.12210360700E+03  0.17846811421E+03  0.12509545659E+03 0.  0.
          5    1    3    3  502    0 -0.54527903738E+02 -0.36419202315E+02 -0.75160846091E+02  0.99831236436E+02  0.41800000000E+01 0.  1.
         -5    1    3    3    0  502  0.62932728104E+02  0.14611901672E+01 -0.46942760914E+02  0.78636877771E+02  0.41800000000E+01 0.  1.
        -11    1    1    2    0    0 -0.17545777048E+02  0.94276165213E+02 -0.17213513404E+03  0.19704404074E+03  0.00000000000E+00 0.  1.
         11    1    1    2    0    0  0.91409526816E+01 -0.59318153066E+02  0.64717129708E+01  0.60366243612E+02  0.00000000000E+00 0. -1.
</event>
<event>
 7    1  0.4394360E-006  0.8084112E+02  0.7561462E-02  0.1326681E+00
         -1   -1    0    0    0  501 -0.00000000000E+00  0.00000000000E+00  0.93444941767E+02  0.93444941767E+02  0.00000000000E+00 0.  1.
          1   -1    0    0  501    0  0.00000000000E+00 -0.00000000000E+00 -0.14439017407E+03  0.14439017407E+03  0.00000000000E+00 0. -1.
         23    2    1    2    0    0 -0.81526247693E+01 -0.12391623831E+02  0.10579060748E+02  0.12640959382E+03  0.12508977277E+03 0.  0.
          5    1    3    3  502    0 -0.12019171779E+02  0.39342377739E+02  0.47215309372E+02  0.62761779895E+02  0.41800000000E+01 0. -1.
         -5    1    3    3    0  502  0.38665470099E+01 -0.51734001570E+02 -0.36636248624E+02  0.63647813926E+02  0.41800000000E+01 0. -1.
        -11    1    1    2    0    0 -0.29084988768E+02  0.14000801865E+00  0.92491238420E+01  0.30520525319E+02  0.00000000000E+00 0.  1.
         11    1    1    2    0    0  0.37237613538E+02  0.12251615812E+02 -0.70773416892E+02  0.80904996697E+02  0.00000000000E+00 0. -1.
</event>
<event>
 7    1  0.4974367E-006  0.1342430E+03  0.7561462E-02  0.1221292E+00
          1   -1    0    0  501    0  0.00000000000E+00  0.00000000000E+00  0.22322145926E+03  0.22322145926E+03  0.00000000000E+00 0. -1.
         -1   -1    0    0    0  501 -0.00000000000E+00 -0.00000000000E+00 -0.10744280223E+03  0.10744280223E+03  0.00000000000E+00 0.  1.
         23    2    1    2    0    0  0.84749685135E+02  0.69634722409E+02  0.50911096723E+02  0.17398525258E+03  0.12508966644E+03 0.  0.
          5    1    3    3  502    0  0.10292441733E+03  0.19540577038E+02  0.74807374620E+01  0.10511281400E+03  0.41800000000E+01 0. -1.
         -5    1    3    3    0  502 -0.18174732194E+02  0.50094145371E+02  0.43430359261E+02  0.68872438583E+02  0.41800000000E+01 0. -1.
        -11    1    1    2    0    0 -0.46637925588E+02 -0.44989120353E+02 -0.13430389416E+02  0.66177733514E+02  0.00000000000E+00 0.  1.
         11    1    1    2    0    0 -0.38111759547E+02 -0.24645602057E+02  0.78297949726E+02  0.90501275393E+02  0.00000000000E+00 0. -1.
</event>
<event>
 7    1  0.4394360E-006  0.1103530E+03  0.7561462E-02  0.1259918E+00
          2   -1    0    0  501    0  0.00000000000E+00  0.00000000000E+00  0.48917872122E+03  0.48917872122E+03  0.00000000000E+00 0.  1.
         -2   -1    0    0    0  501 -0.00000000000E+00 -0.00000000000E+00 -0.33858648671E+02  0.33858648671E+02  0.00000000000E+00 0. -1.
         23    2    1    2    0    0 -0.64347684156E+02  0.18302422408E+02  0.20233623956E+03  0.24711026978E+03  0.12509168024E+03 0.  0.
          5    1    3    3  502    0 -0.88977918031E+02  0.17631880183E+02  0.20270703391E+03  0.22211611174E+03  0.41800000000E+01 0. -1.
         -5    1    3    3    0  502  0.24630233875E+02  0.67054222551E+00 -0.37079434794E+00  0.24994158039E+02  0.41800000000E+01 0. -1.
        -11    1    1    2    0    0  0.11371039553E+02 -0.44415178027E+02  0.70267151609E+02  0.83901616045E+02  0.00000000000E+00 0. -1.
         11    1    1    2    0    0  0.52976644603E+02  0.26112755619E+02  0.18271668137E+03  0.19202548407E+03  0.00000000000E+00 0.  1.
</event>
<event>
 7    1  0.4394360E-006  0.1091212E+03  0.7561462E-02  0.1262206E+00
          3   -1    0    0  501    0  0.00000000000E+00  0.00000000000E+00  0.12882153743E+03  0.12882153743E+03  0.00000000000E+00 0. -1.
         -3   -1    0    0    0  501 -0.00000000000E+00 -0.00000000000E+00 -0.94710140118E+02  0.94710140118E+02  0.00000000000E+00 0.  1.
         23    2    1    2    0    0  0.19578053411E+02 -0.90754524514E+01  0.26393490987E+02  0.12965212106E+03  0.12508953640E+03 0.  0.
          5    1    3    3  502    0  0.43969802327E+01  0.57846147277E+02  0.10821938066E+02  0.59161617063E+02  0.41800000000E+01 0. -1.
         -5    1    3    3    0  502  0.15181073179E+02 -0.66921599729E+02  0.15571552921E+02  0.70490503995E+02  0.41800000000E+01 0. -1.
        -11    1    1    2    0    0  0.33561595325E+00  0.47791566427E+02  0.14210981564E+02  0.49860790774E+02  0.00000000000E+00 0.  1.
         11    1    1    2    0    0 -0.19913669365E+02 -0.38716113975E+02 -0.64930752408E+01  0.44018765714E+02  0.00000000000E+00 0. -1.
</event>
<event>
 7    1  0.4394360E-006  0.9687724E+02  0.7561462E-02  0.1287003E+00
          1   -1    0    0  501    0  0.00000000000E+00  0.00000000000E+00  0.98032601729E+02  0.98032601729E+02  0.00000000000E+00 0. -1.
         -1   -1    0    0    0  501 -0.00000000000E+00 -0.00000000000E+00 -0.25768283998E+03  0.25768283998E+03  0.00000000000E+00 0.  1.
         23    2    1    2    0    0  0.49381810655E+02  0.19230120894E+02 -0.20140901660E+03  0.24293906868E+03  0.12508172668E+03 0.  0.
          5    1    3    3  502    0  0.83210184713E+02  0.43433654441E+02 -0.14326479139E+03  0.17132626777E+03  0.41800000000E+01 0.  1.
         -5    1    3    3    0  502 -0.33828374059E+02 -0.24203533546E+02 -0.58144225216E+02  0.71612800906E+02  0.41800000000E+01 0.  1.
        -11    1    1    2    0    0 -0.77104049496E+01 -0.14015534101E+02 -0.27479950620E+02  0.31796748681E+02  0.00000000000E+00 0.  1.
         11    1    1    2    0    0 -0.41671405705E+02 -0.52145867938E+01  0.69238728976E+02  0.80979624345E+02  0.00000000000E+00 0. -1.
</event>
<event>
 7    1  0.4394360E-006  0.1238765E+03  0.7561462E-02  0.1236836E+00
          1   -1    0    0  501    0  0.00000000000E+00  0.00000000000E+00  0.22014105802E+03  0.22014105802E+03  0.00000000000E+00 0. -1.
         -1   -1    0    0    0  501 -0.00000000000E+00 -0.00000000000E+00 -0.79378811496E+02  0.79378811496E+02  0.00000000000E+00 0.  1.
         23    2    1    2    0    0 -0.77146470005E+01  0.73199538098E+02  0.98121937446E+02  0.17519686069E+03  0.12509331409E+03 0.  0.
          5    1    3    3  502    0 -0.41846902035E+02 -0.81061218519E+01 -0.50514643292E+00  0.42832230788E+02  0.41800000000E+01 0.  1.
         -5    1    3    3    0  502  0.34132255034E+02  0.81305659950E+02  0.98627083879E+02  0.13236462990E+03  0.41800000000E+01 0.  1.
        -11    1    1    2    0    0 -0.40965940427E+02 -0.24226248324E+02  0.14452494269E+02  0.49739259881E+02  0.00000000000E+00 0.  1.
         11    1    1    2    0    0  0.48680587427E+02 -0.48973289775E+02  0.28187814808E+02  0.74583748949E+02  0.00000000000E+00 0. -1.
</event>
<event>
 7    1  0.4394360E-006  0.1129874E+03  0.7561462E-02  0.1255136E+00
         -1   -1    0    0    0  501 -0.00000000000E+00  0.00000000000E+00  0.45845720765E+02  0.45845720765E+02  0.00000000000E+00 0.  1.
          1   -1    0    0  501    0  0.00000000000E+00 -0.00000000000E+00 -0.53733010630E+03  0.53733010630E+03  0.00000000000E+00 0. -1.
         23    2    1    2    0    0 -0.67543306613E+02  0.76507732775E+02 -0.17326768967E+03  0.23681406140E+03  0.12507468149E+03 0.  0.
          5    1    3    3  502    0 -0.35306336117E+02  0.68302623627E+02 -0.19497991382E+02  0.79431919480E+02  0.41800000000E+01 0. -1.
         -5    1    3    3    0  502 -0.32236970496E+02  0.82051091476E+01 -0.15376969829E+03  0.15738214192E+03  0.41800000000E+01 0. -1.
        -11    1    1    2    0    0  0.23312289077E+01 -0.41245921559E+02 -0.21701083519E+03  0.22090804255E+03  0.00000000000E+00 0. -1.
         11    1    1    2    0    0  0.65212077705E+02 -0.35261811216E+02 -0.10120586067E+03  0.12545372312E+03  0.00000000000E+00 0.  1.
</event>
<event>
 7    1  0.4394360E-006  0.1189123E+03  0.7561462E-02  0.1244902E+00
         -2   -1    0    0    0  501 -0.00000000000E+00  0.00000000000E+00  0.34118385399E+02  0.34118385399E+02  0.00000000000E+00 0.  1.
          2   -1    0    0  501    0  0.00000000000E+00 -0.00000000000E+00 -0.44105777218E+03  0.44105777218E+03  0.00000000000E+00 0. -1.
         23    2    1    2    0    0  0.53921973067E+02 -0.12294543430E+02 -0.25014375496E+03  0.28509202900E+03  0.12508729702E+03 0.  0.
          5    1    3    3  502    0  0.45315001661E+02 -0.64682077755E+02 -0.11260186691E+03  0.13760041203E+03  0.41800000000E+01 0. -1.
         -5    1    3    3    0  502  0.86069714062E+01  0.52387534324E+02 -0.13754188805E+03  0.14749161698E+03  0.41800000000E+01 0. -1.
        -11    1    1    2    0    0  0.14576610822E+02 -0.23912204647E+02 -0.26869896356E+02  0.38810597062E+02  0.00000000000E+00 0.  1.
         11    1    1    2    0    0 -0.68498583889E+02  0.36206748077E+02 -0.12992573547E+03  0.15127353152E+03  0.00000000000E+00 0. -1.
</event>
<event>
 7    1  0.4394360E-006  0.1359841E+03  0.7561462E-02  0.1218837E+00
          2   -1    0    0  501    0  0.00000000000E+00  0.00000000000E+00  0.11250318882E+03  0.11250318882E+03  0.00000000000E+00 0. -1.
         -2   -1    0    0    0  501 -0.00000000000E+00 -0.00000000000E+00 -0.20662028550E+03  0.20662028550E+03  0.00000000000E+00 0.  1.
         23    2    1    2    0    0 -0.20711141227E+02  0.10216697356E+03 -0.83375502175E+02  0.18293921073E+03  0.12509291987E+03 0.  0.
          5    1    3    3  502    0  0.72860583370E+01  0.12403501036E+03 -0.78011869400E+02  0.14676884754E+03  0.41800000000E+01 0. -1.
         -5    1    3    3    0  502 -0.27997199564E+02 -0.21868036797E+02 -0.53636327754E+01  0.36170363191E+02  0.41800000000E+01 0. -1.
        -11    1    1    2    0    0  0.75748998259E-01 -0.85099730696E+02 -0.42102943505E+02  0.94945393539E+02  0.00000000000E+00 0.  1.
         11    1    1    2    0    0  0.20635392229E+02 -0.17067242869E+02  0.31361349000E+02  0.41238870046E+02  0.00000000000E+00 0. -1.
</event>
<event>
 7    1  0.4394360E-006  0.8478363E+02  0.7561462E-02  0.1315999E+00
          2   -1    0    0  501    0  0.00000000000E+00  0.00000000000E+00  0.11212404377E+03  0.11212404377E+03  0.00000000000E+00 0. -1.
         -2   -1    0    0    0  501 -0.00000000000E+00 -0.00000000000E+00 -0.15913335672E+03  0.15913335672E+03  0.00000000000E+00 0.  1.
         23    2    1    2    0    0 -0.57027930745E+02 -0.32460248843E+02 -0.67792929186E+02  0.15667496379E+03  0.12508121518E+03 0.  0.
          5    1    3    3  502    0 -0.57819455976E+02 -0.53919029924E+02 -0.93764529208E+02  0.12271760515E+03  0.41800000000E+01 0. -1.
         -5    1    3    3    0  502  0.79152523086E+00  0.21458781081E+02  0.25971600022E+02  0.33957358634E+02  0.41800000000E+01 0. -1.
        -11    1    1    2    0    0  0.98239571233E+01  0.15523322289E+02 -0.35025531627E+02  0.39550872736E+02  0.00000000000E+00 0.  1.
         11    1    1    2    0    0  0.47203973622E+02  0.16936926554E+02  0.55809147865E+02  0.75031563973E+02  0.00000000000E+00 0. -1.
</event>
<event>
 7    1  0.4394360E-006  0.1303012E+03  0.7561462E-02  0.1227009E+00
         -1   -1    0    0    0  501 -0.00000000000E+00  0.00000000000E+00  0.26922723566E+02  0.26922723566E+02  0.00000000000E+00 0.  1.
          1   -1    0    0  501    0  0.00000000000E+00 -0.00000000000E+00 -0.10091113145E+04  0.10091113145E+04  0.00000000000E+00 0. -1.
         23    2    1    2    0    0 -0.10670192505E+03 -0.62227322677E+02 -0.53379723805E+03  0.56085682295E+03  0.11984716936E+03 0.  0.
          5    1    3    3  502    0 -0.10071828955E+03 -0.71328613876E+02 -0.53505699513E+03  0.54912239569E+03  0.41800000000E+01 0. -1.
         -5    1    3    3    0  502 -0.59836354972E+01  0.91012911988E+01  0.12597570819E+01  0.11734427261E+02  0.41800000000E+01 0.  1.
        -11    1    1    2    0    0  0.31860980725E+02  0.75012216512E+01 -0.23516737250E+02  0.40304185265E+02  0.00000000000E+00 0. -1.
         11    1    1    2    0    0  0.74840944325E+02  0.54726101026E+02 -0.42487461563E+03  0.43487302985E+03  0.00000000000E+00 0.  1.
</event>
<event>
 7    1  0.4394360E-006  0.1190818E+03  0.7561462E-02  0.1244620E+00
         -1   -1    0    0    0  501 -0.00000000000E+00  0.00000000000E+00  0.34722563930E+02  0.34722563930E+02  0.00000000000E+00 0.  1.
          1   -1    0    0  501    0  0.00000000000E+00 -0.00000000000E+00 -0.44491349511E+03  0.44491349511E+03  0.00000000000E+00 0. -1.
         23    2    1    2    0    0 -0.38626360363E+02 -0.42564701503E+02 -0.19581750416E+03  0.23936519997E+03  0.12508978573E+03 0.  0.
          5    1    3    3  502    0 -0.82877991849E+02 -0.25279112163E+02 -0.14972684837E+03  0.17304160358E+03  0.41800000000E+01 0.  1.
         -5    1    3    3    0  502  0.44251631487E+02 -0.17285589340E+02 -0.46090655788E+02  0.66323596397E+02  0.41800000000E+01 0.  1.
        -11    1    1    2    0    0 -0.27826518787E+02  0.16440611126E+02 -0.10319530174E+03  0.10813824089E+03  0.00000000000E+00 0. -1.
         11    1    1    2    0    0  0.66452879149E+02  0.26124090377E+02 -0.11117812528E+03  0.13213261818E+03  0.00000000000E+00 0.  1.
</event>
<event>
 7    1  0.4394360E-006  0.9186069E+02  0.7561462E-02  0.1298407E+00
         -2   -1    0    0    0  501 -0.00000000000E+00  0.00000000000E+00  0.54972802603E+02  0.54972802603E+02  0.00000000000E+00 0.  1.
          2   -1    0    0  501    0  0.00000000000E+00 -0.00000000000E+00 -0.25474796228E+03  0.25474796228E+03  0.00000000000E+00 0. -1.
         23    2    1    2    0    0 -0.24997631692E+02 -0.11399696632E+02 -0.61611084383E+02  0.14212147087E+03  0.12509097525E+03 0.  0.
          5    1    3    3  502    0  0.34845623662E+02 -0.18933543952E+02  0.16661073027E+02  0.43217592823E+02  0.41800000000E+01 0. -1.
         -5    1    3    3    0  502 -0.59843255354E+02  0.75338473201E+01 -0.78272157410E+02  0.98903878045E+02  0.41800000000E+01 0. -1.
        -11    1    1    2    0    0 -0.24983371688E+02  0.20822132750E+02 -0.96558419573E+02  0.10188846090E+03  0.00000000000E+00 0. -1.
         11    1    1    2    0    0  0.49981003380E+02 -0.94224361183E+01 -0.41605655722E+02  0.65710833120E+02  0.00000000000E+00 0.  1.
</event>
<event>
 7    1  0.4394360E-006  0.1229351E+03  0.7561462E-02  0.1238332E+00
         -1   -1    0    0    0  501 -0.00000000000E+00  0.00000000000E+00  0.56534041281E+02  0.56534041281E+02  0.00000000000E+00 0.  1.
          1   -1    0    0  501    0  0.00000000000E+00 -0.00000000000E+00 -0.46287756790E+03  0.46287756790E+03  0.00000000000E+00 0. -1.
         23    2    1    2    0    0  0.77914916972E+02 -0.38976913487E+02 -0.83764781326E+02  0.17393451914E+03  0.12508694691E+03 0.  0.
          5    1    3    3  502    0  0.12520535901E+02  0.37224928370E+02 -0.58020676288E+02  0.70187822223E+02  0.41800000000E+01 0. -1.
         -5    1    3    3    0  502  0.65394381070E+02 -0.76201841857E+02 -0.25744105038E+02  0.10374669692E+03  0.41800000000E+01 0. -1.
        -11    1    1    2    0    0 -0.49325977615E+02 -0.88873272277E+01 -0.24421101361E+03  0.24930113482E+03  0.00000000000E+00 0. -1.
         11    1    1    2    0    0 -0.28588939357E+02  0.47864240714E+02 -0.78367731675E+02  0.96175955210E+02  0.00000000000E+00 0.  1.
</event>
<event>
 7    1  0.4394360E-006  0.2681552E+03  0.7561462E-02  0.1102340E+00
         -1   -1    0    0    0  501 -0.00000000000E+00  0.00000000000E+00  0.65388856640E+02  0.65388856640E+02  0.00000000000E+00 0.  1.
          1   -1    0    0  501    0  0.00000000000E+00 -0.00000000000E+00 -0.11586861345E+04  0.11586861345E+04  0.00000000000E+00 0. -1.
         23    2    1    2    0    0 -0.24405354748E+03  0.62775219105E+02 -0.59595004568E+03  0.65902002088E+03  0.12509224118E+03 0.  0.
          5    1    3    3  502    0 -0.60552287272E+02  0.76022951576E+02 -0.20147930724E+03  0.22373522813E+03  0.41800000000E+01 0. -1.
         -5    1    3    3    0  502 -0.18350126021E+03 -0.13247732472E+02 -0.39447073843E+03  0.43528479275E+03  0.41800000000E+01 0. -1.
        -11    1    1    2    0    0  0.69309923546E+02  0.47702747932E-01 -0.67205467172E+02  0.96542439349E+02  0.00000000000E+00 0.  1.
         11    1    1    2    0    0  0.17474362394E+03 -0.62822921853E+02 -0.43014176500E+03  0.46851253090E+03  0.00000000000E+00 0. -1.
</event>
<event>
 7    1  0.4394360E-006  0.8652283E+02  0.7561462E-02  0.1311498E+00
          2   -1    0    0  501    0  0.00000000000E+00  0.00000000000E+00  0.21214955381E+03  0.21214955381E+03  0.00000000000E+00 0.  1.
         -2   -1    0    0    0  501 -0.00000000000E+00 -0.00000000000E+00 -0.73853352652E+02  0.73853352652E+02  0.00000000000E+00 0. -1.
         23    2    1    2    0    0 -0.46460656868E+01  0.37946810736E+01  0.60480693623E+01  0.12537737955E+03  0.12508765978E+03 0.  0.
          5    1    3    3  502    0  0.45300293243E+02  0.10097369530E+02 -0.36609168607E+02  0.59260248611E+02  0.41800000000E+01 0.  1.
         -5    1    3    3    0  502 -0.49946358929E+02 -0.63026884560E+01  0.42657237970E+02  0.66117130937E+02  0.41800000000E+01 0.  1.
        -11    1    1    2    0    0 -0.35533297806E+02 -0.39349246836E+01  0.10784406585E+03  0.11361532213E+03  0.00000000000E+00 0. -1.
         11    1    1    2    0    0  0.40179363492E+02  0.14024360994E+00  0.24404065953E+02  0.47010204785E+02  0.00000000000E+00 0.  1.
</event>
<event>
 7    1  0.4394360E-006  0.1185709E+03  0.7561462E-02  0.1245473E+00
         -1   -1    0    0    0  501 -0.00000000000E+00  0.00000000000E+00  0.10060888092E+03  0.10060888092E+03  0.00000000000E+00 0.  1.
          1   -1    0    0  501    0  0.00000000000E+00 -0.00000000000E+00 -0.17224689386E+03  0.17224689386E+03  0.00000000000E+00 0. -1.
         23    2    1    2    0    0  0.44052903140E+02 -0.48635776990E+02  0.12462787558E+01  0.14126286737E+03  0.12509015712E+03 0.  0.
          5    1    3    3  502    0 -0.10536509124E+01 -0.75579322546E+02 -0.28324180663E+02  0.80827444515E+02  0.41800000000E+01 0. -1.
         -5    1    3    3    0  502  0.45106554052E+02  0.26943545556E+02  0.29570459418E+02  0.60435422856E+02  0.41800000000E+01 0. -1.
        -11    1    1    2    0    0 -0.28928992417E+01  0.64541422285E+02 -0.51156412603E+02  0.82407175701E+02  0.00000000000E+00 0.  1.
         11    1    1    2    0    0 -0.41160003898E+02 -0.15905645295E+02 -0.21727879096E+02  0.49185731703E+02  0.00000000000E+00 0. -1.
</event>
<event>
 7    1  0.4394360E-006  0.1176844E+03  0.7561462E-02  0.1246967E+00
         -2   -1    0    0    0  501 -0.00000000000E+00  0.00000000000E+00  0.42986580956E+02  0.42986580956E+02  0.00000000000E+00 0.  1.
          2   -1    0    0  501    0  0.00000000000E+00 -0.00000000000E+00 -0.36105278873E+03  0.36105278873E+03  0.00000000000E+00 0. -1.
         23    2    1    2    0    0 -0.34504987368E+02  0.44396905161E+02 -0.13706693941E+03  0.19389745581E+03  0.12508876108E+03 0.  0.
          5    1    3    3  502    0 -0.45887110009E+02  0.82826839389E+02 -0.11073867009E+03  0.14576157807E+03  0.41800000000E+01 0.  1.
         -5    1    3    3    0  502  0.11382122641E+02 -0.38429934228E+02 -0.26328269328E+02  0.48135877746E+02  0.41800000000E+01 0.  1.
        -11    1    1    2    0    0  0.30129068259E+02 -0.69005421375E+02 -0.16233587852E+03  0.17894816677E+03  0.00000000000E+00 0. -1.
         11    1    1    2    0    0  0.43759191090E+01  0.24608516214E+02 -0.18663389837E+02  0.31193747106E+02  0.00000000000E+00 0.  1.
</event>
<event>
 7    1  0.4394360E-006  0.9176795E+02  0.7561462E-02  0.1298626E+00
         -2   -1    0    0    0  501 -0.00000000000E+00  0.00000000000E+00  0.47136489045E+03  0.47136489045E+03  0.00000000000E+00 0.  1.
          2   -1    0    0  501    0  0.00000000000E+00 -0.00000000000E+00 -0.38884863458E+02  0.38884863458E+02  0.00000000000E+00 0. -1.
         23    2    1    2    0    0  0.22079357517E+02 -0.75699836442E+02  0.26907523746E+03  0.30702913441E+03  0.12508973858E+03 0.  0.
          5    1    3    3  502    0 -0.55647932870E+01 -0.52697784145E+02  0.22352083938E+02  0.57663779225E+02  0.41800000000E+01 0. -1.
         -5    1    3    3    0  502  0.27644150804E+02 -0.23002052297E+02  0.24672315353E+03  0.24936535519E+03  0.41800000000E+01 0. -1.
        -11    1    1    2    0    0  0.80282484627E+01  0.59398461272E+02  0.33054048981E+02  0.68448521744E+02  0.00000000000E+00 0. -1.
         11    1    1    2    0    0 -0.30107605980E+02  0.16301375170E+02  0.13035074055E+03  0.13477209775E+03  0.00000000000E+00 0.  1.
</event>
<event>
 7    1  0.4394360E-006  0.3635994E+03  0.7561462E-02  0.1057168E+00
         -1   -1    0    0    0  501 -0.00000000000E+00  0.00000000000E+00  0.12366957093E+03  0.12366957093E+03  0.00000000000E+00 0.  1.
          1   -1    0    0  501    0  0.00000000000E+00 -0.00000000000E+00 -0.10991763523E+04  0.10991763523E+04  0.00000000000E+00 0. -1.
         23    2    1    2    0    0 -0.34749025935E+03  0.42083615222E+02 -0.55843565673E+03  0.67083519276E+03  0.12509581178E+03 0.  0.
          5    1    3    3  502    0 -0.11936987377E+03  0.74372014051E+02 -0.23001536513E+03  0.26963846876E+03  0.41800000000E+01 0.  1.
         -5    1    3    3    0  502 -0.22812038558E+03 -0.32288398829E+02 -0.32842029160E+03  0.40119672401E+03  0.41800000000E+01 0.  1.
        -11    1    1    2    0    0  0.28324798273E+03 -0.80517381361E+01 -0.28897967965E+03  0.40472645757E+03  0.00000000000E+00 0.  1.
         11    1    1    2    0    0  0.64242276623E+02 -0.34031877086E+02 -0.12809144501E+03  0.14728427292E+03  0.00000000000E+00 0. -1.
</event>
<event>
 7    1  0.4394360E-006  0.1130592E+03  0.7561462E-02  0.1255007E+00
          4   -1    0    0  501    0  0.00000000000E+00  0.00000000000E+00  0.45004772085E+02  0.45004772085E+02  0.00000000000E+00 0. -1.
         -4   -1    0    0    0  501 -0.00000000000E+00 -0.00000000000E+00 -0.30247765999E+03  0.30247765999E+03  0.00000000000E+00 0.  1.
         23    2    1    2    0    0  0.21620608623E+01  0.41045203609E+02 -0.16644472033E+03  0.21222085938E+03  0.12507783570E+03 0.  0.
          5    1    3    3  502    0 -0.56769812013E+02  0.34814696081E+02 -0.11802278106E+03  0.13557921621E+03  0.41800000000E+01 0.  1.
         -5    1    3    3    0  502  0.58931872875E+02  0.62305075276E+01 -0.48421939264E+02  0.76641643163E+02  0.41800000000E+01 0.  1.
        -11    1    1    2    0    0 -0.20249323422E+02 -0.66072567867E+02 -0.65108819150E+02  0.94946182939E+02  0.00000000000E+00 0.  1.
         11    1    1    2    0    0  0.18087262559E+02  0.25027364259E+02 -0.25919348431E+02  0.40315389763E+02  0.00000000000E+00 0. -1.
</event>
<event>
 7    1  0.4394360E-006  0.1227732E+03  0.7561462E-02  0.1238591E+00
          1   -1    0    0  501    0  0.00000000000E+00  0.00000000000E+00  0.10202149930E+03  0.10202149930E+03  0.00000000000E+00 0. -1.
         -1   -1    0    0    0  501 -0.00000000000E+00 -0.00000000000E+00 -0.20419859348E+03  0.20419859348E+03  0.00000000000E+00 0.  1.
         23    2    1    2    0    0 -0.60536712221E+02  0.23692316833E+02 -0.12856193697E+03  0.19079150268E+03  0.12508879428E+03 0.  0.
          5    1    3    3  502    0 -0.33696390462E+02  0.75012344127E+02 -0.66882093311E+02  0.10608008912E+03  0.41800000000E+01 0.  1.
         -5    1    3    3    0  502 -0.26840321759E+02 -0.51320027294E+02 -0.61679843656E+02  0.84711413558E+02  0.41800000000E+01 0.  1.
        -11    1    1    2    0    0  0.71042892196E+02 -0.43084134683E+02  0.36999536857E+02  0.90952190302E+02  0.00000000000E+00 0. -1.
         11    1    1    2    0    0 -0.10506179975E+02  0.19391817850E+02 -0.10614694071E+02  0.24476399805E+02  0.00000000000E+00 0.  1.
</event>
<event>
 7    1  0.4394360E-006  0.2630969E+03  0.7561462E-02  0.1105297E+00
          2   -1    0    0  501    0  0.00000000000E+00  0.00000000000E+00  0.83026455201E+03  0.83026455201E+03  0.00000000000E+00 0. -1.
         -2   -1    0    0    0  501 -0.00000000000E+00 -0.00000000000E+00 -0.10299792430E+03  0.10299792430E+03  0.00000000000E+00 0.  1.
         23    2    1    2    0    0 -0.46706998731E+02  0.24466613817E+03  0.20126682562E+03  0.34381413022E+03  0.12512696811E+03 0.  0.
          5    1    3    3  502    0  0.39102972372E+02  0.52022267553E+02  0.68488638096E+02  0.94570210521E+02  0.41800000000E+01 0. -1.
         -5    1    3    3    0  502 -0.85809971103E+02  0.19264387061E+03  0.13277818752E+03  0.24924391970E+03  0.41800000000E+01 0. -1.
        -11    1    1    2    0    0  0.10918092476E+02 -0.11550464870E+03  0.34665929801E+03  0.36555874701E+03  0.00000000000E+00 0.  1.
         11    1    1    2    0    0  0.35788906255E+02 -0.12916148946E+03  0.17934050409E+03  0.22388959908E+03  0.00000000000E+00 0. -1.
</event>
<event>
 7    1  0.4394360E-006  0.2395952E+03  0.7561462E-02  0.1120063E+00
         -2   -1    0    0    0  501 -0.00000000000E+00  0.00000000000E+00  0.22782480969E+04  0.22782480969E+04  0.00000000000E+00 0.  1.
          2   -1    0    0  501    0  0.00000000000E+00 -0.00000000000E+00 -0.44155251759E+02  0.44155251759E+02  0.00000000000E+00 0. -1.
         23    2    1    2    0    0 -0.14231769654E+02 -0.21830866356E+03  0.18786140023E+04  0.18954415641E+04  0.12508771875E+03 0.  0.
          5    1    3    3  502    0 -0.35032699257E+02 -0.37237938460E+01  0.21426574728E+03  0.21718296323E+03  0.41800000000E+01 0. -1.
         -5    1    3    3    0  502  0.20800929603E+02 -0.21458486971E+03  0.16643482550E+04  0.16782586009E+04  0.41800000000E+01 0. -1.
        -11    1    1    2    0    0 -0.24969423719E+02  0.59921897577E+02  0.55186149783E+02  0.85203386423E+02  0.00000000000E+00 0. -1.
         11    1    1    2    0    0  0.39201193373E+02  0.15838676598E+03  0.30029269306E+03  0.34175839815E+03  0.00000000000E+00 0.  1.
</event>
<event>
 7    1  0.4394360E-006  0.9377701E+02  0.7561462E-02  0.1293955E+00
         -2   -1    0    0    0  501 -0.00000000000E+00  0.00000000000E+00  0.10829151570E+03  0.10829151570E+03  0.00000000000E+00 0. -1.
          2   -1    0    0  501    0  0.00000000000E+00 -0.00000000000E+00 -0.10939452336E+03  0.10939452336E+03  0.00000000000E+00 0.  1.
         23    2    1    2    0    0 -0.97635866633E+01  0.11672085005E+02 -0.42165332791E+00  0.12600556100E+03  0.12508260638E+03 0.  0.
          5    1    3    3  502    0  0.53933924026E+02 -0.14841255564E+02  0.68108438211E+01  0.56506557329E+02  0.41800000000E+01 0.  1.
         -5    1    3    3    0  502 -0.63697510690E+02  0.26513340569E+02 -0.72324971490E+01  0.69499003670E+02  0.41800000000E+01 0.  1.
        -11    1    1    2    0    0  0.31602029219E+02  0.83752227776E+01 -0.33941912004E+02  0.47126277147E+02  0.00000000000E+00 0.  1.
         11    1    1    2    0    0 -0.21838442555E+02 -0.20047307782E+02  0.33260557676E+02  0.44554200918E+02  0.00000000000E+00 0. -1.
</event>
<event>
 7    1  0.4394360E-006  0.3297472E+03  0.7561462E-02  0.1071249E+00
          1   -1    0    0  501    0  0.00000000000E+00  0.00000000000E+00  0.50312666759E+03  0.50312666759E+03  0.00000000000E+00 0. -1.
         -1   -1    0    0    0  501 -0.00000000000E+00 -0.00000000000E+00 -0.27423633018E+03  0.27423633018E+03  0.00000000000E+00 0.  1.
         23    2    1    2    0    0 -0.31456312148E+03 -0.35456730511E+02 -0.52196150283E+02  0.34435318957E+03  0.12509014322E+03 0.  0.
          5    1    3    3  502    0 -0.74955480833E+02 -0.63863139153E+02 -0.23563271538E+02  0.10133866397E+03  0.41800000000E+01 0. -1.
         -5    1    3    3    0  502 -0.23960764065E+03  0.28406408643E+02 -0.28632878745E+02  0.24301452560E+03  0.41800000000E+01 0. -1.
        -11    1    1    2    0    0  0.21388845629E+03  0.32588044125E+01  0.23476873407E+03  0.31760864289E+03  0.00000000000E+00 0. -1.
         11    1    1    2    0    0  0.10067466519E+03  0.32197926098E+02  0.46317753623E+02  0.11540116532E+03  0.00000000000E+00 0.  1.
</event>
<event>
 7    1  0.4394360E-006  0.1350941E+03  0.7561462E-02  0.1220087E+00
          3   -1    0    0  501    0  0.00000000000E+00  0.00000000000E+00  0.43453402800E+02  0.43453402800E+02  0.00000000000E+00 0. -1.
         -3   -1    0    0    0  501 -0.00000000000E+00 -0.00000000000E+00 -0.59873724309E+03  0.59873724309E+03  0.00000000000E+00 0.  1.
         23    2    1    2    0    0 -0.28719571520E+02  0.95053036543E+02 -0.42818134872E+03  0.45699653988E+03  0.12508667607E+03 0.  0.
          5    1    3    3  502    0  0.29849616788E+02  0.62287678842E+02 -0.33509045142E+03  0.34216054359E+03  0.41800000000E+01 0.  1.
         -5    1    3    3    0  502 -0.58569188308E+02  0.32765357700E+02 -0.93090897303E+02  0.11483599629E+03  0.41800000000E+01 0.  1.
        -11    1    1    2    0    0 -0.50792071492E+01 -0.99526768812E+02 -0.10381735389E+03  0.14390767535E+03  0.00000000000E+00 0.  1.
         11    1    1    2    0    0  0.33798778669E+02  0.44737322696E+01 -0.23285137689E+02  0.41286430666E+02  0.00000000000E+00 0. -1.
</event>
<event>
 7    1  0.4394360E-006  0.1012447E+03  0.7561462E-02  0.1277700E+00
         -2   -1    0    0    0  501 -0.00000000000E+00  0.00000000000E+00  0.50252336397E+03  0.50252336397E+03  0.00000000000E+00 0.  1.
          2   -1    0    0  501    0  0.00000000000E+00 -0.00000000000E+00 -0.30471105824E+02  0.30471105824E+02  0.00000000000E+00 0. -1.
         23    2    1    2    0    0 -0.34222968248E+02 -0.28965727260E+02  0.34596704459E+03  0.37062282794E+03  0.12513136992E+03 0.  0.
          5    1    3    3  502    0 -0.77574569578E+02 -0.66068221449E+01  0.26274282547E+03  0.27406701494E+03  0.41800000000E+01 0.  1.
         -5    1    3    3    0  502  0.43351601330E+02 -0.22358905115E+02  0.83224219117E+02  0.96555812997E+02  0.41800000000E+01 0.  1.
        -11    1    1    2    0    0  0.14967578379E+02  0.46912946225E+02  0.12681395269E+03  0.13603908087E+03  0.00000000000E+00 0.  1.
         11    1    1    2    0    0  0.19255389869E+02 -0.17947218965E+02 -0.72873912938E+00  0.26332560990E+02  0.00000000000E+00 0. -1.
</event>
<event>
 7    1  0.4394360E-006  0.9815537E+02  0.7561462E-02  0.1284223E+00
         -2   -1    0    0    0  501 -0.00000000000E+00  0.00000000000E+00  0.27579170788E+02  0.27579170788E+02  0.00000000000E+00 0.  1.
          2   -1    0    0  501    0  0.00000000000E+00 -0.00000000000E+00 -0.50759087439E+03  0.50759087439E+03  0.00000000000E+00 0. -1.
         23    2    1    2    0    0 -0.46171746353E+02 -0.19849140104E+02 -0.27863131173E+03  0.30952948141E+03  0.12508906212E+03 0.  0.
          5    1    3    3  502    0 -0.72267166828E+02 -0.27674528017E+02 -0.26961198014E+03  0.28052899162E+03  0.41800000000E+01 0.  1.
         -5    1    3    3    0  502  0.26095420475E+02  0.78253879131E+01 -0.90193315860E+01  0.29000489790E+02  0.41800000000E+01 0.  1.
        -11    1    1    2    0    0  0.35533875034E+02 -0.26098064597E+02 -0.48008801715E+02  0.65181364612E+02  0.00000000000E+00 0.  1.
         11    1    1    2    0    0  0.10637871319E+02  0.45947204702E+02 -0.15337159016E+03  0.16045919915E+03  0.00000000000E+00 0. -1.
</event>
<event>
 7    1  0.4394360E-006  0.2009905E+03  0.7561462E-02  0.1148906E+00
         -1   -1    0    0    0  501 -0.00000000000E+00  0.00000000000E+00  0.78720832727E+02  0.78720832727E+02  0.00000000000E+00 0.  1.
          1   -1    0    0  501    0  0.00000000000E+00 -0.00000000000E+00 -0.64717696501E+03  0.64717696501E+03  0.00000000000E+00 0. -1.
         23    2    1    2    0    0 -0.11327139979E+02 -0.19877307070E+03 -0.25199607010E+03  0.34465906976E+03  0.12509523286E+03 0.  0.
          5    1    3    3  502    0  0.86259215924E+01 -0.39111626065E+02 -0.14716100060E+03  0.15257115820E+03  0.41800000000E+01 0.  1.
         -5    1    3    3    0  502 -0.19953061571E+02 -0.15966144464E+03 -0.10483506950E+03  0.19208791156E+03  0.41800000000E+01 0.  1.
        -11    1    1    2    0    0  0.16049379740E+02  0.66955265200E+02 -0.17381822022E+03  0.18695818733E+03  0.00000000000E+00 0. -1.
         11    1    1    2    0    0 -0.47222397616E+01  0.13181780551E+03 -0.14264184196E+03  0.19428054065E+03  0.00000000000E+00 0.  1.
</event>
<event>
 7    1  0.4394360E-006  0.1542855E+03  0.7561462E-02  0.1195304E+00
         -1   -1    0    0    0  501 -0.00000000000E+00  0.00000000000E+00  0.22653490388E+03  0.22653490388E+03  0.00000000000E+00 0.  1.
          1   -1    0    0  501    0  0.00000000000E+00 -0.00000000000E+00 -0.17671880951E+03  0.17671880951E+03  0.00000000000E+00 0. -1.
         23    2    1    2    0    0 -0.26433994374E+02 -0.12567890414E+03  0.13309994018E+03  0.22328420872E+03  0.12508517412E+03 0.  0.
          5    1    3    3  502    0 -0.12559517436E+00 -0.12422991735E+03  0.46574415107E+02  0.13273935619E+03  0.41800000000E+01 0.  1.
         -5    1    3    3    0  502 -0.26308399199E+02 -0.14489867929E+01  0.86525525068E+02  0.90544852529E+02  0.41800000000E+01 0.  1.
        -11    1    1    2    0    0 -0.25161366735E+02  0.93406052784E+02 -0.64546656400E+02  0.11629297453E+03  0.00000000000E+00 0.  1.
         11    1    1    2    0    0  0.51595361108E+02  0.32272851361E+02 -0.18737189407E+02  0.63676530133E+02  0.00000000000E+00 0. -1.
</event>
<event>
 7    1  0.4394360E-006  0.8755298E+02  0.7561462E-02  0.1308888E+00
         -3   -1    0    0    0  501 -0.00000000000E+00  0.00000000000E+00  0.27548496783E+03  0.27548496783E+03  0.00000000000E+00 0.  1.
          3   -1    0    0  501    0  0.00000000000E+00 -0.00000000000E+00 -0.40764249255E+02  0.40764249255E+02  0.00000000000E+00 0. -1.
         23    2    1    2    0    0  0.68693793682E+01 -0.11083277893E+01  0.13615809340E+03  0.18502755271E+03  0.12509097530E+03 0.  0.
          5    1    3    3  502    0  0.55102970468E+02 -0.31139540389E+02  0.96990191040E+02  0.11589037013E+03  0.41800000000E+01 0.  1.
         -5    1    3    3    0  502 -0.48233591100E+02  0.30031212600E+02  0.39167902363E+02  0.69137182588E+02  0.41800000000E+01 0.  1.
        -11    1    1    2    0    0 -0.25070019567E+02 -0.15986175479E+02  0.10179051551E+03  0.10604420180E+03  0.00000000000E+00 0.  1.
         11    1    1    2    0    0  0.18200640199E+02  0.17094503269E+02 -0.32278903352E+01  0.25177462574E+02  0.00000000000E+00 0. -1.
</event>
<event>
 7    1  0.4394360E-006  0.1398841E+03  0.7561462E-02  0.1213485E+00
          2   -1    0    0  501    0  0.00000000000E+00  0.00000000000E+00  0.79880276129E+03  0.79880276129E+03  0.00000000000E+00 0. -1.
         -2   -1    0    0    0  501 -0.00000000000E+00 -0.00000000000E+00 -0.43673249191E+02  0.43673249191E+02  0.00000000000E+00 0.  1.
         23    2    1    2    0    0  0.36162788723E+01  0.10896085583E+03  0.15068441512E+03  0.22414657119E+03  0.12510134628E+03 0.  0.
          5    1    3    3  502    0  0.48802952074E+02  0.24085589478E+02  0.10337961626E+03  0.11690449611E+03  0.41800000000E+01 0.  1.
         -5    1    3    3    0  502 -0.45186673202E+02  0.84875266350E+02  0.47304798854E+02  0.10724207508E+03  0.41800000000E+01 0.  1.
        -11    1    1    2    0    0 -0.35548529117E+02 -0.70464643172E+02  0.41197485280E+03  0.41946661750E+03  0.00000000000E+00 0.  1.
         11    1    1    2    0    0  0.31932250245E+02 -0.38496212657E+02  0.19247024418E+03  0.19886282179E+03  0.00000000000E+00 0. -1.
</event>
<event>
 7    1  0.4394360E-006  0.9480640E+02  0.7561462E-02  0.1291613E+00
          2   -1    0    0  501    0  0.00000000000E+00  0.00000000000E+00  0.75557911623E+02  0.75557911623E+02  0.00000000000E+00 0.  1.
         -2   -1    0    0    0  501 -0.00000000000E+00 -0.00000000000E+00 -0.19716479140E+03  0.19716479140E+03  0.00000000000E+00 0. -1.
         23    2    1    2    0    0 -0.33488348684E+02 -0.35482791543E+02 -0.99629348840E+02  0.16719243100E+03  0.12508718496E+03 0.  0.
          5    1    3    3  502    0 -0.46461262857E+02 -0.77155319791E+02 -0.71842909356E+02  0.11528429357E+03  0.41800000000E+01 0.  1.
         -5    1    3    3    0  502  0.12972914173E+02  0.41672528248E+02 -0.27786439485E+02  0.51908137435E+02  0.41800000000E+01 0.  1.
        -11    1    1    2    0    0  0.18372566528E+02  0.15240672653E+01  0.33800572275E+02  0.38501333327E+02  0.00000000000E+00 0.  1.
         11    1    1    2    0    0  0.15115782157E+02  0.33958724277E+02 -0.55778103210E+02  0.67028938694E+02  0.00000000000E+00 0. -1.
</event>
<event>
 7    1  0.4394360E-006  0.9752052E+02  0.7561462E-02  0.1285598E+00
          1   -1    0    0  501    0  0.00000000000E+00  0.00000000000E+00  0.31793754323E+03  0.31793754323E+03  0.00000000000E+00 0. -1.
         -1   -1    0    0    0  501 -0.00000000000E+00 -0.00000000000E+00 -0.36002449679E+02  0.36002449679E+02  0.00000000000E+00 0.  1.
         23    2    1    2    0    0 -0.84501917880E+01  0.16184456253E+02  0.12821133938E+03  0.17454271837E+03  0.11701995823E+03 0.  0.
          5    1    3    3  502    0  0.46538694212E+02 -0.16953728295E+01  0.99305617809E+02  0.10976248210E+03  0.41800000000E+01 0. -1.
         -5    1    3    3    0  502 -0.54988886000E+02  0.17879829083E+02  0.28905721576E+02  0.64780236271E+02  0.41800000000E+01 0.  1.
        -11    1    1    2    0    0  0.11893137791E+00 -0.52779301489E+02  0.10828418027E+03  0.12046216214E+03  0.00000000000E+00 0.  1.
         11    1    1    2    0    0  0.83312604101E+01  0.36594845235E+02  0.45439573895E+02  0.58935112400E+02  0.00000000000E+00 0. -1.
</event>
<event>
 7    1  0.4394360E-006  0.8036798E+02  0.7561462E-02  0.1328010E+00
          2   -1    0    0  501    0  0.00000000000E+00  0.00000000000E+00  0.27057566728E+03  0.27057566728E+03  0.00000000000E+00 0. -1.
         -2   -1    0    0    0  501 -0.00000000000E+00 -0.00000000000E+00 -0.47106228759E+02  0.47106228759E+02  0.00000000000E+00 0.  1.
         23    2    1    2    0    0 -0.40960250389E+01 -0.31004399547E+02  0.12130679361E+03  0.17703371331E+03  0.12509015653E+03 0.  0.
          5    1    3    3  502    0 -0.38600780002E+02 -0.21932609703E+02 -0.57816734200E+01  0.44966206563E+02  0.41800000000E+01 0.  1.
         -5    1    3    3    0  502  0.34504754964E+02 -0.90717898439E+01  0.12708846703E+03  0.13206750675E+03  0.41800000000E+01 0.  1.
        -11    1    1    2    0    0 -0.18751301626E+02  0.48139549137E+02  0.99313702276E+02  0.11194748306E+03  0.00000000000E+00 0.  1.
         11    1    1    2    0    0  0.22847326665E+02 -0.17135149591E+02  0.28489426338E+01  0.28700699667E+02  0.00000000000E+00 0. -1.
</event>
<event>
 7    1  0.4394360E-006  0.1087700E+03  0.7561462E-02  0.1262865E+00
         -1   -1    0    0    0  501 -0.00000000000E+00  0.00000000000E+00  0.15857038179E+03  0.15857038179E+03  0.00000000000E+00 0.  1.
          1   -1    0    0  501    0  0.00000000000E+00 -0.00000000000E+00 -0.10105340404E+03  0.10105340404E+03  0.00000000000E+00 0. -1.
         23    2    1    2    0    0 -0.53567686429E+02 -0.26923641609E+02  0.51669039854E+02  0.14802507812E+03  0.12508938631E+03 0.  0.
          5    1    3    3  502    0 -0.29078243197E+00 -0.48382755280E+02 -0.22994622011E+02  0.53732677249E+02  0.41800000000E+01 0.  1.
         -5    1    3    3    0  502 -0.53276903997E+02  0.21459113671E+02  0.74663661865E+02  0.94292400872E+02  0.41800000000E+01 0.  1.
        -11    1    1    2    0    0  0.36537350962E+02 -0.32912560869E+02  0.80265474080E+00  0.49181896394E+02  0.00000000000E+00 0.  1.
         11    1    1    2    0    0  0.17030335467E+02  0.59836202478E+02  0.50452831583E+01  0.62416811320E+02  0.00000000000E+00 0. -1.
</event>
<event>
 7    1  0.4394360E-006  0.9727999E+02  0.7561462E-02  0.1286122E+00
         -4   -1    0    0    0  501 -0.00000000000E+00  0.00000000000E+00  0.58596592942E+03  0.58596592942E+03  0.00000000000E+00 0.  1.
          4   -1    0    0  501    0  0.00000000000E+00 -0.00000000000E+00 -0.21938246899E+02  0.21938246899E+02  0.00000000000E+00 0. -1.
         23    2    1    2    0    0 -0.12353690766E+02  0.21085010392E+02  0.36892482456E+03  0.39032004449E+03  0.12508804745E+03 0.  0.
          5    1    3    3  502    0  0.41033450016E+02 -0.55004342212E+01  0.46502902175E+02  0.62401851795E+02  0.41800000000E+01 0.  1.
         -5    1    3    3    0  502 -0.53387140781E+02  0.26585444613E+02  0.32242192238E+03  0.32791819269E+03  0.41800000000E+01 0.  1.
        -11    1    1    2    0    0 -0.53006713754E+01  0.34467179422E+02  0.47809691705E+02  0.59176432769E+02  0.00000000000E+00 0.  1.
         11    1    1    2    0    0  0.17654362141E+02 -0.55552189814E+02  0.14729316626E+03  0.15840769906E+03  0.00000000000E+00 0. -1.
</event>
<event>
 7    1  0.4394360E-006  0.1098934E+03  0.7561462E-02  0.1260767E+00
          3   -1    0    0  501    0  0.00000000000E+00  0.00000000000E+00  0.56092539214E+03  0.56092539214E+03  0.00000000000E+00 0. -1.
         -3   -1    0    0    0  501 -0.00000000000E+00 -0.00000000000E+00 -0.22894255728E+02  0.22894255728E+02  0.00000000000E+00 0.  1.
         23    2    1    2    0    0 -0.30799369374E+02  0.16071070016E+02  0.34097698313E+03  0.36485388716E+03  0.12508467334E+03 0.  0.
          5    1    3    3  502    0 -0.72735409013E+02  0.34301938781E+02  0.25458652500E+03  0.26701841480E+03  0.41800000000E+01 0. -1.
         -5    1    3    3    0  502  0.41936039639E+02 -0.18230868766E+02  0.86390458133E+02  0.97835472365E+02  0.41800000000E+01 0. -1.
        -11    1    1    2    0    0  0.61330831254E+02 -0.12625149570E+02  0.15239762897E+03  0.16476013650E+03  0.00000000000E+00 0. -1.
         11    1    1    2    0    0 -0.30531461880E+02 -0.34459204455E+01  0.44656524310E+02  0.54205624208E+02  0.00000000000E+00 0.  1.
</event>
<event>
 7    1  0.4394360E-006  0.1275625E+03  0.7561462E-02  0.1231118E+00
         -1   -1    0    0    0  501 -0.00000000000E+00  0.00000000000E+00  0.31538853912E+02  0.31538853912E+02  0.00000000000E+00 0.  1.
          1   -1    0    0  501    0  0.00000000000E+00 -0.00000000000E+00 -0.97891744965E+03  0.97891744965E+03  0.00000000000E+00 0. -1.
         23    2    1    2    0    0  0.60937786660E+02  0.89465421925E+02 -0.25399413237E+03  0.30312474258E+03  0.12511640469E+03 0.  0.
          5    1    3    3  502    0 -0.46121327544E+01  0.22951121593E+02  0.78915699350E+01  0.25055439070E+02  0.41800000000E+01 0. -1.
         -5    1    3    3    0  502  0.65549919414E+02  0.66514300332E+02 -0.26188570231E+03  0.27806930351E+03  0.41800000000E+01 0. -1.
        -11    1    1    2    0    0 -0.59956831498E+02 -0.12944630953E+02 -0.25167477927E+03  0.25904165618E+03  0.00000000000E+00 0.  1.
         11    1    1    2    0    0 -0.98095516170E+00 -0.76520790972E+02 -0.44170968409E+03  0.44828990480E+03  0.00000000000E+00 0. -1.
</event>
<event>
 7    1  0.4394360E-006  0.1349769E+03  0.7561462E-02  0.1220252E+00
         -2   -1    0    0    0  501 -0.00000000000E+00  0.00000000000E+00  0.17259629427E+02  0.17259629427E+02  0.00000000000E+00 0.  1.
          2   -1    0    0  501    0  0.00000000000E+00 -0.00000000000E+00 -0.12804822810E+04  0.12804822810E+04  0.00000000000E+00 0. -1.
         23    2    1    2    0    0  0.96949550764E+02  0.13212708270E+02 -0.76556671315E+03  0.78186479315E+03  0.12508545654E+03 0.  0.
          5    1    3    3  502    0  0.11192907438E+02 -0.43066789187E+02 -0.11741830080E+03  0.12563661596E+03  0.41800000000E+01 0.  1.
         -5    1    3    3    0  502  0.85756643326E+02  0.56279497457E+02 -0.64814841235E+03  0.65622817719E+03  0.41800000000E+01 0.  1.
        -11    1    1    2    0    0 -0.45839027023E+02 -0.43496776116E+02 -0.14384638877E+03  0.15711451077E+03  0.00000000000E+00 0. -1.
         11    1    1    2    0    0 -0.51110523741E+02  0.30284067845E+02 -0.35380954967E+03  0.35876260652E+03  0.00000000000E+00 0.  1.
</event>
<event>
 6    1  0.4394360E-006  0.1682432E+03  0.7561462E-02  0.1179692E+00
          1   -1    0    0  501    0  0.00000000000E+00  0.00000000000E+00  0.76339570560E+02  0.76339570560E+02  0.00000000000E+00 0. -1.
         -1   -1    0    0    0  501 -0.00000000000E+00 -0.00000000000E+00 -0.70990966193E+03  0.70990966193E+03  0.00000000000E+00 0.  1.
          5    1    1    2  502    0  0.35926624185E+02  0.61059812631E+02 -0.53640832916E+02  0.88959734711E+02  0.41800000000E+01 0. -1.
         -5    1    1    2    0  502  0.98933046490E+02 -0.61559266286E+02 -0.50560602101E+03  0.51887591179E+03  0.41800000000E+01 0.  1.
        -11    1    1    2    0    0 -0.87578917751E+02  0.30716921731E+02 -0.79309673550E+02  0.12208038513E+03  0.00000000000E+00 0. -1.
         11    1    1    2    0    0 -0.47280752924E+02 -0.30217468076E+02  0.49864361065E+01  0.56333200859E+02  0.00000000000E+00 0.  1.
</event>
<event>
 7    1  0.4394360E-006  0.8788388E+02  0.7561462E-02  0.1308059E+00
         -1   -1    0    0    0  501 -0.00000000000E+00  0.00000000000E+00  0.22868566371E+02  0.22868566371E+02  0.00000000000E+00 0.  1.
          1   -1    0    0  501    0  0.00000000000E+00 -0.00000000000E+00 -0.80771602960E+03  0.80771602960E+03  0.00000000000E+00 0. -1.
         23    2    1    2    0    0 -0.96387713898E+01 -0.75913432628E+02 -0.41464966033E+03  0.43981533150E+03  0.12508968722E+03 0.  0.
          5    1    3    3  502    0  0.13796893030E+01 -0.47546462977E+02 -0.40472833979E+03  0.40753536179E+03  0.41800000000E+01 0.  1.
         -5    1    3    3    0  502 -0.11018460693E+02 -0.28366969651E+02 -0.99213205375E+01  0.32279969709E+02  0.41800000000E+01 0.  1.
        -11    1    1    2    0    0  0.95806689726E+01  0.86341916640E+02 -0.37028635459E+03  0.38034024265E+03  0.00000000000E+00 0. -1.
         11    1    1    2    0    0  0.58102417221E-01 -0.10428484013E+02  0.88551681966E-01  0.10429021819E+02  0.00000000000E+00 0.  1.
</event>
<event>
 7    1  0.4394360E-006  0.1235598E+03  0.7561462E-02  0.1237337E+00
         -2   -1    0    0    0  501 -0.00000000000E+00  0.00000000000E+00  0.15776361104E+03  0.15776361104E+03  0.00000000000E+00 0.  1.
          2   -1    0    0  501    0  0.00000000000E+00 -0.00000000000E+00 -0.13506217994E+03  0.13506217994E+03  0.00000000000E+00 0. -1.
         23    2    1    2    0    0  0.32893221392E+02  0.73367228360E+02  0.66143277589E+02  0.16274468048E+03  0.12508470588E+03 0.  0.
          5    1    3    3  502    0  0.96803763664E+01 -0.30693079335E+02  0.42469633077E+02  0.53450135074E+02  0.41800000000E+01 0. -1.
         -5    1    3    3    0  502  0.23212845026E+02  0.10406030770E+03  0.23673644511E+02  0.10929454541E+03  0.41800000000E+01 0. -1.
        -11    1    1    2    0    0  0.20505305394E+02 -0.48016008089E+01 -0.37454269265E+02  0.42969119211E+02  0.00000000000E+00 0.  1.
         11    1    1    2    0    0 -0.53398526787E+02 -0.68565627551E+02 -0.59875772300E+01  0.87111991285E+02  0.00000000000E+00 0. -1.
</event>
<event>
 7    1  0.4394360E-006  0.1193501E+03  0.7561462E-02  0.1244173E+00
         -1   -1    0    0    0  501 -0.00000000000E+00  0.00000000000E+00  0.59223812878E+02  0.59223812878E+02  0.00000000000E+00 0.  1.
          1   -1    0    0  501    0  0.00000000000E+00 -0.00000000000E+00 -0.25616947920E+03  0.25616947920E+03  0.00000000000E+00 0. -1.
         23    2    1    2    0    0 -0.49877163954E+02 -0.30718557712E+02 -0.10870907195E+03  0.17577130672E+03  0.12508608503E+03 0.  0.
          5    1    3    3  502    0 -0.59148786376E+02  0.36431005934E+02 -0.63287264535E+02  0.94066717682E+02  0.41800000000E+01 0. -1.
         -5    1    3    3    0  502  0.92716224215E+01 -0.67149563645E+02 -0.45421807418E+02  0.81704589034E+02  0.41800000000E+01 0. -1.
        -11    1    1    2    0    0 -0.97758505283E+01  0.39682161412E+02 -0.12376538363E+02  0.42701520930E+02  0.00000000000E+00 0.  1.
         11    1    1    2    0    0  0.59653014483E+02 -0.89636037007E+01 -0.75860056002E+02  0.96920464427E+02  0.00000000000E+00 0. -1.
</event>
<event>
 7    1  0.4394360E-006  0.1211419E+03  0.7561462E-02  0.1241225E+00
         -2   -1    0    0    0  501 -0.00000000000E+00  0.00000000000E+00  0.15512481965E+03  0.15512481965E+03  0.00000000000E+00 0.  1.
          2   -1    0    0  501    0  0.00000000000E+00 -0.00000000000E+00 -0.10684682654E+03  0.10684682654E+03  0.00000000000E+00 0. -1.
         23    2    1    2    0    0  0.14796950842E+02  0.57725239401E+02  0.62168127051E+02  0.15185845555E+03  0.12507982044E+03 0.  0.
          5    1    3    3  502    0 -0.50995903909E+02  0.55723135073E+01  0.39257320596E+02  0.64732082569E+02  0.41800000000E+01 0. -1.
         -5    1    3    3    0  502  0.65792854751E+02  0.52152925894E+02  0.22910806455E+02  0.87126372976E+02  0.41800000000E+01 0. -1.
        -11    1    1    2    0    0 -0.45687940006E+02 -0.54201263302E+01 -0.17586178125E+02  0.49254840294E+02  0.00000000000E+00 0. -1.
         11    1    1    2    0    0  0.30890989164E+02 -0.52305113071E+02  0.36960441883E+01  0.60858350351E+02  0.00000000000E+00 0.  1.
</event>
<event>
 7    1  0.4394360E-006  0.8240161E+02  0.7561462E-02  0.1322371E+00
         -2   -1    0    0    0  501 -0.00000000000E+00  0.00000000000E+00  0.62818947077E+02  0.62818947077E+02  0.00000000000E+00 0.  1.
          2   -1    0    0  501    0  0.00000000000E+00 -0.00000000000E+00 -0.20104384014E+03  0.20104384014E+03  0.00000000000E+00 0. -1.
         23    2    1    2    0    0 -0.29352692565E+02 -0.34659481656E+01 -0.71252941956E+02  0.14696428349E+03  0.12509166850E+03 0.  0.
          5    1    3    3  502    0 -0.19801977020E+02 -0.34228229083E+02  0.23918233292E+02  0.46403062872E+02  0.41800000000E+01 0.  1.
         -5    1    3    3    0  502 -0.95507155452E+01  0.30762280917E+02 -0.95171175249E+02  0.10056122062E+03  0.41800000000E+01 0.  1.
        -11    1    1    2    0    0 -0.31112477946E+02  0.73495464238E+01 -0.38236255932E+02  0.49839877450E+02  0.00000000000E+00 0. -1.
         11    1    1    2    0    0  0.60465170511E+02 -0.38835982582E+01 -0.28735695171E+02  0.67058626271E+02  0.00000000000E+00 0.  1.
</event>
<event>
 7    1  0.4394360E-006  0.1117895E+03  0.7561462E-02  0.1257291E+00
          2   -1    0    0  501    0  0.00000000000E+00  0.00000000000E+00  0.22453311696E+03  0.22453311696E+03  0.00000000000E+00 0. -1.
         -2   -1    0    0    0  501 -0.00000000000E+00 -0.00000000000E+00 -0.98456025982E+02  0.98456025982E+02  0.00000000000E+00 0.  1.
         23    2    1    2    0    0  0.19672736677E+02 -0.72776549293E+02 -0.51553740179E+01  0.14614268735E+03  0.12509062510E+03 0.  0.
          5    1    3    3  502    0 -0.34143547490E+02 -0.56010673026E+02 -0.42613649972E+02  0.78335004257E+02  0.41800000000E+01 0.  1.
         -5    1    3    3    0  502  0.53816284167E+02 -0.16765876267E+02  0.37458275954E+02  0.67807683089E+02  0.41800000000E+01 0.  1.
        -11    1    1    2    0    0  0.23937979297E+02  0.12724253179E+02  0.85443145264E+02  0.89640752698E+02  0.00000000000E+00 0. -1.
         11    1    1    2    0    0 -0.43610715974E+02  0.60052296113E+02  0.45789319731E+02  0.87205702897E+02  0.00000000000E+00 0.  1.
</event>
<event>
 7    1  0.4394360E-006  0.1036038E+03  0.7561462E-02  0.1272895E+00
         -1   -1    0    0    0  501 -0.00000000000E+00  0.00000000000E+00  0.13878299831E+03  0.13878299831E+03  0.00000000000E+00 0.  1.
          1   -1    0    0  501    0  0.00000000000E+00 -0.00000000000E+00 -0.12397875012E+03  0.12397875012E+03  0.00000000000E+00 0. -1.
         23    2    1    2    0    0 -0.69780040120E+02  0.15652735828E+02  0.10940975651E+02  0.14450416195E+03  0.12508991061E+03 0.  0.
          5    1    3    3  502    0 -0.95049700014E+02  0.31319361532E+02 -0.19170001482E+02  0.10198190642E+03  0.41800000000E+01 0. -1.
         -5    1    3    3    0  502  0.25269659894E+02 -0.15666625704E+02  0.30110977133E+02  0.42522255537E+02  0.41800000000E+01 0. -1.
        -11    1    1    2    0    0  0.36212589151E+02 -0.22673694425E+02 -0.42715666960E+02  0.60415860796E+02  0.00000000000E+00 0. -1.
         11    1    1    2    0    0  0.33567450969E+02  0.70209585968E+01  0.46578939500E+02  0.57841725676E+02  0.00000000000E+00 0.  1.
</event>
<event>
 7    1  0.4394360E-006  0.9838189E+02  0.7561462E-02  0.1283736E+00
          2   -1    0    0  501    0  0.00000000000E+00  0.00000000000E+00  0.63746050415E+03  0.63746050415E+03  0.00000000000E+00 0. -1.
         -2   -1    0    0    0  501 -0.00000000000E+00 -0.00000000000E+00 -0.20465224498E+02  0.20465224498E+02  0.00000000000E+00 0.  1.
         23    2    1    2    0    0  0.27664309394E+02 -0.41404273208E+01  0.27507441974E+03  0.30309506906E+03  0.12417015480E+03 0.  0.
          5    1    3    3  502    0  0.65389351010E+02  0.37514380922E+01  0.24608737004E+03  0.25468864640E+03  0.41800000000E+01 0. -1.
         -5    1    3    3    0  502 -0.37725041616E+02 -0.78918654130E+01  0.28987049701E+02  0.48406422663E+02  0.41800000000E+01 0. -1.
        -11    1    1    2    0    0  0.18966598142E+02 -0.29356835111E+02  0.92398179831E+02  0.98787546022E+02  0.00000000000E+00 0.  1.
         11    1    1    2    0    0 -0.46630907536E+02  0.33497262432E+02  0.24952268008E+03  0.25604311356E+03  0.00000000000E+00 0. -1.
</event>
<event>
 7    1  0.4394360E-006  0.8546991E+02  0.7561462E-02  0.1314208E+00
         -2   -1    0    0    0  501 -0.00000000000E+00  0.00000000000E+00  0.30792713943E+02  0.30792713943E+02  0.00000000000E+00 0. -1.
          2   -1    0    0  501    0  0.00000000000E+00 -0.00000000000E+00 -0.64197617151E+03  0.64197617151E+03  0.00000000000E+00 0.  1.
         23    2    1    2    0    0  0.27040847045E+02  0.53008327888E+02 -0.17640334862E+03  0.22428708525E+03  0.12508183310E+03 0.  0.
          5    1    3    3  502    0  0.20328847880E+02  0.49096288389E+02 -0.59817626140E+01  0.53637314192E+02  0.41800000000E+01 0.  1.
         -5    1    3    3    0  502  0.67119991653E+01  0.39120394983E+01 -0.17042158601E+03  0.17064977106E+03  0.41800000000E+01 0.  1.
        -11    1    1    2    0    0  0.27469782983E+02 -0.46377958093E+02 -0.24837453766E+03  0.25415628053E+03  0.00000000000E+00 0.  1.
         11    1    1    2    0    0 -0.54510630028E+02 -0.66303697948E+01 -0.18640557128E+03  0.19432551967E+03  0.00000000000E+00 0. -1.
</event>
<event>
 7    1  0.9518768E-006  0.1509861E+03  0.7561462E-02  0.1199266E+00
         -1   -1    0    0    0  501 -0.00000000000E+00  0.00000000000E+00  0.26748064336E+03  0.26748064336E+03  0.00000000000E+00 0.  1.
          1   -1    0    0  501    0  0.00000000000E+00 -0.00000000000E+00 -0.11678071500E+03  0.11678071500E+03  0.00000000000E+00 0. -1.
         23    2    1    2    0    0 -0.87758853067E+02  0.10411208590E+03  0.10978148053E+03  0.21503609475E+03  0.12509039073E+03 0.  0.
          5    1    3    3  502    0  0.36004503308E+01  0.40836464883E+00  0.71296320264E+02  0.71510612411E+02  0.41800000000E+01 0. -1.
         -5    1    3    3    0  502 -0.91359303398E+02  0.10370372125E+03  0.38485160270E+02  0.14352548234E+03  0.41800000000E+01 0. -1.
        -11    1    1    2    0    0  0.73385008457E+02 -0.24642796236E+02  0.42777477733E+02  0.88445121255E+02  0.00000000000E+00 0.  1.
         11    1    1    2    0    0  0.14373844610E+02 -0.79469289664E+02 -0.18590299077E+01  0.80780142366E+02  0.00000000000E+00 0. -1.
</event>
<event>
 7    1  0.4394360E-006  0.1102690E+03  0.7561462E-02  0.1260073E+00
          1   -1    0    0  501    0  0.00000000000E+00  0.00000000000E+00  0.51156917811E+03  0.51156917811E+03  0.00000000000E+00 0. -1.
         -1   -1    0    0    0  501 -0.00000000000E+00 -0.00000000000E+00 -0.36100242593E+02  0.36100242593E+02  0.00000000000E+00 0.  1.
         23    2    1    2    0    0  0.21604673521E+02  0.46384102767E+02  0.13887767400E+03  0.19378811937E+03  0.12509428431E+03 0.  0.
          5    1    3    3  502    0 -0.30730947734E+02 -0.20971317364E+02  0.84823622978E+02  0.92718427055E+02  0.41800000000E+01 0.  1.
         -5    1    3    3    0  502  0.52335621255E+02  0.67355420131E+02  0.54054051019E+02  0.10106969232E+03  0.41800000000E+01 0.  1.
        -11    1    1    2    0    0 -0.44671355836E+02 -0.56906395913E+02  0.30453799402E+03  0.31301319098E+03  0.00000000000E+00 0. -1.
         11    1    1    2    0    0  0.23066682315E+02  0.10522293146E+02  0.32053267500E+02  0.40868110349E+02  0.00000000000E+00 0.  1.
</event>
<event>
 7    1  0.4394360E-006  0.1266672E+03  0.7561462E-02  0.1232486E+00
          2   -1    0    0  501    0  0.00000000000E+00  0.00000000000E+00  0.62861023573E+03  0.62861023573E+03  0.00000000000E+00 0. -1.
         -2   -1    0    0    0  501 -0.00000000000E+00 -0.00000000000E+00 -0.27376298336E+02  0.27376298336E+02  0.00000000000E+00 0.  1.
         23    2    1    2    0    0 -0.26897440857E+02 -0.59407349373E+02  0.24889256729E+03  0.28609027647E+03  0.12508969083E+03 0.  0.
          5    1    3    3  502    0 -0.74953373631E+02 -0.54025193676E+02  0.16653255648E+03  0.19049224273E+03  0.41800000000E+01 0.  1.
         -5    1    3    3    0  502  0.48055932774E+02 -0.53821556978E+01  0.82360010808E+02  0.95598033741E+02  0.41800000000E+01 0.  1.
        -11    1    1    2    0    0 -0.33782416356E+02  0.28565673289E+02  0.12599276551E+03  0.13353436377E+03  0.00000000000E+00 0.  1.
         11    1    1    2    0    0  0.60679857213E+02  0.30841676085E+02  0.22634860458E+03  0.23636189382E+03  0.00000000000E+00 0. -1.
</event>
<event>
 6    1  0.4394360E-006  0.9489677E+02  0.7561462E-02  0.1291409E+00
          2   -1    0    0  501    0  0.00000000000E+00  0.00000000000E+00  0.83594565485E+02  0.83594565485E+02  0.00000000000E+00 0. -1.
         -2   -1    0    0    0  501 -0.00000000000E+00 -0.00000000000E+00 -0.19544161581E+03  0.19544161581E+03  0.00000000000E+00 0.  1.
          5    1    1    2  502    0 -0.20404272976E+02 -0.49682815810E+02  0.41293006179E+01  0.54029992283E+02  0.41800000000E+01 0. -1.
         -5    1    1    2    0  502  0.23727448503E+02  0.37127840901E+02 -0.12499901465E+03  0.13260352351E+03  0.41800000000E+01 0.  1.
        -11    1    1    2    0    0 -0.30115586530E+01  0.52064183338E+02  0.88195174334E+01  0.52891705965E+02  0.00000000000E+00 0.  1.
         11    1    1    2    0    0 -0.31161687412E+00 -0.39509208429E+02  0.20314627074E+00  0.39510959545E+02  0.00000000000E+00 0. -1.
</event>
<event>
 7    1  0.4394360E-006  0.8751483E+02  0.7561462E-02  0.1308984E+00
         -2   -1    0    0    0  501 -0.00000000000E+00  0.00000000000E+00  0.41044717184E+02  0.41044717184E+02  0.00000000000E+00 0. -1.
          2   -1    0    0  501    0  0.00000000000E+00 -0.00000000000E+00 -0.38432205194E+03  0.38432205194E+03  0.00000000000E+00 0.  1.
         23    2    1    2    0    0  0.25206744726E+02  0.57688022778E+02 -0.17632287582E+03  0.22517110826E+03  0.12509589723E+03 0.  0.
          5    1    3    3  502    0 -0.16837765246E+01  0.63039997552E+02 -0.19828877604E+02  0.66238456970E+02  0.41800000000E+01 0. -1.
         -5    1    3    3    0  502  0.26890521250E+02 -0.53519747744E+01 -0.15649399822E+03  0.15893265129E+03  0.41800000000E+01 0. -1.
        -11    1    1    2    0    0 -0.37017797361E+02 -0.15237789440E+02 -0.16287775704E+02  0.43218042365E+02  0.00000000000E+00 0. -1.
         11    1    1    2    0    0  0.11811052635E+02 -0.42450233338E+02 -0.15066668322E+03  0.15697761850E+03  0.00000000000E+00 0.  1.
</event>
<event>
 7    1  0.4394360E-006  0.1052207E+03  0.7561462E-02  0.1269685E+00
          1   -1    0    0  501    0  0.00000000000E+00  0.00000000000E+00  0.46225764883E+03  0.46225764883E+03  0.00000000000E+00 0. -1.
         -1   -1    0    0    0  501 -0.00000000000E+00 -0.00000000000E+00 -0.35584487072E+02  0.35584487072E+02  0.00000000000E+00 0.  1.
         23    2    1    2    0    0 -0.51303410458E+01  0.63377084398E+02  0.18155993073E+03  0.22946636320E+03  0.12509127934E+03 0.  0.
          5    1    3    3  502    0  0.31161722788E+02  0.59748954278E+02  0.18052784278E+03  0.19274014871E+03  0.41800000000E+01 0. -1.
         -5    1    3    3    0  502 -0.36292063834E+02  0.36281301198E+01  0.10320879546E+01  0.36726214494E+02  0.41800000000E+01 0. -1.
        -11    1    1    2    0    0 -0.32058198656E+02 -0.61046075265E+02  0.12681754765E+03  0.14435041323E+03  0.00000000000E+00 0.  1.
         11    1    1    2    0    0  0.37188539702E+02 -0.23310091327E+01  0.11829568338E+03  0.12402535948E+03  0.00000000000E+00 0. -1.
</event>
<event>
 7    1  0.4394360E-006  0.1186870E+03  0.7561462E-02  0.1245279E+00
         -1   -1    0    0    0  501 -0.00000000000E+00  0.00000000000E+00  0.50063621696E+02  0.50063621696E+02  0.00000000000E+00 0.  1.
          1   -1    0    0  501    0  0.00000000000E+00 -0.00000000000E+00 -0.34114122959E+03  0.34114122959E+03  0.00000000000E+00 0. -1.
         23    2    1    2    0    0  0.55362715070E+02 -0.37442201335E+02 -0.11583139071E+03  0.18311562727E+03  0.12508986057E+03 0.  0.
          5    1    3    3  502    0  0.64693822727E+02 -0.77161349999E+02 -0.84055801922E+02  0.13123267455E+03  0.41800000000E+01 0. -1.
         -5    1    3    3    0  502 -0.93311076576E+01  0.39719148664E+02 -0.31775588784E+02  0.51882952723E+02  0.41800000000E+01 0. -1.
        -11    1    1    2    0    0 -0.18972094630E+02  0.52782045367E+02 -0.15256365748E+03  0.16254708324E+03  0.00000000000E+00 0. -1.
         11    1    1    2    0    0 -0.36390620440E+02 -0.15339844032E+02 -0.22682559710E+02  0.45542140770E+02  0.00000000000E+00 0.  1.
</event>
<event>
 7    1  0.4394360E-006  0.9111944E+02  0.7561462E-02  0.1300163E+00
         -1   -1    0    0    0  501 -0.00000000000E+00  0.00000000000E+00  0.11492265421E+03  0.11492265421E+03  0.00000000000E+00 0.  1.
          1   -1    0    0  501    0  0.00000000000E+00 -0.00000000000E+00 -0.12696585293E+03  0.12696585293E+03  0.00000000000E+00 0. -1.
         23    2    1    2    0    0  0.30897237169E+02 -0.41335075886E+02 -0.20585565105E+02  0.13687298035E+03  0.12508884641E+03 0.  0.
          5    1    3    3  502    0 -0.23914997222E+02 -0.41955357109E+02  0.34150769027E+02  0.59295248607E+02  0.41800000000E+01 0. -1.
         -5    1    3    3    0  502  0.54812234391E+02  0.62028122312E+00 -0.54736334132E+02  0.77577731740E+02  0.41800000000E+01 0. -1.
        -11    1    1    2    0    0 -0.10044730664E+02  0.53644053779E+02  0.38282518512E+02  0.66664325870E+02  0.00000000000E+00 0.  1.
         11    1    1    2    0    0 -0.20852506505E+02 -0.12308977894E+02 -0.29740152119E+02  0.38351200925E+02  0.00000000000E+00 0. -1.
</event>
<event>
 7    1  0.4394360E-006  0.1279208E+03  0.7561462E-02  0.1230574E+00
         -4   -1    0    0    0  501 -0.00000000000E+00  0.00000000000E+00  0.13883587856E+03  0.13883587856E+03  0.00000000000E+00 0. -1.
          4   -1    0    0  501    0  0.00000000000E+00 -0.00000000000E+00 -0.15713677332E+03  0.15713677332E+03  0.00000000000E+00 0.  1.
         23    2    1    2    0    0  0.88176490190E+02  0.41483487688E+02 -0.30568294644E+02  0.16148673213E+03  0.12509025079E+03 0.  0.
          5    1    3    3  502    0  0.86094307520E+02 -0.16928712939E+02  0.12549323794E+02  0.88734260783E+02  0.41800000000E+01 0.  1.
         -5    1    3    3    0  502  0.20821826709E+01  0.58412200628E+02 -0.43117618438E+02  0.72752471344E+02  0.41800000000E+01 0.  1.
        -11    1    1    2    0    0 -0.27865342252E+02 -0.40402314739E+02  0.44362703537E+02  0.66157945859E+02  0.00000000000E+00 0. -1.
         11    1    1    2    0    0 -0.60311147938E+02 -0.10811729492E+01 -0.32095303651E+02  0.68327973898E+02  0.00000000000E+00 0.  1.
</event>
<event>
 7    1  0.4394360E-006  0.1251406E+03  0.7561462E-02  0.1234850E+00
         -2   -1    0    0    0  501 -0.00000000000E+00  0.00000000000E+00  0.11467809115E+03  0.11467809115E+03  0.00000000000E+00 0.  1.
          2   -1    0    0  501    0  0.00000000000E+00 -0.00000000000E+00 -0.18604321160E+03  0.18604321160E+03  0.00000000000E+00 0. -1.
         23    2    1    2    0    0 -0.99015223264E+01 -0.74050428732E+02  0.26429420352E+02  0.14808238844E+03  0.12509345853E+03 0.  0.
          5    1    3    3  502    0  0.37583984188E+02 -0.87450018923E+02  0.94859106240E+01  0.95747149187E+02  0.41800000000E+01 0.  1.
         -5    1    3    3    0  502 -0.47485506514E+02  0.13399590190E+02  0.16943509728E+02  0.52335239257E+02  0.41800000000E+01 0.  1.
        -11    1    1    2    0    0  0.42069534527E+02  0.49877372278E+02 -0.90774778327E+02  0.11179292635E+03  0.00000000000E+00 0. -1.
         11    1    1    2    0    0 -0.32168012200E+02  0.24173056455E+02 -0.70197624805E+01  0.40845987962E+02  0.00000000000E+00 0.  1.
</event>
<event>
 7    1  0.4394360E-006  0.1175577E+03  0.7561462E-02  0.1247181E+00
          1   -1    0    0  501    0  0.00000000000E+00  0.00000000000E+00  0.11937216527E+03  0.11937216527E+03  0.00000000000E+00 0. -1.
         -1   -1    0    0    0  501 -0.00000000000E+00 -0.00000000000E+00 -0.19422630172E+03  0.19422630172E+03  0.00000000000E+00 0.  1.
         23    2    1    2    0    0  0.52213409615E+02  0.87043941816E+02 -0.87798862434E+02  0.18346508145E+03  0.12509159811E+03 0.  0.
          5    1    3    3  502    0 -0.22737896477E+02  0.34356329623E+02  0.16501749761E+02  0.44577454689E+02  0.41800000000E+01 0.  1.
         -5    1    3    3    0  502  0.74951306092E+02  0.52687612194E+02 -0.10430061220E+03  0.13888762676E+03  0.41800000000E+01 0.  1.
        -11    1    1    2    0    0 -0.24034640616E+02 -0.49731823544E+02 -0.33196192066E+02  0.64443039890E+02  0.00000000000E+00 0.  1.
         11    1    1    2    0    0 -0.28178768999E+02 -0.37312118272E+02  0.46140918053E+02  0.65690345645E+02  0.00000000000E+00 0. -1.
</event>
<event>
 7    1  0.4394360E-006  0.1189383E+03  0.7561462E-02  0.1244859E+00
         -1   -1    0    0    0  501 -0.00000000000E+00  0.00000000000E+00  0.12707479910E+03  0.12707479910E+03  0.00000000000E+00 0.  1.
          1   -1    0    0  501    0  0.00000000000E+00 -0.00000000000E+00 -0.15150201946E+03  0.15150201946E+03  0.00000000000E+00 0. -1.
         23    2    1    2    0    0 -0.14458550343E+02  0.36656725663E+02  0.58227482544E+02  0.14349305843E+03  0.12508818042E+03 0.  0.
          5    1    3    3  502    0 -0.56559879935E+02 -0.20184848212E+02  0.24095183144E+02  0.64842103346E+02  0.41800000000E+01 0.  1.
         -5    1    3    3    0  502  0.42101329592E+02  0.56841573874E+02  0.34132299399E+02  0.78650955088E+02  0.41800000000E+01 0.  1.
        -11    1    1    2    0    0  0.45827402534E+02 -0.54120289431E+02 -0.53461839259E+02  0.88810612023E+02  0.00000000000E+00 0.  1.
         11    1    1    2    0    0 -0.31368852191E+02  0.17463563768E+02 -0.29192863647E+02  0.46273148101E+02  0.00000000000E+00 0. -1.
</event>
<event>
 7    1  0.4394360E-006  0.1121047E+03  0.7561462E-02  0.1256721E+00
         -2   -1    0    0    0  501 -0.00000000000E+00  0.00000000000E+00  0.66752197519E+02  0.66752197519E+02  0.00000000000E+00 0.  1.
          2   -1    0    0  501    0  0.00000000000E+00 -0.00000000000E+00 -0.29583612980E+03  0.29583612980E+03  0.00000000000E+00 0. -1.
         23    2    1    2    0    0 -0.27467103487E+02 -0.27317282135E+02 -0.22527830564E+02  0.13287481899E+03  0.12509012228E+03 0.  0.
          5    1    3    3  502    0 -0.46838424350E+02  0.39002219027E+02 -0.40202748411E+01  0.61226187978E+02  0.41800000000E+01 0.  1.
         -5    1    3    3    0  502  0.19371320863E+02 -0.66319501162E+02 -0.18507555723E+02  0.71648631007E+02  0.41800000000E+01 0.  1.
        -11    1    1    2    0    0 -0.23440658094E+02 -0.14889367858E+02 -0.28581339666E+02  0.39850353878E+02  0.00000000000E+00 0.  1.
         11    1    1    2    0    0  0.50907761581E+02  0.42206649993E+02 -0.17797476205E+03  0.18986315445E+03  0.00000000000E+00 0. -1.
</event>
<event>
 7    1  0.4394360E-006  0.7368583E+02  0.7561462E-02  0.1347990E+00
          2   -1    0    0  501    0  0.00000000000E+00  0.00000000000E+00  0.50758286553E+03  0.50758286553E+03  0.00000000000E+00 0. -1.
         -2   -1    0    0    0  501 -0.00000000000E+00 -0.00000000000E+00 -0.56220043145E+02  0.56220043145E+02  0.00000000000E+00 0.  1.
         23    2    1    2    0    0  0.27429755644E+02  0.34548583361E+02  0.37785273385E+02  0.13791808619E+03  0.12509066914E+03 0.  0.
          5    1    3    3  502    0  0.16716194565E+01  0.23302448068E+02 -0.44735936414E+02  0.50641631139E+02  0.41800000000E+01 0.  1.
         -5    1    3    3    0  502  0.25758136188E+02  0.11246135293E+02  0.82521209799E+02  0.87276455047E+02  0.41800000000E+01 0.  1.
        -11    1    1    2    0    0 -0.16606345350E+01 -0.59399892440E+02  0.32425766919E+03  0.32965761170E+03  0.00000000000E+00 0.  1.
         11    1    1    2    0    0 -0.25769121109E+02  0.24851309079E+02  0.89319879818E+02  0.96227210790E+02  0.00000000000E+00 0. -1.
</event>
<event>
 7    1  0.4394360E-006  0.1380149E+03  0.7561462E-02  0.1216025E+00
          2   -1    0    0  501    0  0.00000000000E+00  0.00000000000E+00  0.10465002825E+04  0.10465002825E+04  0.00000000000E+00 0.  1.
         -2   -1    0    0    0  501 -0.00000000000E+00 -0.00000000000E+00 -0.21980731518E+02  0.21980731518E+02  0.00000000000E+00 0. -1.
         23    2    1    2    0    0  0.10557868918E+03 -0.27496118697E+01  0.58609387931E+03  0.60853012682E+03  0.12509380444E+03 0.  0.
          5    1    3    3  502    0  0.69012460776E+02 -0.45205425458E+02  0.17388008005E+03  0.19250455805E+03  0.41800000000E+01 0.  1.
         -5    1    3    3    0  502  0.36566228400E+02  0.42455813588E+02  0.41221379926E+03  0.41602556877E+03  0.41800000000E+01 0.  1.
        -11    1    1    2    0    0 -0.11428286992E+03  0.21752588911E+02  0.34067550761E+03  0.35999104290E+03  0.00000000000E+00 0.  1.
         11    1    1    2    0    0  0.87041807405E+01 -0.19002977042E+02  0.97750164108E+02  0.99959844348E+02  0.00000000000E+00 0. -1.
</event>
<event>
 7    1  0.4394360E-006  0.1007872E+03  0.7561462E-02  0.1278649E+00
         -1   -1    0    0    0  501 -0.00000000000E+00  0.00000000000E+00  0.45429809475E+02  0.45429809475E+02  0.00000000000E+00 0.  1.
          1   -1    0    0  501    0  0.00000000000E+00 -0.00000000000E+00 -0.41775033423E+03  0.41775033423E+03  0.00000000000E+00 0. -1.
         23    2    1    2    0    0  0.37072733511E-01  0.61372302494E+02 -0.10577828256E+03  0.17493838046E+03  0.12509129069E+03 0.  0.
          5    1    3    3  502    0  0.16415094763E+02 -0.27577662164E+02  0.40318107270E+01  0.32614577787E+02  0.41800000000E+01 0.  1.
         -5    1    3    3    0  502 -0.16378022030E+02  0.88949964658E+02 -0.10981009329E+03  0.14232380267E+03  0.41800000000E+01 0.  1.
        -11    1    1    2    0    0 -0.24625536109E+02 -0.30993462098E+02 -0.33245602276E+02  0.51694117578E+02  0.00000000000E+00 0.  1.
         11    1    1    2    0    0  0.24588463376E+02 -0.30378840397E+02 -0.23329663992E+03  0.23654764567E+03  0.00000000000E+00 0. -1.
</event>
<event>
 7    1  0.4394360E-006  0.8893738E+02  0.7561462E-02  0.1305446E+00
         -1   -1    0    0    0  501 -0.00000000000E+00  0.00000000000E+00  0.10172322156E+03  0.10172322156E+03  0.00000000000E+00 0. -1.
          1   -1    0    0  501    0  0.00000000000E+00 -0.00000000000E+00 -0.17606430359E+03  0.17606430359E+03  0.00000000000E+00 0.  1.
         23    2    1    2    0    0 -0.15826510365E+02  0.22344747049E+02  0.35245567631E+02  0.13281413433E+03  0.12509027976E+03 0.  0.
          5    1    3    3  502    0 -0.28425406671E+02 -0.24034025855E+02  0.65797198007E+02  0.75712494403E+02  0.41800000000E+01 0. -1.
         -5    1    3    3    0  502  0.12598896305E+02  0.46378772904E+02 -0.30551630376E+02  0.57101639931E+02  0.41800000000E+01 0. -1.
        -11    1    1    2    0    0 -0.36579046064E+02 -0.13707535420E+02 -0.64002136049E+02  0.74981308051E+02  0.00000000000E+00 0.  1.
         11    1    1    2    0    0  0.52405556430E+02 -0.86372116288E+01 -0.45584513611E+02  0.69992082770E+02  0.00000000000E+00 0. -1.
</event>
<event>
 7    1  0.4394360E-006  0.1333956E+03  0.7561462E-02  0.1222503E+00
          2   -1    0    0  501    0  0.00000000000E+00  0.00000000000E+00  0.28828303417E+02  0.28828303417E+02  0.00000000000E+00 0. -1.
         -2   -1    0    0    0  501 -0.00000000000E+00 -0.00000000000E+00 -0.70735124061E+03  0.70735124061E+03  0.00000000000E+00 0.  1.
         23    2    1    2    0    0 -0.65804342544E+02 -0.43352204829E+02 -0.49466669321E+03  0.51628584022E+03  0.12508519608E+03 0.  0.
          5    1    3    3  502    0  0.59210756325E+01  0.37910822068E+02 -0.10785239191E+03  0.11455086384E+03  0.41800000000E+01 0.  1.
         -5    1    3    3    0  502 -0.71725418177E+02 -0.81263026897E+02 -0.38681430130E+03  0.40173497638E+03  0.41800000000E+01 0.  1.
        -11    1    1    2    0    0 -0.20401223171E+02  0.23765769065E+02 -0.36941092676E+02  0.48432076294E+02  0.00000000000E+00 0.  1.
         11    1    1    2    0    0  0.86205565716E+02  0.19586435765E+02 -0.14691515131E+03  0.17146162752E+03  0.00000000000E+00 0. -1.
</event>
<event>
 7    1  0.4394360E-006  0.1285666E+03  0.7561462E-02  0.1229598E+00
         -4   -1    0    0    0  501 -0.00000000000E+00  0.00000000000E+00  0.15018545404E+03  0.15018545404E+03  0.00000000000E+00 0. -1.
          4   -1    0    0  501    0  0.00000000000E+00 -0.00000000000E+00 -0.18934233523E+03  0.18934233523E+03  0.00000000000E+00 0.  1.
         23    2    1    2    0    0  0.77648871509E+02  0.49997168232E+02  0.69985262927E+02  0.17041804087E+03  0.12496122419E+03 0.  0.
          5    1    3    3  502    0  0.68221041079E+02 -0.25773196587E+02  0.57442371659E+02  0.92927211139E+02  0.41800000000E+01 0. -1.
         -5    1    3    3    0  502  0.94278304304E+01  0.75770364819E+02  0.12542891267E+02  0.77490829733E+02  0.41800000000E+01 0. -1.
        -11    1    1    2    0    0 -0.54225769176E+01  0.11527314617E+02 -0.61756041144E+02  0.63056260122E+02  0.00000000000E+00 0.  1.
         11    1    1    2    0    0 -0.72226294592E+02 -0.61524482849E+02 -0.47386102971E+02  0.10605348827E+03  0.00000000000E+00 0. -1.
</event>
<event>
 7    1  0.4394360E-006  0.1294485E+03  0.7561462E-02  0.1228276E+00
          2   -1    0    0  501    0  0.00000000000E+00  0.00000000000E+00  0.14502089837E+03  0.14502089837E+03  0.00000000000E+00 0. -1.
         -2   -1    0    0    0  501 -0.00000000000E+00 -0.00000000000E+00 -0.12678217416E+03  0.12678217416E+03  0.00000000000E+00 0.  1.
         23    2    1    2    0    0 -0.60099943319E+02 -0.44354135956E+02 -0.27434585057E+02  0.14825784928E+03  0.12509372827E+03 0.  0.
          5    1    3    3  502    0 -0.79850221836E+02  0.15456948738E+02 -0.62810308106E+01  0.81681692806E+02  0.41800000000E+01 0. -1.
         -5    1    3    3    0  502  0.19750278517E+02 -0.59811084695E+02 -0.21153554247E+02  0.66576156476E+02  0.41800000000E+01 0. -1.
        -11    1    1    2    0    0  0.42890758699E+02  0.70800279628E+02  0.37939695995E+02  0.91058867275E+02  0.00000000000E+00 0.  1.
         11    1    1    2    0    0  0.17209184620E+02 -0.26446143672E+02  0.77336132652E+01  0.32486355975E+02  0.00000000000E+00 0. -1.
</event>
<event>
 7    1  0.4394360E-006  0.6507870E+02  0.7561462E-02  0.1377676E+00
          2   -1    0    0  501    0  0.00000000000E+00  0.00000000000E+00  0.78803019230E+03  0.78803019230E+03  0.00000000000E+00 0. -1.
         -2   -1    0    0    0  501 -0.00000000000E+00 -0.00000000000E+00 -0.15662269489E+02  0.15662269489E+02  0.00000000000E+00 0.  1.
         23    2    1    2    0    0 -0.24841892694E+02 -0.16284208928E+02  0.46405364028E+03  0.48152106658E+03  0.12503783988E+03 0.  0.
          5    1    3    3  502    0  0.11316051114E+02  0.74288973441E+01 -0.12237050678E+01  0.14220104875E+02  0.41800000000E+01 0. -1.
         -5    1    3    3    0  502 -0.36157943808E+02 -0.23713106272E+02  0.46527734535E+03  0.46730096170E+03  0.41800000000E+01 0. -1.
        -11    1    1    2    0    0  0.21713391801E+02  0.41660765647E+02  0.28043415915E+03  0.28434206230E+03  0.00000000000E+00 0. -1.
         11    1    1    2    0    0  0.31285008926E+01 -0.25376556719E+02  0.27880123377E+02  0.37829332908E+02  0.00000000000E+00 0.  1.
</event>
<event>
 7    1  0.4394360E-006  0.1037706E+03  0.7561462E-02  0.1272561E+00
          2   -1    0    0  501    0  0.00000000000E+00  0.00000000000E+00  0.56999506150E+03  0.56999506150E+03  0.00000000000E+00 0.  1.
         -2   -1    0    0    0  501 -0.00000000000E+00 -0.00000000000E+00 -0.31241523426E+02  0.31241523426E+02  0.00000000000E+00 0. -1.
         23    2    1    2    0    0 -0.44698768410E+02  0.59228222776E+02  0.27097216332E+03  0.30753818352E+03  0.12509140162E+03 0.  0.
          5    1    3    3  502    0 -0.30280125632E+02 -0.38489458767E+01  0.22726433901E+03  0.22934308923E+03  0.41800000000E+01 0.  1.
         -5    1    3    3    0  502 -0.14418642778E+02  0.63077168652E+02  0.43707824308E+02  0.78195094287E+02  0.41800000000E+01 0.  1.
        -11    1    1    2    0    0 -0.16245860005E+02 -0.47007702754E+02  0.66522709271E+02  0.83059755202E+02  0.00000000000E+00 0. -1.
         11    1    1    2    0    0  0.60944628415E+02 -0.12220520022E+02  0.20125866549E+03  0.21063864621E+03  0.00000000000E+00 0.  1.
</event>
<event>
 7    1  0.4394360E-006  0.4898086E+02  0.7561462E-02  0.1450917E+00
         -3   -1    0    0    0  501 -0.00000000000E+00  0.00000000000E+00  0.12483784871E+03  0.12483784871E+03  0.00000000000E+00 0.  1.
          3   -1    0    0  501    0  0.00000000000E+00 -0.00000000000E+00 -0.12703581267E+03  0.12703581267E+03  0.00000000000E+00 0. -1.
         23    2    1    2    0    0 -0.45758658404E+01 -0.12144641874E+02  0.60428511872E+02  0.13952544170E+03  0.12508922000E+03 0.  0.
          5    1    3    3  502    0 -0.13598673742E+02 -0.25221081101E+02 -0.33437284940E+02  0.44232920812E+02  0.41800000000E+01 0. -1.
         -5    1    3    3    0  502  0.90228079013E+01  0.13076439227E+02  0.93865796812E+02  0.95292520884E+02  0.41800000000E+01 0. -1.
        -11    1    1    2    0    0  0.70252575234E+01  0.31902993372E+02  0.12235824672E+02  0.34883672897E+02  0.00000000000E+00 0.  1.
         11    1    1    2    0    0 -0.24493916830E+01 -0.19758351498E+02 -0.74862300503E+02  0.77464546795E+02  0.00000000000E+00 0. -1.
</event>
<event>
 7    1  0.4394360E-006  0.1195795E+03  0.7561462E-02  0.1243792E+00
         -4   -1    0    0    0  501 -0.00000000000E+00  0.00000000000E+00  0.22546567416E+03  0.22546567416E+03  0.00000000000E+00 0.  1.
          4   -1    0    0  501    0  0.00000000000E+00 -0.00000000000E+00 -0.93691405606E+02  0.93691405606E+02  0.00000000000E+00 0. -1.
         23    2    1    2    0    0 -0.47714232722E+02  0.66155320314E+02  0.12799121757E+03  0.19668151286E+03  0.12509472936E+03 0.  0.
          5    1    3    3  502    0 -0.78555796037E+02  0.42974525895E+02  0.12990029488E+03  0.15782706351E+03  0.41800000000E+01 0. -1.
         -5    1    3    3    0  502  0.30841563315E+02  0.23180794419E+02 -0.19090773098E+01  0.38854449343E+02  0.41800000000E+01 0. -1.
        -11    1    1    2    0    0  0.14085704993E+01 -0.64355652846E+02  0.27990273237E+02  0.70193229873E+02  0.00000000000E+00 0.  1.
         11    1    1    2    0    0  0.46305662223E+02 -0.17996674676E+01 -0.24207222254E+02  0.52282337038E+02  0.00000000000E+00 0. -1.
</event>
<event>
 7    1  0.4394360E-006  0.1114122E+03  0.7561462E-02  0.1257977E+00
         -1   -1    0    0    0  501 -0.00000000000E+00  0.00000000000E+00  0.52648042326E+02  0.52648042326E+02  0.00000000000E+00 0.  1.
          1   -1    0    0  501    0  0.00000000000E+00 -0.00000000000E+00 -0.25982436701E+03  0.25982436701E+03  0.00000000000E+00 0. -1.
         23    2    1    2    0    0 -0.23977143113E+02 -0.38002384758E+02 -0.11827393699E+03  0.17791894980E+03  0.12508934362E+03 0.  0.
          5    1    3    3  502    0 -0.69153300814E+02 -0.30375930521E+01 -0.91182409082E+02  0.11455614393E+03  0.41800000000E+01 0.  1.
         -5    1    3    3    0  502  0.45176157701E+02 -0.34964791706E+02 -0.27091527910E+02  0.63362805873E+02  0.41800000000E+01 0.  1.
        -11    1    1    2    0    0 -0.21526727214E+02  0.45261594720E+02 -0.25666288384E+02  0.56309593326E+02  0.00000000000E+00 0.  1.
         11    1    1    2    0    0  0.45503870328E+02 -0.72592099618E+01 -0.63236099312E+02  0.78243866215E+02  0.00000000000E+00 0. -1.
</event>
<event>
 7    1  0.4394360E-006  0.1170947E+03  0.7561462E-02  0.1247968E+00
          1   -1    0    0  501    0  0.00000000000E+00  0.00000000000E+00  0.40752228562E+02  0.40752228562E+02  0.00000000000E+00 0. -1.
         -1   -1    0    0    0  501 -0.00000000000E+00 -0.00000000000E+00 -0.55528693482E+03  0.55528693482E+03  0.00000000000E+00 0.  1.
         23    2    1    2    0    0  0.87720650826E+02 -0.51265807703E+02 -0.30151650358E+03  0.34188120558E+03  0.12508981244E+03 0.  0.
          5    1    3    3  502    0  0.36663121913E+01  0.12056606157E+02 -0.18239355048E+03  0.18287614184E+03  0.41800000000E+01 0. -1.
         -5    1    3    3    0  502  0.84054338635E+02 -0.63322413860E+02 -0.11912295310E+03  0.15900506374E+03  0.41800000000E+01 0. -1.
        -11    1    1    2    0    0 -0.40620664770E+02 -0.64152810461E+01 -0.17051514518E+02  0.44519078883E+02  0.00000000000E+00 0. -1.
         11    1    1    2    0    0 -0.47099986057E+02  0.57681088749E+02 -0.19596668816E+03  0.20963887892E+03  0.00000000000E+00 0.  1.
</event>
<event>
 7    1  0.4394360E-006  0.1254912E+03  0.7561462E-02  0.1234304E+00
          3   -1    0    0  501    0  0.00000000000E+00  0.00000000000E+00  0.43985823920E+03  0.43985823920E+03  0.00000000000E+00 0. -1.
         -3   -1    0    0    0  501 -0.00000000000E+00 -0.00000000000E+00 -0.57410665944E+02  0.57410665944E+02  0.00000000000E+00 0.  1.
         23    2    1    2    0    0 -0.65527421239E+02 -0.23817534946E+02  0.59050922523E+02  0.15409850031E+03  0.12408955815E+03 0.  0.
          5    1    3    3  502    0 -0.78519287262E+02  0.30780874514E+02  0.23951044610E+02  0.87771667672E+02  0.41800000000E+01 0. -1.
         -5    1    3    3    0  502  0.12991866023E+02 -0.54598409459E+02  0.35099877913E+02  0.66326832638E+02  0.41800000000E+01 0.  1.
        -11    1    1    2    0    0  0.86441349716E+02  0.15845813753E+02  0.21105082890E+03  0.22861681726E+03  0.00000000000E+00 0.  1.
         11    1    1    2    0    0 -0.20913928477E+02  0.79717211924E+01  0.11234582183E+03  0.11455358758E+03  0.00000000000E+00 0. -1.
</event>
<event>
 7    1  0.4394360E-006  0.1355207E+03  0.7561462E-02  0.1219486E+00
         -2   -1    0    0    0  501 -0.00000000000E+00  0.00000000000E+00  0.73884876652E+02  0.73884876652E+02  0.00000000000E+00 0.  1.
          2   -1    0    0  501    0  0.00000000000E+00 -0.00000000000E+00 -0.26408392088E+03  0.26408392088E+03  0.00000000000E+00 0. -1.
         23    2    1    2    0    0 -0.34350243798E+02 -0.80429308561E+02 -0.10630009300E+03  0.18600008874E+03  0.12509000885E+03 0.  0.
          5    1    3    3  502    0  0.47416694558E+02 -0.25420986644E+02 -0.39394313072E+02  0.66812826517E+02  0.41800000000E+01 0. -1.
         -5    1    3    3    0  502 -0.81766938356E+02 -0.55008321917E+02 -0.66905779923E+02  0.11918726222E+03  0.41800000000E+01 0. -1.
        -11    1    1    2    0    0  0.35687738266E+02 -0.22430172519E+01 -0.23484022704E+01  0.35835189160E+02  0.00000000000E+00 0.  1.
         11    1    1    2    0    0 -0.13374944679E+01  0.82672325813E+02 -0.81550548965E+02  0.11613351964E+03  0.00000000000E+00 0. -1.
</event>
<event>
 7    1  0.4394360E-006  0.8988894E+02  0.7561462E-02  0.1303121E+00
          2   -1    0    0  501    0  0.00000000000E+00  0.00000000000E+00  0.32325390817E+03  0.32325390817E+03  0.00000000000E+00 0. -1.
         -2   -1    0    0    0  501 -0.00000000000E+00 -0.00000000000E+00 -0.38168465191E+02  0.38168465191E+02  0.00000000000E+00 0.  1.
         23    2    1    2    0    0  0.28256321715E+02 -0.60093757178E+01  0.14850110475E+03  0.19630300552E+03  0.12509100507E+03 0.  0.
          5    1    3    3  502    0 -0.12245303027E+02  0.43188133404E+02  0.11640283036E+03  0.12482889742E+03  0.41800000000E+01 0. -1.
         -5    1    3    3    0  502  0.40501624742E+02 -0.49197509122E+02  0.32098274383E+02  0.71474108102E+02  0.41800000000E+01 0. -1.
        -11    1    1    2    0    0 -0.47289284811E+02  0.15232479164E+02  0.33579801266E+02  0.59965889742E+02  0.00000000000E+00 0.  1.
         11    1    1    2    0    0  0.19032963096E+02 -0.92231034462E+01  0.10300453697E+03  0.10515347810E+03  0.00000000000E+00 0. -1.
</event>
<event>
 7    1  0.4394360E-006  0.1136327E+03  0.7561462E-02  0.1253987E+00
         -1   -1    0    0    0  501 -0.00000000000E+00  0.00000000000E+00  0.13138593603E+03  0.13138593603E+03  0.00000000000E+00 0.  1.
          1   -1    0    0  501    0  0.00000000000E+00 -0.00000000000E+00 -0.21819275512E+03  0.21819275512E+03  0.00000000000E+00 0. -1.
         23    2    1    2    0    0 -0.58015263303E+02  0.48282829138E+02  0.58580558386E+02  0.15740712934E+03  0.12509324594E+03 0.  0.
          5    1    3    3  502    0 -0.10718327568E+02  0.66130222444E+02  0.78166988630E+02  0.10303222495E+03  0.41800000000E+01 0. -1.
         -5    1    3    3    0  502 -0.47296935736E+02 -0.17847393306E+02 -0.19586430244E+02  0.54374904391E+02  0.41800000000E+01 0. -1.
        -11    1    1    2    0    0  0.12325547554E+02 -0.60805754961E+02 -0.33145258946E+02  0.70341077256E+02  0.00000000000E+00 0.  1.
         11    1    1    2    0    0  0.45689715749E+02  0.12522925823E+02 -0.11224211853E+03  0.12183048456E+03  0.00000000000E+00 0. -1.
</event>
<event>
 7    1  0.4394360E-006  0.1324786E+03  0.7561462E-02  0.1223824E+00
          3   -1    0    0  501    0  0.00000000000E+00  0.00000000000E+00  0.14734686404E+03  0.14734686404E+03  0.00000000000E+00 0. -1.
         -3   -1    0    0    0  501 -0.00000000000E+00 -0.00000000000E+00 -0.13628894572E+03  0.13628894572E+03  0.00000000000E+00 0.  1.
         23    2    1    2    0    0  0.54831628814E+02  0.57884511109E+02 -0.41014273203E+02  0.15390672210E+03  0.12509190365E+03 0.  0.
          5    1    3    3  502    0  0.71126611076E+02 -0.15196563175E+02 -0.26505473889E+02  0.77523821381E+02  0.41800000000E+01 0.  1.
         -5    1    3    3    0  502 -0.16294982262E+02  0.73081074284E+02 -0.14508799314E+02  0.76382900724E+02  0.41800000000E+01 0.  1.
        -11    1    1    2    0    0 -0.14894648801E+02  0.22714292639E+02  0.31752355857E+01  0.27347244359E+02  0.00000000000E+00 0.  1.
         11    1    1    2    0    0 -0.39936980013E+02 -0.80598803748E+02  0.48896955933E+02  0.10238184330E+03  0.00000000000E+00 0. -1.
</event>
<event>
 7    1  0.4394360E-006  0.1012635E+03  0.7561462E-02  0.1277661E+00
          1   -1    0    0  501    0  0.00000000000E+00  0.00000000000E+00  0.17456059757E+03  0.17456059757E+03  0.00000000000E+00 0. -1.
         -1   -1    0    0    0  501 -0.00000000000E+00 -0.00000000000E+00 -0.93191615587E+02  0.93191615587E+02  0.00000000000E+00 0.  1.
         23    2    1    2    0    0 -0.44010088335E+02  0.16458438657E+02 -0.48603494366E+01  0.13369553267E+03  0.12507239656E+03 0.  0.
          5    1    3    3  502    0 -0.34593657960E+01  0.49300517927E+02  0.40806127375E+02  0.64227102620E+02  0.41800000000E+01 0.  1.
         -5    1    3    3    0  502 -0.40550722539E+02 -0.32842079271E+02 -0.45666476812E+02  0.69468430050E+02  0.41800000000E+01 0.  1.
        -11    1    1    2    0    0  0.33889806803E+02 -0.52863620829E+02  0.40437115139E+02  0.74687627443E+02  0.00000000000E+00 0.  1.
         11    1    1    2    0    0  0.10120281532E+02  0.36405182172E+02  0.45792216277E+02  0.59369053039E+02  0.00000000000E+00 0. -1.
</event>
<event>
 7    1  0.4394360E-006  0.1052985E+03  0.7561462E-02  0.1269533E+00
         -2   -1    0    0    0  501 -0.00000000000E+00  0.00000000000E+00  0.14482750563E+02  0.14482750563E+02  0.00000000000E+00 0.  1.
          2   -1    0    0  501    0  0.00000000000E+00 -0.00000000000E+00 -0.83600216334E+03  0.83600216334E+03  0.00000000000E+00 0. -1.
         23    2    1    2    0    0  0.12735536991E+02  0.20658632373E+02 -0.43892021720E+03  0.45703758436E+03  0.12507367213E+03 0.  0.
          5    1    3    3  502    0  0.22684480400E+02 -0.48158506371E+02 -0.25113169699E+03  0.25674584518E+03  0.41800000000E+01 0. -1.
         -5    1    3    3    0  502 -0.99489434093E+01  0.68817138744E+02 -0.18778852021E+03  0.20029173918E+03  0.41800000000E+01 0. -1.
        -11    1    1    2    0    0 -0.48829464202E+02 -0.93433186848E+01 -0.15652765821E+03  0.16423313297E+03  0.00000000000E+00 0.  1.
         11    1    1    2    0    0  0.36093927211E+02 -0.11315313688E+02 -0.22607153737E+03  0.22921419658E+03  0.00000000000E+00 0. -1.
</event>
<event>
 7    1  0.4394360E-006  0.2704186E+03  0.7561462E-02  0.1101040E+00
         -1   -1    0    0    0  501 -0.00000000000E+00  0.00000000000E+00  0.52336293933E+03  0.52336293933E+03  0.00000000000E+00 0.  1.
          1   -1    0    0  501    0  0.00000000000E+00 -0.00000000000E+00 -0.14878294278E+03  0.14878294278E+03  0.00000000000E+00 0. -1.
         23    2    1    2    0    0  0.12035026433E+03 -0.22392682179E+03  0.15230862490E+03  0.32168900651E+03  0.12513389647E+03 0.  0.
          5    1    3    3  502    0 -0.22870473942E+02 -0.23266427010E+02  0.20682292879E+01  0.32956564999E+02  0.41800000000E+01 0. -1.
         -5    1    3    3    0  502  0.14322073828E+03 -0.20066039478E+03  0.15024039562E+03  0.28873244151E+03  0.41800000000E+01 0. -1.
        -11    1    1    2    0    0 -0.37991120874E+02  0.13469557771E+03  0.16452023231E+03  0.21599335814E+03  0.00000000000E+00 0. -1.
         11    1    1    2    0    0 -0.82359143460E+02  0.89231244082E+02  0.57751139341E+02  0.13446351746E+03  0.00000000000E+00 0.  1.
</event>
<event>
 7    1  0.4394360E-006  0.1359218E+03  0.7561462E-02  0.1218924E+00
         -2   -1    0    0    0  501 -0.00000000000E+00  0.00000000000E+00  0.10478871214E+03  0.10478871214E+03  0.00000000000E+00 0.  1.
          2   -1    0    0  501    0  0.00000000000E+00 -0.00000000000E+00 -0.25171572393E+03  0.25171572393E+03  0.00000000000E+00 0. -1.
         23    2    1    2    0    0 -0.10157040943E+03 -0.31692570127E+02 -0.16378937370E+02  0.16503658899E+03  0.12509132281E+03 0.  0.
          5    1    3    3  502    0 -0.93123113397E+02 -0.75098731321E+02 -0.14494726094E+02  0.12057903292E+03  0.41800000000E+01 0.  1.
         -5    1    3    3    0  502 -0.84472960358E+01  0.43406161194E+02 -0.18842112758E+01  0.44457556074E+02  0.41800000000E+01 0.  1.
        -11    1    1    2    0    0  0.65198609460E+02  0.11776113919E+02 -0.13437845768E+03  0.14982358100E+03  0.00000000000E+00 0. -1.
         11    1    1    2    0    0  0.36371799973E+02  0.19916456208E+02  0.38303832570E+01  0.41644266076E+02  0.00000000000E+00 0.  1.
</event>
<event>
 7    1  0.4394360E-006  0.1139198E+03  0.7561462E-02  0.1253478E+00
         -1   -1    0    0    0  501 -0.00000000000E+00  0.00000000000E+00  0.54904261060E+02  0.54904261060E+02  0.00000000000E+00 0.  1.
          1   -1    0    0  501    0  0.00000000000E+00 -0.00000000000E+00 -0.28803180981E+03  0.28803180981E+03  0.00000000000E+00 0. -1.
         23    2    1    2    0    0  0.56515934077E+02  0.68544421301E+01 -0.90788028144E+02  0.16471529997E+03  0.12509048648E+03 0.  0.
          5    1    3    3  502    0  0.15574084001E+02 -0.50551493532E+02 -0.45690832715E+01  0.53257436220E+02  0.41800000000E+01 0.  1.
         -5    1    3    3    0  502  0.40941850076E+02  0.57405935662E+02 -0.86218944872E+02  0.11145786375E+03  0.41800000000E+01 0.  1.
        -11    1    1    2    0    0 -0.35600281098E+02  0.39569217090E+02 -0.51381890606E+02  0.73981089729E+02  0.00000000000E+00 0.  1.
         11    1    1    2    0    0 -0.20915652979E+02 -0.46423659220E+02 -0.90957629998E+02  0.10423968117E+03  0.00000000000E+00 0. -1.
</event>
<event>
 7    1  0.4394360E-006  0.1233764E+03  0.7561462E-02  0.1237629E+00
         -1   -1    0    0    0  501 -0.00000000000E+00  0.00000000000E+00  0.64837239801E+02  0.64837239801E+02  0.00000000000E+00 0.  1.
          1   -1    0    0  501    0  0.00000000000E+00 -0.00000000000E+00 -0.36054313478E+03  0.36054313478E+03  0.00000000000E+00 0. -1.
         23    2    1    2    0    0  0.67491202916E+02  0.28499968504E+02 -0.50162524954E+02  0.15339918401E+03  0.12509084727E+03 0.  0.
          5    1    3    3  502    0  0.50434131739E+02  0.69655829384E+02 -0.63185803616E+02  0.10679632199E+03  0.41800000000E+01 0. -1.
         -5    1    3    3    0  502  0.17057071177E+02 -0.41155860880E+02  0.13023278663E+02  0.46602862027E+02  0.41800000000E+01 0. -1.
        -11    1    1    2    0    0  0.77986974646E+01 -0.39104637397E+02 -0.67767014602E+02  0.78627988758E+02  0.00000000000E+00 0. -1.
         11    1    1    2    0    0 -0.75289900381E+02  0.10604668894E+02 -0.17777635543E+03  0.19335320181E+03  0.00000000000E+00 0.  1.
</event>
<event>
 7    1  0.4394360E-006  0.9556506E+02  0.7561462E-02  0.1289908E+00
         -1   -1    0    0    0  501 -0.00000000000E+00  0.00000000000E+00  0.40727636469E+02  0.40727636469E+02  0.00000000000E+00 0.  1.
          1   -1    0    0  501    0  0.00000000000E+00 -0.00000000000E+00 -0.32495338888E+03  0.32495338888E+03  0.00000000000E+00 0. -1.
         23    2    1    2    0    0  0.22323123224E+02 -0.98571085336E+00 -0.10807773844E+03  0.16681533371E+03  0.12508902653E+03 0.  0.
          5    1    3    3  502    0  0.14759552424E+02 -0.62788812657E+02 -0.53199081204E+02  0.83713165174E+02  0.41800000000E+01 0.  1.
         -5    1    3    3    0  502  0.75635708005E+01  0.61803101803E+02 -0.54878657236E+02  0.83102168538E+02  0.41800000000E+01 0.  1.
        -11    1    1    2    0    0  0.45605495988E+01  0.26581857955E+02 -0.10228679316E+02  0.28844751092E+02  0.00000000000E+00 0.  1.
         11    1    1    2    0    0 -0.26883672823E+02 -0.25596147102E+02 -0.16591933466E+03  0.17002094055E+03  0.00000000000E+00 0. -1.
</event>
<event>
 7    1  0.4394360E-006  0.2351478E+03  0.7561462E-02  0.1123068E+00
          2   -1    0    0  501    0  0.00000000000E+00  0.00000000000E+00  0.89723363696E+03  0.89723363696E+03  0.00000000000E+00 0. -1.
         -2   -1    0    0    0  501 -0.00000000000E+00 -0.00000000000E+00 -0.10728160518E+03  0.10728160518E+03  0.00000000000E+00 0.  1.
         23    2    1    2    0    0 -0.13410277466E+02  0.22329078939E+03  0.10252471111E+03  0.27603471384E+03  0.12508091257E+03 0.  0.
          5    1    3    3  502    0  0.26891735144E+02  0.10301558506E+03  0.10430535790E+03  0.14910552059E+03  0.41800000000E+01 0. -1.
         -5    1    3    3    0  502 -0.40302012610E+02  0.12027520433E+03 -0.17806467881E+01  0.12692919325E+03  0.41800000000E+01 0. -1.
        -11    1    1    2    0    0 -0.31009198065E+02 -0.59164711915E+02  0.13749140649E+03  0.15285915203E+03  0.00000000000E+00 0. -1.
         11    1    1    2    0    0  0.44419475531E+02 -0.16412607747E+03  0.54993591418E+03  0.57562137627E+03  0.00000000000E+00 0.  1.
</event>
<event>
 7    1  0.4394360E-006  0.1529699E+03  0.7561462E-02  0.1196870E+00
          1   -1    0    0  501    0  0.00000000000E+00  0.00000000000E+00  0.32692779957E+03  0.32692779957E+03  0.00000000000E+00 0. -1.
         -1   -1    0    0    0  501 -0.00000000000E+00 -0.00000000000E+00 -0.74928805435E+02  0.74928805435E+02  0.00000000000E+00 0.  1.
         23    2    1    2    0    0 -0.10221214699E+03  0.42445131361E+02  0.11147923198E+03  0.20080846222E+03  0.12508999627E+03 0.  0.
          5    1    3    3  502    0 -0.67645787280E+02  0.84638510799E+02  0.93643719731E+02  0.14326984572E+03  0.41800000000E+01 0.  1.
         -5    1    3    3    0  502 -0.34566359707E+02 -0.42193379437E+02  0.17835512254E+02  0.57538616503E+02  0.41800000000E+01 0.  1.
        -11    1    1    2    0    0  0.11725067744E+03 -0.48107111307E+02  0.13145283321E+03  0.18259754346E+03  0.00000000000E+00 0. -1.
         11    1    1    2    0    0 -0.15038530453E+02  0.56619799460E+01  0.90669289450E+01  0.18450599329E+02  0.00000000000E+00 0.  1.
</event>
<event>
 7    1  0.4394360E-006  0.9364079E+02  0.7561462E-02  0.1294267E+00
          2   -1    0    0  501    0  0.00000000000E+00  0.00000000000E+00  0.85965765007E+02  0.85965765007E+02  0.00000000000E+00 0. -1.
         -2   -1    0    0    0  501 -0.00000000000E+00 -0.00000000000E+00 -0.18758130366E+03  0.18758130366E+03  0.00000000000E+00 0.  1.
         23    2    1    2    0    0  0.35252482610E+02  0.48764849696E+02 -0.86550938937E+02  0.16359730482E+03  0.12510901254E+03 0.  0.
          5    1    3    3  502    0 -0.29237371083E+02 -0.14763986061E+02 -0.61129585735E+02  0.69477318633E+02  0.41800000000E+01 0. -1.
         -5    1    3    3    0  502  0.64489853693E+02  0.63528835757E+02 -0.25421353201E+02  0.94119986191E+02  0.41800000000E+01 0. -1.
        -11    1    1    2    0    0 -0.36713703794E+02 -0.38227448158E+02 -0.50344208913E+02  0.73101116339E+02  0.00000000000E+00 0.  1.
         11    1    1    2    0    0  0.14612211840E+01 -0.10537401538E+02  0.35279609192E+02  0.36848647509E+02  0.00000000000E+00 0. -1.
</event>
<event>
 7    1  0.4394360E-006  0.9629839E+02  0.7561462E-02  0.1288278E+00
         -1   -1    0    0    0  501 -0.00000000000E+00  0.00000000000E+00  0.33014751843E+02  0.33014751843E+02  0.00000000000E+00 0.  1.
          1   -1    0    0  501    0  0.00000000000E+00 -0.00000000000E+00 -0.39412704693E+03  0.39412704693E+03  0.00000000000E+00 0. -1.
         23    2    1    2    0    0 -0.21884206997E+02 -0.21047864906E+02 -0.18315481801E+03  0.22386478037E+03  0.12509125228E+03 0.  0.
          5    1    3    3  502    0  0.11639561271E+02  0.47399298723E+02 -0.47640776940E+02  0.68332195438E+02  0.41800000000E+01 0. -1.
         -5    1    3    3    0  502 -0.33523768268E+02 -0.68447163629E+02 -0.13551404107E+03  0.15553258493E+03  0.41800000000E+01 0. -1.
        -11    1    1    2    0    0  0.42213762913E+02  0.75657456247E+01 -0.17319101459E+03  0.17842188717E+03  0.00000000000E+00 0. -1.
         11    1    1    2    0    0 -0.20329555915E+02  0.13482119281E+02 -0.47664624842E+01  0.24855131234E+02  0.00000000000E+00 0.  1.
</event>
<event>
 7    1  0.4394360E-006  0.1428838E+03  0.7561462E-02  0.1209500E+00
         -1   -1    0    0    0  501 -0.00000000000E+00  0.00000000000E+00  0.56383825434E+02  0.56383825434E+02  0.00000000000E+00 0.  1.
          1   -1    0    0  501    0  0.00000000000E+00 -0.00000000000E+00 -0.50200138619E+03  0.50200138619E+03  0.00000000000E+00 0. -1.
         23    2    1    2    0    0 -0.35195795833E+02 -0.11858590150E+03 -0.20041034814E+03  0.26667011587E+03  0.12508910016E+03 0.  0.
          5    1    3    3  502    0  0.27915969629E+02 -0.28110717467E+02 -0.23293705771E+01  0.39905039332E+02  0.41800000000E+01 0. -1.
         -5    1    3    3    0  502 -0.63111765462E+02 -0.90475184031E+02 -0.19808097756E+03  0.22676507654E+03  0.41800000000E+01 0. -1.
        -11    1    1    2    0    0 -0.15219908130E+02  0.27143446868E+02 -0.73918033767E+01  0.31985169509E+02  0.00000000000E+00 0.  1.
         11    1    1    2    0    0  0.50415703963E+02  0.91442454631E+02 -0.23781540924E+03  0.25972992625E+03  0.00000000000E+00 0. -1.
</event>
<event>
 7    1  0.4394360E-006  0.2250489E+03  0.7561462E-02  0.1130174E+00
          1   -1    0    0  501    0  0.00000000000E+00  0.00000000000E+00  0.34422213727E+03  0.34422213727E+03  0.00000000000E+00 0. -1.
         -1   -1    0    0    0  501 -0.00000000000E+00 -0.00000000000E+00 -0.23935199240E+03  0.23935199240E+03  0.00000000000E+00 0.  1.
         23    2    1    2    0    0  0.13555498056E+03 -0.17771839249E+03 -0.91683418575E+02  0.27204525059E+03  0.12507513480E+03 0.  0.
          5    1    3    3  502    0  0.65281561602E+02 -0.57529636785E+02  0.24685115741E+02  0.90543739336E+02  0.41800000000E+01 0. -1.
         -5    1    3    3    0  502  0.70273418955E+02 -0.12018875571E+03 -0.11636853432E+03  0.18150151126E+03  0.41800000000E+01 0. -1.
        -11    1    1    2    0    0 -0.11440305174E+03  0.14433411106E+03  0.10545976309E+03  0.21223137255E+03  0.00000000000E+00 0.  1.
         11    1    1    2    0    0 -0.21151928820E+02  0.33384281432E+02  0.91093800358E+02  0.99297506530E+02  0.00000000000E+00 0. -1.
</event>
<event>
 7    1  0.4394360E-006  0.1167400E+03  0.7561462E-02  0.1248574E+00
         -2   -1    0    0    0  501 -0.00000000000E+00  0.00000000000E+00  0.29291401741E+02  0.29291401741E+02  0.00000000000E+00 0.  1.
          2   -1    0    0  501    0  0.00000000000E+00 -0.00000000000E+00 -0.58823227270E+03  0.58823227270E+03  0.00000000000E+00 0. -1.
         23    2    1    2    0    0 -0.20708961078E+00  0.72312409282E+02 -0.25730867468E+03  0.29510191984E+03  0.12509301183E+03 0.  0.
          5    1    3    3  502    0 -0.24345875909E+02  0.91993810101E+02 -0.11480836970E+03  0.14917780305E+03  0.41800000000E+01 0. -1.
         -5    1    3    3    0  502  0.24138786298E+02 -0.19681400818E+02 -0.14250030498E+03  0.14592411679E+03  0.41800000000E+01 0. -1.
        -11    1    1    2    0    0  0.15994063426E+01  0.17202600427E+02 -0.10442903750E+03  0.10584853063E+03  0.00000000000E+00 0. -1.
         11    1    1    2    0    0 -0.13923167318E+01 -0.89515009710E+02 -0.19720315878E+03  0.21657322398E+03  0.00000000000E+00 0.  1.
</event>
<event>
 7    1  0.4394360E-006  0.1067421E+03  0.7561462E-02  0.1266725E+00
         -2   -1    0    0    0  501 -0.00000000000E+00  0.00000000000E+00  0.48496527896E+02  0.48496527896E+02  0.00000000000E+00 0. -1.
          2   -1    0    0  501    0  0.00000000000E+00 -0.00000000000E+00 -0.32530042280E+03  0.32530042280E+03  0.00000000000E+00 0.  1.
         23    2    1    2    0    0  0.22935555758E+02 -0.21197677606E+02 -0.72235229530E+02  0.14778393468E+03  0.12508709649E+03 0.  0.
          5    1    3    3  502    0 -0.33074044453E+02 -0.54009435442E+02 -0.41565225254E+02  0.75868648886E+02  0.41800000000E+01 0. -1.
         -5    1    3    3    0  502  0.56009600211E+02  0.32811757837E+02 -0.30670004276E+02  0.71915285791E+02  0.41800000000E+01 0. -1.
        -11    1    1    2    0    0  0.17154518636E+02 -0.20763433603E+02 -0.23073443786E+02  0.35465215250E+02  0.00000000000E+00 0. -1.
         11    1    1    2    0    0 -0.40090074394E+02  0.41961111209E+02 -0.18149522159E+03  0.19054780077E+03  0.00000000000E+00 0.  1.
</event>
<event>
 7    1  0.4394360E-006  0.9788790E+02  0.7561462E-02  0.1284801E+00
          2   -1    0    0  501    0  0.00000000000E+00  0.00000000000E+00  0.10482464782E+03  0.10482464782E+03  0.00000000000E+00 0. -1.
         -2   -1    0    0    0  501 -0.00000000000E+00 -0.00000000000E+00 -0.13505661912E+03  0.13505661912E+03  0.00000000000E+00 0.  1.
         23    2    1    2    0    0  0.35817159639E+02  0.98313420108E+01 -0.51016573718E+02  0.14013443481E+03  0.12512172000E+03 0.  0.
          5    1    3    3  502    0  0.62540292172E+02 -0.12682037324E+02 -0.74228656350E+02  0.97976977088E+02  0.41800000000E+01 0.  1.
         -5    1    3    3    0  502 -0.26723132533E+02  0.22513379335E+02  0.23212082633E+02  0.42157457722E+02  0.41800000000E+01 0.  1.
        -11    1    1    2    0    0  0.29942571753E+02 -0.73311763944E+01  0.13090710037E+02  0.33491348730E+02  0.00000000000E+00 0. -1.
         11    1    1    2    0    0 -0.65759731392E+02 -0.25001656165E+01  0.76938923736E+01  0.66255483402E+02  0.00000000000E+00 0.  1.
</event>
<event>
 7    1  0.4394360E-006  0.8635197E+02  0.7561462E-02  0.1311934E+00
         -1   -1    0    0    0  501 -0.00000000000E+00  0.00000000000E+00  0.19033196513E+03  0.19033196513E+03  0.00000000000E+00 0.  1.
          1   -1    0    0  501    0  0.00000000000E+00 -0.00000000000E+00 -0.77475929326E+02  0.77475929326E+02  0.00000000000E+00 0. -1.
         23    2    1    2    0    0 -0.13025359612E+02 -0.52912411871E+02  0.58511409415E+02  0.14847994527E+03  0.12511325186E+03 0.  0.
          5    1    3    3  502    0 -0.29723360957E+02 -0.50804385670E+01 -0.32314401310E+02  0.44395742753E+02  0.41800000000E+01 0.  1.
         -5    1    3    3    0  502  0.16698001344E+02 -0.47831973304E+02  0.90825810725E+02  0.10408420251E+03  0.41800000000E+01 0.  1.
        -11    1    1    2    0    0  0.43778605028E+02  0.32288875383E+02  0.60972062169E+02  0.81711260527E+02  0.00000000000E+00 0.  1.
         11    1    1    2    0    0 -0.30753245416E+02  0.20623536488E+02 -0.66274357806E+01  0.37616688662E+02  0.00000000000E+00 0. -1.
</event>
<event>
 7    1  0.4394360E-006  0.2452749E+03  0.7561462E-02  0.1116328E+00
         -2   -1    0    0    0  501 -0.00000000000E+00  0.00000000000E+00  0.12681387731E+03  0.12681387731E+03  0.00000000000E+00 0.  1.
          2   -1    0    0  501    0  0.00000000000E+00 -0.00000000000E+00 -0.53074497897E+03  0.53074497897E+03  0.00000000000E+00 0. -1.
         23    2    1    2    0    0  0.21603451776E+03 -0.77448261373E+02 -0.14076753737E+03  0.29686932360E+03  0.12508696840E+03 0.  0.
          5    1    3    3  502    0 -0.47597008512E+01 -0.21116224186E+02  0.93706864855E+01  0.23954787439E+02  0.41800000000E+01 0. -1.
         -5    1    3    3    0  502  0.22079421861E+03 -0.56332037188E+02 -0.15013822385E+03  0.27291453616E+03  0.41800000000E+01 0. -1.
        -11    1    1    2    0    0 -0.83007512095E+02 -0.65592911704E+01 -0.13094801125E+03  0.15517942201E+03  0.00000000000E+00 0. -1.
         11    1    1    2    0    0 -0.13302700566E+03  0.84007552544E+02 -0.13221555304E+03  0.20551011066E+03  0.00000000000E+00 0.  1.
</event>
<event>
 7    1  0.4394360E-006  0.1019322E+03  0.7561462E-02  0.1276285E+00
         -1   -1    0    0    0  501 -0.00000000000E+00  0.00000000000E+00  0.72345689159E+02  0.72345689159E+02  0.00000000000E+00 0.  1.
          1   -1    0    0  501    0  0.00000000000E+00 -0.00000000000E+00 -0.20201288494E+03  0.20201288494E+03  0.00000000000E+00 0. -1.
         23    2    1    2    0    0  0.36200003042E+02 -0.99218477217E+01 -0.28214235973E+02  0.13360760280E+03  0.12508423215E+03 0.  0.
          5    1    3    3  502    0  0.20037803872E+02 -0.65211496358E+02  0.20991831814E+01  0.68380785396E+02  0.41800000000E+01 0.  1.
         -5    1    3    3    0  502  0.16162199170E+02  0.55289648637E+02 -0.30313419154E+02  0.65226817408E+02  0.41800000000E+01 0.  1.
        -11    1    1    2    0    0  0.74478360853E+01 -0.22298100038E+02 -0.78321483455E+02  0.81773652837E+02  0.00000000000E+00 0. -1.
         11    1    1    2    0    0 -0.43647839127E+02  0.32219947760E+02 -0.23131476350E+02  0.58977318456E+02  0.00000000000E+00 0.  1.
</event>
<event>
 7    1  0.4394360E-006  0.1019034E+03  0.7561462E-02  0.1276344E+00
         -2   -1    0    0    0  501 -0.00000000000E+00  0.00000000000E+00  0.26963803714E+02  0.26963803714E+02  0.00000000000E+00 0.  1.
          2   -1    0    0  501    0  0.00000000000E+00 -0.00000000000E+00 -0.51514623910E+03  0.51514623910E+03  0.00000000000E+00 0. -1.
         23    2    1    2    0    0 -0.27895387430E+02  0.41065164329E+02 -0.25116023026E+03  0.28494551407E+03  0.12509190368E+03 0.  0.
          5    1    3    3  502    0  0.29140480838E+02  0.36197311143E+02 -0.20790418010E+03  0.21307518265E+03  0.41800000000E+01 0. -1.
         -5    1    3    3    0  502 -0.57035868268E+02  0.48678531863E+01 -0.43256050155E+02  0.71870331423E+02  0.41800000000E+01 0. -1.
        -11    1    1    2    0    0 -0.27564096256E+02 -0.34117661436E+02 -0.10651091807E+03  0.11518841041E+03  0.00000000000E+00 0.  1.
         11    1    1    2    0    0  0.55459483686E+02 -0.69475028930E+01 -0.13051128706E+03  0.14197611833E+03  0.00000000000E+00 0. -1.
</event>
<event>
 7    1  0.4394360E-006  0.1220501E+03  0.7561462E-02  0.1239753E+00
         -1   -1    0    0    0  501 -0.00000000000E+00  0.00000000000E+00  0.24765831875E+02  0.24765831875E+02  0.00000000000E+00 0.  1.
          1   -1    0    0  501    0  0.00000000000E+00 -0.00000000000E+00 -0.97722077764E+03  0.97722077764E+03  0.00000000000E+00 0. -1.
         23    2    1    2    0    0  0.77217798834E+02 -0.55376334854E+02 -0.32705057259E+03  0.36281983693E+03  0.12508808943E+03 0.  0.
          5    1    3    3  502    0  0.66200069580E+01  0.12430005632E+02 -0.20852715569E+03  0.20904395851E+03  0.41800000000E+01 0. -1.
         -5    1    3    3    0  502  0.70597791876E+02 -0.67806340486E+02 -0.11852341690E+03  0.15377587841E+03  0.41800000000E+01 0. -1.
        -11    1    1    2    0    0 -0.15388775114E+02 -0.25407880108E+02 -0.11960039750E+03  0.12323404502E+03  0.00000000000E+00 0.  1.
         11    1    1    2    0    0 -0.61829023719E+02  0.80784214962E+02 -0.50580397568E+03  0.51593272756E+03  0.00000000000E+00 0. -1.
</event>
<event>
 7    1  0.4394360E-006  0.1486462E+03  0.7561462E-02  0.1202146E+00
          2   -1    0    0  501    0  0.00000000000E+00  0.00000000000E+00  0.21879281388E+03  0.21879281388E+03  0.00000000000E+00 0. -1.
         -2   -1    0    0    0  501 -0.00000000000E+00 -0.00000000000E+00 -0.16303265524E+03  0.16303265524E+03  0.00000000000E+00 0.  1.
         23    2    1    2    0    0  0.16174357446E+01  0.11023109572E+03 -0.80551465462E+02  0.18516852493E+03  0.12508130746E+03 0.  0.
          5    1    3    3  502    0  0.14724970388E+01 -0.22687196919E+02  0.90400084171E+01  0.24820783706E+02  0.41800000000E+01 0. -1.
         -5    1    3    3    0  502  0.14493870581E+00  0.13291829263E+03 -0.89591473879E+02  0.16034774123E+03  0.41800000000E+01 0. -1.
        -11    1    1    2    0    0 -0.42303029080E+02 -0.32101805499E+02  0.59845600754E+02  0.80009800120E+02  0.00000000000E+00 0. -1.
         11    1    1    2    0    0  0.40685593335E+02 -0.78129290216E+02  0.76466023348E+02  0.11664714408E+03  0.00000000000E+00 0.  1.
</event>
<event>
 7    1  0.4394360E-006  0.9981521E+02  0.7561462E-02  0.1280685E+00
         -4   -1    0    0    0  501 -0.00000000000E+00  0.00000000000E+00  0.23807165915E+02  0.23807165915E+02  0.00000000000E+00 0.  1.
          4   -1    0    0  501    0  0.00000000000E+00 -0.00000000000E+00 -0.55485222773E+03  0.55485222773E+03  0.00000000000E+00 0. -1.
         23    2    1    2    0    0 -0.24855244777E+02 -0.22100349383E+02 -0.25773740534E+03  0.28841313849E+03  0.12508940685E+03 0.  0.
          5    1    3    3  502    0 -0.14253378381E+02 -0.66797866319E+02 -0.82396779858E+02  0.10710656129E+03  0.41800000000E+01 0. -1.
         -5    1    3    3    0  502 -0.10601866397E+02  0.44697516936E+02 -0.17534062548E+03  0.18130657720E+03  0.41800000000E+01 0. -1.
        -11    1    1    2    0    0  0.48792747960E+02  0.32863033565E+02 -0.24361324269E+03  0.25061548883E+03  0.00000000000E+00 0.  1.
         11    1    1    2    0    0 -0.23937503183E+02 -0.10762684182E+02 -0.29694413786E+02  0.39630766325E+02  0.00000000000E+00 0. -1.
</event>
<event>
 7    1  0.4394360E-006  0.1055819E+03  0.7561462E-02  0.1268977E+00
         -2   -1    0    0    0  501 -0.00000000000E+00  0.00000000000E+00  0.37228634719E+02  0.37228634719E+02  0.00000000000E+00 0.  1.
          2   -1    0    0  501    0  0.00000000000E+00 -0.00000000000E+00 -0.37212124553E+03  0.37212124553E+03  0.00000000000E+00 0. -1.
         23    2    1    2    0    0 -0.28464869045E+02  0.34880782175E+02 -0.17435222499E+03  0.21925476225E+03  0.12508810764E+03 0.  0.
          5    1    3    3  502    0  0.36055207965E+02 -0.39263521143E+01 -0.12228356845E+03  0.12761715314E+03  0.41800000000E+01 0. -1.
         -5    1    3    3    0  502 -0.64520077011E+02  0.38807134289E+02 -0.52068656542E+02  0.91637609109E+02  0.41800000000E+01 0. -1.
        -11    1    1    2    0    0  0.84572616888E+01 -0.63647694803E+02 -0.12295005597E+03  0.13870569776E+03  0.00000000000E+00 0. -1.
         11    1    1    2    0    0  0.20007607356E+02  0.28766912628E+02 -0.37590329851E+02  0.51389420240E+02  0.00000000000E+00 0.  1.
</event>
<event>
 7    1  0.4394360E-006  0.1678785E+03  0.7561462E-02  0.1180078E+00
         -1   -1    0    0    0  501 -0.00000000000E+00  0.00000000000E+00  0.52858900233E+02  0.52858900233E+02  0.00000000000E+00 0.  1.
          1   -1    0    0  501    0  0.00000000000E+00 -0.00000000000E+00 -0.62407465675E+03  0.62407465675E+03  0.00000000000E+00 0. -1.
         23    2    1    2    0    0 -0.67003832195E+02  0.12300633950E+03 -0.22729905407E+03  0.29484067412E+03  0.12508433175E+03 0.  0.
          5    1    3    3  502    0 -0.10074829778E+03  0.64001120188E+02 -0.13720625977E+03  0.18190490101E+03  0.41800000000E+01 0. -1.
         -5    1    3    3    0  502  0.33744465589E+02  0.59005219310E+02 -0.90092794292E+02  0.11293577311E+03  0.41800000000E+01 0. -1.
        -11    1    1    2    0    0  0.56549241127E+02 -0.53202838875E+02 -0.91544427732E+02  0.12003641525E+03  0.00000000000E+00 0.  1.
         11    1    1    2    0    0  0.10454591069E+02 -0.69803500623E+02 -0.25237227472E+03  0.26205646762E+03  0.00000000000E+00 0. -1.
</event>
<event>
 7    1  0.4394360E-006  0.2559077E+03  0.7561462E-02  0.1109627E+00
         -1   -1    0    0    0  501 -0.00000000000E+00  0.00000000000E+00  0.99144878140E+03  0.99144878140E+03  0.00000000000E+00 0.  1.
          1   -1    0    0  501    0  0.00000000000E+00 -0.00000000000E+00 -0.74199242164E+02  0.74199242164E+02  0.00000000000E+00 0. -1.
         23    2    1    2    0    0 -0.24266799986E+03 -0.12176243545E+02  0.57527498324E+03  0.63650588253E+03  0.12313575069E+03 0.  0.
          5    1    3    3  502    0 -0.68286352384E+02 -0.34639782105E+02  0.79483100554E+02  0.11044444803E+03  0.41800000000E+01 0. -1.
         -5    1    3    3    0  502 -0.17438164748E+03  0.22463538559E+02  0.49579188268E+03  0.52606143451E+03  0.41800000000E+01 0.  1.
        -11    1    1    2    0    0  0.23212465147E+03  0.34401451955E+02  0.31001827800E+03  0.38881441127E+03  0.00000000000E+00 0.  1.
         11    1    1    2    0    0  0.10543348389E+02 -0.22225208410E+02  0.31956278000E+02  0.40327729761E+02  0.00000000000E+00 0. -1.
</event>
<event>
 7    1  0.4394360E-006  0.1827998E+03  0.7561462E-02  0.1165121E+00
          1   -1    0    0  501    0  0.00000000000E+00  0.00000000000E+00  0.25736852981E+03  0.25736852981E+03  0.00000000000E+00 0. -1.
         -1   -1    0    0    0  501 -0.00000000000E+00 -0.00000000000E+00 -0.17758292000E+03  0.17758292000E+03  0.00000000000E+00 0.  1.
         23    2    1    2    0    0 -0.53262147778E+02 -0.14676557209E+03 -0.60013882651E+02  0.20886895646E+03  0.12509030867E+03 0.  0.
          5    1    3    3  502    0 -0.11633150998E+02  0.22465636576E+02 -0.98495697953E+01  0.27468553913E+02  0.41800000000E+01 0.  1.
         -5    1    3    3    0  502 -0.41628996780E+02 -0.16923120867E+03 -0.50164312856E+02  0.18140040254E+03  0.41800000000E+01 0.  1.
        -11    1    1    2    0    0 -0.48056011494E+01  0.65910432164E+02  0.97810694916E+02  0.11804325864E+03  0.00000000000E+00 0. -1.
         11    1    1    2    0    0  0.58067748928E+02  0.80855139925E+02  0.41988797541E+02  0.10803923471E+03  0.00000000000E+00 0.  1.
</event>
<event>
 7    1  0.4394360E-006  0.1673185E+03  0.7561462E-02  0.1180673E+00
         -1   -1    0    0    0  501 -0.00000000000E+00  0.00000000000E+00  0.19720498780E+03  0.19720498780E+03  0.00000000000E+00 0.  1.
          1   -1    0    0  501    0  0.00000000000E+00 -0.00000000000E+00 -0.14522358920E+03  0.14522358920E+03  0.00000000000E+00 0. -1.
         23    2    1    2    0    0  0.60056654956E+02 -0.11396847844E+03  0.32239904268E+02  0.18243738529E+03  0.12509345404E+03 0.  0.
          5    1    3    3  502    0  0.41043508090E+02  0.16151599312E+02  0.24532756813E+02  0.50643580773E+02  0.41800000000E+01 0. -1.
         -5    1    3    3    0  502  0.19013146866E+02 -0.13012007775E+03  0.77071474549E+01  0.13179380452E+03  0.41800000000E+01 0. -1.
        -11    1    1    2    0    0 -0.44188276214E+01  0.10169188030E+03  0.12075160488E+02  0.10250158076E+03  0.00000000000E+00 0.  1.
         11    1    1    2    0    0 -0.55637827335E+02  0.12276598142E+02  0.76663338527E+01  0.57489610950E+02  0.00000000000E+00 0. -1.
</event>
<event>
 7    1  0.4394360E-006  0.9688805E+02  0.7561462E-02  0.1286979E+00
          1   -1    0    0  501    0  0.00000000000E+00  0.00000000000E+00  0.75119448394E+03  0.75119448394E+03  0.00000000000E+00 0. -1.
         -1   -1    0    0    0  501 -0.00000000000E+00 -0.00000000000E+00 -0.16279191688E+02  0.16279191688E+02  0.00000000000E+00 0.  1.
         23    2    1    2    0    0  0.20348104869E+02  0.15256045796E+01  0.39070979691E+03  0.41075176931E+03  0.12508596143E+03 0.  0.
          5    1    3    3  502    0  0.47440385414E+02  0.34580655860E+02  0.93679714015E+02  0.11063350824E+03  0.41800000000E+01 0. -1.
         -5    1    3    3    0  502 -0.27092280546E+02 -0.33055051281E+02  0.29703008290E+03  0.30011826107E+03  0.41800000000E+01 0. -1.
        -11    1    1    2    0    0 -0.26885523086E+01 -0.44986421527E+02  0.13508637480E+03  0.14240553041E+03  0.00000000000E+00 0.  1.
         11    1    1    2    0    0 -0.17659552560E+02  0.43460816947E+02  0.20911912054E+03  0.21431637590E+03  0.00000000000E+00 0. -1.
</event>
<event>
 7    1  0.4394360E-006  0.8023535E+02  0.7561462E-02  0.1328385E+00
         -2   -1    0    0    0  501 -0.00000000000E+00  0.00000000000E+00  0.99581210521E+02  0.99581210521E+02  0.00000000000E+00 0.  1.
          2   -1    0    0  501    0  0.00000000000E+00 -0.00000000000E+00 -0.23420950925E+03  0.23420950925E+03  0.00000000000E+00 0. -1.
         23    2    1    2    0    0 -0.28138522747E+02 -0.23661206697E+02  0.37076257329E+02  0.13555157395E+03  0.12509177102E+03 0.  0.
          5    1    3    3  502    0 -0.45747820145E+02  0.31294058981E+02 -0.15145247899E+02  0.57611041559E+02  0.41800000000E+01 0.  1.
         -5    1    3    3    0  502  0.17609297398E+02 -0.54955265679E+02  0.52221505228E+02  0.77940532388E+02  0.41800000000E+01 0.  1.
        -11    1    1    2    0    0 -0.50425858717E+01  0.98910621676E+01  0.88171193863E+01  0.14177530721E+02  0.00000000000E+00 0.  1.
         11    1    1    2    0    0  0.33181108618E+02  0.13770144530E+02 -0.18052167544E+03  0.18406161510E+03  0.00000000000E+00 0. -1.
</event>
<event>
 7    1  0.4394360E-006  0.3879339E+03  0.7561462E-02  0.1048040E+00
          2   -1    0    0  501    0  0.00000000000E+00  0.00000000000E+00  0.97345044714E+03  0.97345044714E+03  0.00000000000E+00 0. -1.
         -2   -1    0    0    0  501 -0.00000000000E+00 -0.00000000000E+00 -0.16648409233E+03  0.16648409233E+03  0.00000000000E+00 0.  1.
         23    2    1    2    0    0  0.10937695721E+03  0.36899892630E+03  0.35049161683E+03  0.53536508096E+03  0.12509144679E+03 0.  0.
          5    1    3    3  502    0  0.43495582678E+02  0.61696779547E+02  0.13351425492E+03  0.15343365663E+03  0.41800000000E+01 0.  1.
         -5    1    3    3    0  502  0.65881374527E+02  0.30730214676E+03  0.21697736191E+03  0.38193142433E+03  0.41800000000E+01 0.  1.
        -11    1    1    2    0    0 -0.85123072120E+02 -0.23891233244E+03  0.23058943224E+03  0.34277766301E+03  0.00000000000E+00 0.  1.
         11    1    1    2    0    0 -0.24253885085E+02 -0.13008659386E+03  0.22588530574E+03  0.26179179551E+03  0.00000000000E+00 0. -1.
</event>
<event>
 7    1  0.4394360E-006  0.1199024E+03  0.7561462E-02  0.1243258E+00
          2   -1    0    0  501    0  0.00000000000E+00  0.00000000000E+00  0.30311996935E+03  0.30311996935E+03  0.00000000000E+00 0. -1.
         -2   -1    0    0    0  501 -0.00000000000E+00 -0.00000000000E+00 -0.97104056993E+02  0.97104056993E+02  0.00000000000E+00 0.  1.
         23    2    1    2    0    0  0.55853006635E+02  0.68990865338E+02 -0.46442096418E+01  0.15345312093E+03  0.12508794422E+03 0.  0.
          5    1    3    3  502    0  0.51112021890E+02 -0.24784582485E+02 -0.14989886514E+02  0.58897227510E+02  0.41800000000E+01 0. -1.
         -5    1    3    3    0  502  0.47409847447E+01  0.93775447824E+02  0.10345676872E+02  0.94555893422E+02  0.41800000000E+01 0. -1.
        -11    1    1    2    0    0 -0.23385146955E+02 -0.25725912479E+02  0.18251008770E+03  0.18579187222E+03  0.00000000000E+00 0. -1.
         11    1    1    2    0    0 -0.32467859679E+02 -0.43264952860E+02  0.28150034304E+02  0.60979033195E+02  0.00000000000E+00 0.  1.
</event>
<event>
 7    1  0.4394360E-006  0.1088292E+03  0.7561462E-02  0.1262753E+00
         -1   -1    0    0    0  501 -0.00000000000E+00  0.00000000000E+00  0.31375149805E+03  0.31375149805E+03  0.00000000000E+00 0.  1.
          1   -1    0    0  501    0  0.00000000000E+00 -0.00000000000E+00 -0.40348806936E+02  0.40348806936E+02  0.00000000000E+00 0. -1.
         23    2    1    2    0    0  0.12314009869E+02 -0.18167931681E+01  0.19908983508E+03  0.23546464864E+03  0.12510756471E+03 0.  0.
          5    1    3    3  502    0 -0.56258087315E+02  0.51493374265E+01  0.87347897556E+02  0.10410867241E+03  0.41800000000E+01 0. -1.
         -5    1    3    3    0  502  0.68572097185E+02 -0.69661305947E+01  0.11174193753E+03  0.13135597623E+03  0.41800000000E+01 0. -1.
        -11    1    1    2    0    0 -0.50106013730E+02  0.14388297273E+02  0.35857642196E+02  0.63272475961E+02  0.00000000000E+00 0.  1.
         11    1    1    2    0    0  0.37792003861E+02 -0.12571504105E+02  0.38455213830E+02  0.55363180382E+02  0.00000000000E+00 0. -1.
</event>
<event>
 7    1  0.4394360E-006  0.1160749E+03  0.7561462E-02  0.1249716E+00
          3   -1    0    0  501    0  0.00000000000E+00  0.00000000000E+00  0.26446874532E+03  0.26446874532E+03  0.00000000000E+00 0. -1.
         -3   -1    0    0    0  501 -0.00000000000E+00 -0.00000000000E+00 -0.73292884092E+02  0.73292884092E+02  0.00000000000E+00 0.  1.
         23    2    1    2    0    0 -0.21675711198E+01  0.84548432539E+02  0.12821673537E+03  0.19809078416E+03  0.12508913515E+03 0.  0.
          5    1    3    3  502    0  0.52028783231E+02  0.73413939059E+02  0.10389787770E+03  0.13750942558E+03  0.41800000000E+01 0. -1.
         -5    1    3    3    0  502 -0.54196354351E+02  0.11134493481E+02  0.24318857668E+02  0.60581358587E+02  0.41800000000E+01 0. -1.
        -11    1    1    2    0    0 -0.69500483490E+01 -0.16145422549E+02  0.68233815998E+02  0.70461560350E+02  0.00000000000E+00 0. -1.
         11    1    1    2    0    0  0.91176194688E+01 -0.68403009990E+02 -0.52746901332E+01  0.69209284901E+02  0.00000000000E+00 0.  1.
</event>
<event>
 7    1  0.4394360E-006  0.1034069E+03  0.7561462E-02  0.1273290E+00
         -4   -1    0    0    0  501 -0.00000000000E+00  0.00000000000E+00  0.67666319976E+02  0.67666319976E+02  0.00000000000E+00 0.  1.
          4   -1    0    0  501    0  0.00000000000E+00 -0.00000000000E+00 -0.21186279341E+03  0.21186279341E+03  0.00000000000E+00 0. -1.
         23    2    1    2    0    0 -0.43031623187E+02  0.37053008487E+01 -0.91304114591E+02  0.16077841654E+03  0.12509119888E+03 0.  0.
          5    1    3    3  502    0  0.39052003536E+02  0.13313888168E+02 -0.59469645755E+01  0.41894598530E+02  0.41800000000E+01 0. -1.
         -5    1    3    3    0  502 -0.82083626724E+02 -0.96085873189E+01 -0.85357150015E+02  0.11888381801E+03  0.41800000000E+01 0. -1.
        -11    1    1    2    0    0 -0.19714373240E+02  0.34234953961E+00  0.16063266697E+02  0.25432307258E+02  0.00000000000E+00 0.  1.
         11    1    1    2    0    0  0.62745996428E+02 -0.40476503883E+01 -0.68955625543E+02  0.93318389588E+02  0.00000000000E+00 0. -1.
</event>
<event>
 7    1  0.4394360E-006  0.1480691E+03  0.7561462E-02  0.1202866E+00
          2   -1    0    0  501    0  0.00000000000E+00  0.00000000000E+00  0.31750019233E+03  0.31750019233E+03  0.00000000000E+00 0. -1.
         -2   -1    0    0    0  501 -0.00000000000E+00 -0.00000000000E+00 -0.80336127250E+02  0.80336127250E+02  0.00000000000E+00 0.  1.
         23    2    1    2    0    0 -0.11540724052E+03  0.18085091233E+01  0.10224548014E+03  0.19855312790E+03  0.12508838682E+03 0.  0.
          5    1    3    3  502    0  0.17567460247E+01  0.44401279750E+02  0.18512393081E+02  0.48319156632E+02  0.41800000000E+01 0. -1.
         -5    1    3    3    0  502 -0.11716398655E+03 -0.42592770627E+02  0.83733087064E+02  0.15023397127E+03  0.41800000000E+01 0. -1.
        -11    1    1    2    0    0  0.66981588183E+02  0.24909014393E+02  0.12368628345E+03  0.14284708211E+03  0.00000000000E+00 0. -1.
         11    1    1    2    0    0  0.48425652338E+02 -0.26717523516E+02  0.11232301487E+02  0.56436109575E+02  0.00000000000E+00 0.  1.
</event>
<event>
 7    1  0.4394360E-006  0.1618319E+03  0.7561462E-02  0.1186644E+00
          2   -1    0    0  501    0  0.00000000000E+00  0.00000000000E+00  0.90683156357E+03  0.90683156357E+03  0.00000000000E+00 0.  1.
         -2   -1    0    0    0  501 -0.00000000000E+00 -0.00000000000E+00 -0.37764219148E+02  0.37764219148E+02  0.00000000000E+00 0. -1.
         23    2    1    2    0    0  0.23824466508E+02  0.14558401137E+03  0.49122038734E+03  0.52792291685E+03  0.12507129020E+03 0.  0.
          5    1    3    3  502    0 -0.16150422743E+02  0.12652997720E+03  0.23084582623E+03  0.26377630518E+03  0.41800000000E+01 0.  1.
         -5    1    3    3    0  502  0.39974889251E+02  0.19054034169E+02  0.26037456111E+03  0.26414661168E+03  0.41800000000E+01 0.  1.
        -11    1    1    2    0    0 -0.29938839788E+02 -0.75669462439E+02  0.94245565637E+02  0.12451677925E+03  0.00000000000E+00 0.  1.
         11    1    1    2    0    0  0.61143732804E+01 -0.69914548928E+02  0.28360139145E+03  0.29215608661E+03  0.00000000000E+00 0. -1.
</event>
<event>
 7    1  0.4394360E-006  0.2015417E+03  0.7561462E-02  0.1148445E+00
         -1   -1    0    0    0  501 -0.00000000000E+00  0.00000000000E+00  0.11598456288E+03  0.11598456288E+03  0.00000000000E+00 0. -1.
          1   -1    0    0  501    0  0.00000000000E+00 -0.00000000000E+00 -0.43290879847E+03  0.43290879847E+03  0.00000000000E+00 0.  1.
         23    2    1    2    0    0  0.16952411645E+03 -0.28047885523E+02 -0.50130680972E+02  0.21837019092E+03  0.12508934873E+03 0.  0.
          5    1    3    3  502    0  0.18455161873E+03 -0.10797176307E+02 -0.29443420840E+02  0.18724386886E+03  0.41800000000E+01 0. -1.
         -5    1    3    3    0  502 -0.15027502283E+02 -0.17250709215E+02 -0.20687260132E+02  0.31126322062E+02  0.41800000000E+01 0.  1.
        -11    1    1    2    0    0 -0.14036419332E+03  0.59114215126E+02 -0.21443201088E+03  0.26301650991E+03  0.00000000000E+00 0. -1.
         11    1    1    2    0    0 -0.29159923128E+02 -0.31066329603E+02 -0.52361543735E+02  0.67506660517E+02  0.00000000000E+00 0.  1.
</event>
<event>
 7    1  0.4394360E-006  0.8919649E+02  0.7561462E-02  0.1304809E+00
         -3   -1    0    0    0  501 -0.00000000000E+00  0.00000000000E+00  0.27404994692E+03  0.27404994692E+03  0.00000000000E+00 0.  1.
          3   -1    0    0  501    0  0.00000000000E+00 -0.00000000000E+00 -0.54831341642E+02  0.54831341642E+02  0.00000000000E+00 0. -1.
         23    2    1    2    0    0  0.37632288208E+02  0.27937664480E+02  0.16909678133E+03  0.21549414154E+03  0.12508917367E+03 0.  0.
          5    1    3    3  502    0  0.34125282324E+01 -0.18336574865E+02  0.15489256749E+03  0.15606747000E+03  0.41800000000E+01 0.  1.
         -5    1    3    3    0  502  0.34219759976E+02  0.46274239346E+02  0.14204213835E+02  0.59426671541E+02  0.41800000000E+01 0.  1.
        -11    1    1    2    0    0 -0.32360083999E+02 -0.60488060417E+02  0.36541440455E+02  0.77725525794E+02  0.00000000000E+00 0.  1.
         11    1    1    2    0    0 -0.52722042092E+01  0.32550395936E+02  0.13580383495E+02  0.35661621229E+02  0.00000000000E+00 0. -1.
</event>
<event>
 7    1  0.4394360E-006  0.2247396E+03  0.7561462E-02  0.1130398E+00
          2   -1    0    0  501    0  0.00000000000E+00  0.00000000000E+00  0.85165742824E+03  0.85165742824E+03  0.00000000000E+00 0. -1.
         -2   -1    0    0    0  501 -0.00000000000E+00 -0.00000000000E+00 -0.73930175212E+02  0.73930175212E+02  0.00000000000E+00 0.  1.
         23    2    1    2    0    0 -0.19196764925E+03 -0.76998951900E+02  0.22182134454E+03  0.32807414691E+03  0.12509004766E+03 0.  0.
          5    1    3    3  502    0 -0.18330783219E+03 -0.10125068963E+03  0.21690333646E+03  0.30152610709E+03  0.41800000000E+01 0.  1.
         -5    1    3    3    0  502 -0.86598170601E+01  0.24251737732E+02  0.49180080836E+01  0.26548039815E+02  0.41800000000E+01 0.  1.
        -11    1    1    2    0    0  0.14641495216E+03  0.82491402232E+02  0.37597195348E+03  0.41182165978E+03  0.00000000000E+00 0.  1.
         11    1    1    2    0    0  0.45552697081E+02 -0.54924503316E+01  0.17993395500E+03  0.18569179676E+03  0.00000000000E+00 0. -1.
</event>
<event>
 7    1  0.4394360E-006  0.1632793E+03  0.7561462E-02  0.1185043E+00
         -2   -1    0    0    0  501 -0.00000000000E+00  0.00000000000E+00  0.64883609383E+03  0.64883609383E+03  0.00000000000E+00 0.  1.
          2   -1    0    0  501    0  0.00000000000E+00 -0.00000000000E+00 -0.12032339665E+03  0.12032339665E+03  0.00000000000E+00 0. -1.
         23    2    1    2    0    0 -0.72861522166E+02 -0.12640747168E+03  0.56349289520E+03  0.59536439404E+03  0.12508744316E+03 0.  0.
          5    1    3    3  502    0  0.26146186503E+02 -0.45744314018E+02  0.27212775146E+03  0.27721318664E+03  0.41800000000E+01 0. -1.
         -5    1    3    3    0  502 -0.99007708669E+02 -0.80663157666E+02  0.29136514375E+03  0.31815120740E+03  0.41800000000E+01 0. -1.
        -11    1    1    2    0    0  0.64441108029E+02  0.11347675325E+03  0.53566358851E+01  0.13060751694E+03  0.00000000000E+00 0.  1.
         11    1    1    2    0    0  0.84204141365E+01  0.12930718433E+02 -0.40336833913E+02  0.43187579506E+02  0.00000000000E+00 0. -1.
</event>
<event>
 7    1  0.4394360E-006  0.2552576E+03  0.7561462E-02  0.1110026E+00
         -4   -1    0    0    0  501 -0.00000000000E+00  0.00000000000E+00  0.54701818943E+03  0.54701818943E+03  0.00000000000E+00 0. -1.
          4   -1    0    0  501    0  0.00000000000E+00 -0.00000000000E+00 -0.18787038182E+03  0.18787038182E+03  0.00000000000E+00 0.  1.
         23    2    1    2    0    0 -0.86317585695E+02  0.23946924844E+03  0.36763422767E+03  0.46432645695E+03  0.12509151335E+03 0.  0.
          5    1    3    3  502    0 -0.50906151244E+02  0.10385694222E+03  0.69856135595E+02  0.13518525349E+03  0.41800000000E+01 0.  1.
         -5    1    3    3    0  502 -0.35411434452E+02  0.13561230623E+03  0.29777809208E+03  0.32914120346E+03  0.41800000000E+01 0.  1.
        -11    1    1    2    0    0  0.65893735615E+02 -0.18079663529E+03 -0.46182310713E+02  0.19789445053E+03  0.00000000000E+00 0.  1.
         11    1    1    2    0    0  0.20423850080E+02 -0.58672613150E+02  0.37695890654E+02  0.72667663772E+02  0.00000000000E+00 0. -1.
</event>
<event>
 7    1  0.4394360E-006  0.1573872E+03  0.7561462E-02  0.1191678E+00
         -1   -1    0    0    0  501 -0.00000000000E+00  0.00000000000E+00  0.16335163684E+03  0.16335163684E+03  0.00000000000E+00 0.  1.
          1   -1    0    0  501    0  0.00000000000E+00 -0.00000000000E+00 -0.16498445744E+03  0.16498445744E+03  0.00000000000E+00 0. -1.
         23    2    1    2    0    0  0.10404702107E+03  0.61945078582E+02  0.18756916621E+02  0.17511325904E+03  0.12509938536E+03 0.  0.
          5    1    3    3  502    0 -0.22411755712E+02  0.22445103490E+02 -0.19103079747E+02  0.37262172784E+02  0.41800000000E+01 0. -1.
         -5    1    3    3    0  502  0.12645877678E+03  0.39499975092E+02  0.37859996367E+02  0.13785108626E+03  0.41800000000E+01 0. -1.
        -11    1    1    2    0    0 -0.45146493155E+02  0.19947538043E+02  0.37529519706E+01  0.49499442085E+02  0.00000000000E+00 0. -1.
         11    1    1    2    0    0 -0.58900527918E+02 -0.81892616625E+02 -0.24142689194E+02  0.10372339316E+03  0.00000000000E+00 0.  1.
</event>
<event>
 7    1  0.4394360E-006  0.1748516E+03  0.7561462E-02  0.1172881E+00
         -2   -1    0    0    0  501 -0.00000000000E+00  0.00000000000E+00  0.20257462261E+03  0.20257462261E+03  0.00000000000E+00 0.  1.
          2   -1    0    0  501    0  0.00000000000E+00 -0.00000000000E+00 -0.20848347946E+03  0.20848347946E+03  0.00000000000E+00 0. -1.
         23    2    1    2    0    0  0.14342899938E+03  0.62233474867E+02  0.70847730356E+02  0.21239506988E+03  0.12508949419E+03 0.  0.
          5    1    3    3  502    0 -0.95356065610E+01  0.25545447001E+02 -0.16774900790E+02  0.32285714356E+02  0.41800000000E+01 0. -1.
         -5    1    3    3    0  502  0.15296460594E+03  0.36688027866E+02  0.87622631146E+02  0.18010935553E+03  0.41800000000E+01 0. -1.
        -11    1    1    2    0    0 -0.26562393036E+02 -0.36417047856E+02 -0.64029451174E+02  0.78304104081E+02  0.00000000000E+00 0. -1.
         11    1    1    2    0    0 -0.11686660634E+03 -0.25816427011E+02 -0.12727136033E+02  0.12035892810E+03  0.00000000000E+00 0.  1.
</event>
<event>
 7    1  0.4394360E-006  0.1086534E+03  0.7561462E-02  0.1263084E+00
          2   -1    0    0  501    0  0.00000000000E+00  0.00000000000E+00  0.49218628408E+03  0.49218628408E+03  0.00000000000E+00 0. -1.
         -2   -1    0    0    0  501 -0.00000000000E+00 -0.00000000000E+00 -0.34336711210E+02  0.34336711210E+02  0.00000000000E+00 0.  1.
         23    2    1    2    0    0  0.56225423181E+02  0.44323835160E+02  0.23397106118E+03  0.27480031039E+03  0.12508737963E+03 0.  0.
          5    1    3    3  502    0  0.71178451098E+02 -0.33002293086E+01  0.58402202038E+02  0.92225555120E+02  0.41800000000E+01 0. -1.
         -5    1    3    3    0  502 -0.14953027917E+02  0.47624064468E+02  0.17556885914E+03  0.18257475527E+03  0.41800000000E+01 0. -1.
        -11    1    1    2    0    0 -0.34151627336E+02 -0.59810230708E+02  0.81004748497E+02  0.10632669762E+03  0.00000000000E+00 0.  1.
         11    1    1    2    0    0 -0.22073795845E+02  0.15486395549E+02  0.14287376319E+03  0.14539598728E+03  0.00000000000E+00 0. -1.
</event>
<event>
 7    1  0.4394360E-006  0.2312565E+03  0.7561462E-02  0.1125758E+00
         -2   -1    0    0    0  501 -0.00000000000E+00  0.00000000000E+00  0.38110893591E+02  0.38110893591E+02  0.00000000000E+00 0.  1.
          2   -1    0    0  501    0  0.00000000000E+00 -0.00000000000E+00 -0.17747216890E+04  0.17747216890E+04  0.00000000000E+00 0. -1.
         23    2    1    2    0    0 -0.14683455383E+03  0.17039216999E+03 -0.64473548851E+03  0.69420755503E+03  0.12508557684E+03 0.  0.
          5    1    3    3  502    0 -0.20768212858E+02  0.17174247607E+01 -0.66667946278E+01  0.22275250026E+02  0.41800000000E+01 0.  1.
         -5    1    3    3    0  502 -0.12606634098E+03  0.16867474523E+03 -0.63806869388E+03  0.67193230501E+03  0.41800000000E+01 0.  1.
        -11    1    1    2    0    0  0.69883141951E+02 -0.11932562151E+03 -0.81777256916E+03  0.82938183748E+03  0.00000000000E+00 0. -1.
         11    1    1    2    0    0  0.76951411884E+02 -0.51066548481E+02 -0.27410273772E+03  0.28924319005E+03  0.00000000000E+00 0.  1.
</event>
<event>
 7    1  0.4394360E-006  0.9029075E+02  0.7561462E-02  0.1302149E+00
          2   -1    0    0  501    0  0.00000000000E+00  0.00000000000E+00  0.25548487260E+03  0.25548487260E+03  0.00000000000E+00 0. -1.
         -2   -1    0    0    0  501 -0.00000000000E+00 -0.00000000000E+00 -0.50736653092E+02  0.50736653092E+02  0.00000000000E+00 0.  1.
         23    2    1    2    0    0  0.22740200412E+02 -0.22773611077E+02  0.10610430492E+03  0.16715639041E+03  0.12508949298E+03 0.  0.
          5    1    3    3  502    0  0.23984418183E+02  0.44870991325E+02  0.79200121110E+02  0.94227330228E+02  0.41800000000E+01 0.  1.
         -5    1    3    3    0  502 -0.12442177708E+01 -0.67644602402E+02  0.26904183814E+02  0.72929060180E+02  0.41800000000E+01 0.  1.
        -11    1    1    2    0    0  0.17177433433E+02  0.40141602649E+01 -0.11064244333E+02  0.20822948990E+02  0.00000000000E+00 0.  1.
         11    1    1    2    0    0 -0.39917633845E+02  0.18759450812E+02  0.10970815891E+03  0.11824218629E+03  0.00000000000E+00 0. -1.
</event>
<event>
 6    1  0.4394360E-006  0.1019078E+03  0.7561462E-02  0.1276334E+00
         -2   -1    0    0    0  501 -0.00000000000E+00  0.00000000000E+00  0.49463700550E+02  0.49463700550E+02  0.00000000000E+00 0.  1.
          2   -1    0    0  501    0  0.00000000000E+00 -0.00000000000E+00 -0.29207192197E+03  0.29207192197E+03  0.00000000000E+00 0. -1.
          5    1    1    2  502    0  0.60084577730E+02 -0.26071452650E+02 -0.11911605757E+03  0.13599994374E+03  0.41800000000E+01 0. -1.
         -5    1    1    2    0  502 -0.35967347332E+02  0.36822890208E+02  0.58579418591E+00  0.51646789563E+02  0.41800000000E+01 0.  1.
        -11    1    1    2    0    0  0.27546690992E+02 -0.20019860787E+02 -0.73461970356E+02  0.80970834868E+02  0.00000000000E+00 0.  1.
         11    1    1    2    0    0 -0.51663921389E+02  0.92684232295E+01 -0.50615987682E+02  0.72918054359E+02  0.00000000000E+00 0. -1.
</event>
<event>
 7    1  0.4394360E-006  0.6691441E+02  0.7561462E-02  0.1370912E+00
         -3   -1    0    0    0  501 -0.00000000000E+00  0.00000000000E+00  0.12827936699E+03  0.12827936699E+03  0.00000000000E+00 0.  1.
          3   -1    0    0  501    0  0.00000000000E+00 -0.00000000000E+00 -0.95684870995E+02  0.95684870995E+02  0.00000000000E+00 0. -1.
         23    2    1    2    0    0  0.13740258253E+02  0.71261517419E+01  0.80400728780E+01  0.12630277987E+03  0.12509265644E+03 0.  0.
          5    1    3    3  502    0 -0.78265938316E+01 -0.44085914248E+02 -0.34101187509E+02  0.56437459153E+02  0.41800000000E+01 0.  1.
         -5    1    3    3    0  502  0.21566852085E+02  0.51212065990E+02  0.42141260387E+02  0.69865320717E+02  0.41800000000E+01 0.  1.
        -11    1    1    2    0    0 -0.38960165587E+01  0.11458626531E+02  0.57398710451E+02  0.58660813397E+02  0.00000000000E+00 0.  1.
         11    1    1    2    0    0 -0.98442416943E+01 -0.18584778273E+02 -0.32844287334E+02  0.39000644719E+02  0.00000000000E+00 0. -1.
</event>
<event>
 7    1  0.4394360E-006  0.2389024E+03  0.7561462E-02  0.1120526E+00
          2   -1    0    0  501    0  0.00000000000E+00  0.00000000000E+00  0.78241812080E+03  0.78241812080E+03  0.00000000000E+00 0. -1.
         -2   -1    0    0    0  501 -0.00000000000E+00 -0.00000000000E+00 -0.78920074394E+02  0.78920074394E+02  0.00000000000E+00 0.  1.
         23    2    1    2    0    0 -0.10791781737E+03 -0.19493918785E+03  0.38396110084E+03  0.46121663808E+03  0.12508844079E+03 0.  0.
          5    1    3    3  502    0 -0.94927340090E+02 -0.56057135841E+02  0.21843623905E+03  0.24471506963E+03  0.41800000000E+01 0. -1.
         -5    1    3    3    0  502 -0.12990477277E+02 -0.13888205201E+03  0.16552486179E+03  0.21650156845E+03  0.41800000000E+01 0. -1.
        -11    1    1    2    0    0  0.69810184649E+02  0.76747148520E+02  0.82600839819E+02  0.13261404686E+03  0.00000000000E+00 0.  1.
         11    1    1    2    0    0  0.38107632718E+02  0.11819203933E+03  0.23693610575E+03  0.26750751025E+03  0.00000000000E+00 0. -1.
</event>
<event>
 7    1  0.4394360E-006  0.9206453E+02  0.7561462E-02  0.1297928E+00
          1   -1    0    0  501    0  0.00000000000E+00  0.00000000000E+00  0.53872726795E+02  0.53872726795E+02  0.00000000000E+00 0. -1.
         -1   -1    0    0    0  501 -0.00000000000E+00 -0.00000000000E+00 -0.23737143936E+03  0.23737143936E+03  0.00000000000E+00 0.  1.
         23    2    1    2    0    0 -0.26556755086E+02 -0.95867058232E+01 -0.13210699293E+03  0.18399255508E+03  0.12491531762E+03 0.  0.
          5    1    3    3  502    0 -0.51417029600E+02  0.22114215719E+02 -0.13205741088E+03  0.14349000536E+03  0.41800000000E+01 0.  1.
         -5    1    3    3    0  502  0.24860274513E+02 -0.31700921543E+02 -0.49582047952E-01  0.40502549721E+02  0.41800000000E+01 0.  1.
        -11    1    1    2    0    0  0.56612421702E+02  0.27667901037E+01 -0.13238513331E+02  0.58205495047E+02  0.00000000000E+00 0. -1.
         11    1    1    2    0    0 -0.30055666616E+02  0.68199157195E+01 -0.38153206312E+02  0.49046116034E+02  0.00000000000E+00 0.  1.
</event>
<event>
 7    1  0.4394360E-006  0.1254687E+03  0.7561462E-02  0.1234339E+00
          1   -1    0    0  501    0  0.00000000000E+00  0.00000000000E+00  0.55013298262E+02  0.55013298262E+02  0.00000000000E+00 0. -1.
         -1   -1    0    0    0  501 -0.00000000000E+00 -0.00000000000E+00 -0.38162304154E+03  0.38162304154E+03  0.00000000000E+00 0.  1.
         23    2    1    2    0    0  0.73379130100E+02 -0.54270752811E+02 -0.22804421058E+03  0.27566178099E+03  0.12512171743E+03 0.  0.
          5    1    3    3  502    0  0.20311576668E+02  0.26950302744E+02 -0.14167779381E+03  0.14570157385E+03  0.41800000000E+01 0. -1.
         -5    1    3    3    0  502  0.53067553432E+02 -0.81221055555E+02 -0.86366416772E+02  0.12996020714E+03  0.41800000000E+01 0. -1.
        -11    1    1    2    0    0 -0.59660025057E+02 -0.41570167062E+01 -0.22074587237E+02  0.63748621784E+02  0.00000000000E+00 0.  1.
         11    1    1    2    0    0 -0.13719105043E+02  0.58427769517E+02 -0.76490945465E+02  0.97225937033E+02  0.00000000000E+00 0. -1.
</event>
<event>
 7    1  0.4394360E-006  0.1238225E+03  0.7561462E-02  0.1236921E+00
          1   -1    0    0  501    0  0.00000000000E+00  0.00000000000E+00  0.10273614485E+03  0.10273614485E+03  0.00000000000E+00 0. -1.
         -1   -1    0    0    0  501 -0.00000000000E+00 -0.00000000000E+00 -0.71898011864E+03  0.71898011864E+03  0.00000000000E+00 0.  1.
         23    2    1    2    0    0 -0.10995881981E+03 -0.37238743591E+02 -0.64735405588E+03  0.66947227124E+03  0.12509269450E+03 0.  0.
          5    1    3    3  502    0 -0.86540324491E+02  0.56941407545E+00 -0.17768775657E+03  0.19768652769E+03  0.41800000000E+01 0. -1.
         -5    1    3    3    0  502 -0.23418495321E+02 -0.37808157666E+02 -0.46966629931E+03  0.47178574355E+03  0.41800000000E+01 0. -1.
        -11    1    1    2    0    0  0.34189024542E+02  0.79665426500E+01  0.57040902630E+02  0.66977755813E+02  0.00000000000E+00 0. -1.
         11    1    1    2    0    0  0.75769795270E+02  0.29272200941E+02 -0.25930820547E+02  0.85266236445E+02  0.00000000000E+00 0.  1.
</event>
<event>
 7    1  0.4394360E-006  0.1229341E+03  0.7561462E-02  0.1238334E+00
          2   -1    0    0  501    0  0.00000000000E+00  0.00000000000E+00  0.32779662555E+03  0.32779662555E+03  0.00000000000E+00 0. -1.
         -2   -1    0    0    0  501 -0.00000000000E+00 -0.00000000000E+00 -0.11599294989E+03  0.11599294989E+03  0.00000000000E+00 0.  1.
         23    2    1    2    0    0 -0.74092404395E+02 -0.81206812132E+01 -0.58559980284E+02  0.14667405775E+03  0.11193023753E+03 0.  0.
          5    1    3    3  502    0  0.22940839227E+02 -0.10420425288E+02 -0.40467129031E+02  0.47853195292E+02  0.41800000000E+01 0. -1.
         -5    1    3    3    0  502 -0.97033243622E+02  0.22997440753E+01 -0.18092851253E+02  0.98820862458E+02  0.41800000000E+01 0.  1.
        -11    1    1    2    0    0 -0.16562577147E+02 -0.22099765441E+02  0.57709343501E+02  0.63977237528E+02  0.00000000000E+00 0.  1.
         11    1    1    2    0    0  0.90654981542E+02  0.30220446654E+02  0.21265431244E+03  0.23313828016E+03  0.00000000000E+00 0. -1.
</event>
<event>
 7    1  0.4394360E-006  0.1230221E+03  0.7561462E-02  0.1238193E+00
         -1   -1    0    0    0  501 -0.00000000000E+00  0.00000000000E+00  0.38447859378E+02  0.38447859378E+02  0.00000000000E+00 0.  1.
          1   -1    0    0  501    0  0.00000000000E+00 -0.00000000000E+00 -0.63531627055E+03  0.63531627055E+03  0.00000000000E+00 0. -1.
         23    2    1    2    0    0 -0.95770588174E+02 -0.49117373346E+02 -0.25526932839E+03  0.30396633347E+03  0.12509428422E+03 0.  0.
          5    1    3    3  502    0  0.14199105629E+02 -0.42171257053E+01  0.63225896597E+01  0.16638698563E+02  0.41800000000E+01 0. -1.
         -5    1    3    3    0  502 -0.10996969380E+03 -0.44900247641E+02 -0.26159191805E+03  0.28732763491E+03  0.41800000000E+01 0. -1.
        -11    1    1    2    0    0  0.55833269269E+02  0.44881630318E+02 -0.31144208373E+03  0.31957453937E+03  0.00000000000E+00 0. -1.
         11    1    1    2    0    0  0.39937318905E+02  0.42357430283E+01 -0.30156999056E+02  0.50223257087E+02  0.00000000000E+00 0.  1.
</event>
<event>
 7    1  0.4394360E-006  0.1132454E+03  0.7561462E-02  0.1254675E+00
          4   -1    0    0  501    0  0.00000000000E+00  0.00000000000E+00  0.23679825388E+03  0.23679825388E+03  0.00000000000E+00 0. -1.
         -4   -1    0    0    0  501 -0.00000000000E+00 -0.00000000000E+00 -0.79444962491E+02  0.79444962491E+02  0.00000000000E+00 0.  1.
         23    2    1    2    0    0  0.33971278201E+02  0.68396879729E+02  0.67190367251E+02  0.16122360078E+03  0.12508526332E+03 0.  0.
          5    1    3    3  502    0  0.52394646324E+02  0.73909899183E+02 -0.53672242241E+00  0.90695273480E+02  0.41800000000E+01 0. -1.
         -5    1    3    3    0  502 -0.18423368123E+02 -0.55130194538E+01  0.67727089674E+02  0.70528327303E+02  0.41800000000E+01 0. -1.
        -11    1    1    2    0    0  0.29815223953E+02 -0.18028303326E+02  0.16921915406E+01  0.34883102104E+02  0.00000000000E+00 0.  1.
         11    1    1    2    0    0 -0.63786502154E+02 -0.50368576403E+02  0.88470732595E+02  0.12013651348E+03  0.00000000000E+00 0. -1.
</event>
<event>
 7    1  0.4394360E-006  0.8430079E+02  0.7561462E-02  0.1317271E+00
          1   -1    0    0  501    0  0.00000000000E+00  0.00000000000E+00  0.44465969322E+02  0.44465969322E+02  0.00000000000E+00 0. -1.
         -1   -1    0    0    0  501 -0.00000000000E+00 -0.00000000000E+00 -0.36591561996E+03  0.36591561996E+03  0.00000000000E+00 0.  1.
         23    2    1    2    0    0 -0.13026916100E+02 -0.64070960667E+02 -0.20353255482E+03  0.24768436390E+03  0.12508898714E+03 0.  0.
          5    1    3    3  502    0 -0.11576541781E+02 -0.50182404672E+01 -0.18522424333E+03  0.18570054328E+03  0.41800000000E+01 0.  1.
         -5    1    3    3    0  502 -0.14503743190E+01 -0.59052720200E+02 -0.18308311490E+02  0.61983820617E+02  0.41800000000E+01 0.  1.
        -11    1    1    2    0    0  0.26456770831E+02  0.74519012375E+02 -0.12182484482E+03  0.14523889543E+03  0.00000000000E+00 0.  1.
         11    1    1    2    0    0 -0.13429854730E+02 -0.10448051708E+02  0.39077490094E+01  0.17458329957E+02  0.00000000000E+00 0. -1.
</event>
<event>
 7    1  0.4394360E-006  0.1370313E+03  0.7561462E-02  0.1217380E+00
          2   -1    0    0  501    0  0.00000000000E+00  0.00000000000E+00  0.10332374665E+04  0.10332374665E+04  0.00000000000E+00 0. -1.
         -2   -1    0    0    0  501 -0.00000000000E+00 -0.00000000000E+00 -0.21782050434E+02  0.21782050434E+02  0.00000000000E+00 0.  1.
         23    2    1    2    0    0 -0.54772724224E+02 -0.82549233749E+02  0.43418075565E+03  0.46257446453E+03  0.12509108421E+03 0.  0.
          5    1    3    3  502    0 -0.85798249499E-01 -0.96703319140E+02  0.20815804948E+03  0.22956215990E+03  0.41800000000E+01 0. -1.
         -5    1    3    3    0  502 -0.54686925974E+02  0.14154085390E+02  0.22602270617E+03  0.23301230463E+03  0.41800000000E+01 0. -1.
        -11    1    1    2    0    0  0.68084873794E+01 -0.12458272640E+02  0.16986698334E+02  0.22138472799E+02  0.00000000000E+00 0.  1.
         11    1    1    2    0    0  0.47964236844E+02  0.95007506389E+02  0.56028796210E+03  0.57030657962E+03  0.00000000000E+00 0. -1.
</event>
<event>
 7    1  0.4394360E-006  0.1582999E+03  0.7561462E-02  0.1190630E+00
         -1   -1    0    0    0  501 -0.00000000000E+00  0.00000000000E+00  0.73366882121E+02  0.73366882121E+02  0.00000000000E+00 0.  1.
          1   -1    0    0  501    0  0.00000000000E+00 -0.00000000000E+00 -0.36440804221E+03  0.36440804221E+03  0.00000000000E+00 0. -1.
         23    2    1    2    0    0  0.67011433287E+02 -0.97442764278E+02 -0.11739195859E+03  0.20834435437E+03  0.12506347810E+03 0.  0.
          5    1    3    3  502    0 -0.34191546079E+02 -0.11749168639E+02 -0.42636330044E+02  0.56057415447E+02  0.41800000000E+01 0.  1.
         -5    1    3    3    0  502  0.10120297937E+03 -0.85693595639E+02 -0.74755628544E+02  0.15228693892E+03  0.41800000000E+01 0.  1.
        -11    1    1    2    0    0 -0.71619286243E+02  0.26389445017E+02 -0.69234238473E+02  0.10304904050E+03  0.00000000000E+00 0.  1.
         11    1    1    2    0    0  0.46078529555E+01  0.71053319261E+02 -0.10441496303E+03  0.12638152947E+03  0.00000000000E+00 0. -1.
</event>
<event>
 7    1  0.4394360E-006  0.1236702E+03  0.7561462E-02  0.1237162E+00
          1   -1    0    0  501    0  0.00000000000E+00  0.00000000000E+00  0.13606931372E+03  0.13606931372E+03  0.00000000000E+00 0. -1.
         -1   -1    0    0    0  501 -0.00000000000E+00 -0.00000000000E+00 -0.20746524146E+03  0.20746524146E+03  0.00000000000E+00 0.  1.
         23    2    1    2    0    0 -0.29544244120E+02 -0.52920255537E+02 -0.14771649753E+03  0.20283425678E+03  0.12509259081E+03 0.  0.
          5    1    3    3  502    0  0.43666917470E+02 -0.74525312907E+01 -0.85746351295E+02  0.96603566520E+02  0.41800000000E+01 0. -1.
         -5    1    3    3    0  502 -0.73211161589E+02 -0.45467724246E+02 -0.61970146234E+02  0.10623069026E+03  0.41800000000E+01 0. -1.
        -11    1    1    2    0    0  0.22548694892E+02 -0.27656118303E+02  0.34560012520E+02  0.49675939713E+02  0.00000000000E+00 0.  1.
         11    1    1    2    0    0  0.69955492271E+01  0.80576373840E+02  0.41760557269E+02  0.91024358683E+02  0.00000000000E+00 0. -1.
</event>
<event>
 7    1  0.4394360E-006  0.1034357E+03  0.7561462E-02  0.1273233E+00
          2   -1    0    0  501    0  0.00000000000E+00  0.00000000000E+00  0.51407983821E+03  0.51407983821E+03  0.00000000000E+00 0. -1.
         -2   -1    0    0    0  501 -0.00000000000E+00 -0.00000000000E+00 -0.29796388507E+02  0.29796388507E+02  0.00000000000E+00 0.  1.
         23    2    1    2    0    0  0.29993852046E+02  0.51971014033E+02  0.26282830528E+03  0.29719746856E+03  0.12508796826E+03 0.  0.
          5    1    3    3  502    0 -0.21980628512E+02  0.48572460297E+02  0.36091265315E+02  0.64517313653E+02  0.41800000000E+01 0. -1.
         -5    1    3    3    0  502  0.51974480557E+02  0.33985537360E+01  0.22673703996E+03  0.23268015491E+03  0.41800000000E+01 0. -1.
        -11    1    1    2    0    0 -0.51442125157E+02 -0.59273253862E+02  0.12498303349E+03  0.14758173845E+03  0.00000000000E+00 0.  1.
         11    1    1    2    0    0  0.21448273111E+02  0.73022398291E+01  0.96472110934E+02  0.99097019703E+02  0.00000000000E+00 0. -1.
</event>
<event>
 7    1  0.4394360E-006  0.1575007E+03  0.7561462E-02  0.1191548E+00
         -2   -1    0    0    0  501 -0.00000000000E+00  0.00000000000E+00  0.20125302333E+02  0.20125302333E+02  0.00000000000E+00 0.  1.
          2   -1    0    0  501    0  0.00000000000E+00 -0.00000000000E+00 -0.13751192700E+04  0.13751192700E+04  0.00000000000E+00 0. -1.
         23    2    1    2    0    0  0.42125006477E+02 -0.11298188480E+03 -0.57986022129E+03  0.60533016621E+03  0.12508921388E+03 0.  0.
          5    1    3    3  502    0  0.22883226985E+02 -0.13290118207E+03 -0.37438460419E+03  0.39795435734E+03  0.41800000000E+01 0. -1.
         -5    1    3    3    0  502  0.19241779492E+02  0.19919297271E+02 -0.20547561710E+03  0.20737580887E+03  0.41800000000E+01 0. -1.
        -11    1    1    2    0    0 -0.18892171368E+02  0.12464940220E+03 -0.63741437564E+03  0.64976262887E+03  0.00000000000E+00 0.  1.
         11    1    1    2    0    0 -0.23232835109E+02 -0.11667517397E+02 -0.13771937079E+03  0.14015177730E+03  0.00000000000E+00 0. -1.
</event>
<event>
 7    1  0.4394360E-006  0.7710907E+02  0.7561462E-02  0.1337462E+00
         -1   -1    0    0    0  501 -0.00000000000E+00  0.00000000000E+00  0.19781400140E+02  0.19781400140E+02  0.00000000000E+00 0.  1.
          1   -1    0    0  501    0  0.00000000000E+00 -0.00000000000E+00 -0.71961032320E+03  0.71961032320E+03  0.00000000000E+00 0. -1.
         23    2    1    2    0    0  0.36061421454E+02  0.28496648441E+02 -0.35488279112E+03  0.37907972594E+03  0.12508860098E+03 0.  0.
          5    1    3    3  502    0 -0.10054904146E+02 -0.85654934356E+01  0.47064725094E+01  0.14631885000E+02  0.41800000000E+01 0.  1.
         -5    1    3    3    0  502  0.46116325600E+02  0.37062141877E+02 -0.35958926363E+03  0.36444784094E+03  0.41800000000E+01 0.  1.
        -11    1    1    2    0    0 -0.27739100974E+02 -0.50451070216E+02 -0.32327077611E+03  0.32835767525E+03  0.00000000000E+00 0.  1.
         11    1    1    2    0    0 -0.83223204799E+01  0.21954421775E+02 -0.21675355821E+02  0.31954322143E+02  0.00000000000E+00 0. -1.
</event>
<event>
 7    1  0.4394360E-006  0.7566262E+02  0.7561462E-02  0.1341831E+00
         -2   -1    0    0    0  501 -0.00000000000E+00  0.00000000000E+00  0.35962907114E+03  0.35962907114E+03  0.00000000000E+00 0.  1.
          2   -1    0    0  501    0  0.00000000000E+00 -0.00000000000E+00 -0.39640170077E+02  0.39640170077E+02  0.00000000000E+00 0. -1.
         23    2    1    2    0    0  0.68579097916E+01  0.37030602296E+02  0.23657283583E+03  0.27024354646E+03  0.12508625551E+03 0.  0.
          5    1    3    3  502    0 -0.22438017017E+02  0.24238543329E+02  0.18795510360E+01  0.33346314676E+02  0.41800000000E+01 0. -1.
         -5    1    3    3    0  502  0.29295926808E+02  0.12792058967E+02  0.23469328479E+03  0.23689723178E+03  0.41800000000E+01 0. -1.
        -11    1    1    2    0    0 -0.35020084642E+02  0.48186995971E+01  0.48796677974E+01  0.35685253985E+02  0.00000000000E+00 0. -1.
         11    1    1    2    0    0  0.28162174851E+02 -0.41849301893E+02  0.78536397437E+02  0.93340440772E+02  0.00000000000E+00 0.  1.
</event>
<event>
 7    1  0.4394360E-006  0.9392439E+02  0.7561462E-02  0.1293617E+00
         -2   -1    0    0    0  501 -0.00000000000E+00  0.00000000000E+00  0.53702733979E+02  0.53702733979E+02  0.00000000000E+00 0.  1.
          2   -1    0    0  501    0  0.00000000000E+00 -0.00000000000E+00 -0.25873392308E+03  0.25873392308E+03  0.00000000000E+00 0. -1.
         23    2    1    2    0    0  0.52392028026E+00 -0.44985890988E+02 -0.11465029618E+03  0.17554537540E+03  0.12508990178E+03 0.  0.
          5    1    3    3  502    0  0.20800465387E+02 -0.57374691035E+02 -0.13222957301E+03  0.14569367491E+03  0.41800000000E+01 0. -1.
         -5    1    3    3    0  502 -0.20276545107E+02  0.12388800047E+02  0.17579276826E+02  0.29851700484E+02  0.41800000000E+01 0. -1.
        -11    1    1    2    0    0 -0.44050992577E+02  0.38575340908E+02 -0.56412367552E+02  0.81307454062E+02  0.00000000000E+00 0. -1.
         11    1    1    2    0    0  0.43527072297E+02  0.64105500801E+01 -0.33968525366E+02  0.55583827599E+02  0.00000000000E+00 0.  1.
</event>
<event>
 7    1  0.4394360E-006  0.3523326E+03  0.7561462E-02  0.1061662E+00
         -2   -1    0    0    0  501 -0.00000000000E+00  0.00000000000E+00  0.20899895570E+03  0.20899895570E+03  0.00000000000E+00 0.  1.
          2   -1    0    0  501    0  0.00000000000E+00 -0.00000000000E+00 -0.66717557246E+03  0.66717557246E+03  0.00000000000E+00 0. -1.
         23    2    1    2    0    0  0.10700859592E+03 -0.32615918472E+03 -0.11933420751E+03  0.38434022282E+03  0.12508437319E+03 0.  0.
          5    1    3    3  502    0 -0.18543369306E+02 -0.83524230904E+02  0.12956660958E+01  0.85669742873E+02  0.41800000000E+01 0.  1.
         -5    1    3    3    0  502  0.12555196523E+03 -0.24263495381E+03 -0.12062987360E+03  0.29867047994E+03  0.41800000000E+01 0.  1.
        -11    1    1    2    0    0 -0.47741502730E+02  0.21018333574E+03 -0.15064283492E+03  0.26296301911E+03  0.00000000000E+00 0.  1.
         11    1    1    2    0    0 -0.59267093192E+02  0.11597584898E+03 -0.18819957433E+03  0.22887128623E+03  0.00000000000E+00 0. -1.
</event>
<event>
 7    1  0.4394360E-006  0.5306306E+02  0.7561462E-02  0.1429487E+00
          2   -1    0    0  501    0  0.00000000000E+00  0.00000000000E+00  0.42845829889E+03  0.42845829889E+03  0.00000000000E+00 0. -1.
         -2   -1    0    0    0  501 -0.00000000000E+00 -0.00000000000E+00 -0.16653314292E+02  0.16653314292E+02  0.00000000000E+00 0.  1.
         23    2    1    2    0    0  0.17566994188E+02 -0.39362712282E+02  0.28300926630E+03  0.30769587090E+03  0.11280284462E+03 0.  0.
          5    1    3    3  502    0  0.11929378727E+02 -0.46901957924E+02  0.29076978075E+03  0.29479932417E+03  0.41800000000E+01 0. -1.
         -5    1    3    3    0  502  0.56376154608E+01  0.75392456415E+01 -0.77605144516E+01  0.12896546727E+02  0.41800000000E+01 0.  1.
        -11    1    1    2    0    0 -0.12155131945E+02  0.61925862594E+01  0.27643459028E+02  0.30826225591E+02  0.00000000000E+00 0. -1.
         11    1    1    2    0    0 -0.54118622434E+01  0.33170126023E+02  0.10115225927E+03  0.10658951669E+03  0.00000000000E+00 0.  1.
</event>
<event>
 7    1  0.4394360E-006  0.6148322E+02  0.7561462E-02  0.1391711E+00
          2   -1    0    0  501    0  0.00000000000E+00  0.00000000000E+00  0.15256999869E+03  0.15256999869E+03  0.00000000000E+00 0. -1.
         -2   -1    0    0    0  501 -0.00000000000E+00 -0.00000000000E+00 -0.94709576685E+02  0.94709576685E+02  0.00000000000E+00 0.  1.
         23    2    1    2    0    0  0.99427811284E+01 -0.97702325226E+01 -0.18434403548E+02  0.12720477584E+03  0.12508761498E+03 0.  0.
          5    1    3    3  502    0  0.36289933851E+02 -0.38020364832E+02  0.33407459879E+02  0.62418252270E+02  0.41800000000E+01 0.  1.
         -5    1    3    3    0  502 -0.26347152723E+02  0.28250132310E+02 -0.51841863427E+02  0.64786523566E+02  0.41800000000E+01 0.  1.
        -11    1    1    2    0    0 -0.19866486733E+02  0.57824907338E+01  0.95703433459E+02  0.97914563116E+02  0.00000000000E+00 0. -1.
         11    1    1    2    0    0  0.99237056049E+01  0.39877417887E+01 -0.19408607906E+02  0.22160236424E+02  0.00000000000E+00 0.  1.
</event>
<event>
 7    1  0.4394360E-006  0.1091376E+03  0.7561462E-02  0.1262175E+00
          2   -1    0    0  501    0  0.00000000000E+00  0.00000000000E+00  0.29059824862E+03  0.29059824862E+03  0.00000000000E+00 0. -1.
         -2   -1    0    0    0  501 -0.00000000000E+00 -0.00000000000E+00 -0.49221852654E+02  0.49221852654E+02  0.00000000000E+00 0.  1.
         23    2    1    2    0    0 -0.26818265249E+02  0.34924472793E+02  0.99293068233E+02  0.16567009709E+03  0.12509408267E+03 0.  0.
          5    1    3    3  502    0 -0.34138489023E+02 -0.34125620880E+02  0.79921001003E+02  0.93460329737E+02  0.41800000000E+01 0. -1.
         -5    1    3    3    0  502  0.73202237740E+01  0.69050093673E+02  0.19372067229E+02  0.72209767353E+02  0.41800000000E+01 0. -1.
        -11    1    1    2    0    0 -0.18731604483E+02  0.20996228211E+02  0.32842636936E+02  0.43247582667E+02  0.00000000000E+00 0. -1.
         11    1    1    2    0    0  0.45549869732E+02 -0.55920701004E+02  0.10924069080E+03  0.13090242152E+03  0.00000000000E+00 0.  1.
</event>
<event>
 7    1  0.4394360E-006  0.1696141E+03  0.7561462E-02  0.1178251E+00
         -2   -1    0    0    0  501 -0.00000000000E+00  0.00000000000E+00  0.11869666697E+03  0.11869666697E+03  0.00000000000E+00 0.  1.
          2   -1    0    0  501    0  0.00000000000E+00 -0.00000000000E+00 -0.27017230124E+03  0.27017230124E+03  0.00000000000E+00 0. -1.
         23    2    1    2    0    0  0.15679078556E+02  0.13984906357E+03 -0.58347454893E+02  0.19710879040E+03  0.12507539996E+03 0.  0.
          5    1    3    3  502    0 -0.41266361511E+01  0.15963938234E+03 -0.46117528546E+02  0.16627104486E+03  0.41800000000E+01 0.  1.
         -5    1    3    3    0  502  0.19805714707E+02 -0.19790318764E+02 -0.12229926347E+02  0.30837745545E+02  0.41800000000E+01 0.  1.
        -11    1    1    2    0    0 -0.34030349890E+02 -0.57609810844E+02 -0.10109536979E+01  0.66917688592E+02  0.00000000000E+00 0. -1.
         11    1    1    2    0    0  0.18351271334E+02 -0.82239252727E+02 -0.92117225679E+02  0.12484248922E+03  0.00000000000E+00 0.  1.
</event>
<event>
 7    1  0.4394360E-006  0.2143629E+03  0.7561462E-02  0.1138157E+00
          4   -1    0    0  501    0  0.00000000000E+00  0.00000000000E+00  0.70955594884E+02  0.70955594884E+02  0.00000000000E+00 0. -1.
         -4   -1    0    0    0  501 -0.00000000000E+00 -0.00000000000E+00 -0.72507747489E+03  0.72507747489E+03  0.00000000000E+00 0.  1.
         23    2    1    2    0    0  0.15812296791E+03  0.11809906663E+03 -0.37926029532E+03  0.44546299463E+03  0.12509454609E+03 0.  0.
          5    1    3    3  502    0  0.16533604032E+03  0.95766547616E+02 -0.25353376839E+03  0.31749658579E+03  0.41800000000E+01 0. -1.
         -5    1    3    3    0  502 -0.72130724124E+01  0.22332519016E+02 -0.12572652693E+03  0.12796640884E+03  0.41800000000E+01 0. -1.
        -11    1    1    2    0    0 -0.10262535900E+03 -0.25384507616E+02 -0.10324852847E+03  0.14777210890E+03  0.00000000000E+00 0.  1.
         11    1    1    2    0    0 -0.55497608911E+02 -0.92714559016E+02 -0.17161305622E+03  0.20279796625E+03  0.00000000000E+00 0. -1.
</event>
<event>
 7    1  0.6529341E-006  0.1886507E+03  0.7561462E-02  0.1159684E+00
         -1   -1    0    0    0  501 -0.00000000000E+00  0.00000000000E+00  0.35696828418E+02  0.35696828418E+02  0.00000000000E+00 0.  1.
          1   -1    0    0  501    0  0.00000000000E+00 -0.00000000000E+00 -0.12628425660E+04  0.12628425660E+04  0.00000000000E+00 0. -1.
         23    2    1    2    0    0  0.52464494056E+01  0.17158962838E+03 -0.45685146120E+03  0.50381691291E+03  0.12509076038E+03 0.  0.
          5    1    3    3  502    0  0.31853870492E+02  0.16146997843E+03 -0.44151754247E+03  0.47121378981E+03  0.41800000000E+01 0.  1.
         -5    1    3    3    0  502 -0.26607421087E+02  0.10119649950E+02 -0.15333918730E+02  0.32603123096E+02  0.41800000000E+01 0.  1.
        -11    1    1    2    0    0 -0.28017613218E+02 -0.32312329896E+02 -0.86241528456E+02  0.96263568105E+02  0.00000000000E+00 0.  1.
         11    1    1    2    0    0  0.22771163813E+02 -0.13927729848E+03 -0.68405274794E+03  0.69845891342E+03  0.00000000000E+00 0. -1.
</event>
<event>
 6    1  0.4394360E-006  0.1116287E+03  0.7561462E-02  0.1257583E+00
          2   -1    0    0  501    0  0.00000000000E+00  0.00000000000E+00  0.99665799858E+02  0.99665799858E+02  0.00000000000E+00 0. -1.
         -2   -1    0    0    0  501 -0.00000000000E+00 -0.00000000000E+00 -0.13652453233E+03  0.13652453233E+03  0.00000000000E+00 0.  1.
          5    1    1    2  502    0 -0.26231913689E+02 -0.45814380221E+02 -0.28496745806E+02  0.60138237855E+02  0.41800000000E+01 0. -1.
         -5    1    1    2    0  502  0.31843482319E+02  0.71297371822E+02 -0.20330387067E+02  0.80796779844E+02  0.41800000000E+01 0.  1.
        -11    1    1    2    0    0  0.35641307977E+02  0.10717757711E+02  0.15367514298E+02  0.40265787716E+02  0.00000000000E+00 0.  1.
         11    1    1    2    0    0 -0.41252876606E+02 -0.36200749312E+02 -0.33991138948E+01  0.54989526769E+02  0.00000000000E+00 0. -1.
</event>
<event>
 7    1  0.4394360E-006  0.9899323E+02  0.7561462E-02  0.1282427E+00
          1   -1    0    0  501    0  0.00000000000E+00  0.00000000000E+00  0.37973239895E+03  0.37973239895E+03  0.00000000000E+00 0. -1.
         -1   -1    0    0    0  501 -0.00000000000E+00 -0.00000000000E+00 -0.41028716438E+02  0.41028716438E+02  0.00000000000E+00 0.  1.
         23    2    1    2    0    0 -0.31149643786E+02 -0.66402956817E+01  0.99458190844E+02  0.16296522025E+03  0.12510530544E+03 0.  0.
          5    1    3    3  502    0 -0.34774706694E+02 -0.57287648679E+02  0.88090871017E+02  0.11076384281E+03  0.41800000000E+01 0.  1.
         -5    1    3    3    0  502  0.36250629087E+01  0.50647352998E+02  0.11367319826E+02  0.52201377442E+02  0.41800000000E+01 0.  1.
        -11    1    1    2    0    0  0.52011096552E+01 -0.32509559056E+02  0.34325821440E+02  0.47562432541E+02  0.00000000000E+00 0.  1.
         11    1    1    2    0    0  0.25948534130E+02  0.39149854737E+02  0.20491967023E+03  0.21023346260E+03  0.00000000000E+00 0. -1.
</event>
<event>
 7    1  0.4394360E-006  0.1743957E+03  0.7561462E-02  0.1173340E+00
         -1   -1    0    0    0  501 -0.00000000000E+00  0.00000000000E+00  0.27447963064E+04  0.27447963064E+04  0.00000000000E+00 0.  1.
          1   -1    0    0  501    0  0.00000000000E+00 -0.00000000000E+00 -0.14046443771E+02  0.14046443771E+02  0.00000000000E+00 0. -1.
         23    2    1    2    0    0  0.12672172367E+03 -0.57024231771E+02  0.20295810533E+04  0.20381749440E+04  0.12509073550E+03 0.  0.
          5    1    3    3  502    0 -0.18630051007E+02  0.13943182077E+02  0.35845090833E+03  0.35922975546E+03  0.41800000000E+01 0. -1.
         -5    1    3    3    0  502  0.14535177468E+03 -0.70967413848E+02  0.16711301449E+04  0.16789451885E+04  0.41800000000E+01 0. -1.
        -11    1    1    2    0    0 -0.12395714541E+03  0.19219888974E+02  0.47192680898E+03  0.48831310761E+03  0.00000000000E+00 0. -1.
         11    1    1    2    0    0 -0.27645782609E+01  0.37804342797E+02  0.22924200033E+03  0.23235469856E+03  0.00000000000E+00 0.  1.
</event>
<event>
 7    1  0.4394360E-006  0.1040946E+03  0.7561462E-02  0.1271914E+00
         -1   -1    0    0    0  501 -0.00000000000E+00  0.00000000000E+00  0.21080185694E+02  0.21080185694E+02  0.00000000000E+00 0.  1.
          1   -1    0    0  501    0  0.00000000000E+00 -0.00000000000E+00 -0.62162472735E+03  0.62162472735E+03  0.00000000000E+00 0. -1.
         23    2    1    2    0    0  0.15654949791E+02  0.13694533182E+02 -0.20454665633E+03  0.23523667767E+03  0.11429935351E+03 0.  0.
          5    1    3    3  502    0 -0.27469072865E+02 -0.37842422979E+02 -0.63769343465E+02  0.79187123366E+02  0.41800000000E+01 0. -1.
         -5    1    3    3    0  502  0.43124022656E+02  0.51536956161E+02 -0.14077731286E+03  0.15604955430E+03  0.41800000000E+01 0.  1.
        -11    1    1    2    0    0 -0.60992111619E+01  0.39448517359E+02 -0.12779469720E+03  0.13388379488E+03  0.00000000000E+00 0. -1.
         11    1    1    2    0    0 -0.95557386287E+01 -0.53143050541E+02 -0.26820318813E+03  0.27358444050E+03  0.00000000000E+00 0.  1.
</event>
<event>
 7    1  0.4394360E-006  0.9148694E+02  0.7561462E-02  0.1299290E+00
         -3   -1    0    0    0  501 -0.00000000000E+00  0.00000000000E+00  0.28832911989E+02  0.28832911989E+02  0.00000000000E+00 0.  1.
          3   -1    0    0  501    0  0.00000000000E+00 -0.00000000000E+00 -0.37611182836E+03  0.37611182836E+03  0.00000000000E+00 0. -1.
         23    2    1    2    0    0  0.68413792617E+01  0.22742744386E+02 -0.18857582102E+03  0.22753651091E+03  0.12509191274E+03 0.  0.
          5    1    3    3  502    0 -0.57111274929E+02 -0.49410228506E+01 -0.87884804820E+02  0.10501106013E+03  0.41800000000E+01 0.  1.
         -5    1    3    3    0  502  0.63952654190E+02  0.27683767236E+02 -0.10069101620E+03  0.12252545078E+03  0.41800000000E+01 0.  1.
        -11    1    1    2    0    0  0.11832731622E+02  0.11614343139E+02 -0.29744131564E+01  0.16844988507E+02  0.00000000000E+00 0.  1.
         11    1    1    2    0    0 -0.18674110883E+02 -0.34357087525E+02 -0.15572868219E+03  0.16056324093E+03  0.00000000000E+00 0. -1.
</event>
<event>
 7    1  0.4394360E-006  0.6597881E+02  0.7561462E-02  0.1374327E+00
          1   -1    0    0  501    0  0.00000000000E+00  0.00000000000E+00  0.12855538456E+03  0.12855538456E+03  0.00000000000E+00 0. -1.
         -1   -1    0    0    0  501 -0.00000000000E+00 -0.00000000000E+00 -0.97077406701E+02  0.97077406701E+02  0.00000000000E+00 0.  1.
         23    2    1    2    0    0  0.17996056916E+02  0.18548379668E+02  0.94397526740E+01  0.12808092424E+03  0.12509082209E+03 0.  0.
          5    1    3    3  502    0 -0.62437224074E+01  0.19764259830E+02  0.64439088459E+02  0.67819455597E+02  0.41800000000E+01 0.  1.
         -5    1    3    3    0  502  0.24239779324E+02 -0.12158801616E+01 -0.54999335785E+02  0.60261468643E+02  0.41800000000E+01 0.  1.
        -11    1    1    2    0    0 -0.51854927909E+01 -0.51017726088E+02  0.32981939805E+02  0.60971354454E+02  0.00000000000E+00 0. -1.
         11    1    1    2    0    0 -0.12810564125E+02  0.32469346420E+02 -0.10943714618E+02  0.36580512569E+02  0.00000000000E+00 0.  1.
</event>
<event>
 7    1  0.4394360E-006  0.1013395E+03  0.7561462E-02  0.1277504E+00
          2   -1    0    0  501    0  0.00000000000E+00  0.00000000000E+00  0.33268582867E+03  0.33268582867E+03  0.00000000000E+00 0. -1.
         -2   -1    0    0    0  501 -0.00000000000E+00 -0.00000000000E+00 -0.45876096271E+02  0.45876096271E+02  0.00000000000E+00 0.  1.
         23    2    1    2    0    0 -0.44143109283E+02  0.37616644533E+02  0.15152850314E+03  0.20486938410E+03  0.12508777413E+03 0.  0.
          5    1    3    3  502    0 -0.60378514818E+02 -0.29475955228E+02  0.60184559491E+02  0.90299781779E+02  0.41800000000E+01 0. -1.
         -5    1    3    3    0  502  0.16235405535E+02  0.67092599761E+02  0.91343943646E+02  0.11456960232E+03  0.41800000000E+01 0. -1.
        -11    1    1    2    0    0  0.29752363745E+02 -0.44931004698E+01 -0.34969523321E+01  0.30292239532E+02  0.00000000000E+00 0.  1.
         11    1    1    2    0    0  0.14390745538E+02 -0.33123544063E+02  0.13877818159E+03  0.14340030130E+03  0.00000000000E+00 0. -1.
</event>
<event>
 7    1  0.4394360E-006  0.1160575E+03  0.7561462E-02  0.1249746E+00
         -1   -1    0    0    0  501 -0.00000000000E+00  0.00000000000E+00  0.66511146266E+02  0.66511146266E+02  0.00000000000E+00 0.  1.
          1   -1    0    0  501    0  0.00000000000E+00 -0.00000000000E+00 -0.42783654320E+03  0.42783654320E+03  0.00000000000E+00 0. -1.
         23    2    1    2    0    0 -0.45967600929E+02 -0.33213606868E+02 -0.22824963921E+02  0.13922708830E+03  0.12508812543E+03 0.  0.
          5    1    3    3  502    0  0.15378135798E+02 -0.58610963649E+02  0.15184086860E+02  0.62607994811E+02  0.41800000000E+01 0. -1.
         -5    1    3    3    0  502 -0.61345736727E+02  0.25397356781E+02 -0.38009050781E+02  0.76619093491E+02  0.41800000000E+01 0. -1.
        -11    1    1    2    0    0  0.23673973981E+02 -0.29770611243E+02 -0.16179319643E+03  0.16620404553E+03  0.00000000000E+00 0. -1.
         11    1    1    2    0    0  0.22293626948E+02  0.62984218112E+02 -0.17670723658E+03  0.18891655563E+03  0.00000000000E+00 0.  1.
</event>
<event>
 7    1  0.4394360E-006  0.1144003E+03  0.7561462E-02  0.1252632E+00
         -1   -1    0    0    0  501 -0.00000000000E+00  0.00000000000E+00  0.29796244289E+03  0.29796244289E+03  0.00000000000E+00 0.  1.
          1   -1    0    0  501    0  0.00000000000E+00 -0.00000000000E+00 -0.97494630987E+02  0.97494630987E+02  0.00000000000E+00 0. -1.
         23    2    1    2    0    0  0.61383818025E+02  0.14875852910E+02  0.24465544883E+03  0.28194505607E+03  0.12508981526E+03 0.  0.
          5    1    3    3  502    0  0.19015042873E+02  0.68541105805E+02  0.13504571617E+03  0.15269012049E+03  0.41800000000E+01 0.  1.
         -5    1    3    3    0  502  0.42368775152E+02 -0.53665252895E+02  0.10960973266E+03  0.12925493558E+03  0.41800000000E+01 0.  1.
        -11    1    1    2    0    0 -0.10174454043E+02 -0.33147909684E+02  0.10665748510E+02  0.36277563628E+02  0.00000000000E+00 0.  1.
         11    1    1    2    0    0 -0.51209363982E+02  0.18272056774E+02 -0.54853385440E+02  0.77234454180E+02  0.00000000000E+00 0. -1.
</event>
<event>
 7    1  0.4394360E-006  0.1207262E+03  0.7561462E-02  0.1241904E+00
          3   -1    0    0  501    0  0.00000000000E+00  0.00000000000E+00  0.71757054003E+03  0.71757054003E+03  0.00000000000E+00 0. -1.
         -3   -1    0    0    0  501 -0.00000000000E+00 -0.00000000000E+00 -0.21550169813E+02  0.21550169813E+02  0.00000000000E+00 0.  1.
         23    2    1    2    0    0 -0.62521012510E+01 -0.58485522973E+02  0.35179533590E+03  0.37797687950E+03  0.12508764091E+03 0.  0.
          5    1    3    3  502    0  0.86449034752E+01 -0.95432209243E+02  0.27692924969E+03  0.29306880191E+03  0.41800000000E+01 0. -1.
         -5    1    3    3    0  502 -0.14897004726E+02  0.36946686270E+02  0.74866086202E+02  0.84908077586E+02  0.41800000000E+01 0. -1.
        -11    1    1    2    0    0 -0.16483836384E+01  0.81311472783E+02  0.21906783117E+03  0.23367710078E+03  0.00000000000E+00 0.  1.
         11    1    1    2    0    0  0.79004848893E+01 -0.22825949811E+02  0.12515720315E+03  0.12746672956E+03  0.00000000000E+00 0. -1.
</event>
<event>
 7    1  0.4394360E-006  0.1129676E+03  0.7561462E-02  0.1255171E+00
         -2   -1    0    0    0  501 -0.00000000000E+00  0.00000000000E+00  0.14651421154E+03  0.14651421154E+03  0.00000000000E+00 0.  1.
          2   -1    0    0  501    0  0.00000000000E+00 -0.00000000000E+00 -0.16599810608E+03  0.16599810608E+03  0.00000000000E+00 0. -1.
         23    2    1    2    0    0  0.43233622500E+02 -0.68206394302E+02  0.67317193074E+02  0.16340190275E+03  0.12508924415E+03 0.  0.
          5    1    3    3  502    0 -0.42118065289E+02 -0.23027089557E+02  0.51120192443E+01  0.48453930882E+02  0.41800000000E+01 0. -1.
         -5    1    3    3    0  502  0.85351687789E+02 -0.45179304745E+02  0.62205173830E+02  0.11494797187E+03  0.41800000000E+01 0. -1.
        -11    1    1    2    0    0 -0.20775485513E+02  0.26008195356E+02  0.15101629251E+02  0.36552786897E+02  0.00000000000E+00 0.  1.
         11    1    1    2    0    0 -0.22458136987E+02  0.42198198946E+02 -0.10190271686E+03  0.11255762797E+03  0.00000000000E+00 0. -1.
</event>
<event>
 7    1  0.4394360E-006  0.1018760E+03  0.7561462E-02  0.1276400E+00
          2   -1    0    0  501    0  0.00000000000E+00  0.00000000000E+00  0.19987813246E+03  0.19987813246E+03  0.00000000000E+00 0. -1.
         -2   -1    0    0    0  501 -0.00000000000E+00 -0.00000000000E+00 -0.65080449329E+02  0.65080449329E+02  0.00000000000E+00 0.  1.
         23    2    1    2    0    0  0.20213098334E+02  0.29611558499E+02  0.69190278028E+02  0.14737851242E+03  0.12509083742E+03 0.  0.
          5    1    3    3  502    0  0.23621702336E+02  0.76173883365E+02  0.59305510648E+02  0.99473922821E+02  0.41800000000E+01 0. -1.
         -5    1    3    3    0  502 -0.34086040025E+01 -0.46562324866E+02  0.98847673800E+01  0.47904589596E+02  0.41800000000E+01 0. -1.
        -11    1    1    2    0    0  0.11094383518E+02  0.17339262244E+02  0.56863788057E+02  0.60475001058E+02  0.00000000000E+00 0.  1.
         11    1    1    2    0    0 -0.31307481852E+02 -0.46950820743E+02  0.87436170483E+01  0.57105068316E+02  0.00000000000E+00 0. -1.
</event>
<event>
 7    1  0.4394360E-006  0.1341434E+03  0.7561462E-02  0.1221434E+00
         -1   -1    0    0    0  501 -0.00000000000E+00  0.00000000000E+00  0.53615433276E+02  0.53615433276E+02  0.00000000000E+00 0.  1.
          1   -1    0    0  501    0  0.00000000000E+00 -0.00000000000E+00 -0.59961785886E+03  0.59961785886E+03  0.00000000000E+00 0. -1.
         23    2    1    2    0    0  0.61561171536E+01  0.12858117101E+03 -0.17653064794E+03  0.25175636523E+03  0.12508869834E+03 0.  0.
          5    1    3    3  502    0  0.14674223709E+02  0.59297502866E+02 -0.17097232886E+03  0.18160544134E+03  0.41800000000E+01 0. -1.
         -5    1    3    3    0  502 -0.85181065552E+01  0.69283668149E+02 -0.55583190781E+01  0.70150923888E+02  0.41800000000E+01 0. -1.
        -11    1    1    2    0    0  0.19499593944E+02 -0.34698985358E+02 -0.34567606851E+02  0.52717864072E+02  0.00000000000E+00 0.  1.
         11    1    1    2    0    0 -0.25655711098E+02 -0.93882185656E+02 -0.33490417079E+03  0.34875906284E+03  0.00000000000E+00 0. -1.
</event>
<event>
 7    1  0.4394360E-006  0.1739365E+03  0.7561462E-02  0.1173804E+00
         -2   -1    0    0    0  501 -0.00000000000E+00  0.00000000000E+00  0.35855443473E+02  0.35855443473E+02  0.00000000000E+00 0.  1.
          2   -1    0    0  501    0  0.00000000000E+00 -0.00000000000E+00 -0.10941585795E+04  0.10941585795E+04  0.00000000000E+00 0. -1.
         23    2    1    2    0    0 -0.46442669596E+02 -0.14172548140E+03 -0.32838058200E+03  0.38174049023E+03  0.12509580972E+03 0.  0.
          5    1    3    3  502    0 -0.59708060985E+02 -0.17793448688E+02 -0.63961805189E+02  0.89388166364E+02  0.41800000000E+01 0.  1.
         -5    1    3    3    0  502  0.13265391389E+02 -0.12393203271E+03 -0.26441877681E+03  0.29235232387E+03  0.41800000000E+01 0.  1.
        -11    1    1    2    0    0 -0.11936650432E+02  0.54285615138E+02 -0.17983379518E+03  0.18822753657E+03  0.00000000000E+00 0.  1.
         11    1    1    2    0    0  0.58379320028E+02  0.87439866258E+02 -0.55008875881E+03  0.56004599614E+03  0.00000000000E+00 0. -1.
</event>
<event>
 7    1  0.4394360E-006  0.8309510E+02  0.7561462E-02  0.1320491E+00
         -3   -1    0    0    0  501 -0.00000000000E+00  0.00000000000E+00  0.21226855488E+03  0.21226855488E+03  0.00000000000E+00 0.  1.
          3   -1    0    0  501    0  0.00000000000E+00 -0.00000000000E+00 -0.61038104928E+02  0.61038104928E+02  0.00000000000E+00 0. -1.
         23    2    1    2    0    0  0.12807609266E+02 -0.33553134432E+02  0.75381087641E+02  0.15039965214E+03  0.12509156368E+03 0.  0.
          5    1    3    3  502    0  0.40457601948E+02 -0.12083834619E+02 -0.21310703670E+02  0.47481102613E+02  0.41800000000E+01 0. -1.
         -5    1    3    3    0  502 -0.27649992682E+02 -0.21469299814E+02  0.96691791311E+02  0.10291854953E+03  0.41800000000E+01 0. -1.
        -11    1    1    2    0    0 -0.35551266862E+00  0.59617688859E+02  0.72442364108E+02  0.93820527240E+02  0.00000000000E+00 0.  1.
         11    1    1    2    0    0 -0.12452096597E+02 -0.26064554426E+02  0.34069982080E+01  0.29086480432E+02  0.00000000000E+00 0. -1.
</event>
<event>
 7    1  0.4394360E-006  0.9686920E+02  0.7561462E-02  0.1287021E+00
          3   -1    0    0  501    0  0.00000000000E+00  0.00000000000E+00  0.19956536916E+03  0.19956536916E+03  0.00000000000E+00 0. -1.
         -3   -1    0    0    0  501 -0.00000000000E+00 -0.00000000000E+00 -0.64652572456E+02  0.64652572456E+02  0.00000000000E+00 0.  1.
         23    2    1    2    0    0  0.39712482130E+01  0.30196269209E+02  0.59631708144E+02  0.14188592195E+03  0.12509232089E+03 0.  0.
          5    1    3    3  502    0 -0.51298025107E+02  0.11066658901E+01 -0.52299184449E+01  0.51744917975E+02  0.41800000000E+01 0. -1.
         -5    1    3    3    0  502  0.55269273320E+02  0.29089603318E+02  0.64861626589E+02  0.90141003979E+02  0.41800000000E+01 0. -1.
        -11    1    1    2    0    0  0.96914815027E+01 -0.52564646278E+02  0.13364557261E+02  0.55096081919E+02  0.00000000000E+00 0.  1.
         11    1    1    2    0    0 -0.13662729716E+02  0.22368377069E+02  0.61916531301E+02  0.67235937744E+02  0.00000000000E+00 0. -1.
</event>
<event>
 7    1  0.4394360E-006  0.3101514E+03  0.7561462E-02  0.1080273E+00
         -1   -1    0    0    0  501 -0.00000000000E+00  0.00000000000E+00  0.63331587256E+02  0.63331587256E+02  0.00000000000E+00 0.  1.
          1   -1    0    0  501    0  0.00000000000E+00 -0.00000000000E+00 -0.15584762773E+04  0.15584762773E+04  0.00000000000E+00 0. -1.
         23    2    1    2    0    0  0.28567312278E+03 -0.52113397916E+02 -0.63598568617E+03  0.71026286745E+03  0.12518230123E+03 0.  0.
          5    1    3    3  502    0  0.24554648078E+03  0.52790819223E+01 -0.47884947360E+03  0.53817769713E+03  0.41800000000E+01 0.  1.
         -5    1    3    3    0  502  0.40126642004E+02 -0.57392479838E+02 -0.15713621257E+03  0.17208517031E+03  0.41800000000E+01 0.  1.
        -11    1    1    2    0    0 -0.75522809089E+02  0.56493627251E+02 -0.25815561893E+03  0.27484458918E+03  0.00000000000E+00 0. -1.
         11    1    1    2    0    0 -0.21015031369E+03 -0.43802293351E+01 -0.60100338498E+03  0.63670040797E+03  0.00000000000E+00 0.  1.
</event>
<event>
 7    1  0.4394360E-006  0.1120352E+03  0.7561462E-02  0.1256847E+00
          1   -1    0    0  501    0  0.00000000000E+00  0.00000000000E+00  0.22777536050E+03  0.22777536050E+03  0.00000000000E+00 0. -1.
         -1   -1    0    0    0  501 -0.00000000000E+00 -0.00000000000E+00 -0.84915009771E+02  0.84915009771E+02  0.00000000000E+00 0.  1.
         23    2    1    2    0    0  0.24748565722E+01  0.68888181129E+02  0.18500718917E+02  0.14401630892E+03  0.12508682673E+03 0.  0.
          5    1    3    3  502    0  0.48541986592E+02  0.55482767051E+02 -0.26160046926E+02  0.78335702953E+02  0.41800000000E+01 0. -1.
         -5    1    3    3    0  502 -0.46067130020E+02  0.13405414077E+02  0.44660765842E+02  0.65680605969E+02  0.41800000000E+01 0. -1.
        -11    1    1    2    0    0  0.36290785041E+02 -0.37581058691E+02  0.25871640229E+02  0.58298360349E+02  0.00000000000E+00 0.  1.
         11    1    1    2    0    0 -0.38765641614E+02 -0.31307122438E+02  0.98487991582E+02  0.11037570100E+03  0.00000000000E+00 0. -1.
</event>
<event>
 7    1  0.4394360E-006  0.1334000E+03  0.7561462E-02  0.1222496E+00
         -2   -1    0    0    0  501 -0.00000000000E+00  0.00000000000E+00  0.87123751075E+02  0.87123751075E+02  0.00000000000E+00 0.  1.
          2   -1    0    0  501    0  0.00000000000E+00 -0.00000000000E+00 -0.46152381775E+03  0.46152381775E+03  0.00000000000E+00 0. -1.
         23    2    1    2    0    0  0.87490931349E+02 -0.24682319076E+01  0.80616791459E+00  0.15267052642E+03  0.12508750735E+03 0.  0.
          5    1    3    3  502    0  0.11048828737E+03 -0.30865481020E+02 -0.72333169901E+01  0.11502231453E+03  0.41800000000E+01 0. -1.
         -5    1    3    3    0  502 -0.22997356023E+02  0.28397249113E+02  0.80394849047E+01  0.37648211893E+02  0.41800000000E+01 0. -1.
        -11    1    1    2    0    0 -0.73329177642E+01 -0.28398408853E+02 -0.37998611815E+02  0.48001414648E+02  0.00000000000E+00 0.  1.
         11    1    1    2    0    0 -0.80158013585E+02  0.30866640761E+02 -0.33720762277E+03  0.34797562775E+03  0.00000000000E+00 0. -1.
</event>
<event>
 7    1  0.4394360E-006  0.6312679E+02  0.7561462E-02  0.1385160E+00
         -2   -1    0    0    0  501 -0.00000000000E+00  0.00000000000E+00  0.25883179744E+02  0.25883179744E+02  0.00000000000E+00 0.  1.
          2   -1    0    0  501    0  0.00000000000E+00 -0.00000000000E+00 -0.57262863366E+03  0.57262863366E+03  0.00000000000E+00 0. -1.
         23    2    1    2    0    0  0.32567044033E+01  0.53423360525E+02 -0.29456361024E+03  0.32447363187E+03  0.12510298050E+03 0.  0.
          5    1    3    3  502    0 -0.46089433869E+01  0.26148072263E+02  0.15977234086E+01  0.26925622784E+02  0.41800000000E+01 0.  1.
         -5    1    3    3    0  502  0.78656477902E+01  0.27275288261E+02 -0.29616133365E+03  0.29754800909E+03  0.41800000000E+01 0.  1.
        -11    1    1    2    0    0 -0.22354267098E+02 -0.44074628806E+02 -0.24734273460E+03  0.25223147013E+03  0.00000000000E+00 0. -1.
         11    1    1    2    0    0  0.19097562694E+02 -0.93487317183E+01 -0.48391090750E+01  0.21806711404E+02  0.00000000000E+00 0.  1.
</event>
<event>
 7    1  0.4394360E-006  0.1178012E+03  0.7561462E-02  0.1246769E+00
          1   -1    0    0  501    0  0.00000000000E+00  0.00000000000E+00  0.84756685091E+02  0.84756685091E+02  0.00000000000E+00 0. -1.
         -1   -1    0    0    0  501 -0.00000000000E+00 -0.00000000000E+00 -0.20966986224E+03  0.20966986224E+03  0.00000000000E+00 0.  1.
         23    2    1    2    0    0  0.59309253926E+02  0.17776399030E+02 -0.12275698134E+03  0.18587837547E+03  0.12509159059E+03 0.  0.
          5    1    3    3  502    0  0.11992286455E+02  0.61331686276E+02 -0.22217986387E+02  0.66456767864E+02  0.41800000000E+01 0. -1.
         -5    1    3    3    0  502  0.47316967471E+02 -0.43555287246E+02 -0.10053899495E+03  0.11942160760E+03  0.41800000000E+01 0. -1.
        -11    1    1    2    0    0 -0.56186940322E+02  0.27904820448E+02 -0.77565892790E+00  0.62739564182E+02  0.00000000000E+00 0.  1.
         11    1    1    2    0    0 -0.31223136039E+01 -0.45681219477E+02 -0.13805368830E+01  0.45808607677E+02  0.00000000000E+00 0. -1.
</event>
<event>
 7    1  0.4394360E-006  0.1985047E+03  0.7561462E-02  0.1151007E+00
         -2   -1    0    0    0  501 -0.00000000000E+00  0.00000000000E+00  0.53777461450E+02  0.53777461450E+02  0.00000000000E+00 0.  1.
          2   -1    0    0  501    0  0.00000000000E+00 -0.00000000000E+00 -0.74717780161E+03  0.74717780161E+03  0.00000000000E+00 0. -1.
         23    2    1    2    0    0 -0.14703949313E+03  0.81312351226E+02 -0.34286949022E+03  0.40179418914E+03  0.12508705807E+03 0.  0.
          5    1    3    3  502    0 -0.15077909874E+03  0.29173673530E+02 -0.28447754240E+03  0.32331159022E+03  0.41800000000E+01 0. -1.
         -5    1    3    3    0  502  0.37396056035E+01  0.52138677696E+02 -0.58391947822E+02  0.78482598915E+02  0.41800000000E+01 0. -1.
        -11    1    1    2    0    0  0.11163391687E+03 -0.10950314406E+02 -0.20516394881E+03  0.23382533368E+03  0.00000000000E+00 0.  1.
         11    1    1    2    0    0  0.35405576260E+02 -0.70362036820E+02 -0.14536690113E+03  0.16533574024E+03  0.00000000000E+00 0. -1.
</event>
<event>
 7    1  0.4394360E-006  0.1199419E+03  0.7561462E-02  0.1243193E+00
          1   -1    0    0  501    0  0.00000000000E+00  0.00000000000E+00  0.34409242557E+03  0.34409242557E+03  0.00000000000E+00 0. -1.
         -1   -1    0    0    0  501 -0.00000000000E+00 -0.00000000000E+00 -0.58010691865E+02  0.58010691865E+02  0.00000000000E+00 0.  1.
         23    2    1    2    0    0 -0.84935132757E+02  0.25384263552E+02  0.12911125697E+03  0.20043633675E+03  0.12508665317E+03 0.  0.
          5    1    3    3  502    0  0.18770313770E+02  0.38473680683E+02  0.64350038531E+02  0.77401218616E+02  0.41800000000E+01 0. -1.
         -5    1    3    3    0  502 -0.10370544653E+03 -0.13089417131E+02  0.64761218440E+02  0.12303511813E+03  0.41800000000E+01 0. -1.
        -11    1    1    2    0    0  0.14705985186E+02 -0.15453138164E+02 -0.74535349598E+01  0.22596917109E+02  0.00000000000E+00 0.  1.
         11    1    1    2    0    0  0.70229147570E+02 -0.99311253883E+01  0.16442401169E+03  0.17906986357E+03  0.00000000000E+00 0. -1.
</event>
<event>
 7    1  0.4394360E-006  0.1314909E+03  0.7561462E-02  0.1225260E+00
          2   -1    0    0  501    0  0.00000000000E+00  0.00000000000E+00  0.19038574530E+03  0.19038574530E+03  0.00000000000E+00 0. -1.
         -2   -1    0    0    0  501 -0.00000000000E+00 -0.00000000000E+00 -0.99685584938E+02  0.99685584938E+02  0.00000000000E+00 0.  1.
         23    2    1    2    0    0  0.84315021471E+02  0.21706990325E+02  0.64171810170E+02  0.16536350694E+03  0.12508737719E+03 0.  0.
          5    1    3    3  502    0  0.14229737237E+02 -0.45935252248E+02  0.45022154139E+02  0.66007572174E+02  0.41800000000E+01 0. -1.
         -5    1    3    3    0  502  0.70085284234E+02  0.67642242573E+02  0.19149656031E+02  0.99355934762E+02  0.41800000000E+01 0. -1.
        -11    1    1    2    0    0 -0.67726778692E+02  0.21402308418E+02 -0.81110666967E+00  0.71032621039E+02  0.00000000000E+00 0.  1.
         11    1    1    2    0    0 -0.16588242779E+02 -0.43109298742E+02  0.27339456861E+02  0.53675202263E+02  0.00000000000E+00 0. -1.
</event>
<event>
 7    1  0.4394360E-006  0.8631963E+02  0.7561462E-02  0.1312017E+00
         -2   -1    0    0    0  501 -0.00000000000E+00  0.00000000000E+00  0.37070963668E+02  0.37070963668E+02  0.00000000000E+00 0. -1.
          2   -1    0    0  501    0  0.00000000000E+00 -0.00000000000E+00 -0.51049173589E+03  0.51049173589E+03  0.00000000000E+00 0.  1.
         23    2    1    2    0    0  0.14734423176E+02  0.76714188162E+02 -0.32111874719E+03  0.35336574526E+03  0.12509168731E+03 0.  0.
          5    1    3    3  502    0 -0.38745431089E+00  0.58364897328E+02 -0.32382772888E+03  0.32907215280E+03  0.41800000000E+01 0. -1.
         -5    1    3    3    0  502  0.15121877487E+02  0.18349290834E+02  0.27089816828E+01  0.24293592460E+02  0.41800000000E+01 0. -1.
        -11    1    1    2    0    0 -0.21705244751E+02 -0.11821913521E+02  0.37945925412E+01  0.25005483829E+02  0.00000000000E+00 0. -1.
         11    1    1    2    0    0  0.69708215744E+01 -0.64892274641E+02 -0.15609661757E+03  0.16919147046E+03  0.00000000000E+00 0.  1.
</event>
<event>
 7    1  0.4394360E-006  0.8023540E+02  0.7561462E-02  0.1328385E+00
          1   -1    0    0  501    0  0.00000000000E+00  0.00000000000E+00  0.15609995146E+03  0.15609995146E+03  0.00000000000E+00 0. -1.
         -1   -1    0    0    0  501 -0.00000000000E+00 -0.00000000000E+00 -0.81615209190E+02  0.81615209190E+02  0.00000000000E+00 0.  1.
         23    2    1    2    0    0 -0.38873137631E+01  0.31812371011E+02  0.39627884116E+02  0.13504508974E+03  0.12505866186E+03 0.  0.
          5    1    3    3  502    0 -0.36601967071E+02  0.19100518831E+02  0.74572954375E+02  0.85341266321E+02  0.41800000000E+01 0. -1.
         -5    1    3    3    0  502  0.32714653308E+02  0.12711852180E+02 -0.34945070259E+02  0.49703823417E+02  0.41800000000E+01 0. -1.
        -11    1    1    2    0    0 -0.30014167966E+02 -0.38759730480E+02 -0.57036560826E+01  0.49352798080E+02  0.00000000000E+00 0.  1.
         11    1    1    2    0    0  0.33901481729E+02  0.69473594695E+01  0.40560514233E+02  0.53317272828E+02  0.00000000000E+00 0. -1.
</event>
<event>
 7    1  0.4394360E-006  0.7430757E+02  0.7561462E-02  0.1346029E+00
         -4   -1    0    0    0  501 -0.00000000000E+00  0.00000000000E+00  0.33876415990E+03  0.33876415990E+03  0.00000000000E+00 0.  1.
          4   -1    0    0  501    0  0.00000000000E+00 -0.00000000000E+00 -0.47836545437E+02  0.47836545437E+02  0.00000000000E+00 0. -1.
         23    2    1    2    0    0 -0.42809549420E+02 -0.36744452621E+01  0.23945137451E+03  0.27355250205E+03  0.12509137282E+03 0.  0.
          5    1    3    3  502    0 -0.99940391999E+01  0.26361641956E+02 -0.14546507722E+01  0.28537788895E+02  0.41800000000E+01 0. -1.
         -5    1    3    3    0  502 -0.32815510220E+02 -0.30036087218E+02  0.24090602528E+03  0.24501471316E+03  0.41800000000E+01 0. -1.
        -11    1    1    2    0    0  0.50894196554E+02 -0.16658389475E+02  0.67328523171E+02  0.86028200116E+02  0.00000000000E+00 0.  1.
         11    1    1    2    0    0 -0.80846471345E+01  0.20332834737E+02 -0.15852283221E+02  0.27020003166E+02  0.00000000000E+00 0. -1.
</event>
<event>
 7    1  0.4394360E-006  0.1039999E+03  0.7561462E-02  0.1272103E+00
         -2   -1    0    0    0  501 -0.00000000000E+00  0.00000000000E+00  0.33618503024E+02  0.33618503024E+02  0.00000000000E+00 0.  1.
          2   -1    0    0  501    0  0.00000000000E+00 -0.00000000000E+00 -0.44096705547E+03  0.44096705547E+03  0.00000000000E+00 0. -1.
         23    2    1    2    0    0 -0.10435812820E+02 -0.54496609146E+02 -0.22060790279E+03  0.25960689212E+03  0.12509638310E+03 0.  0.
          5    1    3    3  502    0  0.31706183246E+02 -0.79554514964E+02 -0.11856461048E+03  0.14631897404E+03  0.41800000000E+01 0.  1.
         -5    1    3    3    0  502 -0.42141996066E+02  0.25057905818E+02 -0.10204329232E+03  0.11328791808E+03  0.41800000000E+01 0.  1.
        -11    1    1    2    0    0 -0.17548887074E+02  0.92187625101E+01  0.99022991264E+00  0.19847659182E+02  0.00000000000E+00 0.  1.
         11    1    1    2    0    0  0.27984699894E+02  0.45277846636E+02 -0.18773087956E+03  0.19513100718E+03  0.00000000000E+00 0. -1.
</event>
<event>
 7    1  0.4394360E-006  0.9905786E+02  0.7561462E-02  0.1282290E+00
         -2   -1    0    0    0  501 -0.00000000000E+00  0.00000000000E+00  0.50719097210E+02  0.50719097210E+02  0.00000000000E+00 0.  1.
          2   -1    0    0  501    0  0.00000000000E+00 -0.00000000000E+00 -0.23915866638E+03  0.23915866638E+03  0.00000000000E+00 0. -1.
         23    2    1    2    0    0 -0.29399187694E+02  0.19602042217E+02 -0.79022064252E+02  0.14328900900E+03  0.11418713223E+03 0.  0.
          5    1    3    3  502    0  0.39517383066E+02  0.26532928082E+02 -0.18583734291E+02  0.51268386138E+02  0.41800000000E+01 0. -1.
         -5    1    3    3    0  502 -0.68916570760E+02 -0.69308858655E+01 -0.60438329961E+02  0.92020622866E+02  0.41800000000E+01 0.  1.
        -11    1    1    2    0    0 -0.10457416482E+02 -0.36266161777E+02 -0.11327071600E+02  0.39406783687E+02  0.00000000000E+00 0.  1.
         11    1    1    2    0    0  0.39856604176E+02  0.16664119561E+02 -0.98090433320E+02  0.10718197090E+03  0.00000000000E+00 0. -1.
</event>
<event>
 7    1  0.4394360E-006  0.9220594E+02  0.7561462E-02  0.1297596E+00
          2   -1    0    0  501    0  0.00000000000E+00  0.00000000000E+00  0.30769615574E+03  0.30769615574E+03  0.00000000000E+00 0. -1.
         -2   -1    0    0    0  501 -0.00000000000E+00 -0.00000000000E+00 -0.95691293932E+02  0.95691293932E+02  0.00000000000E+00 0.  1.
         23    2    1    2    0    0 -0.40799787082E+02  0.41847695458E+02 -0.27390516740E+02  0.14076065656E+03  0.12508984685E+03 0.  0.
          5    1    3    3  502    0 -0.42258763142E+02  0.62189140466E+02 -0.63880773606E+02  0.98749774130E+02  0.41800000000E+01 0. -1.
         -5    1    3    3    0  502  0.14589760597E+01 -0.20341445007E+02  0.36490256866E+02  0.42010882427E+02  0.41800000000E+01 0. -1.
        -11    1    1    2    0    0  0.38307077384E+01 -0.50235266069E+02  0.55886574090E+02  0.75243374740E+02  0.00000000000E+00 0.  1.
         11    1    1    2    0    0  0.36969079344E+02  0.83875706105E+01  0.18350880446E+03  0.18738341837E+03  0.00000000000E+00 0. -1.
</event>
<event>
 7    1  0.4394360E-006  0.1098107E+03  0.7561462E-02  0.1260921E+00
          1   -1    0    0  501    0  0.00000000000E+00  0.00000000000E+00  0.11489696780E+03  0.11489696780E+03  0.00000000000E+00 0. -1.
         -1   -1    0    0    0  501 -0.00000000000E+00 -0.00000000000E+00 -0.15139732522E+03  0.15139732522E+03  0.00000000000E+00 0.  1.
         23    2    1    2    0    0  0.25713047599E+02 -0.10617468452E+02 -0.86746937199E+02  0.14732216707E+03  0.11577952471E+03 0.  0.
          5    1    3    3  502    0  0.31655936836E+02 -0.57873075321E+02 -0.28537683144E+02  0.71994881368E+02  0.41800000000E+01 0. -1.
         -5    1    3    3    0  502 -0.59428892361E+01  0.47255606868E+02 -0.58209254055E+02  0.75327285698E+02  0.41800000000E+01 0.  1.
        -11    1    1    2    0    0 -0.57006321226E+02 -0.21448647457E+02  0.40427349759E+02  0.73103595986E+02  0.00000000000E+00 0. -1.
         11    1    1    2    0    0  0.31293273627E+02  0.32066115909E+02  0.98192300207E+01  0.45868529974E+02  0.00000000000E+00 0.  1.
</event>
<event>
 7    1  0.4394360E-006  0.9020564E+02  0.7561462E-02  0.1302354E+00
         -2   -1    0    0    0  501 -0.00000000000E+00  0.00000000000E+00  0.45771677813E+03  0.45771677813E+03  0.00000000000E+00 0.  1.
          2   -1    0    0  501    0  0.00000000000E+00 -0.00000000000E+00 -0.55597528032E+02  0.55597528032E+02  0.00000000000E+00 0. -1.
         23    2    1    2    0    0  0.19302885809E+02 -0.78636471324E+02  0.35017328308E+03  0.38055800807E+03  0.12508706289E+03 0.  0.
          5    1    3    3  502    0  0.38932121023E+01 -0.65667692357E+02  0.35361163755E+03  0.35970274608E+03  0.41800000000E+01 0.  1.
         -5    1    3    3    0  502  0.15409673706E+02 -0.12968778966E+02 -0.34383544717E+01  0.20855262000E+02  0.41800000000E+01 0.  1.
        -11    1    1    2    0    0 -0.31295816154E+02  0.28344815574E+02 -0.17896075975E+02  0.45859854055E+02  0.00000000000E+00 0. -1.
         11    1    1    2    0    0  0.11992930346E+02  0.50291655750E+02  0.69842042985E+02  0.86896444028E+02  0.00000000000E+00 0.  1.
</event>
<event>
 7    1  0.4394360E-006  0.1133573E+03  0.7561462E-02  0.1254476E+00
          1   -1    0    0  501    0  0.00000000000E+00  0.00000000000E+00  0.12387441667E+03  0.12387441667E+03  0.00000000000E+00 0. -1.
         -1   -1    0    0    0  501 -0.00000000000E+00 -0.00000000000E+00 -0.13057970512E+03  0.13057970512E+03  0.00000000000E+00 0.  1.
         23    2    1    2    0    0  0.62112469328E+01 -0.47765033285E+02 -0.49016847878E+02  0.14272384817E+03  0.12508943788E+03 0.  0.
          5    1    3    3  502    0  0.37543945003E+02 -0.79958937902E+02 -0.26623439454E+02  0.92353990088E+02  0.41800000000E+01 0. -1.
         -5    1    3    3    0  502 -0.31332698070E+02  0.32193904617E+02 -0.22393408424E+02  0.50369858087E+02  0.41800000000E+01 0. -1.
        -11    1    1    2    0    0 -0.40012965552E+02  0.43482426118E+02  0.22427725993E+01  0.59133652198E+02  0.00000000000E+00 0.  1.
         11    1    1    2    0    0  0.33801718619E+02  0.42826071673E+01  0.40068786829E+02  0.52596621410E+02  0.00000000000E+00 0. -1.
</event>
<event>
 7    1  0.4394360E-006  0.1272280E+03  0.7561462E-02  0.1231628E+00
          1   -1    0    0  501    0  0.00000000000E+00  0.00000000000E+00  0.26274936074E+03  0.26274936074E+03  0.00000000000E+00 0. -1.
         -1   -1    0    0    0  501 -0.00000000000E+00 -0.00000000000E+00 -0.80877674446E+02  0.80877674446E+02  0.00000000000E+00 0.  1.
         23    2    1    2    0    0 -0.20174079719E+02 -0.85097551345E+02  0.51853213059E+02  0.16125873366E+03  0.12516803402E+03 0.  0.
          5    1    3    3  502    0 -0.19166940984E+02  0.25656906193E+02 -0.10655195204E+02  0.34009616977E+02  0.41800000000E+01 0. -1.
         -5    1    3    3    0  502 -0.10071387342E+01 -0.11075445754E+03  0.62508408264E+02  0.12724911668E+03  0.41800000000E+01 0. -1.
        -11    1    1    2    0    0 -0.25758835859E+02  0.33068630545E+02  0.96673821760E+02  0.10537020340E+03  0.00000000000E+00 0. -1.
         11    1    1    2    0    0  0.45932915578E+02  0.52028920801E+02  0.33344651480E+02  0.76998098129E+02  0.00000000000E+00 0.  1.
</event>
<event>
 7    1  0.4394360E-006  0.1070997E+03  0.7561462E-02  0.1266037E+00
          1   -1    0    0  501    0  0.00000000000E+00  0.00000000000E+00  0.45666805916E+03  0.45666805916E+03  0.00000000000E+00 0. -1.
         -1   -1    0    0    0  501 -0.00000000000E+00 -0.00000000000E+00 -0.31013519734E+02  0.31013519734E+02  0.00000000000E+00 0.  1.
         23    2    1    2    0    0 -0.18255798114E+02  0.42496236382E+02  0.20530740082E+03  0.24482266695E+03  0.12509118735E+03 0.  0.
          5    1    3    3  502    0 -0.60067488592E+00  0.75487413176E+02  0.18943060891E+03  0.20396111971E+03  0.41800000000E+01 0.  1.
         -5    1    3    3    0  502 -0.17655123228E+02 -0.32991176794E+02  0.15876791901E+02  0.40861547248E+02  0.41800000000E+01 0.  1.
        -11    1    1    2    0    0  0.94973338938E+01 -0.70738795471E+02  0.13801721400E+03  0.15537994689E+03  0.00000000000E+00 0.  1.
         11    1    1    2    0    0  0.87584642201E+01  0.28242559090E+02  0.82329924609E+02  0.87478965046E+02  0.00000000000E+00 0. -1.
</event>
<event>
 7    1  0.4394360E-006  0.1334398E+03  0.7561462E-02  0.1222439E+00
         -1   -1    0    0    0  501 -0.00000000000E+00  0.00000000000E+00  0.31217453570E+02  0.31217453570E+02  0.00000000000E+00 0.  1.
          1   -1    0    0  501    0  0.00000000000E+00 -0.00000000000E+00 -0.69671172391E+03  0.69671172391E+03  0.00000000000E+00 0. -1.
         23    2    1    2    0    0  0.12925970687E+02  0.99399716145E+02 -0.32357136741E+03  0.36109091059E+03  0.12506331044E+03 0.  0.
          5    1    3    3  502    0 -0.24098649000E+02 -0.22127914946E+02 -0.59925954661E+02  0.68403084327E+02  0.41800000000E+01 0. -1.
         -5    1    3    3    0  502  0.37024619687E+02  0.12152763109E+03 -0.26364541275E+03  0.29268782627E+03  0.41800000000E+01 0. -1.
        -11    1    1    2    0    0 -0.24084766409E+02 -0.86198695424E+02 -0.33726204725E+03  0.34893549487E+03  0.00000000000E+00 0. -1.
         11    1    1    2    0    0  0.11158795722E+02 -0.13201020721E+02 -0.46608556774E+01  0.17902772012E+02  0.00000000000E+00 0.  1.
</event>
<event>
 7    1  0.4394360E-006  0.1069420E+03  0.7561462E-02  0.1266340E+00
         -1   -1    0    0    0  501 -0.00000000000E+00  0.00000000000E+00  0.68671990370E+02  0.68671990370E+02  0.00000000000E+00 0.  1.
          1   -1    0    0  501    0  0.00000000000E+00 -0.00000000000E+00 -0.27523880925E+03  0.27523880925E+03  0.00000000000E+00 0. -1.
         23    2    1    2    0    0 -0.65740979552E+02 -0.25140556236E+02 -0.55835062035E+02  0.15400868819E+03  0.12508876019E+03 0.  0.
          5    1    3    3  502    0  0.34085279935E+02 -0.26594391339E+02 -0.13475808095E+02  0.45476782678E+02  0.41800000000E+01 0. -1.
         -5    1    3    3    0  502 -0.99826259487E+02  0.14538351031E+01 -0.42359253940E+02  0.10853190551E+03  0.41800000000E+01 0. -1.
        -11    1    1    2    0    0  0.31707662370E+02  0.14514171502E+02 -0.15025157626E+03  0.15424517236E+03  0.00000000000E+00 0. -1.
         11    1    1    2    0    0  0.34033317182E+02  0.10626384734E+02 -0.48018059121E+00  0.35656939076E+02  0.00000000000E+00 0.  1.
</event>
<event>
 7    1  0.4394360E-006  0.1375169E+03  0.7561462E-02  0.1216710E+00
         -1   -1    0    0    0  501 -0.00000000000E+00  0.00000000000E+00  0.13489209226E+03  0.13489209226E+03  0.00000000000E+00 0.  1.
          1   -1    0    0  501    0  0.00000000000E+00 -0.00000000000E+00 -0.35146458941E+03  0.35146458941E+03  0.00000000000E+00 0. -1.
         23    2    1    2    0    0  0.13494680837E+03  0.31359198837E+01  0.34164251490E+02  0.18717714335E+03  0.12509041462E+03 0.  0.
          5    1    3    3  502    0  0.50544617054E+01  0.51058423835E+01 -0.37736199063E+02  0.38640785826E+02  0.41800000000E+01 0.  1.
         -5    1    3    3    0  502  0.12989234666E+03 -0.19699224998E+01  0.71900450553E+02  0.14853635752E+03  0.41800000000E+01 0.  1.
        -11    1    1    2    0    0 -0.11087312624E+02 -0.64812030365E+01  0.59487771754E+01  0.14153531146E+02  0.00000000000E+00 0.  1.
         11    1    1    2    0    0 -0.12385949574E+03  0.33452831528E+01 -0.25668552581E+03  0.28502600717E+03  0.00000000000E+00 0. -1.
</event>
<event>
 7    1  0.4394360E-006  0.1489579E+03  0.7561462E-02  0.1201759E+00
          2   -1    0    0  501    0  0.00000000000E+00  0.00000000000E+00  0.31526612250E+03  0.31526612250E+03  0.00000000000E+00 0. -1.
         -2   -1    0    0    0  501 -0.00000000000E+00 -0.00000000000E+00 -0.99639381310E+02  0.99639381310E+02  0.00000000000E+00 0.  1.
         23    2    1    2    0    0 -0.63613393509E+02 -0.96650192557E+02  0.20425126357E+02  0.17163663135E+03  0.12511604165E+03 0.  0.
          5    1    3    3  502    0 -0.65038602409E+02  0.54324878543E+00 -0.17061178498E+02  0.67371144671E+02  0.41800000000E+01 0. -1.
         -5    1    3    3    0  502  0.14252089001E+01 -0.97193441343E+02  0.37486304856E+02  0.10426548668E+03  0.41800000000E+01 0. -1.
        -11    1    1    2    0    0  0.42087230356E+02  0.62857775239E+01  0.10708842594E+03  0.11523357552E+03  0.00000000000E+00 0. -1.
         11    1    1    2    0    0  0.21526163153E+02  0.90364415033E+02  0.88113188895E+02  0.12803529694E+03  0.00000000000E+00 0.  1.
</event>
<event>
 7    1  0.4394360E-006  0.1352637E+03  0.7561462E-02  0.1219848E+00
          2   -1    0    0  501    0  0.00000000000E+00  0.00000000000E+00  0.28285349166E+03  0.28285349166E+03  0.00000000000E+00 0. -1.
         -2   -1    0    0    0  501 -0.00000000000E+00 -0.00000000000E+00 -0.77214530426E+02  0.77214530426E+02  0.00000000000E+00 0.  1.
         23    2    1    2    0    0  0.31998111897E+02  0.89373528466E+02  0.99196623471E+02  0.18573950930E+03  0.12509072088E+03 0.  0.
          5    1    3    3  502    0 -0.39403980370E+02  0.73389372871E+02  0.58884270059E+02  0.10209556004E+03  0.41800000000E+01 0. -1.
         -5    1    3    3    0  502  0.71402092267E+02  0.15984155595E+02  0.40312353412E+02  0.83643949260E+02  0.41800000000E+01 0. -1.
        -11    1    1    2    0    0  0.53354535923E+01 -0.72788035371E+02  0.15470243548E+02  0.74604916686E+02  0.00000000000E+00 0.  1.
         11    1    1    2    0    0 -0.37333565489E+02 -0.16585493095E+02  0.90972094220E+02  0.99723596105E+02  0.00000000000E+00 0. -1.
</event>
<event>
 7    1  0.4394360E-006  0.1071322E+03  0.7561462E-02  0.1265975E+00
          2   -1    0    0  501    0  0.00000000000E+00  0.00000000000E+00  0.32452061801E+03  0.32452061801E+03  0.00000000000E+00 0. -1.
         -2   -1    0    0    0  501 -0.00000000000E+00 -0.00000000000E+00 -0.37313151207E+02  0.37313151207E+02  0.00000000000E+00 0.  1.
         23    2    1    2    0    0 -0.15257354887E+02  0.68492752282E+01  0.14730605704E+03  0.19400212714E+03  0.12513213594E+03 0.  0.
          5    1    3    3  502    0 -0.68287392545E+02  0.42879645146E+01  0.10757063784E+03  0.12755574917E+03  0.41800000000E+01 0.  1.
         -5    1    3    3    0  502  0.53030037658E+02  0.25613107136E+01  0.39735419199E+02  0.66446377971E+02  0.41800000000E+01 0.  1.
        -11    1    1    2    0    0  0.40318517333E+02 -0.35975129202E+02  0.75618149108E+02  0.92940288549E+02  0.00000000000E+00 0.  1.
         11    1    1    2    0    0 -0.25061162446E+02  0.29125853973E+02  0.64283260652E+02  0.74891353525E+02  0.00000000000E+00 0. -1.
</event>
<event>
 6    1  0.4394360E-006  0.2517456E+03  0.7561462E-02  0.1112207E+00
          1   -1    0    0  501    0  0.00000000000E+00  0.00000000000E+00  0.24506975437E+03  0.24506975437E+03  0.00000000000E+00 0. -1.
         -1   -1    0    0    0  501 -0.00000000000E+00 -0.00000000000E+00 -0.15713908586E+04  0.15713908586E+04  0.00000000000E+00 0.  1.
          5    1    1    2  502    0  0.88606567398E+02  0.27979841788E+00 -0.16627910592E+03  0.18846064718E+03  0.41800000000E+01 0. -1.
         -5    1    1    2    0  502 -0.21976942744E+03  0.97786899488E+02 -0.13441784548E+04  0.13655380147E+04  0.41800000000E+01 0.  1.
        -11    1    1    2    0    0  0.36194562119E+02  0.19987072580E+01  0.85510546682E+02  0.92876771862E+02  0.00000000000E+00 0.  1.
         11    1    1    2    0    0  0.94968297922E+02 -0.10006540516E+03  0.98625909789E+02  0.16958517920E+03  0.00000000000E+00 0. -1.
</event>
<event>
 7    1  0.4394360E-006  0.1043716E+03  0.7561462E-02  0.1271363E+00
         -2   -1    0    0    0  501 -0.00000000000E+00  0.00000000000E+00  0.24967531890E+03  0.24967531890E+03  0.00000000000E+00 0. -1.
          2   -1    0    0  501    0  0.00000000000E+00 -0.00000000000E+00 -0.61126822320E+02  0.61126822320E+02  0.00000000000E+00 0.  1.
         23    2    1    2    0    0  0.45493258505E+02 -0.48831894841E+02  0.14690218106E+03  0.20416257143E+03  0.12509162342E+03 0.  0.
          5    1    3    3  502    0  0.87610007889E+02 -0.43345045757E+02  0.11432186769E+03  0.15047015753E+03  0.41800000000E+01 0.  1.
         -5    1    3    3    0  502 -0.42116749384E+02 -0.54868490834E+01  0.32580313373E+02  0.53692413906E+02  0.41800000000E+01 0.  1.
        -11    1    1    2    0    0 -0.24456265505E+02  0.36215384645E+02  0.61248085422E+02  0.75239557251E+02  0.00000000000E+00 0. -1.
         11    1    1    2    0    0 -0.21036993000E+02  0.12616510196E+02 -0.19601769905E+02  0.31400012538E+02  0.00000000000E+00 0.  1.
</event>
<event>
 7    1  0.4394360E-006  0.8965063E+02  0.7561462E-02  0.1303700E+00
         -3   -1    0    0    0  501 -0.00000000000E+00  0.00000000000E+00  0.57815309033E+02  0.57815309033E+02  0.00000000000E+00 0.  1.
          3   -1    0    0  501    0  0.00000000000E+00 -0.00000000000E+00 -0.23270126894E+03  0.23270126894E+03  0.00000000000E+00 0. -1.
         23    2    1    2    0    0  0.34494287758E+02 -0.25703207370E+02 -0.93900974198E+02  0.16222143240E+03  0.12509152417E+03 0.  0.
          5    1    3    3  502    0  0.45225218686E+02 -0.41412111574E+02 -0.11690561189E+03  0.13207830209E+03  0.41800000000E+01 0.  1.
         -5    1    3    3    0  502 -0.10730930929E+02  0.15708904204E+02  0.23004637693E+02  0.30143130317E+02  0.41800000000E+01 0.  1.
        -11    1    1    2    0    0 -0.64710522575E+02  0.16698878676E+02 -0.45622891821E+02  0.80918184230E+02  0.00000000000E+00 0. -1.
         11    1    1    2    0    0  0.30216234817E+02  0.90043286940E+01 -0.35362093892E+02  0.47376961343E+02  0.00000000000E+00 0.  1.
</event>
<event>
 7    1  0.4394360E-006  0.9883344E+02  0.7561462E-02  0.1282768E+00
         -1   -1    0    0    0  501 -0.00000000000E+00  0.00000000000E+00  0.31035460105E+03  0.31035460105E+03  0.00000000000E+00 0.  1.
          1   -1    0    0  501    0  0.00000000000E+00 -0.00000000000E+00 -0.53496325560E+02  0.53496325560E+02  0.00000000000E+00 0. -1.
         23    2    1    2    0    0  0.42533526577E+02  0.35620362392E+02  0.20254754458E+03  0.24444119213E+03  0.12509227591E+03 0.  0.
          5    1    3    3  502    0  0.62090923775E+02 -0.40617394496E-01  0.33814031808E+02  0.70824752821E+02  0.41800000000E+01 0. -1.
         -5    1    3    3    0  502 -0.19557397198E+02  0.35660979786E+02  0.16873351278E+03  0.17361643931E+03  0.41800000000E+01 0. -1.
        -11    1    1    2    0    0  0.22366327693E+02 -0.12703602946E+02 -0.76140017309E+01  0.26825494676E+02  0.00000000000E+00 0. -1.
         11    1    1    2    0    0 -0.64899854270E+02 -0.22916759446E+02  0.61924732632E+02  0.92584239799E+02  0.00000000000E+00 0.  1.
</event>
<event>
 7    1  0.4394360E-006  0.1261369E+03  0.7561462E-02  0.1233303E+00
          2   -1    0    0  501    0  0.00000000000E+00  0.00000000000E+00  0.37608761566E+03  0.37608761566E+03  0.00000000000E+00 0. -1.
         -2   -1    0    0    0  501 -0.00000000000E+00 -0.00000000000E+00 -0.54621573437E+02  0.54621573437E+02  0.00000000000E+00 0.  1.
         23    2    1    2    0    0 -0.42513934797E+02 -0.60655679090E+02  0.87785023858E+02  0.16982515329E+03  0.12509127156E+03 0.  0.
          5    1    3    3  502    0 -0.82715879440E+02 -0.48665431079E+02  0.34928273880E+02  0.10221397952E+03  0.41800000000E+01 0.  1.
         -5    1    3    3    0  502  0.40201944643E+02 -0.11990248010E+02  0.52856749978E+02  0.67611173770E+02  0.41800000000E+01 0.  1.
        -11    1    1    2    0    0 -0.22471800363E+02  0.39971138510E+02  0.11800254853E+03  0.12659887513E+03  0.00000000000E+00 0. -1.
         11    1    1    2    0    0  0.64985735160E+02  0.20684540580E+02  0.11567846984E+03  0.13428516067E+03  0.00000000000E+00 0.  1.
</event>
<event>
 7    1  0.4394360E-006  0.1055222E+03  0.7561462E-02  0.1269094E+00
         -1   -1    0    0    0  501 -0.00000000000E+00  0.00000000000E+00  0.23473120749E+02  0.23473120749E+02  0.00000000000E+00 0.  1.
          1   -1    0    0  501    0  0.00000000000E+00 -0.00000000000E+00 -0.52054961737E+03  0.52054961737E+03  0.00000000000E+00 0. -1.
         23    2    1    2    0    0  0.20494785594E+01 -0.29835349615E+02 -0.29018645765E+03  0.31741327897E+03  0.12509460825E+03 0.  0.
          5    1    3    3  502    0 -0.45651024374E+02 -0.55714365753E+02 -0.19265711731E+03  0.20572395054E+03  0.41800000000E+01 0.  1.
         -5    1    3    3    0  502  0.47700502934E+02  0.25879016138E+02 -0.97529340338E+02  0.11168932842E+03  0.41800000000E+01 0.  1.
        -11    1    1    2    0    0  0.37924617841E+02  0.74468519758E+01 -0.50176363417E+02  0.63335611534E+02  0.00000000000E+00 0.  1.
         11    1    1    2    0    0 -0.39974096400E+02  0.22388497639E+02 -0.15671367556E+03  0.16327384762E+03  0.00000000000E+00 0. -1.
</event>
<event>
 7    1  0.4394360E-006  0.1431045E+03  0.7561462E-02  0.1209212E+00
         -2   -1    0    0    0  501 -0.00000000000E+00  0.00000000000E+00  0.34679515061E+03  0.34679515061E+03  0.00000000000E+00 0.  1.
          2   -1    0    0  501    0  0.00000000000E+00 -0.00000000000E+00 -0.76683902821E+02  0.76683902821E+02  0.00000000000E+00 0. -1.
         23    2    1    2    0    0  0.79721114977E+02 -0.58024882164E+02  0.23416883828E+03  0.28320385331E+03  0.12508810727E+03 0.  0.
          5    1    3    3  502    0 -0.20831605816E+02 -0.48169186054E+02  0.11785441673E+03  0.12907889924E+03  0.41800000000E+01 0.  1.
         -5    1    3    3    0  502  0.10055272079E+03 -0.98556961099E+01  0.11631442155E+03  0.15412495406E+03  0.41800000000E+01 0.  1.
        -11    1    1    2    0    0 -0.72618399738E+02  0.80768644565E+02  0.17215977121E+02  0.10996997678E+03  0.00000000000E+00 0. -1.
         11    1    1    2    0    0 -0.71027152398E+01 -0.22743762402E+02  0.18726432386E+02  0.30305223343E+02  0.00000000000E+00 0.  1.
</event>
<event>
 7    1  0.4394360E-006  0.1504145E+03  0.7561462E-02  0.1199965E+00
         -4   -1    0    0    0  501 -0.00000000000E+00  0.00000000000E+00  0.86043828509E+03  0.86043828509E+03  0.00000000000E+00 0. -1.
          4   -1    0    0  501    0  0.00000000000E+00 -0.00000000000E+00 -0.61332052177E+02  0.61332052177E+02  0.00000000000E+00 0.  1.
         23    2    1    2    0    0 -0.48311490679E+02 -0.13654683029E+03  0.69642045125E+03  0.72223802398E+03  0.12508909376E+03 0.  0.
          5    1    3    3  502    0 -0.12081964433E+02 -0.11032026196E+03  0.24993657734E+03  0.27350008986E+03  0.41800000000E+01 0.  1.
         -5    1    3    3    0  502 -0.36229526246E+02 -0.26226568331E+02  0.44648387391E+03  0.44873793412E+03  0.41800000000E+01 0.  1.
        -11    1    1    2    0    0  0.34030698996E+02  0.94063502267E+02  0.15124749560E+02  0.10116713390E+03  0.00000000000E+00 0.  1.
         11    1    1    2    0    0  0.14280791682E+02  0.42483328024E+02  0.87561032107E+02  0.98365179381E+02  0.00000000000E+00 0. -1.
</event>
<event>
 7    1  0.4394360E-006  0.1075042E+03  0.7561462E-02  0.1265263E+00
         -2   -1    0    0    0  501 -0.00000000000E+00  0.00000000000E+00  0.66058390591E+02  0.66058390591E+02  0.00000000000E+00 0.  1.
          2   -1    0    0  501    0  0.00000000000E+00 -0.00000000000E+00 -0.33606049985E+03  0.33606049985E+03  0.00000000000E+00 0. -1.
         23    2    1    2    0    0 -0.33251103530E+02 -0.61435709488E+02 -0.50059013964E+02  0.15175244773E+03  0.12507165237E+03 0.  0.
          5    1    3    3  502    0  0.28012321481E+02  0.26153521707E+01  0.23185814922E+02  0.36695839483E+02  0.41800000000E+01 0.  1.
         -5    1    3    3    0  502 -0.61263425011E+02 -0.64051061659E+02 -0.73244828886E+02  0.11505660825E+03  0.41800000000E+01 0.  1.
        -11    1    1    2    0    0 -0.20108898328E+02  0.29325914563E+02 -0.19674002154E+02  0.40637955382E+02  0.00000000000E+00 0.  1.
         11    1    1    2    0    0  0.53360001858E+02  0.32109794926E+02 -0.20026909315E+03  0.20972848733E+03  0.00000000000E+00 0. -1.
</event>
<event>
 7    1  0.4394360E-006  0.1169207E+03  0.7561462E-02  0.1248265E+00
          1   -1    0    0  501    0  0.00000000000E+00  0.00000000000E+00  0.19471004436E+03  0.19471004436E+03  0.00000000000E+00 0. -1.
         -1   -1    0    0    0  501 -0.00000000000E+00 -0.00000000000E+00 -0.10208962109E+03  0.10208962109E+03  0.00000000000E+00 0.  1.
         23    2    1    2    0    0  0.84328731571E+02  0.28615004517E+02  0.51454553060E+02  0.16194273467E+03  0.12509086629E+03 0.  0.
          5    1    3    3  502    0  0.57134266810E+02  0.59675126234E+02 -0.14537464667E+02  0.83989614917E+02  0.41800000000E+01 0. -1.
         -5    1    3    3    0  502  0.27194464761E+02 -0.31060121717E+02  0.65992017728E+02  0.77953119748E+02  0.41800000000E+01 0. -1.
        -11    1    1    2    0    0 -0.24778873447E+02  0.20715294213E+02 -0.18468523993E+02  0.37204870140E+02  0.00000000000E+00 0.  1.
         11    1    1    2    0    0 -0.59549858125E+02 -0.49330298730E+02  0.59634394211E+02  0.97652060646E+02  0.00000000000E+00 0. -1.
</event>
<event>
 7    1  0.4394360E-006  0.1106006E+03  0.7561462E-02  0.1259462E+00
          1   -1    0    0  501    0  0.00000000000E+00  0.00000000000E+00  0.30357186772E+03  0.30357186772E+03  0.00000000000E+00 0. -1.
         -1   -1    0    0    0  501 -0.00000000000E+00 -0.00000000000E+00 -0.62998506994E+02  0.62998506994E+02  0.00000000000E+00 0.  1.
         23    2    1    2    0    0  0.76801454973E+02 -0.18019134251E+02  0.83248950012E+02  0.16970810737E+03  0.12508917357E+03 0.  0.
          5    1    3    3  502    0  0.41214592788E+02 -0.53713168949E+02  0.96002393980E+02  0.11754862495E+03  0.41800000000E+01 0.  1.
         -5    1    3    3    0  502  0.35586862184E+02  0.35694034699E+02 -0.12753443969E+02  0.52159482419E+02  0.41800000000E+01 0.  1.
        -11    1    1    2    0    0 -0.81625727696E+02  0.32250474415E+02  0.15912898056E+03  0.18172750198E+03  0.00000000000E+00 0. -1.
         11    1    1    2    0    0  0.48242727231E+01 -0.14231340165E+02 -0.18045698510E+01  0.15134765361E+02  0.00000000000E+00 0.  1.
</event>
<event>
 7    1  0.4394360E-006  0.1111061E+03  0.7561462E-02  0.1258535E+00
         -3   -1    0    0    0  501 -0.00000000000E+00  0.00000000000E+00  0.69291432776E+03  0.69291432776E+03  0.00000000000E+00 0.  1.
          3   -1    0    0  501    0  0.00000000000E+00 -0.00000000000E+00 -0.30173636410E+02  0.30173636410E+02  0.00000000000E+00 0. -1.
         23    2    1    2    0    0  0.29320103569E+01 -0.75922356129E+02  0.51146067917E+03  0.53233277949E+03  0.12654390910E+03 0.  0.
          5    1    3    3  502    0 -0.26357206295E+01  0.26572872305E+02  0.24932138257E+03  0.25078215402E+03  0.41800000000E+01 0. -1.
         -5    1    3    3    0  502  0.55677309864E+01 -0.10249522843E+03  0.26213929660E+03  0.28155062547E+03  0.41800000000E+01 0.  1.
        -11    1    1    2    0    0  0.22755788563E+02  0.17746979761E+02  0.11278288601E+03  0.11641632437E+03  0.00000000000E+00 0.  1.
         11    1    1    2    0    0 -0.25687798920E+02  0.58175376368E+02  0.38497126166E+02  0.74338860309E+02  0.00000000000E+00 0. -1.
</event>
<event>
 7    1  0.4394360E-006  0.9951656E+02  0.7561462E-02  0.1281316E+00
         -3   -1    0    0    0  501 -0.00000000000E+00  0.00000000000E+00  0.15623994761E+03  0.15623994761E+03  0.00000000000E+00 0.  1.
          3   -1    0    0  501    0  0.00000000000E+00 -0.00000000000E+00 -0.10905064083E+03  0.10905064083E+03  0.00000000000E+00 0. -1.
         23    2    1    2    0    0 -0.48067402493E+02  0.32777162291E+02  0.70585509291E+02  0.15496491240E+03  0.12508793868E+03 0.  0.
          5    1    3    3  502    0 -0.65480626300E+02  0.64998467312E+02  0.73430976583E+02  0.11799192301E+03  0.41800000000E+01 0.  1.
         -5    1    3    3    0  502  0.17413223807E+02 -0.32221305021E+02 -0.28454672918E+01  0.36972989393E+02  0.41800000000E+01 0.  1.
        -11    1    1    2    0    0  0.16258920278E+02  0.79798678415E+01  0.30607012048E+02  0.35564307471E+02  0.00000000000E+00 0.  1.
         11    1    1    2    0    0  0.31808482214E+02 -0.40757030133E+02 -0.54003214563E+02  0.74761368561E+02  0.00000000000E+00 0. -1.
</event>
<event>
 6    1  0.4394360E-006  0.9283621E+02  0.7561462E-02  0.1296125E+00
          1   -1    0    0  501    0  0.00000000000E+00  0.00000000000E+00  0.13078790734E+03  0.13078790734E+03  0.00000000000E+00 0. -1.
         -1   -1    0    0    0  501 -0.00000000000E+00 -0.00000000000E+00 -0.24378199151E+03  0.24378199151E+03  0.00000000000E+00 0.  1.
          5    1    1    2  502    0  0.23626271720E+01 -0.21487557014E+02  0.30699645906E+02  0.37778800567E+02  0.41800000000E+01 0. -1.
         -5    1    1    2    0  502 -0.17693606329E+02  0.64222619611E+02 -0.20879445970E+03  0.21920357519E+03  0.41800000000E+01 0.  1.
        -11    1    1    2    0    0  0.39458678291E+02 -0.56663726153E+02  0.53754756292E+02  0.87506222510E+02  0.00000000000E+00 0. -1.
         11    1    1    2    0    0 -0.24127699135E+02  0.13928663556E+02  0.11345973332E+02  0.30081300584E+02  0.00000000000E+00 0.  1.
</event>
<event>
 7    1  0.4394360E-006  0.2477124E+03  0.7561462E-02  0.1114759E+00
          1   -1    0    0  501    0  0.00000000000E+00  0.00000000000E+00  0.10485996115E+04  0.10485996115E+04  0.00000000000E+00 0. -1.
         -1   -1    0    0    0  501 -0.00000000000E+00 -0.00000000000E+00 -0.63978092264E+02  0.63978092264E+02  0.00000000000E+00 0.  1.
         23    2    1    2    0    0 -0.90954241087E+02 -0.21166476809E+03  0.37641637104E+03  0.45870505672E+03  0.12508555733E+03 0.  0.
          5    1    3    3  502    0 -0.18619217260E+02 -0.17944657914E+03  0.28869706675E+03  0.34045736703E+03  0.41800000000E+01 0. -1.
         -5    1    3    3    0  502 -0.72335023828E+02 -0.32218188948E+02  0.87719304287E+02  0.11824768968E+03  0.41800000000E+01 0. -1.
        -11    1    1    2    0    0  0.64769565663E+02  0.88013011041E+02  0.34499658068E+03  0.36188952379E+03  0.00000000000E+00 0.  1.
         11    1    1    2    0    0  0.26184675425E+02  0.12365175705E+03  0.26320856748E+03  0.29198312321E+03  0.00000000000E+00 0. -1.
</event>
<event>
 6    1  0.4394360E-006  0.1235899E+03  0.7561462E-02  0.1237290E+00
          2   -1    0    0  501    0  0.00000000000E+00  0.00000000000E+00  0.46780456276E+02  0.46780456276E+02  0.00000000000E+00 0. -1.
         -2   -1    0    0    0  501 -0.00000000000E+00 -0.00000000000E+00 -0.41243206805E+03  0.41243206805E+03  0.00000000000E+00 0.  1.
          5    1    1    2  502    0 -0.14673933161E+02 -0.39814402709E+02 -0.14918962301E+02  0.45172544909E+02  0.41800000000E+01 0. -1.
         -5    1    1    2    0  502  0.30009224046E+02  0.93299691635E+02 -0.20268500446E+03  0.22517564126E+03  0.41800000000E+01 0.  1.
        -11    1    1    2    0    0  0.75275026441E+01  0.24263907075E+02 -0.77023536608E+02  0.81105028661E+02  0.00000000000E+00 0.  1.
         11    1    1    2    0    0 -0.22862793529E+02 -0.77749196001E+02 -0.71024108407E+02  0.10775930949E+03  0.00000000000E+00 0. -1.
</event>
<event>
 7    1  0.4394360E-006  0.1014839E+03  0.7561462E-02  0.1277206E+00
         -1   -1    0    0    0  501 -0.00000000000E+00  0.00000000000E+00  0.13963418597E+03  0.13963418597E+03  0.00000000000E+00 0.  1.
          1   -1    0    0  501    0  0.00000000000E+00 -0.00000000000E+00 -0.14328528346E+03  0.14328528346E+03  0.00000000000E+00 0. -1.
         23    2    1    2    0    0  0.72893146646E+02  0.53709493280E+02 -0.71032896354E+00  0.15442588356E+03  0.12509487779E+03 0.  0.
          5    1    3    3  502    0  0.40168509752E+02  0.59554386851E+02  0.54210893913E+02  0.90091773141E+02  0.41800000000E+01 0. -1.
         -5    1    3    3    0  502  0.32724636894E+02 -0.58448935705E+01 -0.54921222876E+02  0.64334110415E+02  0.41800000000E+01 0. -1.
        -11    1    1    2    0    0 -0.41597170577E+02 -0.83948562188E+01  0.40263503128E+02  0.58497417850E+02  0.00000000000E+00 0.  1.
         11    1    1    2    0    0 -0.31295976069E+02 -0.45314637061E+02 -0.43204271653E+02  0.69996168032E+02  0.00000000000E+00 0. -1.
</event>
<event>
 7    1  0.4394360E-006  0.1002391E+03  0.7561462E-02  0.1279794E+00
          2   -1    0    0  501    0  0.00000000000E+00  0.00000000000E+00  0.58573228689E+03  0.58573228689E+03  0.00000000000E+00 0. -1.
         -2   -1    0    0    0  501 -0.00000000000E+00 -0.00000000000E+00 -0.29450529813E+02  0.29450529813E+02  0.00000000000E+00 0.  1.
         23    2    1    2    0    0 -0.29626453603E+00 -0.15504719716E+02  0.13773807232E+03  0.18670137053E+03  0.12508053840E+03 0.  0.
          5    1    3    3  502    0  0.60019733733E+01  0.46373360871E+02  0.15419842133E+02  0.49414129703E+02  0.41800000000E+01 0. -1.
         -5    1    3    3    0  502 -0.62982379093E+01 -0.61878080587E+02  0.12231823019E+03  0.13728724083E+03  0.41800000000E+01 0. -1.
        -11    1    1    2    0    0 -0.40711059312E+02 -0.11241635990E+02  0.21746405076E+03  0.22152737552E+03  0.00000000000E+00 0. -1.
         11    1    1    2    0    0  0.41007323848E+02  0.26746355706E+02  0.20107963400E+03  0.20695407065E+03  0.00000000000E+00 0.  1.
</event>
<event>
 7    1  0.7013206E-006  0.2591304E+03  0.7561462E-02  0.1107667E+00
          1   -1    0    0  501    0  0.00000000000E+00  0.00000000000E+00  0.35898045268E+03  0.35898045268E+03  0.00000000000E+00 0. -1.
         -1   -1    0    0    0  501 -0.00000000000E+00 -0.00000000000E+00 -0.19788364631E+03  0.19788364631E+03  0.00000000000E+00 0.  1.
         23    2    1    2    0    0 -0.23094691764E+03 -0.65543539374E+02  0.41937023818E+02  0.27393121750E+03  0.12508862312E+03 0.  0.
          5    1    3    3  502    0 -0.33413348108E+02  0.34385895077E+02 -0.21392161700E+01  0.48175618915E+02  0.41800000000E+01 0. -1.
         -5    1    3    3    0  502 -0.19753356953E+03 -0.99929434451E+02  0.44076239988E+02  0.22575559859E+03  0.41800000000E+01 0. -1.
        -11    1    1    2    0    0  0.15095029288E+03  0.74303316358E+02  0.46611352014E+02  0.17458405391E+03  0.00000000000E+00 0.  1.
         11    1    1    2    0    0  0.79996624761E+02 -0.87597769844E+01  0.72548430538E+02  0.10834882759E+03  0.00000000000E+00 0. -1.
</event>
<event>
 7    1  0.4394360E-006  0.1066779E+03  0.7561462E-02  0.1266849E+00
          2   -1    0    0  501    0  0.00000000000E+00  0.00000000000E+00  0.15231523891E+03  0.15231523891E+03  0.00000000000E+00 0. -1.
         -2   -1    0    0    0  501 -0.00000000000E+00 -0.00000000000E+00 -0.12577930954E+03  0.12577930954E+03  0.00000000000E+00 0.  1.
         23    2    1    2    0    0  0.29651512696E+02  0.55585257192E+02 -0.40975110012E+02  0.14591962297E+03  0.12507855014E+03 0.  0.
          5    1    3    3  502    0 -0.11359626469E+02  0.87236218140E+02 -0.25253196806E+02  0.91620932203E+02  0.41800000000E+01 0.  1.
         -5    1    3    3    0  502  0.41011139165E+02 -0.31650960948E+02 -0.15721913206E+02  0.54298690770E+02  0.41800000000E+01 0.  1.
        -11    1    1    2    0    0 -0.39605413667E+00 -0.40302102282E+02  0.85544001442E+02  0.94563166666E+02  0.00000000000E+00 0. -1.
         11    1    1    2    0    0 -0.29255458559E+02 -0.15283154910E+02 -0.18032962062E+02  0.37611758803E+02  0.00000000000E+00 0.  1.
</event>
<event>
 7    1  0.4394360E-006  0.1209057E+03  0.7561462E-02  0.1241610E+00
          2   -1    0    0  501    0  0.00000000000E+00  0.00000000000E+00  0.31553442253E+03  0.31553442253E+03  0.00000000000E+00 0.  1.
         -2   -1    0    0    0  501 -0.00000000000E+00 -0.00000000000E+00 -0.73608429996E+02  0.73608429996E+02  0.00000000000E+00 0. -1.
         23    2    1    2    0    0 -0.10477126989E+03  0.10623972778E+01  0.10631957803E+03  0.19475592717E+03  0.12509144979E+03 0.  0.
          5    1    3    3  502    0 -0.54075016614E+02 -0.39377484741E+00 -0.20597045156E+02  0.58017007417E+02  0.41800000000E+01 0.  1.
         -5    1    3    3    0  502 -0.50696253279E+02  0.14561721253E+01  0.12691662319E+03  0.13673891975E+03  0.41800000000E+01 0.  1.
        -11    1    1    2    0    0  0.12065416982E+03  0.10719081216E+01  0.13010656333E+03  0.17744378125E+03  0.00000000000E+00 0.  1.
         11    1    1    2    0    0 -0.15882899923E+02 -0.21343053994E+01  0.54998511740E+01  0.16943144114E+02  0.00000000000E+00 0. -1.
</event>
<event>
 7    1  0.4394360E-006  0.9468648E+02  0.7561462E-02  0.1291884E+00
         -3   -1    0    0    0  501 -0.00000000000E+00  0.00000000000E+00  0.15237542175E+02  0.15237542175E+02  0.00000000000E+00 0.  1.
          3   -1    0    0  501    0  0.00000000000E+00 -0.00000000000E+00 -0.92756161198E+03  0.92756161198E+03  0.00000000000E+00 0. -1.
         23    2    1    2    0    0 -0.91172363377E+01 -0.46695361887E+02 -0.52435835883E+03  0.54116769430E+03  0.12508878471E+03 0.  0.
          5    1    3    3  502    0 -0.58069895451E+01 -0.65549267912E+02 -0.12496967353E+03  0.14129868843E+03  0.41800000000E+01 0. -1.
         -5    1    3    3    0  502 -0.33102467926E+01  0.18853906026E+02 -0.39938868530E+03  0.39986900587E+03  0.41800000000E+01 0. -1.
        -11    1    1    2    0    0 -0.26283341602E+02 -0.16764662415E+02 -0.11167860794E+03  0.11594817559E+03  0.00000000000E+00 0.  1.
         11    1    1    2    0    0  0.35400577939E+02  0.63460024302E+02 -0.27628710303E+03  0.28568328426E+03  0.00000000000E+00 0. -1.
</event>
<event>
 7    1  0.4394360E-006  0.1107627E+03  0.7561462E-02  0.1259164E+00
          2   -1    0    0  501    0  0.00000000000E+00  0.00000000000E+00  0.53294354425E+02  0.53294354425E+02  0.00000000000E+00 0. -1.
         -2   -1    0    0    0  501 -0.00000000000E+00 -0.00000000000E+00 -0.28996941410E+03  0.28996941410E+03  0.00000000000E+00 0.  1.
         23    2    1    2    0    0 -0.33266060253E+02  0.20483772325E+02 -0.19325289921E+03  0.23349570907E+03  0.12508935770E+03 0.  0.
          5    1    3    3  502    0 -0.43900841167E+02  0.65815071248E+02 -0.15081537484E+03  0.17035743937E+03  0.41800000000E+01 0.  1.
         -5    1    3    3    0  502  0.10634780914E+02 -0.45331298923E+02 -0.42437524368E+02  0.63138269707E+02  0.41800000000E+01 0.  1.
        -11    1    1    2    0    0 -0.23013141038E+02  0.16404418727E+02 -0.29879464615E+02  0.41127752429E+02  0.00000000000E+00 0.  1.
         11    1    1    2    0    0  0.56279201291E+02 -0.36888191052E+02 -0.13542695847E+02  0.68640307020E+02  0.00000000000E+00 0. -1.
</event>
<event>
 7    1  0.4394360E-006  0.1062540E+03  0.7561462E-02  0.1267668E+00
         -2   -1    0    0    0  501 -0.00000000000E+00  0.00000000000E+00  0.74363000376E+02  0.74363000376E+02  0.00000000000E+00 0.  1.
          2   -1    0    0  501    0  0.00000000000E+00 -0.00000000000E+00 -0.20730894630E+03  0.20730894630E+03  0.00000000000E+00 0. -1.
         23    2    1    2    0    0 -0.54431870428E+01 -0.26088544178E+02 -0.12569869666E+02  0.12851653536E+03  0.12509299666E+03 0.  0.
          5    1    3    3  502    0 -0.42764859973E+02 -0.58522915221E+02 -0.25984368159E+02  0.77113064024E+02  0.41800000000E+01 0. -1.
         -5    1    3    3    0  502  0.37321672930E+02  0.32434371043E+02  0.13414498493E+02  0.51403471333E+02  0.41800000000E+01 0. -1.
        -11    1    1    2    0    0 -0.27992194021E+02  0.44153509396E+02 -0.91666720984E+02  0.10552669356E+03  0.00000000000E+00 0. -1.
         11    1    1    2    0    0  0.33435381064E+02 -0.18064965217E+02 -0.28709355277E+02  0.47628717762E+02  0.00000000000E+00 0.  1.
</event>
<event>
 7    1  0.4394360E-006  0.1410885E+03  0.7561462E-02  0.1211872E+00
         -1   -1    0    0    0  501 -0.00000000000E+00  0.00000000000E+00  0.24856879898E+03  0.24856879898E+03  0.00000000000E+00 0.  1.
          1   -1    0    0  501    0  0.00000000000E+00 -0.00000000000E+00 -0.10390400747E+03  0.10390400747E+03  0.00000000000E+00 0. -1.
         23    2    1    2    0    0  0.51387427209E+02  0.90594362578E+02  0.13615271114E+03  0.21221008156E+03  0.12509017451E+03 0.  0.
          5    1    3    3  502    0  0.17005872685E+02 -0.30496409057E+02  0.17947068854E+02  0.39481645756E+02  0.41800000000E+01 0. -1.
         -5    1    3    3    0  502  0.34381554525E+02  0.12109077163E+03  0.11820564229E+03  0.17272843580E+03  0.41800000000E+01 0. -1.
        -11    1    1    2    0    0 -0.66479229730E+01 -0.72499125842E+02  0.39580205651E+02  0.82866825733E+02  0.00000000000E+00 0.  1.
         11    1    1    2    0    0 -0.44739504236E+02 -0.18095236736E+02 -0.31068125287E+02  0.57395899163E+02  0.00000000000E+00 0. -1.
</event>
<event>
 6    1  0.4394360E-006  0.1719131E+03  0.7561462E-02  0.1175867E+00
          1   -1    0    0  501    0  0.00000000000E+00  0.00000000000E+00  0.32318152942E+03  0.32318152942E+03  0.00000000000E+00 0. -1.
         -1   -1    0    0    0  501 -0.00000000000E+00 -0.00000000000E+00 -0.21325888864E+03  0.21325888864E+03  0.00000000000E+00 0.  1.
          5    1    1    2  502    0 -0.31338455403E+02 -0.11351997913E+03  0.16977760769E+02  0.11905713422E+03  0.41800000000E+01 0. -1.
         -5    1    1    2    0  502  0.10400881440E+03  0.30855736565E+02 -0.11937891454E+03  0.16136513747E+03  0.41800000000E+01 0.  1.
        -11    1    1    2    0    0 -0.17431373655E+02  0.50661025763E+02  0.26976124323E+02  0.59984194604E+02  0.00000000000E+00 0.  1.
         11    1    1    2    0    0 -0.55238985341E+02  0.32003216802E+02  0.18534767022E+03  0.19603395177E+03  0.00000000000E+00 0. -1.
</event>
<event>
 7    1  0.4394360E-006  0.1084800E+03  0.7561462E-02  0.1263411E+00
          1   -1    0    0  501    0  0.00000000000E+00  0.00000000000E+00  0.14216537040E+03  0.14216537040E+03  0.00000000000E+00 0. -1.
         -1   -1    0    0    0  501 -0.00000000000E+00 -0.00000000000E+00 -0.12679017297E+03  0.12679017297E+03  0.00000000000E+00 0.  1.
         23    2    1    2    0    0 -0.43042385716E+02 -0.48302512407E+02 -0.43143915839E+02  0.14245309087E+03  0.11935537672E+03 0.  0.
          5    1    3    3  502    0 -0.31498096327E+02 -0.79699290766E+02  0.23475642516E+01  0.85831756820E+02  0.41800000000E+01 0. -1.
         -5    1    3    3    0  502 -0.11544289389E+02  0.31396778359E+02 -0.45491480091E+02  0.56621334051E+02  0.41800000000E+01 0.  1.
        -11    1    1    2    0    0 -0.16668941959E+02  0.31138036762E+02  0.53584592285E+02  0.64177406381E+02  0.00000000000E+00 0. -1.
         11    1    1    2    0    0  0.59711327675E+02  0.17164475646E+02  0.49345209850E+01  0.62325046123E+02  0.00000000000E+00 0.  1.
</event>
<event>
 7    1  0.4394360E-006  0.1502916E+03  0.7561462E-02  0.1200115E+00
         -3   -1    0    0    0  501 -0.00000000000E+00  0.00000000000E+00  0.14017744533E+03  0.14017744533E+03  0.00000000000E+00 0.  1.
          3   -1    0    0  501    0  0.00000000000E+00 -0.00000000000E+00 -0.33165588492E+03  0.33165588492E+03  0.00000000000E+00 0. -1.
         23    2    1    2    0    0 -0.74227902930E+02  0.10349643008E+03  0.49100155989E+02  0.18514833753E+03  0.12509112263E+03 0.  0.
          5    1    3    3  502    0 -0.88511978264E+02  0.11115700255E+03  0.69932393821E+02  0.15842430880E+03  0.41800000000E+01 0.  1.
         -5    1    3    3    0  502  0.14284075334E+02 -0.76605724723E+01 -0.20832237832E+02  0.26724028736E+02  0.41800000000E+01 0.  1.
        -11    1    1    2    0    0  0.45253814352E+02 -0.13619747266E+02 -0.30198698628E+02  0.56083568251E+02  0.00000000000E+00 0.  1.
         11    1    1    2    0    0  0.28974088578E+02 -0.89876682815E+02 -0.21037989695E+03  0.23060142446E+03  0.00000000000E+00 0. -1.
</event>
<event>
 7    1  0.4394360E-006  0.8727145E+02  0.7561462E-02  0.1309597E+00
         -2   -1    0    0    0  501 -0.00000000000E+00  0.00000000000E+00  0.11636791066E+03  0.11636791066E+03  0.00000000000E+00 0. -1.
          2   -1    0    0  501    0  0.00000000000E+00 -0.00000000000E+00 -0.11292112233E+03  0.11292112233E+03  0.00000000000E+00 0.  1.
         23    2    1    2    0    0 -0.14567784344E+02 -0.66446639962E+01  0.36273515894E+02  0.13122443919E+03  0.12509082135E+03 0.  0.
          5    1    3    3  502    0 -0.63919157167E+02  0.20879065085E+02  0.78362980428E+01  0.67826793959E+02  0.41800000000E+01 0. -1.
         -5    1    3    3    0  502  0.49351372823E+02 -0.27523729081E+02  0.28437217851E+02  0.63397645234E+02  0.41800000000E+01 0. -1.
        -11    1    1    2    0    0 -0.14776107572E+02  0.13893743115E+02  0.25373444032E+02  0.32483551450E+02  0.00000000000E+00 0. -1.
         11    1    1    2    0    0  0.29343891916E+02 -0.72490791193E+01 -0.58200171597E+02  0.65581042343E+02  0.00000000000E+00 0.  1.
</event>
<event>
 7    1  0.4394360E-006  0.3399610E+03  0.7561462E-02  0.1066813E+00
          2   -1    0    0  501    0  0.00000000000E+00  0.00000000000E+00  0.27155505397E+03  0.27155505397E+03  0.00000000000E+00 0. -1.
         -2   -1    0    0    0  501 -0.00000000000E+00 -0.00000000000E+00 -0.82787142160E+03  0.82787142160E+03  0.00000000000E+00 0.  1.
         23    2    1    2    0    0  0.26255148519E+03 -0.20413350820E+03 -0.65108638567E+03  0.74173086823E+03  0.12508967877E+03 0.  0.
          5    1    3    3  502    0  0.20194443636E+03 -0.11947878702E+03 -0.54327845409E+03  0.59179868790E+03  0.41800000000E+01 0.  1.
         -5    1    3    3    0  502  0.60607048834E+02 -0.84654721180E+02 -0.10780793158E+03  0.14993218033E+03  0.41800000000E+01 0.  1.
        -11    1    1    2    0    0 -0.17950072558E+03  0.92573418962E+02  0.29668862852E+02  0.20413375470E+03  0.00000000000E+00 0.  1.
         11    1    1    2    0    0 -0.83050759608E+02  0.11156008923E+03  0.65101155185E+02  0.15356185264E+03  0.00000000000E+00 0. -1.
</event>
<event>
 7    1  0.4394360E-006  0.1467745E+03  0.7561462E-02  0.1204493E+00
         -1   -1    0    0    0  501 -0.00000000000E+00  0.00000000000E+00  0.32116606332E+02  0.32116606332E+02  0.00000000000E+00 0.  1.
          1   -1    0    0  501    0  0.00000000000E+00 -0.00000000000E+00 -0.87317003259E+03  0.87317003259E+03  0.00000000000E+00 0. -1.
         23    2    1    2    0    0 -0.97663572911E+02 -0.55421289633E+02 -0.28706009788E+03  0.33265713259E+03  0.12509026840E+03 0.  0.
          5    1    3    3  502    0 -0.64282283267E+02  0.24991460382E+02 -0.68232865271E+02  0.97108090997E+02  0.41800000000E+01 0.  1.
         -5    1    3    3    0  502 -0.33381289643E+02 -0.80412750015E+02 -0.21882723261E+03  0.23554904160E+03  0.41800000000E+01 0.  1.
        -11    1    1    2    0    0 -0.12122463498E+02 -0.35940131772E+01 -0.16035159536E+02  0.20420514032E+02  0.00000000000E+00 0.  1.
         11    1    1    2    0    0  0.10978603641E+03  0.59015302810E+02 -0.53795816883E+03  0.55220899229E+03  0.00000000000E+00 0. -1.
</event>
<event>
 7    1  0.4394360E-006  0.1297055E+03  0.7561462E-02  0.1227893E+00
         -1   -1    0    0    0  501 -0.00000000000E+00  0.00000000000E+00  0.23676009867E+03  0.23676009867E+03  0.00000000000E+00 0.  1.
          1   -1    0    0  501    0  0.00000000000E+00 -0.00000000000E+00 -0.10233118745E+03  0.10233118745E+03  0.00000000000E+00 0. -1.
         23    2    1    2    0    0 -0.91290022196E+02 -0.52619189316E+02  0.13724628422E+03  0.21346888222E+03  0.12501909417E+03 0.  0.
          5    1    3    3  502    0 -0.37873667481E+02 -0.76860276348E+02  0.29498045794E+02  0.90716723234E+02  0.41800000000E+01 0. -1.
         -5    1    3    3    0  502 -0.53416354715E+02  0.24241087031E+02  0.10774823842E+03  0.12275215898E+03  0.41800000000E+01 0. -1.
        -11    1    1    2    0    0  0.69267512738E+02  0.14464458491E+02  0.23189491179E+02  0.74464497457E+02  0.00000000000E+00 0.  1.
         11    1    1    2    0    0  0.22022509458E+02  0.38154730825E+02 -0.26006864186E+02  0.51157906446E+02  0.00000000000E+00 0. -1.
</event>
<event>
 7    1  0.4394360E-006  0.1064650E+03  0.7561462E-02  0.1267260E+00
          4   -1    0    0  501    0  0.00000000000E+00  0.00000000000E+00  0.34650073540E+03  0.34650073540E+03  0.00000000000E+00 0. -1.
         -4   -1    0    0    0  501 -0.00000000000E+00 -0.00000000000E+00 -0.38845974600E+02  0.38845974600E+02  0.00000000000E+00 0.  1.
         23    2    1    2    0    0  0.31952101489E+02 -0.23493404278E+02  0.15184378229E+03  0.20068115249E+03  0.12507403371E+03 0.  0.
          5    1    3    3  502    0 -0.30967822552E+02  0.29636607510E+02  0.26245950280E+02  0.50434678985E+02  0.41800000000E+01 0. -1.
         -5    1    3    3    0  502  0.62919924041E+02 -0.53130011787E+02  0.12559783201E+03  0.15024647350E+03  0.41800000000E+01 0. -1.
        -11    1    1    2    0    0  0.25468558957E+02  0.14434333533E+02  0.99558995929E+02  0.10377374981E+03  0.00000000000E+00 0. -1.
         11    1    1    2    0    0 -0.57420660446E+02  0.90590707443E+01  0.56251982582E+02  0.80891807702E+02  0.00000000000E+00 0.  1.
</event>
<event>
 7    1  0.4394360E-006  0.1610525E+03  0.7561462E-02  0.1187514E+00
         -2   -1    0    0    0  501 -0.00000000000E+00  0.00000000000E+00  0.62788425313E+02  0.62788425313E+02  0.00000000000E+00 0. -1.
          2   -1    0    0  501    0  0.00000000000E+00 -0.00000000000E+00 -0.55522112229E+03  0.55522112229E+03  0.00000000000E+00 0.  1.
         23    2    1    2    0    0 -0.13066981463E+03 -0.47339092594E+01 -0.12994088636E+03  0.22268138876E+03  0.12492140169E+03 0.  0.
          5    1    3    3  502    0 -0.28177348331E+02 -0.57269753604E+02 -0.32422390445E+02  0.71711027318E+02  0.41800000000E+01 0. -1.
         -5    1    3    3    0  502 -0.10249246630E+03  0.52535844345E+02 -0.97518495913E+02  0.15097036144E+03  0.41800000000E+01 0. -1.
        -11    1    1    2    0    0  0.66953491377E+02 -0.26408848050E+02 -0.26607448284E+03  0.27563713045E+03  0.00000000000E+00 0.  1.
         11    1    1    2    0    0  0.63716323255E+02  0.31142757310E+02 -0.96417327776E+02  0.11969102839E+03  0.00000000000E+00 0. -1.
</event>
<event>
 7    1  0.4394360E-006  0.9873505E+02  0.7561462E-02  0.1282979E+00
         -1   -1    0    0    0  501 -0.00000000000E+00  0.00000000000E+00  0.72161427070E+02  0.72161427070E+02  0.00000000000E+00 0.  1.
          1   -1    0    0  501    0  0.00000000000E+00 -0.00000000000E+00 -0.19338104519E+03  0.19338104519E+03  0.00000000000E+00 0. -1.
         23    2    1    2    0    0 -0.24986800754E+02 -0.17272500595E+02 -0.35716976112E+02  0.13359031025E+03  0.12509192269E+03 0.  0.
          5    1    3    3  502    0 -0.50334949348E+02  0.17854388854E+02  0.24814066777E+02  0.59038941702E+02  0.41800000000E+01 0. -1.
         -5    1    3    3    0  502  0.25348148594E+02 -0.35126889449E+02 -0.60531042889E+02  0.74551368551E+02  0.41800000000E+01 0. -1.
        -11    1    1    2    0    0  0.46293873800E+02 -0.25312450623E+02 -0.48182568114E+02  0.71452101285E+02  0.00000000000E+00 0.  1.
         11    1    1    2    0    0 -0.21307073046E+02  0.42584951218E+02 -0.37320073894E+02  0.60500060723E+02  0.00000000000E+00 0. -1.
</event>
<event>
 7    1  0.4394360E-006  0.9381942E+02  0.7561462E-02  0.1293857E+00
          1   -1    0    0  501    0  0.00000000000E+00  0.00000000000E+00  0.92513665760E+03  0.92513665760E+03  0.00000000000E+00 0. -1.
         -1   -1    0    0    0  501 -0.00000000000E+00 -0.00000000000E+00 -0.17879614067E+02  0.17879614067E+02  0.00000000000E+00 0.  1.
         23    2    1    2    0    0 -0.58914169626E+02 -0.20649828422E+02  0.39579413290E+03  0.41975930644E+03  0.12509030701E+03 0.  0.
          5    1    3    3  502    0 -0.16988799318E+02 -0.32525314027E+02  0.36347479762E+03  0.36534629635E+03  0.41800000000E+01 0.  1.
         -5    1    3    3    0  502 -0.41925370308E+02  0.11875485605E+02  0.32319335283E+02  0.54413010089E+02  0.41800000000E+01 0.  1.
        -11    1    1    2    0    0 -0.21475885928E+02 -0.58989553260E+01  0.61725343367E+02  0.65620342609E+02  0.00000000000E+00 0.  1.
         11    1    1    2    0    0  0.80390055554E+02  0.26548783748E+02  0.44973756727E+03  0.45763662262E+03  0.00000000000E+00 0. -1.
</event>
<event>
 7    1  0.4394360E-006  0.1506239E+03  0.7561462E-02  0.1199708E+00
         -2   -1    0    0    0  501 -0.00000000000E+00  0.00000000000E+00  0.77236910226E+02  0.77236910226E+02  0.00000000000E+00 0.  1.
          2   -1    0    0  501    0  0.00000000000E+00 -0.00000000000E+00 -0.34667522558E+03  0.34667522558E+03  0.00000000000E+00 0. -1.
         23    2    1    2    0    0  0.87752452146E+02  0.65262089174E+02 -0.75052589641E+02  0.18231817949E+03  0.12508954480E+03 0.  0.
          5    1    3    3  502    0 -0.14427336535E+02  0.56759689490E+02 -0.48925281768E+02  0.76426212693E+02  0.41800000000E+01 0.  1.
         -5    1    3    3    0  502  0.10217978868E+03  0.85023996841E+01 -0.26127307874E+02  0.10589196680E+03  0.41800000000E+01 0.  1.
        -11    1    1    2    0    0 -0.45663941289E+02 -0.82611550039E+02 -0.15458119704E+03  0.18112208648E+03  0.00000000000E+00 0.  1.
         11    1    1    2    0    0 -0.42088510857E+02  0.17349460865E+02 -0.39804528679E+02  0.60471869839E+02  0.00000000000E+00 0. -1.
</event>
<event>
 7    1  0.4394360E-006  0.1040804E+03  0.7561462E-02  0.1271942E+00
          1   -1    0    0  501    0  0.00000000000E+00  0.00000000000E+00  0.56058392821E+03  0.56058392821E+03  0.00000000000E+00 0. -1.
         -1   -1    0    0    0  501 -0.00000000000E+00 -0.00000000000E+00 -0.31573515350E+02  0.31573515350E+02  0.00000000000E+00 0.  1.
         23    2    1    2    0    0  0.59747681255E+02 -0.55602524004E+02  0.26320632324E+03  0.30263315955E+03  0.12509130495E+03 0.  0.
          5    1    3    3  502    0  0.16710304575E+02 -0.53489720363E+02  0.25161908101E+03  0.25781780154E+03  0.41800000000E+01 0.  1.
         -5    1    3    3    0  502  0.43037376681E+02 -0.21128036410E+01  0.11587242232E+02  0.44815358007E+02  0.41800000000E+01 0.  1.
        -11    1    1    2    0    0  0.10093343997E+01  0.47348621646E+02  0.71390702717E+02  0.85671133774E+02  0.00000000000E+00 0.  1.
         11    1    1    2    0    0 -0.60757015655E+02  0.82539023575E+01  0.19441338690E+03  0.20385315024E+03  0.00000000000E+00 0. -1.
</event>
<event>
 7    1  0.4394360E-006  0.9112328E+02  0.7561462E-02  0.1300154E+00
         -2   -1    0    0    0  501 -0.00000000000E+00  0.00000000000E+00  0.39936154904E+02  0.39936154904E+02  0.00000000000E+00 0.  1.
          2   -1    0    0  501    0  0.00000000000E+00 -0.00000000000E+00 -0.32038421984E+03  0.32038421984E+03  0.00000000000E+00 0. -1.
         23    2    1    2    0    0 -0.13344202768E+02  0.25334398232E+01 -0.11243465636E+03  0.16874237046E+03  0.12509176460E+03 0.  0.
          5    1    3    3  502    0  0.10269413812E+02 -0.58295641094E+02 -0.64663912472E+02  0.87765235753E+02  0.41800000000E+01 0.  1.
         -5    1    3    3    0  502 -0.23613616580E+02  0.60829080917E+02 -0.47770743888E+02  0.80977134704E+02  0.41800000000E+01 0.  1.
        -11    1    1    2    0    0 -0.10305536408E+02 -0.23661046018E+02 -0.15527100440E+03  0.15740118801E+03  0.00000000000E+00 0. -1.
         11    1    1    2    0    0  0.23649739176E+02  0.21127606195E+02 -0.12742404172E+02  0.34176816275E+02  0.00000000000E+00 0.  1.
</event>
<event>
 7    1  0.4394360E-006  0.1274280E+03  0.7561462E-02  0.1231323E+00
          3   -1    0    0  501    0  0.00000000000E+00  0.00000000000E+00  0.16626248031E+03  0.16626248031E+03  0.00000000000E+00 0. -1.
         -3   -1    0    0    0  501 -0.00000000000E+00 -0.00000000000E+00 -0.14827979677E+03  0.14827979677E+03  0.00000000000E+00 0.  1.
         23    2    1    2    0    0  0.99563300851E+02 -0.12287314828E+02 -0.44161221747E+02  0.16634095523E+03  0.12512102501E+03 0.  0.
          5    1    3    3  502    0  0.40891331435E+02 -0.61549344785E+02  0.66594913685E+01  0.74311802934E+02  0.41800000000E+01 0. -1.
         -5    1    3    3    0  502  0.58671969416E+02  0.49262029957E+02 -0.50820713116E+02  0.92029152296E+02  0.41800000000E+01 0. -1.
        -11    1    1    2    0    0 -0.60590517057E+02  0.21105112516E+02 -0.10767882657E+02  0.65058310987E+02  0.00000000000E+00 0.  1.
         11    1    1    2    0    0 -0.38972783794E+02 -0.88177976883E+01  0.72911787945E+02  0.83143010855E+02  0.00000000000E+00 0. -1.
</event>
<event>
 7    1  0.4394360E-006  0.1221407E+03  0.7561462E-02  0.1239607E+00
          1   -1    0    0  501    0  0.00000000000E+00  0.00000000000E+00  0.53813235803E+02  0.53813235803E+02  0.00000000000E+00 0.  1.
         -1   -1    0    0    0  501 -0.00000000000E+00 -0.00000000000E+00 -0.10124233926E+04  0.10124233926E+04  0.00000000000E+00 0. -1.
         23    2    1    2    0    0 -0.22858982880E+02  0.83151603473E+02 -0.92438387753E+03  0.93678649549E+03  0.12508662133E+03 0.  0.
          5    1    3    3  502    0  0.38423389957E+02  0.66024701551E+02 -0.31865881430E+03  0.32771409863E+03  0.41800000000E+01 0.  1.
         -5    1    3    3    0  502 -0.61282372837E+02  0.17126901922E+02 -0.60572506323E+03  0.60907239686E+03  0.41800000000E+01 0.  1.
        -11    1    1    2    0    0  0.31341988833E+02 -0.13980578349E+02  0.21259462999E+02  0.40370058236E+02  0.00000000000E+00 0.  1.
         11    1    1    2    0    0 -0.84830059528E+01 -0.69171025124E+02 -0.55485742223E+02  0.89080074633E+02  0.00000000000E+00 0. -1.
</event>
<event>
 7    1  0.4394360E-006  0.8687787E+02  0.7561462E-02  0.1310593E+00
         -1   -1    0    0    0  501 -0.00000000000E+00  0.00000000000E+00  0.26936731178E+03  0.26936731178E+03  0.00000000000E+00 0.  1.
          1   -1    0    0  501    0  0.00000000000E+00 -0.00000000000E+00 -0.49186232192E+02  0.49186232192E+02  0.00000000000E+00 0. -1.
         23    2    1    2    0    0 -0.13959494830E+02 -0.31927635121E+02  0.13287776231E+03  0.18579000499E+03  0.12508870794E+03 0.  0.
          5    1    3    3  502    0 -0.69358112444E+02 -0.24066160784E+02  0.70127201008E+02  0.10161212810E+03  0.41800000000E+01 0.  1.
         -5    1    3    3    0  502  0.55398617614E+02 -0.78614743373E+01  0.62750561305E+02  0.84177876882E+02  0.41800000000E+01 0.  1.
        -11    1    1    2    0    0  0.19424764121E+02  0.10667520653E+02  0.10326902420E+03  0.10562011559E+03  0.00000000000E+00 0.  1.
         11    1    1    2    0    0 -0.54652692912E+01  0.21260114469E+02 -0.15965706930E+02  0.27143423391E+02  0.00000000000E+00 0. -1.
</event>
<event>
 7    1  0.4394360E-006  0.2346037E+03  0.7561462E-02  0.1123441E+00
         -1   -1    0    0    0  501 -0.00000000000E+00  0.00000000000E+00  0.15138442907E+03  0.15138442907E+03  0.00000000000E+00 0.  1.
          1   -1    0    0  501    0  0.00000000000E+00 -0.00000000000E+00 -0.42761548138E+03  0.42761548138E+03  0.00000000000E+00 0. -1.
         23    2    1    2    0    0  0.18809796264E+03  0.88396703443E+02 -0.30939907693E+02  0.24456933788E+03  0.12514816185E+03 0.  0.
          5    1    3    3  502    0  0.17175441866E+03  0.11786556781E+03 -0.22354122050E+02  0.20954486769E+03  0.41800000000E+01 0. -1.
         -5    1    3    3    0  502  0.16343543981E+02 -0.29468864366E+02 -0.85857856436E+01  0.35024470189E+02  0.41800000000E+01 0. -1.
        -11    1    1    2    0    0 -0.15658246088E+03 -0.28407060683E+02 -0.18116789180E+03  0.24113654467E+03  0.00000000000E+00 0. -1.
         11    1    1    2    0    0 -0.31515501760E+02 -0.59989642759E+02 -0.64123252812E+02  0.93294027894E+02  0.00000000000E+00 0.  1.
</event>
<event>
 7    1  0.4394360E-006  0.1207682E+03  0.7561462E-02  0.1241835E+00
         -2   -1    0    0    0  501 -0.00000000000E+00  0.00000000000E+00  0.14522945492E+03  0.14522945492E+03  0.00000000000E+00 0.  1.
          2   -1    0    0  501    0  0.00000000000E+00 -0.00000000000E+00 -0.14356992115E+03  0.14356992115E+03  0.00000000000E+00 0. -1.
         23    2    1    2    0    0 -0.72950126880E+02  0.16780221982E+02  0.59902059177E+02  0.15760590919E+03  0.12509224220E+03 0.  0.
          5    1    3    3  502    0 -0.10664368740E+03  0.25105629136E+02  0.53771336453E+02  0.12211469076E+03  0.41800000000E+01 0. -1.
         -5    1    3    3    0  502  0.33693560518E+02 -0.83254071536E+01  0.61307227241E+01  0.35491218431E+02  0.41800000000E+01 0. -1.
        -11    1    1    2    0    0  0.67856469854E+02 -0.36168413873E+02 -0.82542477800E+01  0.77335549843E+02  0.00000000000E+00 0.  1.
         11    1    1    2    0    0  0.50936570253E+01  0.19388191890E+02 -0.49988277630E+02  0.53857917032E+02  0.00000000000E+00 0. -1.
</event>
<event>
 7    1  0.4394360E-006  0.8543399E+02  0.7561462E-02  0.1314302E+00
         -2   -1    0    0    0  501 -0.00000000000E+00  0.00000000000E+00  0.20684205624E+03  0.20684205624E+03  0.00000000000E+00 0.  1.
          2   -1    0    0  501    0  0.00000000000E+00 -0.00000000000E+00 -0.71087791430E+02  0.71087791430E+02  0.00000000000E+00 0. -1.
         23    2    1    2    0    0 -0.55277976153E+01 -0.48823494161E+02  0.12601829937E+03  0.17454505905E+03  0.11032259847E+03 0.  0.
          5    1    3    3  502    0  0.18395315645E+02  0.30968036797E+02  0.49472391783E+02  0.61338380232E+02  0.41800000000E+01 0. -1.
         -5    1    3    3    0  502 -0.23923113260E+02 -0.79791530958E+02  0.76545907589E+02  0.11320667882E+03  0.41800000000E+01 0.  1.
        -11    1    1    2    0    0 -0.49364406070E+01  0.14424342328E+02  0.48306065306E+02  0.50654773150E+02  0.00000000000E+00 0.  1.
         11    1    1    2    0    0  0.10464238222E+02  0.34399151833E+02 -0.38570099863E+02  0.52730015473E+02  0.00000000000E+00 0. -1.
</event>
<event>
 7    1  0.4394360E-006  0.1461515E+03  0.7561462E-02  0.1205283E+00
          2   -1    0    0  501    0  0.00000000000E+00  0.00000000000E+00  0.12920474730E+04  0.12920474730E+04  0.00000000000E+00 0.  1.
         -2   -1    0    0    0  501 -0.00000000000E+00 -0.00000000000E+00 -0.18779662757E+02  0.18779662757E+02  0.00000000000E+00 0. -1.
         23    2    1    2    0    0 -0.91369008289E+02  0.51515206179E+02  0.51924672246E+03  0.54430400928E+03  0.12509030170E+03 0.  0.
          5    1    3    3  502    0  0.18256974780E+00 -0.31312820478E+02  0.19075492884E+03  0.19335315186E+03  0.41800000000E+01 0.  1.
         -5    1    3    3    0  502 -0.91551578037E+02  0.82828026657E+02  0.32849179363E+03  0.35095085742E+03  0.41800000000E+01 0.  1.
        -11    1    1    2    0    0 -0.17684191154E+02 -0.35046719524E+01  0.75768344233E+02  0.77883601163E+02  0.00000000000E+00 0. -1.
         11    1    1    2    0    0  0.10905319944E+03 -0.48010534227E+02  0.67825274356E+03  0.68863952533E+03  0.00000000000E+00 0.  1.
</event>
<event>
 7    1  0.4394360E-006  0.1228753E+03  0.7561462E-02  0.1238428E+00
          2   -1    0    0  501    0  0.00000000000E+00  0.00000000000E+00  0.75760943875E+03  0.75760943875E+03  0.00000000000E+00 0. -1.
         -2   -1    0    0    0  501 -0.00000000000E+00 -0.00000000000E+00 -0.23778001972E+02  0.23778001972E+02  0.00000000000E+00 0.  1.
         23    2    1    2    0    0  0.64024948077E+02  0.32963202591E+02  0.30988785388E+03  0.34185379822E+03  0.12509104953E+03 0.  0.
          5    1    3    3  502    0  0.83153475511E+02 -0.15186432238E+02  0.24186778830E+03  0.25624720024E+03  0.41800000000E+01 0.  1.
         -5    1    3    3    0  502 -0.19128527433E+02  0.48149634829E+02  0.68020065581E+02  0.85606597979E+02  0.41800000000E+01 0.  1.
        -11    1    1    2    0    0 -0.49998550802E+02  0.20373277521E+02  0.13540684169E+03  0.14577358573E+03  0.00000000000E+00 0.  1.
         11    1    1    2    0    0 -0.14026397275E+02 -0.53336480112E+02  0.28853674120E+03  0.29376005677E+03  0.00000000000E+00 0. -1.
</event>
<event>
 7    1  0.4394360E-006  0.9672266E+02  0.7561462E-02  0.1287343E+00
         -1   -1    0    0    0  501 -0.00000000000E+00  0.00000000000E+00  0.99481681092E+02  0.99481681092E+02  0.00000000000E+00 0.  1.
          1   -1    0    0  501    0  0.00000000000E+00 -0.00000000000E+00 -0.22138164266E+03  0.22138164266E+03  0.00000000000E+00 0. -1.
         23    2    1    2    0    0 -0.60344944281E+02  0.24793413607E+02  0.18072047217E+02  0.14223245502E+03  0.12508895520E+03 0.  0.
          5    1    3    3  502    0  0.24718830954E+02  0.21755009773E+02 -0.29695498107E+02  0.44537580331E+02  0.41800000000E+01 0.  1.
         -5    1    3    3    0  502 -0.85063775235E+02  0.30384038340E+01  0.47767545324E+02  0.97694874693E+02  0.41800000000E+01 0.  1.
        -11    1    1    2    0    0  0.51368665455E+02 -0.29931437169E+01 -0.18172303042E+02  0.54570425120E+02  0.00000000000E+00 0.  1.
         11    1    1    2    0    0  0.89762788257E+01 -0.21800269890E+02 -0.12179970574E+03  0.12406044360E+03  0.00000000000E+00 0. -1.
</event>
<event>
 7    1  0.4394360E-006  0.3108437E+03  0.7561462E-02  0.1079942E+00
         -1   -1    0    0    0  501 -0.00000000000E+00  0.00000000000E+00  0.10796409236E+04  0.10796409236E+04  0.00000000000E+00 0.  1.
          1   -1    0    0  501    0  0.00000000000E+00 -0.00000000000E+00 -0.92607562005E+02  0.92607562005E+02  0.00000000000E+00 0. -1.
         23    2    1    2    0    0 -0.32225730159E+01  0.29502431690E+03  0.44171936032E+03  0.54572295532E+03  0.12509123927E+03 0.  0.
          5    1    3    3  502    0  0.49805316572E+02  0.23369775534E+03  0.31922389785E+03  0.39876882998E+03  0.41800000000E+01 0.  1.
         -5    1    3    3    0  502 -0.53027889588E+02  0.61326561566E+02  0.12249546247E+03  0.14695412534E+03  0.41800000000E+01 0.  1.
        -11    1    1    2    0    0 -0.20122872443E+02 -0.34381514081E+02  0.35004480574E+02  0.53031426212E+02  0.00000000000E+00 0.  1.
         11    1    1    2    0    0  0.23345445459E+02 -0.26064280282E+03  0.51030952071E+03  0.57349410408E+03  0.00000000000E+00 0. -1.
</event>
<event>
 7    1  0.4394360E-006  0.9936600E+02  0.7561462E-02  0.1281635E+00
         -1   -1    0    0    0  501 -0.00000000000E+00  0.00000000000E+00  0.57194135056E+02  0.57194135056E+02  0.00000000000E+00 0.  1.
          1   -1    0    0  501    0  0.00000000000E+00 -0.00000000000E+00 -0.25174309457E+03  0.25174309457E+03  0.00000000000E+00 0. -1.
         23    2    1    2    0    0 -0.22252365725E+01  0.46004009588E+02 -0.87362774053E+02  0.15937727629E+03  0.12509013283E+03 0.  0.
          5    1    3    3  502    0 -0.47052860488E+02  0.34661561383E+02 -0.95694729654E+02  0.11220672529E+03  0.41800000000E+01 0. -1.
         -5    1    3    3    0  502  0.44827623915E+02  0.11342448205E+02  0.83319556010E+01  0.47170550996E+02  0.41800000000E+01 0. -1.
        -11    1    1    2    0    0  0.49332170791E+01  0.23572543418E+02 -0.30296600663E+01  0.24273035946E+02  0.00000000000E+00 0.  1.
         11    1    1    2    0    0 -0.27079805066E+01 -0.69576553006E+02 -0.10415652540E+03  0.12528691739E+03  0.00000000000E+00 0. -1.
</event>
<event>
 7    1  0.4394360E-006  0.8272917E+02  0.7561462E-02  0.1321480E+00
          1   -1    0    0  501    0  0.00000000000E+00  0.00000000000E+00  0.65414062699E+03  0.65414062699E+03  0.00000000000E+00 0. -1.
         -1   -1    0    0    0  501 -0.00000000000E+00 -0.00000000000E+00 -0.23249604380E+02  0.23249604380E+02  0.00000000000E+00 0.  1.
         23    2    1    2    0    0 -0.55342782182E+02 -0.13406596621E+02  0.38622861582E+03  0.40995743156E+03  0.12509992663E+03 0.  0.
          5    1    3    3  502    0 -0.22424940405E+02 -0.48729836809E+01  0.11463992001E+01  0.23354026489E+02  0.41800000000E+01 0.  1.
         -5    1    3    3    0  502 -0.32917841777E+02 -0.85336129405E+01  0.38508221662E+03  0.38660340508E+03  0.41800000000E+01 0.  1.
        -11    1    1    2    0    0 -0.13276876904E+02  0.33775705860E+02  0.76598273569E+02  0.84760658801E+02  0.00000000000E+00 0. -1.
         11    1    1    2    0    0  0.68619659086E+02 -0.20369109239E+02  0.16806413322E+03  0.18267214100E+03  0.00000000000E+00 0.  1.
</event>
<event>
 7    1  0.4394360E-006  0.5837792E+02  0.7561462E-02  0.1404768E+00
          1   -1    0    0  501    0  0.00000000000E+00  0.00000000000E+00  0.94744826708E+02  0.94744826708E+02  0.00000000000E+00 0. -1.
         -1   -1    0    0    0  501 -0.00000000000E+00 -0.00000000000E+00 -0.15068432188E+03  0.15068432188E+03  0.00000000000E+00 0.  1.
         23    2    1    2    0    0 -0.18940719598E+02 -0.39617456762E+02 -0.58851753617E+02  0.14504885377E+03  0.12508935741E+03 0.  0.
          5    1    3    3  502    0  0.55982315476E+01 -0.19019691411E+02 -0.94668458376E+02  0.96812593546E+02  0.41800000000E+01 0.  1.
         -5    1    3    3    0  502 -0.24538951145E+02 -0.20597765351E+02  0.35816704759E+02  0.48236260226E+02  0.41800000000E+01 0.  1.
        -11    1    1    2    0    0  0.34434929130E+02  0.22701925788E+02  0.39556890301E+02  0.57147960147E+02  0.00000000000E+00 0. -1.
         11    1    1    2    0    0 -0.15494209532E+02  0.16915530974E+02 -0.36644631851E+02  0.43232334666E+02  0.00000000000E+00 0.  1.
</event>
<event>
 7    1  0.4394360E-006  0.9309514E+02  0.7561462E-02  0.1295525E+00
         -1   -1    0    0    0  501 -0.00000000000E+00  0.00000000000E+00  0.31425041758E+02  0.31425041758E+02  0.00000000000E+00 0.  1.
          1   -1    0    0  501    0  0.00000000000E+00 -0.00000000000E+00 -0.66224749255E+03  0.66224749255E+03  0.00000000000E+00 0. -1.
         23    2    1    2    0    0  0.59327645822E+01  0.27009934160E+02 -0.13064265084E+03  0.18297526008E+03  0.12509080440E+03 0.  0.
          5    1    3    3  502    0  0.20516064930E+02  0.51380250668E+02 -0.14172943607E+03  0.15220231446E+03  0.41800000000E+01 0. -1.
         -5    1    3    3    0  502 -0.14583300347E+02 -0.24370316508E+02  0.11086785226E+02  0.30772945624E+02  0.41800000000E+01 0. -1.
        -11    1    1    2    0    0 -0.31014766112E+02  0.27847314887E+02 -0.16862730895E+03  0.17370249851E+03  0.00000000000E+00 0.  1.
         11    1    1    2    0    0  0.25082001530E+02 -0.54857249047E+02 -0.33155249100E+03  0.33699477572E+03  0.00000000000E+00 0. -1.
</event>
<event>
 6    1  0.4394360E-006  0.1480606E+03  0.7561462E-02  0.1202877E+00
          2   -1    0    0  501    0  0.00000000000E+00  0.00000000000E+00  0.50457277972E+02  0.50457277972E+02  0.00000000000E+00 0. -1.
         -2   -1    0    0    0  501 -0.00000000000E+00 -0.00000000000E+00 -0.79704189421E+03  0.79704189421E+03  0.00000000000E+00 0.  1.
          5    1    1    2  502    0 -0.50685887131E+02  0.11853425771E+03 -0.16917271588E+03  0.21273530408E+03  0.41800000000E+01 0. -1.
         -5    1    1    2    0  502  0.24822665128E+02 -0.30643851060E+02 -0.45459431364E+03  0.45632080021E+03  0.41800000000E+01 0.  1.
        -11    1    1    2    0    0  0.51601766252E+02 -0.87683518254E+02 -0.84354356621E+02  0.13216201850E+03  0.00000000000E+00 0.  1.
         11    1    1    2    0    0 -0.25738544249E+02 -0.20688839116E+00 -0.38463230089E+02  0.46281049381E+02  0.00000000000E+00 0. -1.
</event>
<event>
 7    1  0.4394360E-006  0.1351573E+03  0.7561462E-02  0.1219998E+00
         -1   -1    0    0    0  501 -0.00000000000E+00  0.00000000000E+00  0.10831931097E+04  0.10831931097E+04  0.00000000000E+00 0.  1.
          1   -1    0    0  501    0  0.00000000000E+00 -0.00000000000E+00 -0.44939901308E+02  0.44939901308E+02  0.00000000000E+00 0. -1.
         23    2    1    2    0    0 -0.11129196612E+03  0.29102734572E+02  0.93245060863E+03  0.94778852185E+03  0.12492427196E+03 0.  0.
          5    1    3    3  502    0 -0.10076541303E+03  0.88180538924E+01  0.33682710780E+03  0.35171209744E+03  0.41800000000E+01 0. -1.
         -5    1    3    3    0  502 -0.10526553097E+02  0.20284680679E+02  0.59562350083E+03  0.59607642441E+03  0.41800000000E+01 0.  1.
        -11    1    1    2    0    0  0.95818297659E+02 -0.58755368068E+02  0.85452171980E+02  0.14119282255E+03  0.00000000000E+00 0. -1.
         11    1    1    2    0    0  0.15473668464E+02  0.29652633497E+02  0.20350427814E+02  0.39151666647E+02  0.00000000000E+00 0.  1.
</event>
<event>
 7    1  0.4394360E-006  0.9408046E+02  0.7561462E-02  0.1293261E+00
         -1   -1    0    0    0  501 -0.00000000000E+00  0.00000000000E+00  0.12840778030E+03  0.12840778030E+03  0.00000000000E+00 0.  1.
          1   -1    0    0  501    0  0.00000000000E+00 -0.00000000000E+00 -0.16039368202E+03  0.16039368202E+03  0.00000000000E+00 0. -1.
         23    2    1    2    0    0 -0.81628732686E+01  0.91014476230E+02  0.10863837799E+01  0.15491534032E+03  0.12508922837E+03 0.  0.
          5    1    3    3  502    0 -0.12406988628E+02  0.85937432126E+02 -0.51973515509E+02  0.10128126343E+03  0.41800000000E+01 0.  1.
         -5    1    3    3    0  502  0.42441153594E+01  0.50770441043E+01  0.53059899288E+02  0.53634076896E+02  0.41800000000E+01 0.  1.
        -11    1    1    2    0    0  0.14167840427E+02 -0.74439383948E+02  0.19660386265E+02  0.78284611342E+02  0.00000000000E+00 0.  1.
         11    1    1    2    0    0 -0.60049671581E+01 -0.16575092282E+02 -0.52732671769E+02  0.55601510651E+02  0.00000000000E+00 0. -1.
</event>
<event>
 7    1  0.4394360E-006  0.1528406E+03  0.7561462E-02  0.1197025E+00
          2   -1    0    0  501    0  0.00000000000E+00  0.00000000000E+00  0.11945576761E+03  0.11945576761E+03  0.00000000000E+00 0. -1.
         -2   -1    0    0    0  501 -0.00000000000E+00 -0.00000000000E+00 -0.31930807001E+03  0.31930807001E+03  0.00000000000E+00 0.  1.
         23    2    1    2    0    0  0.10752069739E+03  0.85838398627E+02 -0.20026524977E+03  0.27328151314E+03  0.12509070354E+03 0.  0.
          5    1    3    3  502    0  0.22560619358E+02 -0.20932238519E+02 -0.17468719247E+00  0.31058703625E+02  0.41800000000E+01 0. -1.
         -5    1    3    3    0  502  0.84960078031E+02  0.10677063715E+03 -0.20009056258E+03  0.24222280951E+03  0.41800000000E+01 0. -1.
        -11    1    1    2    0    0 -0.74364055074E+02 -0.66283392255E+02  0.42626014249E+02  0.10835348572E+03  0.00000000000E+00 0. -1.
         11    1    1    2    0    0 -0.33156642315E+02 -0.19555006373E+02 -0.42213066874E+02  0.57128838766E+02  0.00000000000E+00 0.  1.
</event>
<event>
 6    1  0.4394360E-006  0.9664551E+02  0.7561462E-02  0.1287512E+00
          1   -1    0    0  501    0  0.00000000000E+00  0.00000000000E+00  0.33309654131E+03  0.33309654131E+03  0.00000000000E+00 0. -1.
         -1   -1    0    0    0  501 -0.00000000000E+00 -0.00000000000E+00 -0.48198686279E+02  0.48198686279E+02  0.00000000000E+00 0.  1.
          5    1    1    2  502    0  0.52780100749E+02  0.21759357732E+02  0.15761991329E+03  0.16769233182E+03  0.41800000000E+01 0. -1.
         -5    1    1    2    0  502 -0.18417173445E+01 -0.45440964149E+02 -0.24480241944E+01  0.45735526323E+02  0.41800000000E+01 0.  1.
        -11    1    1    2    0    0  0.10590615755E+02 -0.14507397001E+02  0.74937077025E+02  0.77059660153E+02  0.00000000000E+00 0. -1.
         11    1    1    2    0    0 -0.61528999159E+02  0.38189003419E+02  0.54788888906E+02  0.90807709294E+02  0.00000000000E+00 0.  1.
</event>
<event>
 7    1  0.4394360E-006  0.1551860E+03  0.7561462E-02  0.1194241E+00
         -1   -1    0    0    0  501 -0.00000000000E+00  0.00000000000E+00  0.35007829994E+02  0.35007829994E+02  0.00000000000E+00 0.  1.
          1   -1    0    0  501    0  0.00000000000E+00 -0.00000000000E+00 -0.95761267559E+03  0.95761267559E+03  0.00000000000E+00 0. -1.
         23    2    1    2    0    0 -0.12508633362E+03 -0.74883100641E+02 -0.54212946732E+03  0.57515566210E+03  0.12508239961E+03 0.  0.
          5    1    3    3  502    0 -0.89412947820E+02 -0.52658219920E+02 -0.51405196914E+03  0.52443728199E+03  0.41800000000E+01 0. -1.
         -5    1    3    3    0  502 -0.35673385801E+02 -0.22224880720E+02 -0.28077498187E+02  0.50718380120E+02  0.41800000000E+01 0. -1.
        -11    1    1    2    0    0  0.67577411520E+02 -0.27934199174E+01 -0.99326310618E+02  0.12016749029E+03  0.00000000000E+00 0.  1.
         11    1    1    2    0    0  0.57508922101E+02  0.77676520558E+02 -0.28114906766E+03  0.29729735319E+03  0.00000000000E+00 0. -1.
</event>
<event>
 7    1  0.4394360E-006  0.1017869E+03  0.7561462E-02  0.1276583E+00
          2   -1    0    0  501    0  0.00000000000E+00  0.00000000000E+00  0.12067596654E+03  0.12067596654E+03  0.00000000000E+00 0. -1.
         -2   -1    0    0    0  501 -0.00000000000E+00 -0.00000000000E+00 -0.18010552261E+03  0.18010552261E+03  0.00000000000E+00 0.  1.
         23    2    1    2    0    0 -0.21391821988E+02 -0.38932753850E+02 -0.11558881767E+03  0.17532441275E+03  0.12411488857E+03 0.  0.
          5    1    3    3  502    0 -0.15988833469E+02 -0.67782434081E+02 -0.16222090172E+02  0.71629112624E+02  0.41800000000E+01 0. -1.
         -5    1    3    3    0  502 -0.54029885191E+01  0.28849680232E+02 -0.99366727501E+02  0.10369530013E+03  0.41800000000E+01 0.  1.
        -11    1    1    2    0    0  0.58951115334E+02  0.21482753474E+02  0.55912455401E+02  0.84041331289E+02  0.00000000000E+00 0.  1.
         11    1    1    2    0    0 -0.37559293346E+02  0.17450000376E+02  0.24680620515E+00  0.41415745111E+02  0.00000000000E+00 0. -1.
</event>
<event>
 6    1  0.4394360E-006  0.1007457E+03  0.7561462E-02  0.1278736E+00
         -1   -1    0    0    0  501 -0.00000000000E+00  0.00000000000E+00  0.29937052806E+03  0.29937052806E+03  0.00000000000E+00 0.  1.
          1   -1    0    0  501    0  0.00000000000E+00 -0.00000000000E+00 -0.46269519217E+02  0.46269519217E+02  0.00000000000E+00 0. -1.
          5    1    1    2  502    0  0.26300375812E+02  0.49867973704E+02  0.21189179370E+02  0.60373655609E+02  0.41800000000E+01 0. -1.
         -5    1    1    2    0  502 -0.10756869792E+02 -0.55827277137E+02  0.15354150781E+03  0.16378297268E+03  0.41800000000E+01 0.  1.
        -11    1    1    2    0    0 -0.37587745865E+02 -0.28411958290E+02  0.61077171976E+02  0.77139477245E+02  0.00000000000E+00 0.  1.
         11    1    1    2    0    0  0.22044239845E+02  0.34371261723E+02  0.17293149685E+02  0.44343941738E+02  0.00000000000E+00 0. -1.
</event>
<event>
 7    1  0.4394360E-006  0.1163541E+03  0.7561462E-02  0.1249236E+00
          2   -1    0    0  501    0  0.00000000000E+00  0.00000000000E+00  0.19562984700E+03  0.19562984700E+03  0.00000000000E+00 0. -1.
         -2   -1    0    0    0  501 -0.00000000000E+00 -0.00000000000E+00 -0.78020492021E+02  0.78020492021E+02  0.00000000000E+00 0.  1.
         23    2    1    2    0    0  0.41811867389E+02  0.29704350834E+02  0.33354127210E+02  0.13925170182E+03  0.12509179807E+03 0.  0.
          5    1    3    3  502    0 -0.30735302879E+02  0.49107086349E+02  0.26137457207E+02  0.63693043906E+02  0.41800000000E+01 0. -1.
         -5    1    3    3    0  502  0.72547170268E+02 -0.19402735516E+02  0.72166700030E+01  0.75558657911E+02  0.41800000000E+01 0. -1.
        -11    1    1    2    0    0 -0.68145274821E+02 -0.25421643118E+02  0.40766166870E+02  0.83378167290E+02  0.00000000000E+00 0.  1.
         11    1    1    2    0    0  0.26333407433E+02 -0.42827077152E+01  0.43489060901E+02  0.51020469916E+02  0.00000000000E+00 0. -1.
</event>
<event>
 7    1  0.4394360E-006  0.1459070E+03  0.7561462E-02  0.1205595E+00
         -2   -1    0    0    0  501 -0.00000000000E+00  0.00000000000E+00  0.80752216405E+02  0.80752216405E+02  0.00000000000E+00 0.  1.
          2   -1    0    0  501    0  0.00000000000E+00 -0.00000000000E+00 -0.27297014577E+03  0.27297014577E+03  0.00000000000E+00 0. -1.
         23    2    1    2    0    0 -0.92571125131E+02  0.39663045140E+02 -0.92122680011E+02  0.18513924607E+03  0.12508949558E+03 0.  0.
          5    1    3    3  502    0 -0.66619005546E+02 -0.39174432629E+02 -0.41298071208E+02  0.87725316513E+02  0.41800000000E+01 0.  1.
         -5    1    3    3    0  502 -0.25952119586E+02  0.78837477769E+02 -0.50824608803E+02  0.97413929558E+02  0.41800000000E+01 0.  1.
        -11    1    1    2    0    0 -0.33949482285E-01 -0.38703277373E+02 -0.11390895672E+02  0.40344731207E+02  0.00000000000E+00 0.  1.
         11    1    1    2    0    0  0.92605074614E+02 -0.95976776706E+00 -0.88704353678E+02  0.12823838489E+03  0.00000000000E+00 0. -1.
</event>
<event>
 7    1  0.4394360E-006  0.2203848E+03  0.7561462E-02  0.1133597E+00
         -1   -1    0    0    0  501 -0.00000000000E+00  0.00000000000E+00  0.13534771874E+03  0.13534771874E+03  0.00000000000E+00 0.  1.
          1   -1    0    0  501    0  0.00000000000E+00 -0.00000000000E+00 -0.57107557454E+03  0.57107557454E+03  0.00000000000E+00 0. -1.
         23    2    1    2    0    0 -0.21789575942E+03 -0.25629482071E+02 -0.53938979061E+02  0.25824946751E+03  0.12509173307E+03 0.  0.
          5    1    3    3  502    0 -0.77527495972E+02 -0.10989546738E+02  0.40628139592E+02  0.88314216839E+02  0.41800000000E+01 0. -1.
         -5    1    3    3    0  502 -0.14036826344E+03 -0.14639935334E+02 -0.94567118653E+02  0.16993525067E+03  0.41800000000E+01 0. -1.
        -11    1    1    2    0    0  0.91083729511E+02  0.24602118134E+02 -0.91666041173E+02  0.13154532718E+03  0.00000000000E+00 0.  1.
         11    1    1    2    0    0  0.12681202990E+03  0.10273639373E+01 -0.29012283557E+03  0.31662849860E+03  0.00000000000E+00 0. -1.
</event>
<event>
 7    1  0.4394360E-006  0.1277529E+03  0.7561462E-02  0.1230829E+00
         -2   -1    0    0    0  501 -0.00000000000E+00  0.00000000000E+00  0.77118786445E+02  0.77118786445E+02  0.00000000000E+00 0.  1.
          2   -1    0    0  501    0  0.00000000000E+00 -0.00000000000E+00 -0.30873856423E+03  0.30873856423E+03  0.00000000000E+00 0. -1.
         23    2    1    2    0    0 -0.47044256358E+02  0.97072273574E+02 -0.10743955597E+03  0.19704548290E+03  0.12508987086E+03 0.  0.
          5    1    3    3  502    0 -0.36651365556E+02  0.11553764447E+03 -0.12117982836E+03  0.17144763950E+03  0.41800000000E+01 0.  1.
         -5    1    3    3    0  502 -0.10392890802E+02 -0.18465370893E+02  0.13740272398E+02  0.25597843406E+02  0.41800000000E+01 0.  1.
        -11    1    1    2    0    0  0.15282323372E+02 -0.67563485279E+02 -0.14359020166E+02  0.70742882404E+02  0.00000000000E+00 0.  1.
         11    1    1    2    0    0  0.31761932985E+02 -0.29508788294E+02 -0.10982120165E+03  0.11806898536E+03  0.00000000000E+00 0. -1.
</event>
<event>
 7    1  0.4394360E-006  0.1076046E+03  0.7561462E-02  0.1265071E+00
          1   -1    0    0  501    0  0.00000000000E+00  0.00000000000E+00  0.40829098567E+02  0.40829098567E+02  0.00000000000E+00 0. -1.
         -1   -1    0    0    0  501 -0.00000000000E+00 -0.00000000000E+00 -0.32162619624E+03  0.32162619624E+03  0.00000000000E+00 0.  1.
         23    2    1    2    0    0 -0.85594356356E+01 -0.21124300378E+02 -0.20252521898E+03  0.23913123529E+03  0.12509110025E+03 0.  0.
          5    1    3    3  502    0 -0.16160434766E+02  0.51043686383E+02 -0.73331952485E+02  0.90893702898E+02  0.41800000000E+01 0.  1.
         -5    1    3    3    0  502  0.76009991305E+01 -0.72167986761E+02 -0.12919326650E+03  0.14823753239E+03  0.41800000000E+01 0.  1.
        -11    1    1    2    0    0  0.47266180305E+02  0.15266945451E+02 -0.65381161000E+02  0.82108876729E+02  0.00000000000E+00 0.  1.
         11    1    1    2    0    0 -0.38706744669E+02  0.58573549273E+01 -0.12890717689E+02  0.41215182787E+02  0.00000000000E+00 0. -1.
</event>
<event>
 7    1  0.4394360E-006  0.1145801E+03  0.7561462E-02  0.1252316E+00
         -2   -1    0    0    0  501 -0.00000000000E+00  0.00000000000E+00  0.16553217642E+03  0.16553217642E+03  0.00000000000E+00 0.  1.
          2   -1    0    0  501    0  0.00000000000E+00 -0.00000000000E+00 -0.10859414883E+03  0.10859414883E+03  0.00000000000E+00 0. -1.
         23    2    1    2    0    0 -0.32066198009E+02  0.46718613513E+02  0.88804572759E+02  0.16239188346E+03  0.12358803246E+03 0.  0.
          5    1    3    3  502    0 -0.71351442446E+02 -0.12356148857E+01  0.32432348976E+02  0.78497673490E+02  0.41800000000E+01 0. -1.
         -5    1    3    3    0  502  0.39285244437E+02  0.47954228399E+02  0.56372223783E+02  0.83894209968E+02  0.41800000000E+01 0.  1.
        -11    1    1    2    0    0 -0.17875652997E+02  0.95840525982E+01 -0.30294229426E+02  0.36457281451E+02  0.00000000000E+00 0. -1.
         11    1    1    2    0    0  0.49941851006E+02 -0.56302666111E+02 -0.15723157415E+01  0.75277160347E+02  0.00000000000E+00 0.  1.
</event>
<event>
 7    1  0.4394360E-006  0.8080092E+02  0.7561462E-02  0.1326794E+00
         -1   -1    0    0    0  501 -0.00000000000E+00  0.00000000000E+00  0.14654563140E+03  0.14654563140E+03  0.00000000000E+00 0.  1.
          1   -1    0    0  501    0  0.00000000000E+00 -0.00000000000E+00 -0.99844185919E+02  0.99844185919E+02  0.00000000000E+00 0. -1.
         23    2    1    2    0    0 -0.45707442885E+01  0.50144647787E+02  0.29741527011E+02  0.13812609612E+03  0.12513545699E+03 0.  0.
          5    1    3    3  502    0 -0.25298925421E+02  0.33236741537E+02  0.74675608431E+02  0.85665836305E+02  0.41800000000E+01 0. -1.
         -5    1    3    3    0  502  0.20728181132E+02  0.16907906250E+02 -0.44934081420E+02  0.52460259815E+02  0.41800000000E+01 0. -1.
        -11    1    1    2    0    0  0.38657819222E+02 -0.10088575249E+02 -0.19309437052E+02  0.44374099391E+02  0.00000000000E+00 0. -1.
         11    1    1    2    0    0 -0.34087074933E+02 -0.40056072538E+02  0.36269355524E+02  0.63889621808E+02  0.00000000000E+00 0.  1.
</event>
<event>
 7    1  0.4394360E-006  0.1310261E+03  0.7561462E-02  0.1225941E+00
          3   -1    0    0  501    0  0.00000000000E+00  0.00000000000E+00  0.11048167133E+03  0.11048167133E+03  0.00000000000E+00 0. -1.
         -3   -1    0    0    0  501 -0.00000000000E+00 -0.00000000000E+00 -0.18466840239E+03  0.18466840239E+03  0.00000000000E+00 0.  1.
         23    2    1    2    0    0 -0.83530635464E+02 -0.38486682544E+02 -0.58038939284E+02  0.16575620923E+03  0.12509200866E+03 0.  0.
          5    1    3    3  502    0  0.26651075355E+02  0.14200048668E+02 -0.33226793408E-01  0.30485975526E+02  0.41800000000E+01 0.  1.
         -5    1    3    3    0  502 -0.11018171082E+03 -0.52686731212E+02 -0.58005712491E+02  0.13527023370E+03  0.41800000000E+01 0.  1.
        -11    1    1    2    0    0  0.86328863475E+02  0.17365336862E+02  0.17295405157E+02  0.89740507201E+02  0.00000000000E+00 0. -1.
         11    1    1    2    0    0 -0.27982280109E+01  0.21121345683E+02 -0.33443196936E+02  0.39653357294E+02  0.00000000000E+00 0.  1.
</event>
<event>
 7    1  0.4394360E-006  0.2477617E+03  0.7561462E-02  0.1114728E+00
         -1   -1    0    0    0  501 -0.00000000000E+00  0.00000000000E+00  0.86267755408E+02  0.86267755408E+02  0.00000000000E+00 0.  1.
          1   -1    0    0  501    0  0.00000000000E+00 -0.00000000000E+00 -0.10095714988E+04  0.10095714988E+04  0.00000000000E+00 0. -1.
         23    2    1    2    0    0  0.14954554567E+03  0.19558175309E+03 -0.24830580463E+03  0.37137791620E+03  0.12509872764E+03 0.  0.
          5    1    3    3  502    0  0.11587174458E+01  0.14466440406E+02 -0.83908137455E+02  0.85256486295E+02  0.41800000000E+01 0. -1.
         -5    1    3    3    0  502  0.14838682822E+03  0.18111531269E+03 -0.16439766718E+03  0.28612142991E+03  0.41800000000E+01 0. -1.
        -11    1    1    2    0    0 -0.35488985489E+02 -0.49581095634E+02 -0.75830763297E+02  0.97303945437E+02  0.00000000000E+00 0. -1.
         11    1    1    2    0    0 -0.11405656018E+03 -0.14600065746E+03 -0.59916717542E+03  0.62715739252E+03  0.00000000000E+00 0.  1.
</event>
<event>
 7    1  0.4394360E-006  0.1232835E+03  0.7561462E-02  0.1237777E+00
          1   -1    0    0  501    0  0.00000000000E+00  0.00000000000E+00  0.46347872701E+03  0.46347872701E+03  0.00000000000E+00 0. -1.
         -1   -1    0    0    0  501 -0.00000000000E+00 -0.00000000000E+00 -0.43004638159E+02  0.43004638159E+02  0.00000000000E+00 0.  1.
         23    2    1    2    0    0 -0.42323187949E+02 -0.76611478641E+02  0.27021004897E+03  0.31033689247E+03  0.12503977512E+03 0.  0.
          5    1    3    3  502    0 -0.80208739899E+02 -0.34316382145E+02  0.21015712397E+03  0.22758414970E+03  0.41800000000E+01 0.  1.
         -5    1    3    3    0  502  0.37885551950E+02 -0.42295096496E+02  0.60052925006E+02  0.82752742770E+02  0.41800000000E+01 0.  1.
        -11    1    1    2    0    0  0.14492778077E+02  0.72765820842E+02  0.15078078237E+03  0.16804686736E+03  0.00000000000E+00 0. -1.
         11    1    1    2    0    0  0.27830409872E+02  0.38456577986E+01 -0.51674248587E+00  0.28099605342E+02  0.00000000000E+00 0.  1.
</event>
<event>
 6    1  0.4394360E-006  0.9996989E+02  0.7561462E-02  0.1280359E+00
          4   -1    0    0  501    0  0.00000000000E+00  0.00000000000E+00  0.87536892368E+02  0.87536892368E+02  0.00000000000E+00 0. -1.
         -4   -1    0    0    0  501 -0.00000000000E+00 -0.00000000000E+00 -0.24622272859E+03  0.24622272859E+03  0.00000000000E+00 0.  1.
          5    1    1    2  502    0 -0.65623038108E+02  0.22175669399E+02 -0.61467197806E+01  0.69666333389E+02  0.41800000000E+01 0. -1.
         -5    1    1    2    0  502  0.56846819591E+02  0.24966359236E+02 -0.15508729719E+03  0.16710602066E+03  0.41800000000E+01 0.  1.
        -11    1    1    2    0    0  0.46823947292E+01  0.99928871337E+01 -0.29397128639E+02  0.31400219520E+02  0.00000000000E+00 0.  1.
         11    1    1    2    0    0  0.40938237876E+01 -0.57134915769E+02  0.31945309389E+02  0.65587047388E+02  0.00000000000E+00 0. -1.
</event>
<event>
 7    1  0.4394360E-006  0.2847233E+03  0.7561462E-02  0.1093137E+00
         -1   -1    0    0    0  501 -0.00000000000E+00  0.00000000000E+00  0.16045245099E+03  0.16045245099E+03  0.00000000000E+00 0.  1.
          1   -1    0    0  501    0  0.00000000000E+00 -0.00000000000E+00 -0.74846959899E+03  0.74846959899E+03  0.00000000000E+00 0. -1.
         23    2    1    2    0    0 -0.18811087110E+03 -0.19988978041E+03 -0.55146735122E+02  0.30217635062E+03  0.11370030933E+03 0.  0.
          5    1    3    3  502    0 -0.12973406866E+03 -0.61539529298E+02 -0.49185705884E+02  0.15183790140E+03  0.41800000000E+01 0. -1.
         -5    1    3    3    0  502 -0.58376802438E+02 -0.13835025111E+03 -0.59610292379E+01  0.15033844923E+03  0.41800000000E+01 0.  1.
        -11    1    1    2    0    0  0.17331365896E+03  0.17298444009E+03 -0.38914781311E+03  0.45977957908E+03  0.00000000000E+00 0.  1.
         11    1    1    2    0    0  0.14797212138E+02  0.26905340321E+02 -0.14372259977E+03  0.14696612028E+03  0.00000000000E+00 0. -1.
</event>
<event>
 7    1  0.4394360E-006  0.8722606E+02  0.7561462E-02  0.1309712E+00
          1   -1    0    0  501    0  0.00000000000E+00  0.00000000000E+00  0.38243901202E+03  0.38243901202E+03  0.00000000000E+00 0. -1.
         -1   -1    0    0    0  501 -0.00000000000E+00 -0.00000000000E+00 -0.32573074470E+02  0.32573074470E+02  0.00000000000E+00 0.  1.
         23    2    1    2    0    0  0.11755695284E+02  0.22117340403E+02  0.15669838385E+03  0.20206101169E+03  0.12508755264E+03 0.  0.
          5    1    3    3  502    0  0.39049407576E+02 -0.24580270510E+02  0.12488042355E+02  0.47984054979E+02  0.41800000000E+01 0. -1.
         -5    1    3    3    0  502 -0.27293712291E+02  0.46697610913E+02  0.14421034149E+03  0.15407695671E+03  0.41800000000E+01 0. -1.
        -11    1    1    2    0    0  0.29342171770E+02 -0.79493597014E+01  0.25313501591E+02  0.39559180055E+02  0.00000000000E+00 0.  1.
         11    1    1    2    0    0 -0.41097867054E+02 -0.14167980701E+02  0.16785405211E+03  0.17339189475E+03  0.00000000000E+00 0. -1.
</event>
<event>
 7    1  0.4394360E-006  0.9559443E+02  0.7561462E-02  0.1289843E+00
         -1   -1    0    0    0  501 -0.00000000000E+00  0.00000000000E+00  0.29894469379E+03  0.29894469379E+03  0.00000000000E+00 0.  1.
          1   -1    0    0  501    0  0.00000000000E+00 -0.00000000000E+00 -0.49847332613E+02  0.49847332613E+02  0.00000000000E+00 0. -1.
         23    2    1    2    0    0  0.42202363260E+02 -0.28495409896E+02  0.17485464641E+03  0.22094712292E+03  0.12510178219E+03 0.  0.
          5    1    3    3  502    0  0.82181618279E+01  0.27252817322E+02  0.14708744957E+03  0.14987476258E+03  0.41800000000E+01 0.  1.
         -5    1    3    3    0  502  0.33984201433E+02 -0.55748227218E+02  0.27767196835E+02  0.71072360346E+02  0.41800000000E+01 0.  1.
        -11    1    1    2    0    0 -0.14559435909E+02  0.56082388245E+02  0.66193808338E+02  0.87970629801E+02  0.00000000000E+00 0.  1.
         11    1    1    2    0    0 -0.27642927351E+02 -0.27586978349E+02  0.80489064351E+01  0.39874273683E+02  0.00000000000E+00 0. -1.
</event>
<event>
 7    1  0.4394360E-006  0.1146979E+03  0.7561462E-02  0.1252109E+00
         -2   -1    0    0    0  501 -0.00000000000E+00  0.00000000000E+00  0.86493444306E+03  0.86493444306E+03  0.00000000000E+00 0.  1.
          2   -1    0    0  501    0  0.00000000000E+00 -0.00000000000E+00 -0.19548815005E+02  0.19548815005E+02  0.00000000000E+00 0. -1.
         23    2    1    2    0    0 -0.39417236788E+02 -0.44597511067E+02  0.55955877744E+03  0.57645139226E+03  0.12509007025E+03 0.  0.
          5    1    3    3  502    0 -0.10855877586E+02  0.33132667035E+02  0.55910394434E+02  0.66023240672E+02  0.41800000000E+01 0.  1.
         -5    1    3    3    0  502 -0.28561359202E+02 -0.77730178102E+02  0.50364838300E+03  0.51042815159E+03  0.41800000000E+01 0.  1.
        -11    1    1    2    0    0  0.45618499673E+02 -0.17571686783E+02  0.16381865721E+03  0.17095719973E+03  0.00000000000E+00 0.  1.
         11    1    1    2    0    0 -0.62012628845E+01  0.62169197850E+02  0.12200819341E+03  0.13707466608E+03  0.00000000000E+00 0. -1.
</event>
<event>
 7    1  0.4394360E-006  0.1185629E+03  0.7561462E-02  0.1245487E+00
         -1   -1    0    0    0  501 -0.00000000000E+00  0.00000000000E+00  0.16384372131E+03  0.16384372131E+03  0.00000000000E+00 0.  1.
          1   -1    0    0  501    0  0.00000000000E+00 -0.00000000000E+00 -0.10753071920E+03  0.10753071920E+03  0.00000000000E+00 0. -1.
         23    2    1    2    0    0  0.32530785007E+02  0.67297476907E+02  0.23786200435E+02  0.14764454439E+03  0.12508367514E+03 0.  0.
          5    1    3    3  502    0 -0.16752118422E+02 -0.30654634713E+02 -0.80512272073E+00  0.35191770680E+02  0.41800000000E+01 0.  1.
         -5    1    3    3    0  502  0.49282903429E+02  0.97952111621E+02  0.24591323156E+02  0.11245277371E+03  0.41800000000E+01 0.  1.
        -11    1    1    2    0    0 -0.60199052258E+01  0.93438787024E+01  0.40729652038E+02  0.42219093824E+02  0.00000000000E+00 0.  1.
         11    1    1    2    0    0 -0.26510879781E+02 -0.76641355610E+02 -0.82028503598E+01  0.81510802293E+02  0.00000000000E+00 0. -1.
</event>
<event>
 7    1  0.4394360E-006  0.3972361E+03  0.7561462E-02  0.1044741E+00
         -2   -1    0    0    0  501 -0.00000000000E+00  0.00000000000E+00  0.70580428865E+02  0.70580428865E+02  0.00000000000E+00 0.  1.
          2   -1    0    0  501    0  0.00000000000E+00 -0.00000000000E+00 -0.23494983116E+04  0.23494983116E+04  0.00000000000E+00 0. -1.
         23    2    1    2    0    0 -0.18224942597E+03  0.34727171511E+03 -0.11042594223E+04  0.11784934301E+04  0.12508155619E+03 0.  0.
          5    1    3    3  502    0 -0.10442755422E+03  0.18269601809E+03 -0.41153773017E+03  0.46223773630E+03  0.41800000000E+01 0. -1.
         -5    1    3    3    0  502 -0.77821871744E+02  0.16457569702E+03 -0.69272169210E+03  0.71625569378E+03  0.41800000000E+01 0. -1.
        -11    1    1    2    0    0  0.11269489583E+03 -0.12177399268E+03 -0.46421179373E+03  0.49297224494E+03  0.00000000000E+00 0.  1.
         11    1    1    2    0    0  0.69554530136E+02 -0.22549772243E+03 -0.71044666678E+03  0.74861306549E+03  0.00000000000E+00 0. -1.
</event>
<event>
 7    1  0.4394360E-006  0.4080278E+03  0.7561462E-02  0.1041035E+00
          2   -1    0    0  501    0  0.00000000000E+00  0.00000000000E+00  0.78464612371E+03  0.78464612371E+03  0.00000000000E+00 0.  1.
         -2   -1    0    0    0  501 -0.00000000000E+00 -0.00000000000E+00 -0.22018320118E+03  0.22018320118E+03  0.00000000000E+00 0. -1.
         23    2    1    2    0    0 -0.19412977774E+03 -0.35124499577E+03  0.29228887846E+03  0.51199546626E+03  0.12508857399E+03 0.  0.
          5    1    3    3  502    0 -0.19545789225E+03 -0.27571832503E+03  0.27150141115E+03  0.43353762358E+03  0.41800000000E+01 0.  1.
         -5    1    3    3    0  502  0.13281145170E+01 -0.75526670738E+02  0.20787467310E+02  0.78457842680E+02  0.41800000000E+01 0.  1.
        -11    1    1    2    0    0  0.13471989886E+03  0.27013023276E+03  0.24475203961E+03  0.38861723417E+03  0.00000000000E+00 0.  1.
         11    1    1    2    0    0  0.59409878882E+02  0.81114763007E+02  0.27422004452E+02  0.10421662446E+03  0.00000000000E+00 0. -1.
</event>
<event>
 7    1  0.4394360E-006  0.1283985E+03  0.7561462E-02  0.1229852E+00
         -2   -1    0    0    0  501 -0.00000000000E+00  0.00000000000E+00  0.21280227947E+03  0.21280227947E+03  0.00000000000E+00 0. -1.
          2   -1    0    0  501    0  0.00000000000E+00 -0.00000000000E+00 -0.93006360341E+02  0.93006360341E+02  0.00000000000E+00 0.  1.
         23    2    1    2    0    0 -0.35196821919E+01  0.43668424671E+02  0.11182190274E+03  0.17341058018E+03  0.12509105447E+03 0.  0.
          5    1    3    3  502    0 -0.60068533352E+02  0.45663028014E+02  0.68925365294E+02  0.10228156827E+03  0.41800000000E+01 0. -1.
         -5    1    3    3    0  502  0.56548851161E+02 -0.19946033433E+01  0.42896537447E+02  0.71129011908E+02  0.41800000000E+01 0. -1.
        -11    1    1    2    0    0  0.45538587872E+02  0.18747873356E+02  0.25036470363E+02  0.55245548137E+02  0.00000000000E+00 0. -1.
         11    1    1    2    0    0 -0.42018905680E+02 -0.62416298027E+02 -0.17062453979E+02  0.77152511493E+02  0.00000000000E+00 0.  1.
</event>
<event>
 7    1  0.4394360E-006  0.1486695E+03  0.7561462E-02  0.1202118E+00
          1   -1    0    0  501    0  0.00000000000E+00  0.00000000000E+00  0.22640511067E+03  0.22640511067E+03  0.00000000000E+00 0. -1.
         -1   -1    0    0    0  501 -0.00000000000E+00 -0.00000000000E+00 -0.10606187865E+03  0.10606187865E+03  0.00000000000E+00 0.  1.
         23    2    1    2    0    0 -0.19024914410E+02 -0.10896231077E+03  0.63781346423E+02  0.17874582524E+03  0.12508907766E+03 0.  0.
          5    1    3    3  502    0  0.37576868870E+02 -0.53706667672E+01 -0.99999737815E+01  0.39475777525E+02  0.41800000000E+01 0. -1.
         -5    1    3    3    0  502 -0.56601783280E+02 -0.10359164401E+03  0.73781320205E+02  0.13927004771E+03  0.41800000000E+01 0. -1.
        -11    1    1    2    0    0  0.53770506049E+02  0.76297757985E+02  0.49049669347E+02  0.10544422818E+03  0.00000000000E+00 0. -1.
         11    1    1    2    0    0 -0.34745591640E+02  0.32664552788E+02  0.75122162465E+01  0.48276935903E+02  0.00000000000E+00 0.  1.
</event>
<event>
 7    1  0.4394360E-006  0.1455626E+03  0.7561462E-02  0.1206034E+00
          1   -1    0    0  501    0  0.00000000000E+00  0.00000000000E+00  0.93589703347E+02  0.93589703347E+02  0.00000000000E+00 0. -1.
         -1   -1    0    0    0  501 -0.00000000000E+00 -0.00000000000E+00 -0.28211371840E+03  0.28211371840E+03  0.00000000000E+00 0.  1.
         23    2    1    2    0    0 -0.10110081268E+03  0.20252478197E+02 -0.17389282530E+03  0.23773592412E+03  0.12509243673E+03 0.  0.
          5    1    3    3  502    0 -0.18435181332E+02 -0.46090254334E+02 -0.88503600296E+02  0.10156046042E+03  0.41800000000E+01 0. -1.
         -5    1    3    3    0  502 -0.82665631352E+02  0.66342732532E+02 -0.85389225004E+02  0.13617546370E+03  0.41800000000E+01 0. -1.
        -11    1    1    2    0    0  0.23173683491E+00 -0.33495994478E+02  0.63458205893E+01  0.34092591379E+02  0.00000000000E+00 0. -1.
         11    1    1    2    0    0  0.10086907585E+03  0.13243516280E+02 -0.20977010347E+02  0.10387490625E+03  0.00000000000E+00 0.  1.
</event>
<event>
 7    1  0.4394360E-006  0.9382221E+02  0.7561462E-02  0.1293851E+00
         -1   -1    0    0    0  501 -0.00000000000E+00  0.00000000000E+00  0.40826903510E+02  0.40826903510E+02  0.00000000000E+00 0.  1.
          1   -1    0    0  501    0  0.00000000000E+00 -0.00000000000E+00 -0.38367859666E+03  0.38367859666E+03  0.00000000000E+00 0. -1.
         23    2    1    2    0    0 -0.34894000811E+02  0.10065078340E+02 -0.10784267613E+03  0.16910593843E+03  0.12509148062E+03 0.  0.
          5    1    3    3  502    0 -0.52439519537E+02  0.40922633106E+02 -0.11475117053E+03  0.13270218027E+03  0.41800000000E+01 0.  1.
         -5    1    3    3    0  502  0.17545518726E+02 -0.30857554766E+02  0.69084944028E+01  0.36403758163E+02  0.41800000000E+01 0.  1.
        -11    1    1    2    0    0  0.44126504814E+02  0.23811707249E+02 -0.19854438589E+03  0.20477797488E+03  0.00000000000E+00 0. -1.
         11    1    1    2    0    0 -0.92325040040E+01 -0.33876785589E+02 -0.36464631131E+02  0.50621586853E+02  0.00000000000E+00 0.  1.
</event>
<event>
 6    1  0.4394360E-006  0.5843354E+02  0.7561462E-02  0.1404526E+00
          1   -1    0    0  501    0  0.00000000000E+00  0.00000000000E+00  0.28548279777E+02  0.28548279777E+02  0.00000000000E+00 0. -1.
         -1   -1    0    0    0  501 -0.00000000000E+00 -0.00000000000E+00 -0.53936510742E+03  0.53936510742E+03  0.00000000000E+00 0.  1.
          5    1    1    2  502    0 -0.12376439742E+02  0.28611793102E+02  0.39672254880E+01  0.31702085787E+02  0.41800000000E+01 0. -1.
         -5    1    1    2    0  502  0.24910427159E+02 -0.18426764457E+02 -0.30821489891E+03  0.30979666128E+03  0.41800000000E+01 0.  1.
        -11    1    1    2    0    0 -0.30982346890E+02 -0.15914741078E+02 -0.20397042210E+03  0.20692297575E+03  0.00000000000E+00 0.  1.
         11    1    1    2    0    0  0.18448359473E+02  0.57297124336E+01 -0.25987321271E+01  0.19491664385E+02  0.00000000000E+00 0. -1.
</event>
<event>
 7    1  0.4394360E-006  0.1119534E+03  0.7561462E-02  0.1256995E+00
         -2   -1    0    0    0  501 -0.00000000000E+00  0.00000000000E+00  0.14547200073E+03  0.14547200073E+03  0.00000000000E+00 0. -1.
          2   -1    0    0  501    0  0.00000000000E+00 -0.00000000000E+00 -0.14770385849E+03  0.14770385849E+03  0.00000000000E+00 0.  1.
         23    2    1    2    0    0 -0.15101688936E+02 -0.62385576561E+02  0.74007285700E+02  0.15888976171E+03  0.12509539107E+03 0.  0.
          5    1    3    3  502    0 -0.51647902644E+02 -0.57591730268E+02  0.89776471615E+02  0.11858161956E+03  0.41800000000E+01 0. -1.
         -5    1    3    3    0  502  0.36546213708E+02 -0.47938462928E+01 -0.15769185915E+02  0.40308142144E+02  0.41800000000E+01 0. -1.
        -11    1    1    2    0    0  0.47964496587E+02  0.59391801385E+02 -0.61999689170E+02  0.98346024128E+02  0.00000000000E+00 0.  1.
         11    1    1    2    0    0 -0.32862807651E+02  0.29937751766E+01 -0.14239454287E+02  0.35940073385E+02  0.00000000000E+00 0. -1.
</event>
<event>
 7    1  0.4394360E-006  0.1208770E+03  0.7561462E-02  0.1241657E+00
          2   -1    0    0  501    0  0.00000000000E+00  0.00000000000E+00  0.85078621910E+02  0.85078621910E+02  0.00000000000E+00 0. -1.
         -2   -1    0    0    0  501 -0.00000000000E+00 -0.00000000000E+00 -0.24399151254E+03  0.24399151254E+03  0.00000000000E+00 0.  1.
         23    2    1    2    0    0 -0.38041152105E+02 -0.87644459194E+02 -0.69717586807E+02  0.17215596917E+03  0.12509378614E+03 0.  0.
          5    1    3    3  502    0  0.16975745363E+02 -0.89310853411E+02 -0.73277967463E+02  0.11684064953E+03  0.41800000000E+01 0.  1.
         -5    1    3    3    0  502 -0.55016897468E+02  0.16663942170E+01  0.35603806555E+01  0.55315319642E+02  0.41800000000E+01 0.  1.
        -11    1    1    2    0    0  0.98137834689E+01  0.21740901287E+02 -0.81369940522E+02  0.84794129250E+02  0.00000000000E+00 0.  1.
         11    1    1    2    0    0  0.28227368636E+02  0.65903557907E+02 -0.78253632973E+01  0.72120036021E+02  0.00000000000E+00 0. -1.
</event>
<event>
 7    1  0.4394360E-006  0.1064826E+03  0.7561462E-02  0.1267226E+00
         -1   -1    0    0    0  501 -0.00000000000E+00  0.00000000000E+00  0.64356058819E+03  0.64356058819E+03  0.00000000000E+00 0.  1.
          1   -1    0    0  501    0  0.00000000000E+00 -0.00000000000E+00 -0.21377425976E+02  0.21377425976E+02  0.00000000000E+00 0. -1.
         23    2    1    2    0    0 -0.24615127462E+02 -0.13845106866E+02  0.45220626556E+03  0.47003830451E+03  0.12509160489E+03 0.  0.
          5    1    3    3  502    0 -0.65655676898E+02  0.17937081739E+02  0.33368158088E+03  0.34057785693E+03  0.41800000000E+01 0. -1.
         -5    1    3    3    0  502  0.41040549436E+02 -0.31782188605E+02  0.11852468468E+03  0.12946044759E+03  0.41800000000E+01 0. -1.
        -11    1    1    2    0    0 -0.32823101233E+02  0.12859959936E+02  0.87997359390E+02  0.94795937696E+02  0.00000000000E+00 0.  1.
         11    1    1    2    0    0  0.57438228694E+02  0.98514693011E+00  0.81979537258E+02  0.10010377195E+03  0.00000000000E+00 0. -1.
</event>
<event>
 7    1  0.4394360E-006  0.2358059E+03  0.7561462E-02  0.1122619E+00
          1   -1    0    0  501    0  0.00000000000E+00  0.00000000000E+00  0.75976226317E+03  0.75976226317E+03  0.00000000000E+00 0. -1.
         -1   -1    0    0    0  501 -0.00000000000E+00 -0.00000000000E+00 -0.87019829723E+02  0.87019829723E+02  0.00000000000E+00 0.  1.
         23    2    1    2    0    0 -0.18765963276E+03  0.10190221156E+03  0.19403262414E+03  0.31447877581E+03  0.12509213690E+03 0.  0.
          5    1    3    3  502    0 -0.37251129222E+02  0.88726448262E+02  0.80383194294E+02  0.12545501016E+03  0.41800000000E+01 0. -1.
         -5    1    3    3    0  502 -0.15040850354E+03  0.13175763296E+02  0.11364942985E+03  0.18902376565E+03  0.41800000000E+01 0. -1.
        -11    1    1    2    0    0  0.12437497310E+03 -0.29000042863E+02  0.34095897081E+03  0.36409223584E+03  0.00000000000E+00 0.  1.
         11    1    1    2    0    0  0.63284659657E+02 -0.72902168696E+02  0.13775083850E+03  0.16821108125E+03  0.00000000000E+00 0. -1.
</event>
<event>
 7    1  0.4394360E-006  0.1161745E+03  0.7561462E-02  0.1249545E+00
          4   -1    0    0  501    0  0.00000000000E+00  0.00000000000E+00  0.34231934181E+03  0.34231934181E+03  0.00000000000E+00 0. -1.
         -4   -1    0    0    0  501 -0.00000000000E+00 -0.00000000000E+00 -0.49239298052E+02  0.49239298052E+02  0.00000000000E+00 0.  1.
         23    2    1    2    0    0 -0.53040195628E+02  0.50419869327E+01  0.88254926150E+02  0.16209381179E+03  0.12508712103E+03 0.  0.
          5    1    3    3  502    0 -0.63575947884E+02 -0.45308547316E+02  0.76032229373E+02  0.10905566429E+03  0.41800000000E+01 0.  1.
         -5    1    3    3    0  502  0.10535752256E+02  0.50350534249E+02  0.12222696777E+02  0.53038147510E+02  0.41800000000E+01 0.  1.
        -11    1    1    2    0    0  0.37454450830E+02 -0.45657398115E+02  0.13249794091E+03  0.14506253216E+03  0.00000000000E+00 0. -1.
         11    1    1    2    0    0  0.15585744798E+02  0.40615411183E+02  0.72327176699E+02  0.84402295915E+02  0.00000000000E+00 0.  1.
</event>
<event>
 7    1  0.4394360E-006  0.1285426E+03  0.7561462E-02  0.1229634E+00
         -1   -1    0    0    0  501 -0.00000000000E+00  0.00000000000E+00  0.25662924665E+02  0.25662924665E+02  0.00000000000E+00 0.  1.
          1   -1    0    0  501    0  0.00000000000E+00 -0.00000000000E+00 -0.71435460748E+03  0.71435460748E+03  0.00000000000E+00 0. -1.
         23    2    1    2    0    0 -0.58729415263E+02 -0.51793097540E+02 -0.28316488429E+03  0.31645974927E+03  0.11761272057E+03 0.  0.
          5    1    3    3  502    0 -0.57171990534E+02 -0.86937863207E+02 -0.23117393134E+03  0.25354622358E+03  0.41800000000E+01 0. -1.
         -5    1    3    3    0  502 -0.15574247294E+01  0.35144765666E+02 -0.51990952959E+02  0.62913525693E+02  0.41800000000E+01 0.  1.
        -11    1    1    2    0    0 -0.14371676379E+02 -0.13343957306E+02 -0.33081552806E+02  0.38457709430E+02  0.00000000000E+00 0. -1.
         11    1    1    2    0    0  0.73101091642E+02  0.65137054846E+02 -0.37244524572E+03  0.38510007345E+03  0.00000000000E+00 0.  1.
</event>
<event>
 7    1  0.4394360E-006  0.9721734E+02  0.7561462E-02  0.1286259E+00
          1   -1    0    0  501    0  0.00000000000E+00  0.00000000000E+00  0.30793324593E+02  0.30793324593E+02  0.00000000000E+00 0. -1.
         -1   -1    0    0    0  501 -0.00000000000E+00 -0.00000000000E+00 -0.64445050970E+03  0.64445050970E+03  0.00000000000E+00 0.  1.
         23    2    1    2    0    0  0.52602972655E+02 -0.35558118281E+01 -0.51813157854E+03  0.53561919414E+03  0.12509145424E+03 0.  0.
          5    1    3    3  502    0  0.11080929004E+02 -0.42571833080E+02 -0.41805687673E+03  0.42038574255E+03  0.41800000000E+01 0. -1.
         -5    1    3    3    0  502  0.41522043651E+02  0.39016021251E+02 -0.10007470181E+03  0.11523345159E+03  0.41800000000E+01 0. -1.
        -11    1    1    2    0    0 -0.25041408310E+02  0.40140934847E+02 -0.20152133814E+02  0.51424461862E+02  0.00000000000E+00 0. -1.
         11    1    1    2    0    0 -0.27561564345E+02 -0.36585123019E+02 -0.75373472763E+02  0.88200178298E+02  0.00000000000E+00 0.  1.
</event>
<event>
 7    1  0.4394360E-006  0.1243628E+03  0.7561462E-02  0.1236068E+00
         -1   -1    0    0    0  501 -0.00000000000E+00  0.00000000000E+00  0.12422952275E+03  0.12422952275E+03  0.00000000000E+00 0.  1.
          1   -1    0    0  501    0  0.00000000000E+00 -0.00000000000E+00 -0.28492225542E+03  0.28492225542E+03  0.00000000000E+00 0. -1.
         23    2    1    2    0    0 -0.80473902635E+02  0.30102500225E+02  0.55924715455E+02  0.15985064541E+03  0.12264764782E+03 0.  0.
          5    1    3    3  502    0 -0.68735392860E+02 -0.31372641922E+02 -0.21364713521E+00  0.75672418607E+02  0.41800000000E+01 0. -1.
         -5    1    3    3    0  502 -0.11738509776E+02  0.61475142147E+02  0.56138362590E+02  0.84178226805E+02  0.41800000000E+01 0.  1.
        -11    1    1    2    0    0  0.56030396616E+02  0.15893229622E+02 -0.57369776645E+02  0.81751399775E+02  0.00000000000E+00 0.  1.
         11    1    1    2    0    0  0.24443506019E+02 -0.45995729847E+02 -0.15924767148E+03  0.16754973298E+03  0.00000000000E+00 0. -1.
</event>
<event>
 7    1  0.4394360E-006  0.7977181E+02  0.7561462E-02  0.1329700E+00
         -1   -1    0    0    0  501 -0.00000000000E+00  0.00000000000E+00  0.70233218881E+03  0.70233218881E+03  0.00000000000E+00 0.  1.
          1   -1    0    0  501    0  0.00000000000E+00 -0.00000000000E+00 -0.24033594797E+02  0.24033594797E+02  0.00000000000E+00 0. -1.
         23    2    1    2    0    0  0.28090489954E+02  0.40369504600E+02  0.51527703023E+03  0.53251933431E+03  0.12509057119E+03 0.  0.
          5    1    3    3  502    0  0.59191771428E+02  0.41932128322E+02  0.15849236707E+03  0.17435387008E+03  0.41800000000E+01 0.  1.
         -5    1    3    3    0  502 -0.31101281474E+02 -0.15626237217E+01  0.35678466316E+03  0.35816546423E+03  0.41800000000E+01 0.  1.
        -11    1    1    2    0    0 -0.87346810668E+00 -0.23344482473E+02 -0.40579748370E+01  0.23710650945E+02  0.00000000000E+00 0. -1.
         11    1    1    2    0    0 -0.27217021847E+02 -0.17025022127E+02  0.16707953862E+03  0.17013579836E+03  0.00000000000E+00 0.  1.
</event>
<event>
 7    1  0.4394360E-006  0.9578013E+02  0.7561462E-02  0.1289429E+00
         -1   -1    0    0    0  501 -0.00000000000E+00  0.00000000000E+00  0.16299352219E+03  0.16299352219E+03  0.00000000000E+00 0.  1.
          1   -1    0    0  501    0  0.00000000000E+00 -0.00000000000E+00 -0.11808819220E+03  0.11808819220E+03  0.00000000000E+00 0. -1.
         23    2    1    2    0    0 -0.46256046144E+02  0.35845562050E+02  0.89088624593E+02  0.16440660545E+03  0.12517277165E+03 0.  0.
          5    1    3    3  502    0  0.67616767126E+01  0.31936873233E+02 -0.23086703705E+02  0.40201398381E+02  0.41800000000E+01 0. -1.
         -5    1    3    3    0  502 -0.53017722856E+02  0.39086888169E+01  0.11217532830E+03  0.12420520707E+03  0.41800000000E+01 0. -1.
        -11    1    1    2    0    0  0.25886364817E+02  0.28103252234E+02 -0.39191924707E+01  0.38409071053E+02  0.00000000000E+00 0.  1.
         11    1    1    2    0    0  0.20369681327E+02 -0.63948814284E+02 -0.40264102126E+02  0.78266037881E+02  0.00000000000E+00 0. -1.
</event>
<event>
 7    1  0.4394360E-006  0.1467705E+03  0.7561462E-02  0.1204498E+00
          2   -1    0    0  501    0  0.00000000000E+00  0.00000000000E+00  0.10344578931E+03  0.10344578931E+03  0.00000000000E+00 0. -1.
         -2   -1    0    0    0  501 -0.00000000000E+00 -0.00000000000E+00 -0.26284759910E+03  0.26284759910E+03  0.00000000000E+00 0.  1.
         23    2    1    2    0    0  0.12038466130E+03 -0.14831886426E+02 -0.11263551901E+03  0.20747700907E+03  0.12508995810E+03 0.  0.
          5    1    3    3  502    0  0.12250028246E+03 -0.52991857890E+02 -0.72703752249E+02  0.15204527022E+03  0.41800000000E+01 0. -1.
         -5    1    3    3    0  502 -0.21156211573E+01  0.38159971464E+02 -0.39931766757E+02  0.55431738845E+02  0.41800000000E+01 0. -1.
        -11    1    1    2    0    0 -0.78987954247E+02  0.13550391792E+02 -0.74135863664E+02  0.10917342312E+03  0.00000000000E+00 0.  1.
         11    1    1    2    0    0 -0.41396707055E+02  0.12814946337E+01  0.27369572875E+02  0.49642956226E+02  0.00000000000E+00 0. -1.
</event>
<event>
 7    1  0.4394360E-006  0.5971896E+02  0.7561462E-02  0.1399015E+00
          2   -1    0    0  501    0  0.00000000000E+00  0.00000000000E+00  0.10599066198E+03  0.10599066198E+03  0.00000000000E+00 0. -1.
         -2   -1    0    0    0  501 -0.00000000000E+00 -0.00000000000E+00 -0.11823272261E+03  0.11823272261E+03  0.00000000000E+00 0.  1.
         23    2    1    2    0    0 -0.33461218930E+01 -0.89818259853E+01 -0.33467081451E+02  0.12984359747E+03  0.12508974592E+03 0.  0.
          5    1    3    3  502    0 -0.26299430925E+02  0.30895678105E+02  0.30504191839E+02  0.50933104287E+02  0.41800000000E+01 0.  1.
         -5    1    3    3    0  502  0.22953309032E+02 -0.39877504090E+02 -0.63971273290E+02  0.78910493182E+02  0.41800000000E+01 0.  1.
        -11    1    1    2    0    0 -0.13428882069E+02  0.18004703433E-01  0.54457858450E+02  0.56089157105E+02  0.00000000000E+00 0. -1.
         11    1    1    2    0    0  0.16775003962E+02  0.89638212818E+01 -0.33232837629E+02  0.38290630012E+02  0.00000000000E+00 0.  1.
</event>
<event>
 7    1  0.4394360E-006  0.1027116E+03  0.7561462E-02  0.1274695E+00
         -1   -1    0    0    0  501 -0.00000000000E+00  0.00000000000E+00  0.23541210156E+02  0.23541210156E+02  0.00000000000E+00 0.  1.
          1   -1    0    0  501    0  0.00000000000E+00 -0.00000000000E+00 -0.61491910554E+03  0.61491910554E+03  0.00000000000E+00 0. -1.
         23    2    1    2    0    0 -0.82108350426E+01  0.44505330011E+02 -0.28233789697E+03  0.31210666160E+03  0.12509091867E+03 0.  0.
          5    1    3    3  502    0 -0.19986807112E+02 -0.23691078624E+02 -0.12799334510E+02  0.33794008771E+02  0.41800000000E+01 0.  1.
         -5    1    3    3    0  502  0.11775972069E+02  0.68196408635E+02 -0.26953856246E+03  0.27831265283E+03  0.41800000000E+01 0.  1.
        -11    1    1    2    0    0  0.51084341699E+02 -0.31487042229E+02 -0.17098292927E+03  0.18120763200E+03  0.00000000000E+00 0.  1.
         11    1    1    2    0    0 -0.42873506656E+02 -0.13018287782E+02 -0.13805706914E+03  0.14514602210E+03  0.00000000000E+00 0. -1.
</event>
<event>
 7    1  0.4394360E-006  0.1074856E+03  0.7561462E-02  0.1265298E+00
         -2   -1    0    0    0  501 -0.00000000000E+00  0.00000000000E+00  0.39538873095E+03  0.39538873095E+03  0.00000000000E+00 0.  1.
          2   -1    0    0  501    0  0.00000000000E+00 -0.00000000000E+00 -0.30588702210E+02  0.30588702210E+02  0.00000000000E+00 0. -1.
         23    2    1    2    0    0 -0.26440487033E+02 -0.14861932226E+01  0.24184454587E+03  0.27004320527E+03  0.11718890827E+03 0.  0.
          5    1    3    3  502    0  0.13342056507E+02  0.51712839468E+02  0.10579420638E+03  0.11858378785E+03  0.41800000000E+01 0. -1.
         -5    1    3    3    0  502 -0.39782543540E+02 -0.53199032691E+02  0.13605033949E+03  0.15145941742E+03  0.41800000000E+01 0.  1.
        -11    1    1    2    0    0 -0.28474659375E+02  0.22244845535E+02  0.35921830755E+02  0.50951126623E+02  0.00000000000E+00 0.  1.
         11    1    1    2    0    0  0.54915146408E+02 -0.20758652312E+02  0.87033652114E+02  0.10498310126E+03  0.00000000000E+00 0. -1.
</event>
<event>
 7    1  0.4394360E-006  0.5800333E+02  0.7561462E-02  0.1406407E+00
         -1   -1    0    0    0  501 -0.00000000000E+00  0.00000000000E+00  0.92953761175E+02  0.92953761175E+02  0.00000000000E+00 0.  1.
          1   -1    0    0  501    0  0.00000000000E+00 -0.00000000000E+00 -0.14067387652E+03  0.14067387652E+03  0.00000000000E+00 0. -1.
         23    2    1    2    0    0 -0.33579644881E+02 -0.18290899978E+02 -0.27420883750E+02  0.13364736054E+03  0.12509021761E+03 0.  0.
          5    1    3    3  502    0  0.18658547097E+02  0.43638652687E+01 -0.63265216229E+02  0.66235524339E+02  0.41800000000E+01 0.  1.
         -5    1    3    3    0  502 -0.52238191978E+02 -0.22654765247E+02  0.35844332480E+02  0.67411836204E+02  0.41800000000E+01 0.  1.
        -11    1    1    2    0    0  0.13248724464E+02  0.23255101087E+01  0.35782647283E+02  0.38227405664E+02  0.00000000000E+00 0.  1.
         11    1    1    2    0    0  0.20330920417E+02  0.15965389869E+02 -0.56081878882E+02  0.61752871493E+02  0.00000000000E+00 0. -1.
</event>
<event>
 7    1  0.4394360E-006  0.1663309E+03  0.7561462E-02  0.1181729E+00
         -2   -1    0    0    0  501 -0.00000000000E+00  0.00000000000E+00  0.11088474172E+03  0.11088474172E+03  0.00000000000E+00 0.  1.
          2   -1    0    0  501    0  0.00000000000E+00 -0.00000000000E+00 -0.35307769538E+03  0.35307769538E+03  0.00000000000E+00 0. -1.
         23    2    1    2    0    0 -0.11197344428E+02  0.14232563953E+03 -0.31871725135E+02  0.19247457066E+03  0.12509470531E+03 0.  0.
          5    1    3    3  502    0  0.30850090903E+02  0.94501063448E+02  0.29660972238E+02  0.10382400867E+03  0.41800000000E+01 0.  1.
         -5    1    3    3    0  502 -0.42047435331E+02  0.47824576085E+02 -0.61532697373E+02  0.88650561993E+02  0.41800000000E+01 0.  1.
        -11    1    1    2    0    0 -0.84206651323E+01 -0.14853254538E+03 -0.19742785249E+03  0.24720554520E+03  0.00000000000E+00 0. -1.
         11    1    1    2    0    0  0.19618009560E+02  0.62069058470E+01 -0.12893376041E+02  0.24282321245E+02  0.00000000000E+00 0.  1.
</event>
<event>
 7    1  0.4394360E-006  0.1551410E+03  0.7561462E-02  0.1194294E+00
         -2   -1    0    0    0  501 -0.00000000000E+00  0.00000000000E+00  0.11572725637E+03  0.11572725637E+03  0.00000000000E+00 0. -1.
          2   -1    0    0  501    0  0.00000000000E+00 -0.00000000000E+00 -0.24663326803E+03  0.24663326803E+03  0.00000000000E+00 0.  1.
         23    2    1    2    0    0  0.82561396702E+02 -0.96643832494E+02 -0.41998860876E+02  0.18321556316E+03  0.12509046201E+03 0.  0.
          5    1    3    3  502    0  0.11453874816E+03 -0.82068178371E+02 -0.44262325308E+02  0.14775295792E+03  0.41800000000E+01 0. -1.
         -5    1    3    3    0  502 -0.31977351461E+02 -0.14575654123E+02  0.22634644320E+01  0.35462605246E+02  0.41800000000E+01 0. -1.
        -11    1    1    2    0    0 -0.62933578832E+02  0.95359738964E+02 -0.31582153929E+02  0.11853922392E+03  0.00000000000E+00 0. -1.
         11    1    1    2    0    0 -0.19627817870E+02  0.12840935297E+01 -0.57324996862E+02  0.60605737317E+02  0.00000000000E+00 0.  1.
</event>
<event>
 7    1  0.4394360E-006  0.1070854E+03  0.7561462E-02  0.1266064E+00
         -1   -1    0    0    0  501 -0.00000000000E+00  0.00000000000E+00  0.85982999625E+02  0.85982999625E+02  0.00000000000E+00 0.  1.
          1   -1    0    0  501    0  0.00000000000E+00 -0.00000000000E+00 -0.17002427073E+03  0.17002427073E+03  0.00000000000E+00 0. -1.
         23    2    1    2    0    0 -0.50437641504E+02  0.13811020486E+02 -0.62253399242E+02  0.14918224500E+03  0.12508060017E+03 0.  0.
          5    1    3    3  502    0 -0.75264172900E+02 -0.30732484981E+02 -0.53132674989E+02  0.97209746974E+02  0.41800000000E+01 0.  1.
         -5    1    3    3    0  502  0.24826531396E+02  0.44543505467E+02 -0.91207242534E+01  0.51972498028E+02  0.41800000000E+01 0.  1.
        -11    1    1    2    0    0  0.18650466473E+02  0.25154329811E+02 -0.42203792003E+02  0.52552262248E+02  0.00000000000E+00 0. -1.
         11    1    1    2    0    0  0.31787175031E+02 -0.38965350297E+02  0.20415920137E+02  0.54272763107E+02  0.00000000000E+00 0.  1.
</event>
<event>
 7    1  0.4394360E-006  0.1193210E+03  0.7561462E-02  0.1244221E+00
         -2   -1    0    0    0  501 -0.00000000000E+00  0.00000000000E+00  0.23729375062E+02  0.23729375062E+02  0.00000000000E+00 0.  1.
          2   -1    0    0  501    0  0.00000000000E+00 -0.00000000000E+00 -0.68635016177E+03  0.68635016177E+03  0.00000000000E+00 0. -1.
         23    2    1    2    0    0  0.20581517637E+02 -0.60781800094E+02 -0.31503602702E+03  0.34498281341E+03  0.12508963641E+03 0.  0.
          5    1    3    3  502    0  0.66731242836E+02 -0.64786438502E+02 -0.19020012554E+03  0.21176378713E+03  0.41800000000E+01 0. -1.
         -5    1    3    3    0  502 -0.46149725199E+02  0.40046384085E+01 -0.12483590149E+03  0.13321902629E+03  0.41800000000E+01 0. -1.
        -11    1    1    2    0    0  0.16880137443E+02  0.59172841298E+02 -0.12442793412E+03  0.13881165288E+03  0.00000000000E+00 0.  1.
         11    1    1    2    0    0 -0.37461655080E+02  0.16089587964E+01 -0.22315682557E+03  0.22628507054E+03  0.00000000000E+00 0. -1.
</event>
<event>
 7    1  0.4394360E-006  0.7903026E+02  0.7561462E-02  0.1331826E+00
          1   -1    0    0  501    0  0.00000000000E+00  0.00000000000E+00  0.53852421908E+02  0.53852421908E+02  0.00000000000E+00 0. -1.
         -1   -1    0    0    0  501 -0.00000000000E+00 -0.00000000000E+00 -0.25209126466E+03  0.25209126466E+03  0.00000000000E+00 0.  1.
         23    2    1    2    0    0  0.28416999496E+02 -0.23563800273E+02 -0.13537014664E+03  0.18797725800E+03  0.12509034487E+03 0.  0.
          5    1    3    3  502    0 -0.26972968625E+02  0.16626237085E+01 -0.12264547050E+03  0.12565703000E+03  0.41800000000E+01 0.  1.
         -5    1    3    3    0  502  0.55389968121E+02 -0.25226423982E+02 -0.12724676144E+02  0.62320228003E+02  0.41800000000E+01 0.  1.
        -11    1    1    2    0    0 -0.45724162717E+02  0.25396513590E+02 -0.78662744691E+02  0.94464328511E+02  0.00000000000E+00 0.  1.
         11    1    1    2    0    0  0.17307163222E+02 -0.18327133168E+01  0.15794048577E+02  0.23502100062E+02  0.00000000000E+00 0. -1.
</event>
<event>
 7    1  0.4394360E-006  0.9461248E+02  0.7561462E-02  0.1292051E+00
          1   -1    0    0  501    0  0.00000000000E+00  0.00000000000E+00  0.33762604277E+03  0.33762604277E+03  0.00000000000E+00 0. -1.
         -1   -1    0    0    0  501 -0.00000000000E+00 -0.00000000000E+00 -0.37913025443E+02  0.37913025443E+02  0.00000000000E+00 0.  1.
         23    2    1    2    0    0 -0.11856238118E+01 -0.17047372397E+02  0.12073465799E+03  0.17468255636E+03  0.12508045111E+03 0.  0.
          5    1    3    3  502    0  0.60149740685E+02 -0.16670095256E+02  0.44615032379E+02  0.76836559621E+02  0.41800000000E+01 0. -1.
         -5    1    3    3    0  502 -0.61335364496E+02 -0.37727714032E+00  0.76119625608E+02  0.97845996743E+02  0.41800000000E+01 0. -1.
        -11    1    1    2    0    0  0.26029934002E+02  0.27830065085E+02  0.27541928418E+02  0.47017313915E+02  0.00000000000E+00 0.  1.
         11    1    1    2    0    0 -0.24844310190E+02 -0.10782692689E+02  0.15143643092E+03  0.15383919793E+03  0.00000000000E+00 0. -1.
</event>
<event>
 7    1  0.4394360E-006  0.1338666E+03  0.7561462E-02  0.1221829E+00
         -2   -1    0    0    0  501 -0.00000000000E+00  0.00000000000E+00  0.37930043261E+02  0.37930043261E+02  0.00000000000E+00 0.  1.
          2   -1    0    0  501    0  0.00000000000E+00 -0.00000000000E+00 -0.52261180258E+03  0.52261180258E+03  0.00000000000E+00 0. -1.
         23    2    1    2    0    0  0.54910231885E+02 -0.71268606595E+02 -0.25949356351E+03  0.30179425848E+03  0.12509403301E+03 0.  0.
          5    1    3    3  502    0  0.44403548126E+01 -0.90415693319E+02 -0.20883154056E+03  0.22764621473E+03  0.41800000000E+01 0. -1.
         -5    1    3    3    0  502  0.50469877072E+02  0.19147086724E+02 -0.50662022951E+02  0.74148043745E+02  0.41800000000E+01 0. -1.
        -11    1    1    2    0    0  0.18073268405E+02  0.39371122503E+02 -0.11417016265E+03  0.12211287548E+03  0.00000000000E+00 0. -1.
         11    1    1    2    0    0 -0.72983500290E+02  0.31897484092E+02 -0.11101803316E+03  0.13663471189E+03  0.00000000000E+00 0.  1.
</event>
<event>
 7    1  0.4394360E-006  0.1190010E+03  0.7561462E-02  0.1244754E+00
         -2   -1    0    0    0  501 -0.00000000000E+00  0.00000000000E+00  0.44892270665E+02  0.44892270665E+02  0.00000000000E+00 0.  1.
          2   -1    0    0  501    0  0.00000000000E+00 -0.00000000000E+00 -0.33780850077E+03  0.33780850077E+03  0.00000000000E+00 0. -1.
         23    2    1    2    0    0 -0.24914670310E+00 -0.54701513737E+02 -0.13914016166E+03  0.19493538818E+03  0.12508998082E+03 0.  0.
          5    1    3    3  502    0 -0.59645626823E+02 -0.12893866039E+02 -0.82663065688E+02  0.10283242392E+03  0.41800000000E+01 0.  1.
         -5    1    3    3    0  502  0.59396480120E+02 -0.41807647698E+02 -0.56477095970E+02  0.92102964263E+02  0.41800000000E+01 0.  1.
        -11    1    1    2    0    0 -0.18559796846E+02  0.74497056276E+02 -0.89425595287E+02  0.11786099671E+03  0.00000000000E+00 0.  1.
         11    1    1    2    0    0  0.18808943549E+02 -0.19795542539E+02 -0.64350473156E+02  0.69904386539E+02  0.00000000000E+00 0. -1.
</event>
<event>
 7    1  0.4394360E-006  0.1618515E+03  0.7561462E-02  0.1186622E+00
         -1   -1    0    0    0  501 -0.00000000000E+00  0.00000000000E+00  0.34202722489E+03  0.34202722489E+03  0.00000000000E+00 0. -1.
          1   -1    0    0  501    0  0.00000000000E+00 -0.00000000000E+00 -0.88828375107E+02  0.88828375107E+02  0.00000000000E+00 0.  1.
         23    2    1    2    0    0 -0.66805378872E+02 -0.11043007284E+03  0.81050528506E+02  0.19716647680E+03  0.12509065420E+03 0.  0.
          5    1    3    3  502    0 -0.38194119064E+02  0.20325801329E+02  0.34144980851E+02  0.55274596770E+02  0.41800000000E+01 0.  1.
         -5    1    3    3    0  502 -0.28611259808E+02 -0.13075587417E+03  0.46905547655E+02  0.14189188003E+03  0.41800000000E+01 0.  1.
        -11    1    1    2    0    0  0.50629358959E+02  0.19969060555E+02  0.24288322106E+02  0.59598808367E+02  0.00000000000E+00 0.  1.
         11    1    1    2    0    0  0.16176019913E+02  0.90461012284E+02  0.14785999917E+03  0.17409031484E+03  0.00000000000E+00 0. -1.
</event>
<event>
 7    1  0.6225003E-006  0.2950113E+03  0.7561462E-02  0.1087761E+00
          2   -1    0    0  501    0  0.00000000000E+00  0.00000000000E+00  0.25033020480E+04  0.25033020480E+04  0.00000000000E+00 0. -1.
         -2   -1    0    0    0  501 -0.00000000000E+00 -0.00000000000E+00 -0.40752442157E+02  0.40752442157E+02  0.00000000000E+00 0.  1.
         23    2    1    2    0    0 -0.20620667534E+03  0.19985767573E+03  0.89755496712E+03  0.95064038623E+03  0.12509173203E+03 0.  0.
          5    1    3    3  502    0 -0.42151707329E+02  0.68760119021E+02  0.11594031205E+03  0.14129525383E+03  0.41800000000E+01 0.  1.
         -5    1    3    3    0  502 -0.16405496801E+03  0.13109755671E+03  0.78161465507E+03  0.80934513239E+03  0.41800000000E+01 0.  1.
        -11    1    1    2    0    0  0.10076955841E+03 -0.41519046421E+02  0.60922105298E+03  0.61889306549E+03  0.00000000000E+00 0. -1.
         11    1    1    2    0    0  0.10543711693E+03 -0.15833862931E+03  0.95577358575E+03  0.97452103844E+03  0.00000000000E+00 0.  1.
</event>
<event>
 7    1  0.4394360E-006  0.1408732E+03  0.7561462E-02  0.1212159E+00
          2   -1    0    0  501    0  0.00000000000E+00  0.00000000000E+00  0.11423466326E+04  0.11423466326E+04  0.00000000000E+00 0. -1.
         -2   -1    0    0    0  501 -0.00000000000E+00 -0.00000000000E+00 -0.19878060730E+02  0.19878060730E+02  0.00000000000E+00 0.  1.
         23    2    1    2    0    0 -0.99570090230E+02 -0.26463036391E+02  0.55095978613E+03  0.57429827706E+03  0.12508928784E+03 0.  0.
          5    1    3    3  502    0 -0.35017225690E+02 -0.66778694321E+02  0.37516172264E+03  0.38268706621E+03  0.41800000000E+01 0.  1.
         -5    1    3    3    0  502 -0.64552864540E+02  0.40315657931E+02  0.17579806349E+03  0.19161121085E+03  0.41800000000E+01 0.  1.
        -11    1    1    2    0    0  0.66312889028E+02  0.55022753279E+02  0.46204421631E+03  0.47001038335E+03  0.00000000000E+00 0.  1.
         11    1    1    2    0    0  0.33257201202E+02 -0.28559716888E+02  0.10946456942E+03  0.11791603292E+03  0.00000000000E+00 0. -1.
</event>
<event>
 7    1  0.4394360E-006  0.1087780E+03  0.7561462E-02  0.1262850E+00
          1   -1    0    0  501    0  0.00000000000E+00  0.00000000000E+00  0.16935751742E+02  0.16935751742E+02  0.00000000000E+00 0. -1.
         -1   -1    0    0    0  501 -0.00000000000E+00 -0.00000000000E+00 -0.98121414282E+03  0.98121414282E+03  0.00000000000E+00 0.  1.
         23    2    1    2    0    0  0.22664657335E+02 -0.17025716926E+02 -0.77462643276E+03  0.78517460425E+03  0.12509791007E+03 0.  0.
          5    1    3    3  502    0  0.43546344094E+02  0.42268318712E+02 -0.27864005269E+03  0.28520281593E+03  0.41800000000E+01 0. -1.
         -5    1    3    3    0  502 -0.20881686760E+02 -0.59294035637E+02 -0.49598638007E+03  0.49997178832E+03  0.41800000000E+01 0. -1.
        -11    1    1    2    0    0  0.51133377469E+01 -0.34665622421E+02 -0.46204250824E+02  0.57988657468E+02  0.00000000000E+00 0. -1.
         11    1    1    2    0    0 -0.27777995081E+02  0.51691339347E+02 -0.14344770749E+03  0.15498663284E+03  0.00000000000E+00 0.  1.
</event>
<event>
 6    1  0.4394360E-006  0.1057108E+03  0.7561462E-02  0.1268725E+00
          3   -1    0    0  501    0  0.00000000000E+00  0.00000000000E+00  0.45385994443E+02  0.45385994443E+02  0.00000000000E+00 0. -1.
         -3   -1    0    0    0  501 -0.00000000000E+00 -0.00000000000E+00 -0.34199847764E+03  0.34199847764E+03  0.00000000000E+00 0.  1.
          5    1    1    2  502    0  0.80009292150E+01 -0.78727844624E+02 -0.17105653128E+03  0.18852028454E+03  0.41800000000E+01 0. -1.
         -5    1    1    2    0  502 -0.10791004345E+01  0.58687106274E+02 -0.33908693644E+02  0.67916219014E+02  0.41800000000E+01 0.  1.
        -11    1    1    2    0    0  0.54035995289E+01 -0.25544694093E+02  0.18777360972E+01  0.26177398209E+02  0.00000000000E+00 0. -1.
         11    1    1    2    0    0 -0.12325428309E+02  0.45585432443E+02 -0.93524994365E+02  0.10477057032E+03  0.00000000000E+00 0.  1.
</event>
<event>
 7    1  0.5405241E-006  0.2454484E+03  0.7561462E-02  0.1116216E+00
          2   -1    0    0  501    0  0.00000000000E+00  0.00000000000E+00  0.16307871583E+04  0.16307871583E+04  0.00000000000E+00 0. -1.
         -2   -1    0    0    0  501 -0.00000000000E+00 -0.00000000000E+00 -0.43512657750E+02  0.43512657750E+02  0.00000000000E+00 0.  1.
         23    2    1    2    0    0 -0.89332759605E+02  0.21172592738E+03  0.56746254529E+03  0.62487581414E+03  0.12509129674E+03 0.  0.
          5    1    3    3  502    0  0.21145234940E+02  0.10110896818E+02  0.20029097067E+02  0.31112510738E+02  0.41800000000E+01 0.  1.
         -5    1    3    3    0  502 -0.11047799454E+03  0.20161503057E+03  0.54743344823E+03  0.59376330340E+03  0.41800000000E+01 0.  1.
        -11    1    1    2    0    0  0.74493911025E+02 -0.10135220873E+03  0.38821927260E+03  0.40808800106E+03  0.00000000000E+00 0.  1.
         11    1    1    2    0    0  0.14838848580E+02 -0.11037371866E+03  0.63159268268E+03  0.64133600087E+03  0.00000000000E+00 0. -1.
</event>
<event>
 7    1  0.4394360E-006  0.1352918E+03  0.7561462E-02  0.1219808E+00
         -3   -1    0    0    0  501 -0.00000000000E+00  0.00000000000E+00  0.53244217842E+02  0.53244217842E+02  0.00000000000E+00 0.  1.
          3   -1    0    0  501    0  0.00000000000E+00 -0.00000000000E+00 -0.37391464689E+03  0.37391464689E+03  0.00000000000E+00 0. -1.
         23    2    1    2    0    0  0.25658480081E+01 -0.86489782566E+02 -0.13752596489E+03  0.20505612559E+03  0.12509019770E+03 0.  0.
          5    1    3    3  502    0 -0.56037536313E+02 -0.68122337896E+02 -0.63436241982E+02  0.10873126318E+03  0.41800000000E+01 0.  1.
         -5    1    3    3    0  502  0.58603384321E+02 -0.18367444670E+02 -0.74089722911E+02  0.96324862412E+02  0.41800000000E+01 0.  1.
        -11    1    1    2    0    0 -0.42887591854E+02  0.53854478980E+02 -0.13397575387E+03  0.15062919062E+03  0.00000000000E+00 0. -1.
         11    1    1    2    0    0  0.40321743846E+02  0.32635303585E+02 -0.49168710285E+02  0.71473548520E+02  0.00000000000E+00 0.  1.
</event>
<event>
 7    1  0.4394360E-006  0.1056628E+03  0.7561462E-02  0.1268819E+00
         -3   -1    0    0    0  501 -0.00000000000E+00  0.00000000000E+00  0.11168105212E+03  0.11168105212E+03  0.00000000000E+00 0.  1.
          3   -1    0    0  501    0  0.00000000000E+00 -0.00000000000E+00 -0.13069928624E+03  0.13069928624E+03  0.00000000000E+00 0. -1.
         23    2    1    2    0    0 -0.14827333139E+01  0.41490830413E+02  0.21885300777E+02  0.13360471164E+03  0.12509022774E+03 0.  0.
          5    1    3    3  502    0 -0.47036442186E+02 -0.97681774585E+01 -0.21021251883E+02  0.52604273734E+02  0.41800000000E+01 0. -1.
         -5    1    3    3    0  502  0.45553708872E+02  0.51259007872E+02  0.42906552661E+02  0.81000437908E+02  0.41800000000E+01 0. -1.
        -11    1    1    2    0    0 -0.40482647029E+02 -0.93679654076E+01  0.63366037287E+00  0.41557249811E+02  0.00000000000E+00 0.  1.
         11    1    1    2    0    0  0.41965380343E+02 -0.32122865006E+02 -0.41537195268E+02  0.67218376909E+02  0.00000000000E+00 0. -1.
</event>
<event>
 7    1  0.4394360E-006  0.8400317E+02  0.7561462E-02  0.1318060E+00
         -1   -1    0    0    0  501 -0.00000000000E+00  0.00000000000E+00  0.41667964251E+02  0.41667964251E+02  0.00000000000E+00 0.  1.
          1   -1    0    0  501    0  0.00000000000E+00 -0.00000000000E+00 -0.44303876890E+03  0.44303876890E+03  0.00000000000E+00 0. -1.
         23    2    1    2    0    0 -0.50528341025E+02  0.61757922076E+02 -0.17959695227E+03  0.23295241896E+03  0.12507841561E+03 0.  0.
          5    1    3    3  502    0 -0.10526231394E+02  0.56568474131E+00  0.18531062987E+02  0.21725428466E+02  0.41800000000E+01 0.  1.
         -5    1    3    3    0  502 -0.40002109631E+02  0.61192237334E+02 -0.19812801526E+03  0.21122699050E+03  0.41800000000E+01 0.  1.
        -11    1    1    2    0    0  0.31752123691E+02 -0.19663548253E+02 -0.15572450620E+02  0.40464227499E+02  0.00000000000E+00 0.  1.
         11    1    1    2    0    0  0.18776217333E+02 -0.42094373822E+02 -0.20620140176E+03  0.21129008669E+03  0.00000000000E+00 0. -1.
</event>
<event>
 7    1  0.4394360E-006  0.1338238E+03  0.7561462E-02  0.1221890E+00
         -2   -1    0    0    0  501 -0.00000000000E+00  0.00000000000E+00  0.13406320802E+03  0.13406320802E+03  0.00000000000E+00 0.  1.
          2   -1    0    0  501    0  0.00000000000E+00 -0.00000000000E+00 -0.16256603741E+03  0.16256603741E+03  0.00000000000E+00 0. -1.
         23    2    1    2    0    0  0.55749553874E+02 -0.76835495839E+02 -0.41794973626E+01  0.15708471354E+03  0.12508570203E+03 0.  0.
          5    1    3    3  502    0  0.28583336407E+02 -0.94731935610E+02 -0.41515855920E+02  0.10738801347E+03  0.41800000000E+01 0.  1.
         -5    1    3    3    0  502  0.27166217466E+02  0.17896439771E+02  0.37336358557E+02  0.49696700074E+02  0.41800000000E+01 0.  1.
        -11    1    1    2    0    0 -0.57747183380E+02 -0.11899192467E+01  0.10675046284E+00  0.57759540267E+02  0.00000000000E+00 0.  1.
         11    1    1    2    0    0  0.19976295065E+01  0.78025415085E+02 -0.24430082486E+02  0.81784991613E+02  0.00000000000E+00 0. -1.
</event>
<event>
 7    1  0.4394360E-006  0.1972396E+03  0.7561462E-02  0.1152089E+00
          2   -1    0    0  501    0  0.00000000000E+00  0.00000000000E+00  0.10608698859E+03  0.10608698859E+03  0.00000000000E+00 0. -1.
         -2   -1    0    0    0  501 -0.00000000000E+00 -0.00000000000E+00 -0.52476552709E+03  0.52476552709E+03  0.00000000000E+00 0.  1.
         23    2    1    2    0    0  0.15611319089E+03  0.77348476850E+02 -0.37206809500E+03  0.42946039315E+03  0.12508975466E+03 0.  0.
          5    1    3    3  502    0  0.22672387661E+02  0.77494922159E+02 -0.13337255907E+03  0.15596541936E+03  0.41800000000E+01 0. -1.
         -5    1    3    3    0  502  0.13344080323E+03 -0.14644530910E+00 -0.23869553593E+03  0.27349497379E+03  0.41800000000E+01 0. -1.
        -11    1    1    2    0    0 -0.11793052268E+03 -0.34812071722E+02 -0.67819442154E+02  0.14042423313E+03  0.00000000000E+00 0.  1.
         11    1    1    2    0    0 -0.38182668212E+02 -0.42536405128E+02  0.21208998658E+02  0.60967889393E+02  0.00000000000E+00 0. -1.
</event>
<event>
 7    1  0.4394360E-006  0.8663412E+02  0.7561462E-02  0.1311214E+00
         -2   -1    0    0    0  501 -0.00000000000E+00  0.00000000000E+00  0.39624257827E+03  0.39624257827E+03  0.00000000000E+00 0.  1.
          2   -1    0    0  501    0  0.00000000000E+00 -0.00000000000E+00 -0.40896301323E+02  0.40896301323E+02  0.00000000000E+00 0. -1.
         23    2    1    2    0    0  0.64258877075E+02 -0.10784177991E+02  0.21738705761E+03  0.25913456162E+03  0.12509231164E+03 0.  0.
          5    1    3    3  502    0  0.35280803882E+02 -0.11414409036E+02  0.22564337446E+03  0.22870817365E+03  0.41800000000E+01 0. -1.
         -5    1    3    3    0  502  0.28978073194E+02  0.63023104465E+00 -0.82563168463E+01  0.30426387973E+02  0.41800000000E+01 0. -1.
        -11    1    1    2    0    0  0.18910584404E+02 -0.93494482736E+01  0.83355868031E+01  0.22682689278E+02  0.00000000000E+00 0. -1.
         11    1    1    2    0    0 -0.83169461479E+02  0.20133626265E+02  0.12962363253E+03  0.15532162869E+03  0.00000000000E+00 0.  1.
</event>
<event>
 7    1  0.4394360E-006  0.1169316E+03  0.7561462E-02  0.1248247E+00
          3   -1    0    0  501    0  0.00000000000E+00  0.00000000000E+00  0.77500966526E+03  0.77500966526E+03  0.00000000000E+00 0. -1.
         -3   -1    0    0    0  501 -0.00000000000E+00 -0.00000000000E+00 -0.18376715232E+02  0.18376715232E+02  0.00000000000E+00 0.  1.
         23    2    1    2    0    0 -0.51163094501E+02 -0.60396003516E+01  0.45040697282E+03  0.47028393874E+03  0.12508558217E+03 0.  0.
          5    1    3    3  502    0 -0.55940136060E+02  0.51678261730E+02  0.28274492216E+03  0.29285167741E+03  0.41800000000E+01 0. -1.
         -5    1    3    3    0  502  0.47770415584E+01 -0.57717862081E+02  0.16766205066E+03  0.17743226133E+03  0.41800000000E+01 0. -1.
        -11    1    1    2    0    0 -0.21432774049E+02  0.15310856625E+02  0.48549521919E+02  0.55234429594E+02  0.00000000000E+00 0.  1.
         11    1    1    2    0    0  0.72595868550E+02 -0.92712562735E+01  0.25767645529E+03  0.26786801215E+03  0.00000000000E+00 0. -1.
</event>
<event>
 7    1  0.4394360E-006  0.1032025E+03  0.7561462E-02  0.1273702E+00
          1   -1    0    0  501    0  0.00000000000E+00  0.00000000000E+00  0.10541916335E+03  0.10541916335E+03  0.00000000000E+00 0. -1.
         -1   -1    0    0    0  501 -0.00000000000E+00 -0.00000000000E+00 -0.13818092243E+03  0.13818092243E+03  0.00000000000E+00 0.  1.
         23    2    1    2    0    0 -0.16297630526E+02  0.54690604450E+01 -0.69143781610E+02  0.14395637168E+03  0.12508817302E+03 0.  0.
          5    1    3    3  502    0 -0.33587650803E+01  0.62990229875E+02 -0.53492383336E+02  0.82812787886E+02  0.41800000000E+01 0.  1.
         -5    1    3    3    0  502 -0.12938865446E+02 -0.57521169430E+02 -0.15651398275E+02  0.61143583797E+02  0.41800000000E+01 0.  1.
        -11    1    1    2    0    0 -0.32815501099E+02  0.66766556289E+01 -0.55353580131E+01  0.33942230791E+02  0.00000000000E+00 0.  1.
         11    1    1    2    0    0  0.49113131625E+02 -0.12145716074E+02  0.41917380546E+02  0.65701483307E+02  0.00000000000E+00 0. -1.
</event>
<event>
 7    1  0.4394360E-006  0.1281281E+03  0.7561462E-02  0.1230260E+00
          1   -1    0    0  501    0  0.00000000000E+00  0.00000000000E+00  0.66021179602E+03  0.66021179602E+03  0.00000000000E+00 0. -1.
         -1   -1    0    0    0  501 -0.00000000000E+00 -0.00000000000E+00 -0.30419329212E+02  0.30419329212E+02  0.00000000000E+00 0.  1.
         23    2    1    2    0    0 -0.81900106519E+02 -0.26480980847E+02  0.27604403073E+03  0.31504962959E+03  0.12508833844E+03 0.  0.
          5    1    3    3  502    0  0.26862195476E+02 -0.11350727359E+02  0.12400048566E+03  0.12745198861E+03  0.41800000000E+01 0.  1.
         -5    1    3    3    0  502 -0.10876230199E+03 -0.15130253488E+02  0.15204354507E+03  0.18759764098E+03  0.41800000000E+01 0.  1.
        -11    1    1    2    0    0  0.10299991629E+02 -0.26109836666E+02  0.36007462554E+02  0.45654690426E+02  0.00000000000E+00 0.  1.
         11    1    1    2    0    0  0.71600114890E+02  0.52590817514E+02  0.31774097353E+03  0.32992680521E+03  0.00000000000E+00 0. -1.
</event>
<event>
 7    1  0.4394360E-006  0.1826737E+03  0.7561462E-02  0.1165240E+00
          4   -1    0    0  501    0  0.00000000000E+00  0.00000000000E+00  0.51813744039E+03  0.51813744039E+03  0.00000000000E+00 0. -1.
         -4   -1    0    0    0  501 -0.00000000000E+00 -0.00000000000E+00 -0.87871753505E+02  0.87871753505E+02  0.00000000000E+00 0.  1.
         23    2    1    2    0    0  0.14393585060E+03  0.10206537398E+03  0.15518286941E+03  0.26620349936E+03  0.12509080887E+03 0.  0.
          5    1    3    3  502    0  0.77869331588E+02  0.80191969871E+02  0.19342413245E+02  0.11351645777E+03  0.41800000000E+01 0.  1.
         -5    1    3    3    0  502  0.66066519009E+02  0.21873404108E+02  0.13584045616E+03  0.15268704160E+03  0.41800000000E+01 0.  1.
        -11    1    1    2    0    0 -0.12470525235E+03 -0.10655035576E+03  0.18352147132E+03  0.24613920597E+03  0.00000000000E+00 0.  1.
         11    1    1    2    0    0 -0.19230598245E+02  0.44849817855E+01  0.91561346154E+02  0.93666488564E+02  0.00000000000E+00 0. -1.
</event>
<event>
 7    1  0.4394360E-006  0.8961949E+02  0.7561462E-02  0.1303776E+00
          2   -1    0    0  501    0  0.00000000000E+00  0.00000000000E+00  0.19217230436E+02  0.19217230436E+02  0.00000000000E+00 0. -1.
         -2   -1    0    0    0  501 -0.00000000000E+00 -0.00000000000E+00 -0.90159878562E+03  0.90159878562E+03  0.00000000000E+00 0.  1.
         23    2    1    2    0    0  0.43024640363E+02 -0.58574714539E+02 -0.49976614551E+03  0.52028360515E+03  0.12508682077E+03 0.  0.
          5    1    3    3  502    0  0.27982093721E+02  0.56937920730E+01 -0.18030726871E+02  0.34029345405E+02  0.41800000000E+01 0.  1.
         -5    1    3    3    0  502  0.15042546642E+02 -0.64268506612E+02 -0.48173541864E+03  0.48625425975E+03  0.41800000000E+01 0.  1.
        -11    1    1    2    0    0 -0.21229411015E+02  0.58726326151E+02 -0.37023831096E+03  0.37546754344E+03  0.00000000000E+00 0.  1.
         11    1    1    2    0    0 -0.21795229348E+02 -0.15161161225E+00 -0.12377098719E+02  0.25064867466E+02  0.00000000000E+00 0. -1.
</event>
<event>
 7    1  0.4394360E-006  0.9752870E+02  0.7561462E-02  0.1285580E+00
         -3   -1    0    0    0  501 -0.00000000000E+00  0.00000000000E+00  0.29175128444E+03  0.29175128444E+03  0.00000000000E+00 0.  1.
          3   -1    0    0  501    0  0.00000000000E+00 -0.00000000000E+00 -0.53900786391E+02  0.53900786391E+02  0.00000000000E+00 0. -1.
         23    2    1    2    0    0  0.35082884054E+02 -0.25768827494E+02  0.19141004134E+03  0.23276660009E+03  0.12509054708E+03 0.  0.
          5    1    3    3  502    0 -0.78621208438E+01  0.28436919922E+02  0.63976095124E+00  0.29805252103E+02  0.41800000000E+01 0. -1.
         -5    1    3    3    0  502  0.42945004898E+02 -0.54205747416E+02  0.19077028039E+03  0.20296134799E+03  0.41800000000E+01 0. -1.
        -11    1    1    2    0    0  0.28335726524E+02  0.13479769743E+02  0.35478068835E+02  0.47363603729E+02  0.00000000000E+00 0.  1.
         11    1    1    2    0    0 -0.63418610578E+02  0.12289057751E+02  0.10962387872E+02  0.65521867005E+02  0.00000000000E+00 0. -1.
</event>
<event>
 7    1  0.4394360E-006  0.1219280E+03  0.7561462E-02  0.1239950E+00
          3   -1    0    0  501    0  0.00000000000E+00  0.00000000000E+00  0.17476066143E+03  0.17476066143E+03  0.00000000000E+00 0. -1.
         -3   -1    0    0    0  501 -0.00000000000E+00 -0.00000000000E+00 -0.93847924629E+02  0.93847924629E+02  0.00000000000E+00 0.  1.
         23    2    1    2    0    0  0.60871854476E+02 -0.10303368878E+00  0.15091172929E+02  0.13993226987E+03  0.12509157992E+03 0.  0.
          5    1    3    3  502    0  0.89306482816E+02 -0.27827721898E+02  0.28387745641E+02  0.97843581709E+02  0.41800000000E+01 0.  1.
         -5    1    3    3    0  502 -0.28434628340E+02  0.27724688209E+02 -0.13296572712E+02  0.42088688160E+02  0.41800000000E+01 0.  1.
        -11    1    1    2    0    0  0.18722969245E+02  0.20860994018E+02  0.12828333633E+02  0.30826884250E+02  0.00000000000E+00 0.  1.
         11    1    1    2    0    0 -0.79594823721E+02 -0.20757960329E+02  0.52993230241E+02  0.97849431943E+02  0.00000000000E+00 0. -1.
</event>
<event>
 7    1  0.4394360E-006  0.1382228E+03  0.7561462E-02  0.1215741E+00
         -1   -1    0    0    0  501 -0.00000000000E+00  0.00000000000E+00  0.15183208110E+03  0.15183208110E+03  0.00000000000E+00 0.  1.
          1   -1    0    0  501    0  0.00000000000E+00 -0.00000000000E+00 -0.13433317519E+03  0.13433317519E+03  0.00000000000E+00 0. -1.
         23    2    1    2    0    0 -0.58010932276E+02  0.69099066014E+02  0.30839793034E+02  0.15727278381E+03  0.12507472368E+03 0.  0.
          5    1    3    3  502    0 -0.34492646817E+02  0.10511481955E+03  0.17791447275E+02  0.11212883648E+03  0.41800000000E+01 0.  1.
         -5    1    3    3    0  502 -0.23518285459E+02 -0.36015753534E+02  0.13048345759E+02  0.45143947331E+02  0.41800000000E+01 0.  1.
        -11    1    1    2    0    0  0.26079823077E+02 -0.83510088715E+02  0.80310430350E+01  0.87855504899E+02  0.00000000000E+00 0.  1.
         11    1    1    2    0    0  0.31931109199E+02  0.14411022701E+02 -0.21371930157E+02  0.41036967585E+02  0.00000000000E+00 0. -1.
</event>
<event>
 7    1  0.4394360E-006  0.1340301E+03  0.7561462E-02  0.1221595E+00
         -3   -1    0    0    0  501 -0.00000000000E+00  0.00000000000E+00  0.28344903944E+02  0.28344903944E+02  0.00000000000E+00 0.  1.
          3   -1    0    0  501    0  0.00000000000E+00 -0.00000000000E+00 -0.68131035005E+03  0.68131035005E+03  0.00000000000E+00 0. -1.
         23    2    1    2    0    0  0.61400541755E+02 -0.64442078586E+02 -0.34975904625E+03  0.38096975967E+03  0.12199901366E+03 0.  0.
          5    1    3    3  502    0  0.90798010135E+02 -0.28091289640E+02 -0.28859596188E+03  0.30387250749E+03  0.41800000000E+01 0. -1.
         -5    1    3    3    0  502 -0.29397468381E+02 -0.36350788945E+02 -0.61163084373E+02  0.77097252183E+02  0.41800000000E+01 0.  1.
        -11    1    1    2    0    0 -0.80093122352E+02  0.70120940418E+02 -0.24048976439E+03  0.26299654239E+03  0.00000000000E+00 0.  1.
         11    1    1    2    0    0  0.18692580597E+02 -0.56788618318E+01 -0.62716635474E+02  0.65688951935E+02  0.00000000000E+00 0. -1.
</event>
<event>
 6    1  0.4394360E-006  0.5617118E+03  0.7561462E-02  0.9988189E-01
         -1   -1    0    0    0  501 -0.00000000000E+00  0.00000000000E+00  0.65739778166E+03  0.65739778166E+03  0.00000000000E+00 0.  1.
          1   -1    0    0  501    0  0.00000000000E+00 -0.00000000000E+00 -0.59453190142E+03  0.59453190142E+03  0.00000000000E+00 0. -1.
          5    1    1    2  502    0 -0.97580590288E+02 -0.15296090369E+03 -0.88986553320E+02  0.20212641769E+03  0.41800000000E+01 0. -1.
         -5    1    1    2    0  502  0.66644327150E+02 -0.38711292890E+03 -0.15299560835E+03  0.42157207526E+03  0.41800000000E+01 0.  1.
        -11    1    1    2    0    0 -0.21468733493E+01  0.48399257556E+03  0.26311795210E+03  0.55089425390E+03  0.00000000000E+00 0. -1.
         11    1    1    2    0    0  0.33083136487E+02  0.56081257025E+02  0.41730089808E+02  0.77336936225E+02  0.00000000000E+00 0.  1.
</event>
<event>
 7    1  0.4394360E-006  0.1537114E+03  0.7561462E-02  0.1195985E+00
         -2   -1    0    0    0  501 -0.00000000000E+00  0.00000000000E+00  0.90522316245E+02  0.90522316245E+02  0.00000000000E+00 0. -1.
          2   -1    0    0  501    0  0.00000000000E+00 -0.00000000000E+00 -0.34617146297E+03  0.34617146297E+03  0.00000000000E+00 0.  1.
         23    2    1    2    0    0 -0.83703262910E+02  0.96361689742E+02 -0.65806670269E+02  0.19045081112E+03  0.12509669113E+03 0.  0.
          5    1    3    3  502    0 -0.10644913088E+03  0.44674903538E+02 -0.67511418259E+02  0.13380033059E+03  0.41800000000E+01 0.  1.
         -5    1    3    3    0  502  0.22745867973E+02  0.51686786204E+02  0.17047479901E+01  0.56650480524E+02  0.41800000000E+01 0.  1.
        -11    1    1    2    0    0  0.22099838810E+02 -0.14760185850E+01 -0.98158108327E+02  0.10062601918E+03  0.00000000000E+00 0.  1.
         11    1    1    2    0    0  0.61603424100E+02 -0.94885671157E+02 -0.91684368133E+02  0.14561694892E+03  0.00000000000E+00 0. -1.
</event>
<event>
 7    1  0.4394360E-006  0.1071121E+03  0.7561462E-02  0.1266013E+00
          1   -1    0    0  501    0  0.00000000000E+00  0.00000000000E+00  0.11237664592E+03  0.11237664592E+03  0.00000000000E+00 0. -1.
         -1   -1    0    0    0  501 -0.00000000000E+00 -0.00000000000E+00 -0.15604463617E+03  0.15604463617E+03  0.00000000000E+00 0.  1.
         23    2    1    2    0    0  0.33598077130E+02 -0.66355095687E+02 -0.35100854952E+02  0.14970940879E+03  0.12509599335E+03 0.  0.
          5    1    3    3  502    0  0.42348315424E+02 -0.97297974598E+02 -0.63735428078E+01  0.10638782885E+03  0.41800000000E+01 0. -1.
         -5    1    3    3    0  502 -0.87502382945E+01  0.30942878911E+02 -0.28727312144E+02  0.43321579940E+02  0.41800000000E+01 0. -1.
        -11    1    1    2    0    0 -0.29842592152E+02  0.45523518264E+02  0.38789330353E+02  0.66839981828E+02  0.00000000000E+00 0. -1.
         11    1    1    2    0    0 -0.37554849773E+01  0.20831577423E+02 -0.47356465655E+02  0.51871891470E+02  0.00000000000E+00 0.  1.
</event>
<event>
 7    1  0.4394360E-006  0.1032580E+03  0.7561462E-02  0.1273590E+00
         -1   -1    0    0    0  501 -0.00000000000E+00  0.00000000000E+00  0.45535397959E+03  0.45535397959E+03  0.00000000000E+00 0.  1.
          1   -1    0    0  501    0  0.00000000000E+00 -0.00000000000E+00 -0.33742833167E+02  0.33742833167E+02  0.00000000000E+00 0. -1.
         23    2    1    2    0    0 -0.53770311724E+01  0.56422958352E+02  0.29338056024E+03  0.32393221728E+03  0.12508983000E+03 0.  0.
          5    1    3    3  502    0 -0.45651207271E+02 -0.11712033845E+02  0.54123728386E+02  0.71889184419E+02  0.41800000000E+01 0. -1.
         -5    1    3    3    0  502  0.40274176099E+02  0.68134992197E+02  0.23925683186E+03  0.25204303286E+03  0.41800000000E+01 0. -1.
        -11    1    1    2    0    0  0.30934326139E+02 -0.33699345107E+02  0.12214351184E+03  0.13042858536E+03  0.00000000000E+00 0. -1.
         11    1    1    2    0    0 -0.25557294967E+02 -0.22723613244E+02  0.60870743397E+01  0.34736010118E+02  0.00000000000E+00 0.  1.
</event>
<event>
 7    1  0.4394360E-006  0.5943970E+02  0.7561462E-02  0.1400198E+00
          2   -1    0    0  501    0  0.00000000000E+00  0.00000000000E+00  0.31996066019E+03  0.31996066019E+03  0.00000000000E+00 0. -1.
         -2   -1    0    0    0  501 -0.00000000000E+00 -0.00000000000E+00 -0.60708301041E+02  0.60708301041E+02  0.00000000000E+00 0.  1.
         23    2    1    2    0    0 -0.63208624524E+01  0.34377402720E+02  0.31769532887E+02  0.13372365252E+03  0.12510376855E+03 0.  0.
          5    1    3    3  502    0  0.15332231242E+02  0.81892620462E+01  0.75839198500E+02  0.77917891121E+02  0.41800000000E+01 0.  1.
         -5    1    3    3    0  502 -0.21653093694E+02  0.26188140674E+02 -0.44069665613E+02  0.55805761402E+02  0.41800000000E+01 0.  1.
        -11    1    1    2    0    0 -0.25292803839E+02 -0.18847168170E+02  0.21979327026E+02  0.38445188134E+02  0.00000000000E+00 0.  1.
         11    1    1    2    0    0  0.31613666292E+02 -0.15530234550E+02  0.20550349924E+03  0.20850012058E+03  0.00000000000E+00 0. -1.
</event>
<event>
 7    1  0.4394360E-006  0.6307616E+02  0.7561462E-02  0.1385358E+00
         -2   -1    0    0    0  501 -0.00000000000E+00  0.00000000000E+00  0.62101358167E+02  0.62101358167E+02  0.00000000000E+00 0.  1.
          2   -1    0    0  501    0  0.00000000000E+00 -0.00000000000E+00 -0.20470454128E+03  0.20470454128E+03  0.00000000000E+00 0. -1.
         23    2    1    2    0    0 -0.19876439978E+02  0.13640197305E+02 -0.56889142775E+02  0.13952360634E+03  0.12509729938E+03 0.  0.
          5    1    3    3  502    0 -0.29548482836E+02 -0.97281555629E+00 -0.93807120475E+02  0.98444438440E+02  0.41800000000E+01 0. -1.
         -5    1    3    3    0  502  0.96720428580E+01  0.14613012861E+02  0.36917977700E+02  0.41079167900E+02  0.41800000000E+01 0. -1.
        -11    1    1    2    0    0 -0.24080834755E+02 -0.23039523755E+02 -0.34076776931E+01  0.33501022740E+02  0.00000000000E+00 0.  1.
         11    1    1    2    0    0  0.43957274733E+02  0.93993264502E+01 -0.82306362644E+02  0.93781270365E+02  0.00000000000E+00 0. -1.
</event>
<event>
 7    1  0.4394360E-006  0.1689898E+03  0.7561462E-02  0.1178905E+00
         -2   -1    0    0    0  501 -0.00000000000E+00  0.00000000000E+00  0.68228580854E+02  0.68228580854E+02  0.00000000000E+00 0.  1.
          2   -1    0    0  501    0  0.00000000000E+00 -0.00000000000E+00 -0.51354949408E+03  0.51354949408E+03  0.00000000000E+00 0. -1.
         23    2    1    2    0    0  0.11685027063E+03 -0.88639099539E+02 -0.16456245923E+03  0.25340915472E+03  0.12499808396E+03 0.  0.
          5    1    3    3  502    0  0.96162719841E+02 -0.62126972082E+01 -0.12928357154E+03  0.16129966077E+03  0.41800000000E+01 0. -1.
         -5    1    3    3    0  502  0.20687550787E+02 -0.82426402331E+02 -0.35278887695E+02  0.92109493950E+02  0.41800000000E+01 0. -1.
        -11    1    1    2    0    0 -0.98504303885E+02  0.43435619292E+02 -0.12408878195E+03  0.16427956876E+03  0.00000000000E+00 0.  1.
         11    1    1    2    0    0 -0.18345966743E+02  0.45203480247E+02 -0.15666967205E+03  0.16408935146E+03  0.00000000000E+00 0. -1.
</event>
<event>
 7    1  0.8504781E-006  0.1059152E+03  0.7561462E-02  0.1268327E+00
          1   -1    0    0  501    0  0.00000000000E+00  0.00000000000E+00  0.20389749550E+03  0.20389749550E+03  0.00000000000E+00 0. -1.
         -1   -1    0    0    0  501 -0.00000000000E+00 -0.00000000000E+00 -0.10280863596E+03  0.10280863596E+03  0.00000000000E+00 0.  1.
         23    2    1    2    0    0 -0.76438336901E+02 -0.56458807119E+02  0.46411009890E+02  0.16380423221E+03  0.12508968143E+03 0.  0.
          5    1    3    3  502    0 -0.22256038916E+02  0.10333214651E+02 -0.36559058501E+02  0.44228313914E+02  0.41800000000E+01 0.  1.
         -5    1    3    3    0  502 -0.54182297985E+02 -0.66792021770E+02  0.82970068390E+02  0.11957591829E+03  0.41800000000E+01 0.  1.
        -11    1    1    2    0    0  0.40525538244E+02  0.49970885085E+02  0.76829702474E+02  0.10021083668E+03  0.00000000000E+00 0. -1.
         11    1    1    2    0    0  0.35912798657E+02  0.64879220342E+01 -0.22151852831E+02  0.42691062572E+02  0.00000000000E+00 0.  1.
</event>
<event>
 7    1  0.4394360E-006  0.1603031E+03  0.7561462E-02  0.1188355E+00
          1   -1    0    0  501    0  0.00000000000E+00  0.00000000000E+00  0.10959081894E+03  0.10959081894E+03  0.00000000000E+00 0. -1.
         -1   -1    0    0    0  501 -0.00000000000E+00 -0.00000000000E+00 -0.25072165636E+03  0.25072165636E+03  0.00000000000E+00 0.  1.
         23    2    1    2    0    0 -0.12426360662E+03 -0.10667899204E+02 -0.77101774676E+02  0.19274551798E+03  0.12510356925E+03 0.  0.
          5    1    3    3  502    0 -0.44551823238E+01  0.43535976922E+02 -0.10128461775E+02  0.45114167110E+02  0.41800000000E+01 0.  1.
         -5    1    3    3    0  502 -0.11980842429E+03 -0.54203876125E+02 -0.66973312900E+02  0.14763135087E+03  0.41800000000E+01 0.  1.
        -11    1    1    2    0    0  0.19472607109E+02  0.32640648955E+02 -0.44857107300E+02  0.58794170350E+02  0.00000000000E+00 0.  1.
         11    1    1    2    0    0  0.10479099951E+03 -0.21972749751E+02 -0.19171955447E+02  0.10877278697E+03  0.00000000000E+00 0. -1.
</event>
<event>
 7    1  0.4394360E-006  0.8169626E+02  0.7561462E-02  0.1324305E+00
         -3   -1    0    0    0  501 -0.00000000000E+00  0.00000000000E+00  0.63301721853E+03  0.63301721853E+03  0.00000000000E+00 0.  1.
          3   -1    0    0  501    0  0.00000000000E+00 -0.00000000000E+00 -0.25472472158E+02  0.25472472158E+02  0.00000000000E+00 0. -1.
         23    2    1    2    0    0  0.10987429680E+02 -0.61698260025E+02  0.37158105972E+03  0.39705404383E+03  0.12510807681E+03 0.  0.
          5    1    3    3  502    0 -0.54744738721E+01  0.35142497108E+01  0.29477423931E+03  0.29487564222E+03  0.41800000000E+01 0. -1.
         -5    1    3    3    0  502  0.16461903552E+02 -0.65212509736E+02  0.76806820408E+02  0.10217840161E+03  0.41800000000E+01 0. -1.
        -11    1    1    2    0    0 -0.36964533164E+02  0.39548515754E+02  0.21423584508E+03  0.22096936242E+03  0.00000000000E+00 0.  1.
         11    1    1    2    0    0  0.25977103484E+02  0.22149744271E+02  0.21727841576E+02  0.40466284438E+02  0.00000000000E+00 0. -1.
</event>
<event>
 7    1  0.4394360E-006  0.1988615E+03  0.7561462E-02  0.1150703E+00
         -2   -1    0    0    0  501 -0.00000000000E+00  0.00000000000E+00  0.10222731378E+04  0.10222731378E+04  0.00000000000E+00 0.  1.
          2   -1    0    0  501    0  0.00000000000E+00 -0.00000000000E+00 -0.61389136629E+02  0.61389136629E+02  0.00000000000E+00 0. -1.
         23    2    1    2    0    0  0.15400373020E+03  0.85251580910E+02  0.80319901707E+03  0.83172108737E+03  0.12508527165E+03 0.  0.
          5    1    3    3  502    0  0.22156856512E+02  0.65645559162E+02  0.15332169092E+03  0.16830115577E+03  0.41800000000E+01 0.  1.
         -5    1    3    3    0  502  0.13184687369E+03  0.19606021748E+02  0.64987732616E+03  0.66341993160E+03  0.41800000000E+01 0.  1.
        -11    1    1    2    0    0 -0.12339384985E+01  0.13166300125E+02  0.36577520737E+01  0.13720539838E+02  0.00000000000E+00 0. -1.
         11    1    1    2    0    0 -0.15276979170E+03 -0.98417881035E+02  0.15402723206E+03  0.23822064726E+03  0.00000000000E+00 0.  1.
</event>
<event>
 7    1  0.4394360E-006  0.8641759E+02  0.7561462E-02  0.1311766E+00
         -2   -1    0    0    0  501 -0.00000000000E+00  0.00000000000E+00  0.11099716464E+03  0.11099716464E+03  0.00000000000E+00 0.  1.
          2   -1    0    0  501    0  0.00000000000E+00 -0.00000000000E+00 -0.14890350452E+03  0.14890350452E+03  0.00000000000E+00 0. -1.
         23    2    1    2    0    0  0.19098528037E+02  0.10524407547E+02  0.45197910464E+02  0.13478563749E+03  0.12509516392E+03 0.  0.
          5    1    3    3  502    0  0.24898245299E+02  0.46904843683E+02  0.71620382613E+02  0.89257708829E+02  0.41800000000E+01 0. -1.
         -5    1    3    3    0  502 -0.57997172619E+01 -0.36380436136E+02 -0.26422472149E+02  0.45527928662E+02  0.41800000000E+01 0. -1.
        -11    1    1    2    0    0 -0.36797497177E+02  0.23834085488E+02 -0.14151729049E+02  0.46069413547E+02  0.00000000000E+00 0.  1.
         11    1    1    2    0    0  0.17698969139E+02 -0.34358493035E+02 -0.68952521294E+02  0.79045618126E+02  0.00000000000E+00 0. -1.
</event>
<event>
 7    1  0.4394360E-006  0.1562207E+03  0.7561462E-02  0.1193031E+00
          2   -1    0    0  501    0  0.00000000000E+00  0.00000000000E+00  0.21175115373E+03  0.21175115373E+03  0.00000000000E+00 0. -1.
         -2   -1    0    0    0  501 -0.00000000000E+00 -0.00000000000E+00 -0.13040617086E+03  0.13040617086E+03  0.00000000000E+00 0.  1.
         23    2    1    2    0    0  0.11971681494E+03  0.35638123584E+02  0.28197152500E+02  0.17901922488E+03  0.12510240540E+03 0.  0.
          5    1    3    3  502    0  0.82170801755E+02  0.77085993336E+02  0.43565062173E+02  0.12087050125E+03  0.41800000000E+01 0. -1.
         -5    1    3    3    0  502  0.37546013181E+02 -0.41447869752E+02 -0.15367909673E+02  0.58148723636E+02  0.41800000000E+01 0. -1.
        -11    1    1    2    0    0 -0.81647779673E+02  0.12116523997E+02  0.55809021564E+00  0.82543815904E+02  0.00000000000E+00 0.  1.
         11    1    1    2    0    0 -0.38069035264E+02 -0.47754647581E+02  0.52589740153E+02  0.80594283797E+02  0.00000000000E+00 0. -1.
</event>
<event>
 7    1  0.4394360E-006  0.1046922E+03  0.7561462E-02  0.1270727E+00
          2   -1    0    0  501    0  0.00000000000E+00  0.00000000000E+00  0.63565602358E+02  0.63565602358E+02  0.00000000000E+00 0. -1.
         -2   -1    0    0    0  501 -0.00000000000E+00 -0.00000000000E+00 -0.29941983959E+03  0.29941983959E+03  0.00000000000E+00 0.  1.
         23    2    1    2    0    0  0.11804857032E+02  0.82036753866E+02 -0.15776659042E+03  0.21774266439E+03  0.12510870157E+03 0.  0.
          5    1    3    3  502    0 -0.21335748369E+02  0.48778754900E+02 -0.16184637294E+03  0.17042975657E+03  0.41800000000E+01 0.  1.
         -5    1    3    3    0  502  0.33140605401E+02  0.33257998966E+02  0.40797825235E+01  0.47312907827E+02  0.41800000000E+01 0.  1.
        -11    1    1    2    0    0  0.27744035777E+02 -0.16447518956E+02 -0.57509452661E+02  0.65936253657E+02  0.00000000000E+00 0.  1.
         11    1    1    2    0    0 -0.39548892810E+02 -0.65589234911E+02 -0.20578194154E+02  0.79306523901E+02  0.00000000000E+00 0. -1.
</event>
<event>
 7    1  0.4394360E-006  0.1170354E+03  0.7561462E-02  0.1248069E+00
         -2   -1    0    0    0  501 -0.00000000000E+00  0.00000000000E+00  0.30570397759E+02  0.30570397759E+02  0.00000000000E+00 0.  1.
          2   -1    0    0  501    0  0.00000000000E+00 -0.00000000000E+00 -0.75233424090E+03  0.75233424090E+03  0.00000000000E+00 0. -1.
         23    2    1    2    0    0 -0.48146734312E+02 -0.16893209858E+02 -0.15000579272E+03  0.20187663083E+03  0.12509575397E+03 0.  0.
          5    1    3    3  502    0 -0.36730520882E+02 -0.68666229521E+02 -0.11214570337E+03  0.13659543706E+03  0.41800000000E+01 0. -1.
         -5    1    3    3    0  502 -0.11416213430E+02  0.51773019663E+02 -0.37860089349E+02  0.65281193767E+02  0.41800000000E+01 0. -1.
        -11    1    1    2    0    0 -0.60751450837E+01  0.42505854768E+02 -0.21171152907E+03  0.21602181977E+03  0.00000000000E+00 0.  1.
         11    1    1    2    0    0  0.54221879396E+02 -0.25612644910E+02 -0.36004652134E+03  0.36500618805E+03  0.00000000000E+00 0. -1.
</event>
<event>
 7    1  0.5840647E-006  0.1786300E+03  0.7561462E-02  0.1169136E+00
          2   -1    0    0  501    0  0.00000000000E+00  0.00000000000E+00  0.18471894047E+04  0.18471894047E+04  0.00000000000E+00 0. -1.
         -2   -1    0    0    0  501 -0.00000000000E+00 -0.00000000000E+00 -0.17652207032E+02  0.17652207032E+02  0.00000000000E+00 0.  1.
         23    2    1    2    0    0  0.93130526166E+02  0.10063385844E+03  0.93009118466E+03  0.94842915015E+03  0.12509105765E+03 0.  0.
          5    1    3    3  502    0  0.96695587968E+02  0.16951777101E+02  0.40930612916E+03  0.42093512475E+03  0.41800000000E+01 0. -1.
         -5    1    3    3    0  502 -0.35650618011E+01  0.83682081334E+02  0.52078505550E+03  0.52749402540E+03  0.41800000000E+01 0. -1.
        -11    1    1    2    0    0  0.21548909661E+02 -0.39954752005E+02  0.20747197189E+03  0.21238021762E+03  0.00000000000E+00 0.  1.
         11    1    1    2    0    0 -0.11467943583E+03 -0.60679106431E+02  0.69197404110E+03  0.70403224394E+03  0.00000000000E+00 0. -1.
</event>
<event>
 7    1  0.4394360E-006  0.1009580E+03  0.7561462E-02  0.1278294E+00
          2   -1    0    0  501    0  0.00000000000E+00  0.00000000000E+00  0.32236245616E+03  0.32236245616E+03  0.00000000000E+00 0. -1.
         -2   -1    0    0    0  501 -0.00000000000E+00 -0.00000000000E+00 -0.46421783328E+02  0.46421783328E+02  0.00000000000E+00 0.  1.
         23    2    1    2    0    0  0.58575892873E+02  0.18679659420E+02  0.13920950316E+03  0.19699461530E+03  0.12509007868E+03 0.  0.
          5    1    3    3  502    0  0.98021455108E+02  0.89486262316E+01  0.96790468525E+02  0.13810919872E+03  0.41800000000E+01 0. -1.
         -5    1    3    3    0  502 -0.39445562234E+02  0.97310331889E+01  0.42419034634E+02  0.58885416583E+02  0.41800000000E+01 0. -1.
        -11    1    1    2    0    0 -0.20089496477E+02 -0.76530957074E+00 -0.74872816604E+01  0.21453040673E+02  0.00000000000E+00 0.  1.
         11    1    1    2    0    0 -0.38486396396E+02 -0.17914349850E+02  0.14421845133E+03  0.15033658351E+03  0.00000000000E+00 0. -1.
</event>
<event>
 7    1  0.4394360E-006  0.6207177E+02  0.7561462E-02  0.1389338E+00
         -2   -1    0    0    0  501 -0.00000000000E+00  0.00000000000E+00  0.69167742664E+02  0.69167742664E+02  0.00000000000E+00 0.  1.
          2   -1    0    0  501    0  0.00000000000E+00 -0.00000000000E+00 -0.20806695413E+03  0.20806695413E+03  0.00000000000E+00 0. -1.
         23    2    1    2    0    0 -0.44997125209E+02  0.13169814394E+02 -0.54811292928E+02  0.14439398267E+03  0.12508860504E+03 0.  0.
          5    1    3    3  502    0 -0.50391179786E+02  0.29680929009E+02  0.24169179897E+02  0.63418058973E+02  0.41800000000E+01 0. -1.
         -5    1    3    3    0  502  0.53940545763E+01 -0.16511114616E+02 -0.78980472825E+02  0.80975923695E+02  0.41800000000E+01 0. -1.
        -11    1    1    2    0    0  0.26605462714E+02 -0.12087016903E+02  0.14446807333E+02  0.32598418151E+02  0.00000000000E+00 0.  1.
         11    1    1    2    0    0  0.18391662496E+02 -0.10827974907E+01 -0.98534725873E+02  0.10024229598E+03  0.00000000000E+00 0. -1.
</event>
<event>
 7    1  0.4394360E-006  0.3576686E+03  0.7561462E-02  0.1059511E+00
          1   -1    0    0  501    0  0.00000000000E+00  0.00000000000E+00  0.52468719260E+03  0.52468719260E+03  0.00000000000E+00 0. -1.
         -1   -1    0    0    0  501 -0.00000000000E+00 -0.00000000000E+00 -0.29559059972E+03  0.29559059972E+03  0.00000000000E+00 0.  1.
         23    2    1    2    0    0  0.21229672884E+03  0.28680975875E+03 -0.86366049630E+01  0.37822717799E+03  0.12510582893E+03 0.  0.
          5    1    3    3  502    0  0.93572621647E+02  0.15312319866E+03  0.56046750600E+02  0.18804589903E+03  0.41800000000E+01 0.  1.
         -5    1    3    3    0  502  0.11872410719E+03  0.13368656009E+03 -0.64683355563E+02  0.19018127895E+03  0.41800000000E+01 0.  1.
        -11    1    1    2    0    0 -0.16167306317E+03 -0.21054128246E+03  0.22812070107E+03  0.35000695026E+03  0.00000000000E+00 0. -1.
         11    1    1    2    0    0 -0.50623665673E+02 -0.76268476291E+02  0.96124967717E+01  0.92043664073E+02  0.00000000000E+00 0.  1.
</event>
<event>
 7    1  0.4394360E-006  0.1202136E+03  0.7561462E-02  0.1242745E+00
          2   -1    0    0  501    0  0.00000000000E+00  0.00000000000E+00  0.72493089432E+03  0.72493089432E+03  0.00000000000E+00 0. -1.
         -2   -1    0    0    0  501 -0.00000000000E+00 -0.00000000000E+00 -0.41852856698E+02  0.41852856698E+02  0.00000000000E+00 0.  1.
         23    2    1    2    0    0  0.10817383897E+03 -0.51103848279E+02  0.22291655920E+03  0.28223269552E+03  0.12510123624E+03 0.  0.
          5    1    3    3  502    0  0.86096181708E+02 -0.40270539310E+02  0.49910304831E+02  0.10743732950E+03  0.41800000000E+01 0. -1.
         -5    1    3    3    0  502  0.22077657267E+02 -0.10833308968E+02  0.17300625437E+03  0.17479536602E+03  0.41800000000E+01 0. -1.
        -11    1    1    2    0    0 -0.88744580548E+02  0.36154699813E+02  0.44612830722E+03  0.45630387835E+03  0.00000000000E+00 0. -1.
         11    1    1    2    0    0 -0.19429258427E+02  0.14949148466E+02  0.14033171210E+02  0.28247177153E+02  0.00000000000E+00 0.  1.
</event>
<event>
 7    1  0.4394360E-006  0.1524163E+03  0.7561462E-02  0.1197535E+00
         -1   -1    0    0    0  501 -0.00000000000E+00  0.00000000000E+00  0.24534055947E+03  0.24534055947E+03  0.00000000000E+00 0.  1.
          1   -1    0    0  501    0  0.00000000000E+00 -0.00000000000E+00 -0.14188167918E+03  0.14188167918E+03  0.00000000000E+00 0. -1.
         23    2    1    2    0    0 -0.10884520061E+03 -0.32085970976E+02  0.15918849363E+03  0.23208721432E+03  0.12508681513E+03 0.  0.
          5    1    3    3  502    0 -0.12440356753E+03  0.66244568156E+01  0.10136936349E+03  0.16066533944E+03  0.41800000000E+01 0. -1.
         -5    1    3    3    0  502  0.15558366928E+02 -0.38710427792E+02  0.57819130137E+02  0.71421874878E+02  0.41800000000E+01 0. -1.
        -11    1    1    2    0    0  0.99792014003E+02  0.54767000267E+02 -0.62407417273E+02  0.12981739524E+03  0.00000000000E+00 0. -1.
         11    1    1    2    0    0  0.90531866031E+01 -0.22681029291E+02  0.66778039277E+01  0.25317629088E+02  0.00000000000E+00 0.  1.
</event>
<event>
 6    1  0.4394360E-006  0.1206876E+03  0.7561462E-02  0.1241967E+00
         -2   -1    0    0    0  501 -0.00000000000E+00  0.00000000000E+00  0.50584482818E+02  0.50584482818E+02  0.00000000000E+00 0.  1.
          2   -1    0    0  501    0  0.00000000000E+00 -0.00000000000E+00 -0.42165992318E+03  0.42165992318E+03  0.00000000000E+00 0. -1.
          5    1    1    2  502    0 -0.53041996053E+02  0.33000499175E+02 -0.11412689415E+03  0.13017260333E+03  0.41800000000E+01 0. -1.
         -5    1    1    2    0  502  0.67722610474E+02 -0.56758438401E+02 -0.27532287200E+02  0.92646486915E+02  0.41800000000E+01 0.  1.
        -11    1    1    2    0    0 -0.72619648208E+01  0.56381948655E+02 -0.18672015639E+03  0.19518216381E+03  0.00000000000E+00 0.  1.
         11    1    1    2    0    0 -0.74186496006E+01 -0.32624009428E+02 -0.42696102628E+02  0.54243151943E+02  0.00000000000E+00 0. -1.
</event>
<event>
 7    1  0.4394360E-006  0.2512117E+03  0.7561462E-02  0.1112541E+00
         -2   -1    0    0    0  501 -0.00000000000E+00  0.00000000000E+00  0.70090315003E+02  0.70090315003E+02  0.00000000000E+00 0.  1.
          2   -1    0    0  501    0  0.00000000000E+00 -0.00000000000E+00 -0.97652540523E+03  0.97652540523E+03  0.00000000000E+00 0. -1.
         23    2    1    2    0    0 -0.14466123228E+03 -0.18427241501E+03 -0.39003930467E+03  0.47186479078E+03  0.12507008649E+03 0.  0.
          5    1    3    3  502    0 -0.12597837013E+03 -0.59655216996E+02 -0.20096327140E+03  0.24460785660E+03  0.41800000000E+01 0. -1.
         -5    1    3    3    0  502 -0.18682862143E+02 -0.12461719801E+03 -0.18907603327E+03  0.22725693418E+03  0.41800000000E+01 0. -1.
        -11    1    1    2    0    0  0.43287484364E+02  0.31458330754E+02 -0.48567535807E+02  0.72265056636E+02  0.00000000000E+00 0.  1.
         11    1    1    2    0    0  0.10137374791E+03  0.15281408426E+03 -0.46782824975E+03  0.50248587281E+03  0.00000000000E+00 0. -1.
</event>
<event>
 7    1  0.4394360E-006  0.1742513E+03  0.7561462E-02  0.1173486E+00
         -2   -1    0    0    0  501 -0.00000000000E+00  0.00000000000E+00  0.10339956930E+03  0.10339956930E+03  0.00000000000E+00 0.  1.
          2   -1    0    0  501    0  0.00000000000E+00 -0.00000000000E+00 -0.50146503971E+03  0.50146503971E+03  0.00000000000E+00 0. -1.
         23    2    1    2    0    0  0.12193832740E+03  0.88556047794E+02 -0.32632023943E+02  0.19855350192E+03  0.12509002698E+03 0.  0.
          5    1    3    3  502    0  0.60117022190E+02  0.99791557167E+02 -0.58553129564E+02  0.13045440821E+03  0.41800000000E+01 0. -1.
         -5    1    3    3    0  502  0.61821305206E+02 -0.11235509373E+02  0.25921105620E+02  0.68099093716E+02  0.41800000000E+01 0. -1.
        -11    1    1    2    0    0 -0.11836495503E+02 -0.51409938211E+02 -0.62101681484E+02  0.81484374059E+02  0.00000000000E+00 0.  1.
         11    1    1    2    0    0 -0.11010183189E+03 -0.37146109583E+02 -0.30333176498E+03  0.32482673303E+03  0.00000000000E+00 0. -1.
</event>
<event>
 7    1  0.4394360E-006  0.2571527E+03  0.7561462E-02  0.1108866E+00
         -2   -1    0    0    0  501 -0.00000000000E+00  0.00000000000E+00  0.24839660333E+03  0.24839660333E+03  0.00000000000E+00 0.  1.
          2   -1    0    0  501    0  0.00000000000E+00 -0.00000000000E+00 -0.31118388827E+03  0.31118388827E+03  0.00000000000E+00 0. -1.
         23    2    1    2    0    0 -0.16977411224E+03 -0.17278748234E+03  0.49204884597E+02  0.27706620003E+03  0.12516307479E+03 0.  0.
          5    1    3    3  502    0 -0.29214281480E+02 -0.11524446176E+03  0.37240838070E+02  0.12465597711E+03  0.41800000000E+01 0. -1.
         -5    1    3    3    0  502 -0.14055983076E+03 -0.57543020573E+02  0.11964046527E+02  0.15241022292E+03  0.41800000000E+01 0. -1.
        -11    1    1    2    0    0  0.73421983495E+02  0.91685908786E+02 -0.10304747972E+03  0.15625580504E+03  0.00000000000E+00 0. -1.
         11    1    1    2    0    0  0.96352128748E+02  0.81101573549E+02 -0.89446898212E+01  0.12625848654E+03  0.00000000000E+00 0.  1.
</event>
<event>
 7    1  0.4394360E-006  0.1267239E+03  0.7561462E-02  0.1232400E+00
          3   -1    0    0  501    0  0.00000000000E+00  0.00000000000E+00  0.67616672060E+03  0.67616672060E+03  0.00000000000E+00 0. -1.
         -3   -1    0    0    0  501 -0.00000000000E+00 -0.00000000000E+00 -0.33470075271E+02  0.33470075271E+02  0.00000000000E+00 0.  1.
         23    2    1    2    0    0 -0.86485664604E+02  0.35327166668E+02  0.23827313454E+03  0.28485764838E+03  0.12506803873E+03 0.  0.
          5    1    3    3  502    0 -0.38791897613E+02  0.80169186549E+02  0.15545230644E+03  0.17920603162E+03  0.41800000000E+01 0.  1.
         -5    1    3    3    0  502 -0.47693766991E+02 -0.44842019881E+02  0.82820828102E+02  0.10565161676E+03  0.41800000000E+01 0.  1.
        -11    1    1    2    0    0  0.12736076932E+02  0.60797429448E+01  0.28529291675E+01  0.14398268463E+02  0.00000000000E+00 0.  1.
         11    1    1    2    0    0  0.73749587672E+02 -0.41406909613E+02  0.40157058162E+03  0.41038087902E+03  0.00000000000E+00 0. -1.
</event>
<event>
 7    1  0.4394360E-006  0.1280394E+03  0.7561462E-02  0.1230394E+00
         -2   -1    0    0    0  501 -0.00000000000E+00  0.00000000000E+00  0.29300462369E+02  0.29300462369E+02  0.00000000000E+00 0.  1.
          2   -1    0    0  501    0  0.00000000000E+00 -0.00000000000E+00 -0.82556865524E+03  0.82556865524E+03  0.00000000000E+00 0. -1.
         23    2    1    2    0    0  0.98799527317E+02  0.16729953328E+02 -0.25539478085E+03  0.29739409950E+03  0.11478466098E+03 0.  0.
          5    1    3    3  502    0  0.78082054920E+02 -0.18537750480E+02 -0.24065228337E+03  0.25371529198E+03  0.41800000000E+01 0. -1.
         -5    1    3    3    0  502  0.20717472397E+02  0.35267703808E+02 -0.14742497475E+02  0.43678807518E+02  0.41800000000E+01 0.  1.
        -11    1    1    2    0    0 -0.56890000069E+02 -0.54058969860E+02 -0.33705116109E+03  0.34606694370E+03  0.00000000000E+00 0. -1.
         11    1    1    2    0    0 -0.41909527248E+02  0.37329016532E+02 -0.20382225093E+03  0.21140807441E+03  0.00000000000E+00 0.  1.
</event>
<event>
 7    1  0.4394360E-006  0.1198550E+03  0.7561462E-02  0.1243336E+00
          1   -1    0    0  501    0  0.00000000000E+00  0.00000000000E+00  0.59412496174E+03  0.59412496174E+03  0.00000000000E+00 0. -1.
         -1   -1    0    0    0  501 -0.00000000000E+00 -0.00000000000E+00 -0.29893603061E+02  0.29893603061E+02  0.00000000000E+00 0.  1.
         23    2    1    2    0    0  0.26291872273E+02 -0.65356966439E+02  0.23810987772E+03  0.27808920201E+03  0.12519782266E+03 0.  0.
          5    1    3    3  502    0  0.64908324672E+02 -0.63203992020E+02  0.10181369956E+03  0.13635005331E+03  0.41800000000E+01 0.  1.
         -5    1    3    3    0  502 -0.38616452399E+02 -0.21529744188E+01  0.13629617816E+03  0.14173914870E+03  0.41800000000E+01 0.  1.
        -11    1    1    2    0    0  0.31087030453E+02  0.19887412433E+02  0.16310672681E+03  0.16722953377E+03  0.00000000000E+00 0.  1.
         11    1    1    2    0    0 -0.57378902726E+02  0.45469554006E+02  0.16301475415E+03  0.17869982901E+03  0.00000000000E+00 0. -1.
</event>
<event>
 7    1  0.4394360E-006  0.1161802E+03  0.7561462E-02  0.1249535E+00
         -2   -1    0    0    0  501 -0.00000000000E+00  0.00000000000E+00  0.74435690030E+02  0.74435690030E+02  0.00000000000E+00 0.  1.
          2   -1    0    0  501    0  0.00000000000E+00 -0.00000000000E+00 -0.21110418089E+03  0.21110418089E+03  0.00000000000E+00 0. -1.
         23    2    1    2    0    0 -0.46677304845E+02  0.10497743418E+01 -0.23714317036E+02  0.13307288176E+03  0.12233621791E+03 0.  0.
          5    1    3    3  502    0 -0.38883228795E+02 -0.58548338272E+02 -0.84078265906E+01  0.70908231849E+02  0.41800000000E+01 0. -1.
         -5    1    3    3    0  502 -0.77940760492E+01  0.59598112613E+02 -0.15306490445E+02  0.62164649909E+02  0.41800000000E+01 0.  1.
        -11    1    1    2    0    0  0.59435956829E+02  0.31122817300E+02 -0.82747856799E+02  0.10652920034E+03  0.00000000000E+00 0. -1.
         11    1    1    2    0    0 -0.12758651984E+02 -0.32172591642E+02 -0.30206317028E+02  0.45937788821E+02  0.00000000000E+00 0.  1.
</event>
<event>
 7    1  0.4394360E-006  0.1577756E+03  0.7561462E-02  0.1191231E+00
          2   -1    0    0  501    0  0.00000000000E+00  0.00000000000E+00  0.16132781393E+03  0.16132781393E+03  0.00000000000E+00 0.  1.
         -2   -1    0    0    0  501 -0.00000000000E+00 -0.00000000000E+00 -0.16586718561E+03  0.16586718561E+03  0.00000000000E+00 0. -1.
         23    2    1    2    0    0 -0.95027724750E+02  0.78929816952E+02 -0.36959891557E+01  0.17583825123E+03  0.12508095692E+03 0.  0.
          5    1    3    3  502    0 -0.13267317684E+02  0.81116497484E+02 -0.33262627812E+02  0.88768140070E+02  0.41800000000E+01 0.  1.
         -5    1    3    3    0  502 -0.81760407065E+02 -0.21866805311E+01  0.29566638656E+02  0.87070111156E+02  0.41800000000E+01 0.  1.
        -11    1    1    2    0    0 -0.16325597946E+02 -0.18452854995E+02 -0.17798561974E+00  0.24638682689E+02  0.00000000000E+00 0.  1.
         11    1    1    2    0    0  0.11135332270E+03 -0.60476961957E+02 -0.66539691268E+00  0.12671806563E+03  0.00000000000E+00 0. -1.
</event>
<event>
 7    1  0.4394360E-006  0.9921886E+02  0.7561462E-02  0.1281947E+00
         -1   -1    0    0    0  501 -0.00000000000E+00  0.00000000000E+00  0.23974886092E+02  0.23974886092E+02  0.00000000000E+00 0.  1.
          1   -1    0    0  501    0  0.00000000000E+00 -0.00000000000E+00 -0.65144403273E+03  0.65144403273E+03  0.00000000000E+00 0. -1.
         23    2    1    2    0    0  0.14002353129E+02  0.56845056950E+02 -0.30789382751E+03  0.33745054820E+03  0.12508731778E+03 0.  0.
          5    1    3    3  502    0 -0.30217217523E+02  0.43491672960E+02 -0.42492724567E+02  0.68027273154E+02  0.41800000000E+01 0. -1.
         -5    1    3    3    0  502  0.44219570653E+02  0.13353383990E+02 -0.26540110294E+03  0.26942327504E+03  0.41800000000E+01 0. -1.
        -11    1    1    2    0    0 -0.20158402717E+02  0.16057344936E+02 -0.31254043149E+02  0.40509440130E+02  0.00000000000E+00 0.  1.
         11    1    1    2    0    0  0.61560495873E+01 -0.72902401886E+02 -0.28832127599E+03  0.29745893050E+03  0.00000000000E+00 0. -1.
</event>
<event>
 7    1  0.4394360E-006  0.1042759E+03  0.7561462E-02  0.1271553E+00
         -2   -1    0    0    0  501 -0.00000000000E+00  0.00000000000E+00  0.33881057020E+03  0.33881057020E+03  0.00000000000E+00 0.  1.
          2   -1    0    0  501    0  0.00000000000E+00 -0.00000000000E+00 -0.47472847615E+02  0.47472847615E+02  0.00000000000E+00 0. -1.
         23    2    1    2    0    0 -0.41147439823E+01  0.20662403470E+02  0.25654424834E+03  0.28619463769E+03  0.12509417753E+03 0.  0.
          5    1    3    3  502    0 -0.63685846026E+02  0.10739680823E+02  0.15508837905E+03  0.16805090135E+03  0.41800000000E+01 0. -1.
         -5    1    3    3    0  502  0.59571102044E+02  0.99227226473E+01  0.10145586929E+03  0.11814373634E+03  0.41800000000E+01 0. -1.
        -11    1    1    2    0    0  0.41481419233E+02 -0.20055923274E+01 -0.56961971056E+01  0.41918697542E+02  0.00000000000E+00 0. -1.
         11    1    1    2    0    0 -0.37366675251E+02 -0.18656811143E+02  0.40489671354E+02  0.58170082583E+02  0.00000000000E+00 0.  1.
</event>
<event>
 7    1  0.4394360E-006  0.1108971E+03  0.7561462E-02  0.1258918E+00
         -1   -1    0    0    0  501 -0.00000000000E+00  0.00000000000E+00  0.32739070739E+02  0.32739070739E+02  0.00000000000E+00 0.  1.
          1   -1    0    0  501    0  0.00000000000E+00 -0.00000000000E+00 -0.43546452459E+03  0.43546452459E+03  0.00000000000E+00 0. -1.
         23    2    1    2    0    0 -0.34294265336E+02  0.84625852720E+01 -0.15381424157E+03  0.20137940201E+03  0.12508849132E+03 0.  0.
          5    1    3    3  502    0 -0.80853889029E+02  0.41790260130E+01 -0.11363563051E+03  0.13958991565E+03  0.41800000000E+01 0.  1.
         -5    1    3    3    0  502  0.46559623692E+02  0.42835592589E+01 -0.40178611061E+02  0.61789486364E+02  0.41800000000E+01 0.  1.
        -11    1    1    2    0    0  0.39833953948E+02  0.33136944432E+02 -0.16596944753E+03  0.17386965948E+03  0.00000000000E+00 0. -1.
         11    1    1    2    0    0 -0.55396886119E+01 -0.41599529704E+02 -0.82941764746E+02  0.92954533836E+02  0.00000000000E+00 0.  1.
</event>
<event>
 7    1  0.4394360E-006  0.6643458E+02  0.7561462E-02  0.1372655E+00
         -1   -1    0    0    0  501 -0.00000000000E+00  0.00000000000E+00  0.28879513884E+02  0.28879513884E+02  0.00000000000E+00 0.  1.
          1   -1    0    0  501    0  0.00000000000E+00 -0.00000000000E+00 -0.47024083291E+03  0.47024083291E+03  0.00000000000E+00 0. -1.
         23    2    1    2    0    0 -0.17242679985E+02  0.17683190558E+02 -0.17389690045E+03  0.21563281130E+03  0.12508945632E+03 0.  0.
          5    1    3    3  502    0  0.21571817220E+01 -0.99704867935E+01  0.17800045671E+02  0.20937479929E+02  0.41800000000E+01 0. -1.
         -5    1    3    3    0  502 -0.19399861707E+02  0.27653677351E+02 -0.19169694612E+03  0.19469533137E+03  0.41800000000E+01 0. -1.
        -11    1    1    2    0    0  0.16029644727E+02 -0.51516235538E+02 -0.11119406590E+03  0.12359203990E+03  0.00000000000E+00 0.  1.
         11    1    1    2    0    0  0.12130352578E+01  0.33833044980E+02 -0.15627035267E+03  0.15989549559E+03  0.00000000000E+00 0. -1.
</event>
<event>
 7    1  0.4394360E-006  0.1315688E+03  0.7561462E-02  0.1225146E+00
          1   -1    0    0  501    0  0.00000000000E+00  0.00000000000E+00  0.81340692133E+02  0.81340692133E+02  0.00000000000E+00 0. -1.
         -1   -1    0    0    0  501 -0.00000000000E+00 -0.00000000000E+00 -0.25558003603E+03  0.25558003603E+03  0.00000000000E+00 0.  1.
         23    2    1    2    0    0 -0.24442569789E+02 -0.90360965905E+02 -0.11106187890E+03  0.19168619712E+03  0.12508522632E+03 0.  0.
          5    1    3    3  502    0  0.13174847607E+02 -0.98736041463E+02 -0.11560353193E+03  0.15265658023E+03  0.41800000000E+01 0. -1.
         -5    1    3    3    0  502 -0.37617417396E+02  0.83750755578E+01  0.45416530259E+01  0.39029616887E+02  0.41800000000E+01 0. -1.
        -11    1    1    2    0    0  0.78094247933E+01  0.10330395553E+03 -0.67595727081E+02  0.12370075450E+03  0.00000000000E+00 0.  1.
         11    1    1    2    0    0  0.16633144995E+02 -0.12942989622E+02  0.44182620845E+01  0.21533776553E+02  0.00000000000E+00 0. -1.
</event>
<event>
 7    1  0.4394360E-006  0.9318839E+02  0.7561462E-02  0.1295309E+00
         -2   -1    0    0    0  501 -0.00000000000E+00  0.00000000000E+00  0.10172340226E+04  0.10172340226E+04  0.00000000000E+00 0. -1.
          2   -1    0    0  501    0  0.00000000000E+00 -0.00000000000E+00 -0.14545373706E+02  0.14545373706E+02  0.00000000000E+00 0.  1.
         23    2    1    2    0    0  0.45741517609E+02  0.22542197544E+02  0.65122044861E+03  0.66508306817E+03  0.12508788020E+03 0.  0.
          5    1    3    3  502    0  0.11542733358E+02 -0.24969597774E+02  0.52659972206E+03  0.52733429168E+03  0.41800000000E+01 0.  1.
         -5    1    3    3    0  502  0.34198784252E+02  0.47511795317E+02  0.12462072656E+03  0.13774877650E+03  0.41800000000E+01 0.  1.
        -11    1    1    2    0    0  0.18231067675E+02 -0.30361783248E+02  0.76859891323E+02  0.84626547872E+02  0.00000000000E+00 0.  1.
         11    1    1    2    0    0 -0.63972585284E+02  0.78195857046E+01  0.27460830894E+03  0.28206978024E+03  0.00000000000E+00 0. -1.
</event>
<event>
 7    1  0.4394360E-006  0.9953482E+02  0.7561462E-02  0.1281277E+00
          4   -1    0    0  501    0  0.00000000000E+00  0.00000000000E+00  0.31793240837E+03  0.31793240837E+03  0.00000000000E+00 0. -1.
         -4   -1    0    0    0  501 -0.00000000000E+00 -0.00000000000E+00 -0.47678364343E+02  0.47678364343E+02  0.00000000000E+00 0.  1.
         23    2    1    2    0    0 -0.14288419923E+02 -0.17618973903E+02  0.72922608529E+02  0.14656113479E+03  0.12509145539E+03 0.  0.
          5    1    3    3  502    0 -0.41621264091E+02 -0.47525509453E+02  0.31930969966E+00  0.63313332182E+02  0.41800000000E+01 0. -1.
         -5    1    3    3    0  502  0.27332844168E+02  0.29906535550E+02  0.72603298829E+02  0.83247802613E+02  0.41800000000E+01 0. -1.
        -11    1    1    2    0    0 -0.33666687818E+02  0.30439730741E+02  0.90116465389E+02  0.10090094356E+03  0.00000000000E+00 0.  1.
         11    1    1    2    0    0  0.47955107740E+02 -0.12820756839E+02  0.10721497011E+03  0.11814869436E+03  0.00000000000E+00 0. -1.
</event>
<event>
 7    1  0.4394360E-006  0.1087867E+03  0.7561462E-02  0.1262833E+00
         -2   -1    0    0    0  501 -0.00000000000E+00  0.00000000000E+00  0.34325238756E+02  0.34325238756E+02  0.00000000000E+00 0.  1.
          2   -1    0    0  501    0  0.00000000000E+00 -0.00000000000E+00 -0.54326012922E+03  0.54326012922E+03  0.00000000000E+00 0. -1.
         23    2    1    2    0    0 -0.30343203936E+02 -0.14364003488E+02 -0.12041070135E+03  0.17682059018E+03  0.12505898404E+03 0.  0.
          5    1    3    3  502    0  0.41184308384E+02  0.12306224948E+02 -0.78598314856E+02  0.89681424653E+02  0.41800000000E+01 0. -1.
         -5    1    3    3    0  502 -0.71527512321E+02 -0.26670228436E+02 -0.41812386498E+02  0.87139165524E+02  0.41800000000E+01 0. -1.
        -11    1    1    2    0    0  0.40020149071E+02 -0.31581969661E+02 -0.18513003800E+03  0.19202125952E+03  0.00000000000E+00 0. -1.
         11    1    1    2    0    0 -0.96769451347E+01  0.45945973149E+02 -0.20339415111E+03  0.20874351827E+03  0.00000000000E+00 0.  1.
</event>
<event>
 7    1  0.4394360E-006  0.1089788E+03  0.7561462E-02  0.1262473E+00
          1   -1    0    0  501    0  0.00000000000E+00  0.00000000000E+00  0.35527551040E+02  0.35527551040E+02  0.00000000000E+00 0. -1.
         -1   -1    0    0    0  501 -0.00000000000E+00 -0.00000000000E+00 -0.35930718486E+03  0.35930718486E+03  0.00000000000E+00 0.  1.
         23    2    1    2    0    0 -0.22774809710E+00 -0.26245396941E+02 -0.21573687882E+03  0.25075548691E+03  0.12508813134E+03 0.  0.
          5    1    3    3  502    0 -0.60248153512E+02 -0.18030649534E+02 -0.14109870960E+03  0.15453563529E+03  0.41800000000E+01 0. -1.
         -5    1    3    3    0  502  0.60020405415E+02 -0.82147474071E+01 -0.74638169218E+02  0.96219851618E+02  0.41800000000E+01 0. -1.
        -11    1    1    2    0    0 -0.38195810909E+02 -0.11956903437E+02 -0.35240605829E+02  0.53327177030E+02  0.00000000000E+00 0. -1.
         11    1    1    2    0    0  0.38423559006E+02  0.38202300378E+02 -0.72802149171E+02  0.90752071959E+02  0.00000000000E+00 0.  1.
</event>
<event>
 7    1  0.4394360E-006  0.1984105E+03  0.7561462E-02  0.1151087E+00
         -2   -1    0    0    0  501 -0.00000000000E+00  0.00000000000E+00  0.67512374587E+02  0.67512374587E+02  0.00000000000E+00 0.  1.
          2   -1    0    0  501    0  0.00000000000E+00 -0.00000000000E+00 -0.10796988916E+04  0.10796988916E+04  0.00000000000E+00 0. -1.
         23    2    1    2    0    0  0.17488333494E+03  0.10856388185E+02 -0.14989198322E+03  0.26233144585E+03  0.12509252113E+03 0.  0.
          5    1    3    3  502    0 -0.14742022772E+02 -0.16052976473E+02 -0.67723861359E+01  0.23202648621E+02  0.41800000000E+01 0.  1.
         -5    1    3    3    0  502  0.18962535771E+03  0.26909364658E+02 -0.14311959709E+03  0.23912879723E+03  0.41800000000E+01 0.  1.
        -11    1    1    2    0    0 -0.12476131990E+03 -0.31777710993E+02 -0.73930863353E+03  0.75043485092E+03  0.00000000000E+00 0. -1.
         11    1    1    2    0    0 -0.50122015037E+02  0.20921322808E+02 -0.12298590022E+03  0.13444496939E+03  0.00000000000E+00 0.  1.
</event>
<event>
 7    1  0.4394360E-006  0.7949247E+02  0.7561462E-02  0.1330498E+00
          2   -1    0    0  501    0  0.00000000000E+00  0.00000000000E+00  0.43316240118E+02  0.43316240118E+02  0.00000000000E+00 0. -1.
         -2   -1    0    0    0  501 -0.00000000000E+00 -0.00000000000E+00 -0.34403392354E+03  0.34403392354E+03  0.00000000000E+00 0.  1.
         23    2    1    2    0    0 -0.26390196922E+02  0.30151840104E+02 -0.22646547419E+03  0.26179983838E+03  0.12508784282E+03 0.  0.
          5    1    3    3  502    0  0.75529120112E+01  0.20448525065E+02  0.87903574389E+01  0.23873236921E+02  0.41800000000E+01 0.  1.
         -5    1    3    3    0  502 -0.33943108933E+02  0.97033150390E+01 -0.23525583163E+03  0.23792660146E+03  0.41800000000E+01 0.  1.
        -11    1    1    2    0    0  0.43779689372E+02 -0.55382592266E+02 -0.51656116335E+02  0.87477123194E+02  0.00000000000E+00 0. -1.
         11    1    1    2    0    0 -0.17389492450E+02  0.25230752162E+02 -0.22596092889E+02  0.38073202074E+02  0.00000000000E+00 0.  1.
</event>
<event>
 7    1  0.4394360E-006  0.1513597E+03  0.7561462E-02  0.1198812E+00
         -2   -1    0    0    0  501 -0.00000000000E+00  0.00000000000E+00  0.41997532850E+02  0.41997532850E+02  0.00000000000E+00 0.  1.
          2   -1    0    0  501    0  0.00000000000E+00 -0.00000000000E+00 -0.74238657277E+03  0.74238657277E+03  0.00000000000E+00 0. -1.
         23    2    1    2    0    0 -0.10981996343E+03 -0.71452148778E+02 -0.26256490442E+03  0.31898750207E+03  0.12508742347E+03 0.  0.
          5    1    3    3  502    0 -0.97188751969E+01 -0.65993518877E+02 -0.16923480005E+03  0.18195464000E+03  0.41800000000E+01 0. -1.
         -5    1    3    3    0  502 -0.10010108823E+03 -0.54586299013E+01 -0.93330104371E+02  0.13703286207E+03  0.41800000000E+01 0. -1.
        -11    1    1    2    0    0  0.62961898158E+02  0.20247367460E+02 -0.95872938950E+02  0.11647221528E+03  0.00000000000E+00 0.  1.
         11    1    1    2    0    0  0.46858065270E+02  0.51204781318E+02 -0.34195119655E+03  0.34892438827E+03  0.00000000000E+00 0. -1.
</event>
<event>
 7    1  0.4394360E-006  0.1502295E+03  0.7561462E-02  0.1200191E+00
         -2   -1    0    0    0  501 -0.00000000000E+00  0.00000000000E+00  0.40495834695E+03  0.40495834695E+03  0.00000000000E+00 0.  1.
          2   -1    0    0  501    0  0.00000000000E+00 -0.00000000000E+00 -0.58551576746E+02  0.58551576746E+02  0.00000000000E+00 0. -1.
         23    2    1    2    0    0  0.15215281657E+02 -0.10715298636E+03  0.20659198841E+03  0.26465407329E+03  0.12509301159E+03 0.  0.
          5    1    3    3  502    0 -0.28519018392E+02 -0.11534335696E+03  0.16667325478E+03  0.20473121566E+03  0.41800000000E+01 0. -1.
         -5    1    3    3    0  502  0.43734300049E+02  0.81903706035E+01  0.39918733631E+02  0.59922857627E+02  0.41800000000E+01 0. -1.
        -11    1    1    2    0    0 -0.38571878357E+02  0.10676435629E+03  0.13227919995E+03  0.17431065462E+03  0.00000000000E+00 0.  1.
         11    1    1    2    0    0  0.23356596700E+02  0.38863006754E+00  0.75355818381E+01  0.24545195791E+02  0.00000000000E+00 0. -1.
</event>
<event>
 7    1  0.4394360E-006  0.1359919E+03  0.7561462E-02  0.1218826E+00
          2   -1    0    0  501    0  0.00000000000E+00  0.00000000000E+00  0.37793331832E+03  0.37793331832E+03  0.00000000000E+00 0. -1.
         -2   -1    0    0    0  501 -0.00000000000E+00 -0.00000000000E+00 -0.53247404348E+02  0.53247404348E+02  0.00000000000E+00 0.  1.
         23    2    1    2    0    0  0.89906308287E+02  0.20600354183E+02  0.18198321224E+03  0.23931815224E+03  0.12509104521E+03 0.  0.
          5    1    3    3  502    0  0.10103701334E+03  0.56607904383E+02  0.12130451921E+03  0.16776528749E+03  0.41800000000E+01 0. -1.
         -5    1    3    3    0  502 -0.11130705057E+02 -0.36007550200E+02  0.60678693026E+02  0.71552864749E+02  0.41800000000E+01 0. -1.
        -11    1    1    2    0    0 -0.97751291429E+02 -0.17611956534E+01  0.14073382919E+03  0.17136051898E+03  0.00000000000E+00 0. -1.
         11    1    1    2    0    0  0.78449831421E+01 -0.18839158530E+02  0.19688725414E+01  0.20502051451E+02  0.00000000000E+00 0.  1.
</event>
<event>
 7    1  0.4394360E-006  0.2222040E+03  0.7561462E-02  0.1132250E+00
          1   -1    0    0  501    0  0.00000000000E+00  0.00000000000E+00  0.75294335807E+03  0.75294335807E+03  0.00000000000E+00 0. -1.
         -1   -1    0    0    0  501 -0.00000000000E+00 -0.00000000000E+00 -0.76218172546E+02  0.76218172546E+02  0.00000000000E+00 0.  1.
         23    2    1    2    0    0  0.12842125791E+02 -0.19956514125E+03  0.22598685939E+03  0.32666713447E+03  0.12510072072E+03 0.  0.
          5    1    3    3  502    0  0.31503916998E+02 -0.94636408718E+01  0.34112086144E+01  0.33334157091E+02  0.41800000000E+01 0.  1.
         -5    1    3    3    0  502 -0.18661791207E+02 -0.19010150038E+03  0.22257565078E+03  0.29333297738E+03  0.41800000000E+01 0.  1.
        -11    1    1    2    0    0 -0.43863180477E+02  0.17557932792E+03  0.34252864345E+03  0.38739895531E+03  0.00000000000E+00 0.  1.
         11    1    1    2    0    0  0.31021054687E+02  0.23985813331E+02  0.10820968269E+03  0.11509544084E+03  0.00000000000E+00 0. -1.
</event>
<event>
 7    1  0.4394360E-006  0.1403124E+03  0.7561462E-02  0.1212909E+00
         -3   -1    0    0    0  501 -0.00000000000E+00  0.00000000000E+00  0.64180365248E+02  0.64180365248E+02  0.00000000000E+00 0.  1.
          3   -1    0    0  501    0  0.00000000000E+00 -0.00000000000E+00 -0.45114706440E+03  0.45114706440E+03  0.00000000000E+00 0. -1.
         23    2    1    2    0    0  0.11212059918E+03 -0.46439229945E+02 -0.13328855902E+03  0.21940785743E+03  0.12508531927E+03 0.  0.
          5    1    3    3  502    0 -0.13216919307E+02 -0.97673663360E+00 -0.70714550738E+02  0.72067059441E+02  0.41800000000E+01 0. -1.
         -5    1    3    3    0  502  0.12533751849E+03 -0.45462493311E+02 -0.62574008278E+02  0.14734079799E+03  0.41800000000E+01 0. -1.
        -11    1    1    2    0    0 -0.49850786347E+02  0.50464576245E+02 -0.61561969662E+02  0.93923641665E+02  0.00000000000E+00 0.  1.
         11    1    1    2    0    0 -0.62269812836E+02 -0.40253463004E+01 -0.19211617047E+03  0.20199593055E+03  0.00000000000E+00 0. -1.
</event>
<event>
 7    1  0.4394360E-006  0.1285428E+03  0.7561462E-02  0.1229634E+00
         -1   -1    0    0    0  501 -0.00000000000E+00  0.00000000000E+00  0.14614512208E+03  0.14614512208E+03  0.00000000000E+00 0.  1.
          1   -1    0    0  501    0  0.00000000000E+00 -0.00000000000E+00 -0.20619087418E+03  0.20619087418E+03  0.00000000000E+00 0. -1.
         23    2    1    2    0    0 -0.73206490832E+02 -0.85854757480E+02  0.45594301802E+02  0.17451570412E+03  0.12508661377E+03 0.  0.
          5    1    3    3  502    0 -0.20373646835E+02 -0.54751963095E+02  0.83738970039E+02  0.10218879807E+03  0.41800000000E+01 0. -1.
         -5    1    3    3    0  502 -0.52832843998E+02 -0.31102794385E+02 -0.38144668237E+02  0.72326906047E+02  0.41800000000E+01 0. -1.
        -11    1    1    2    0    0  0.34838207687E+02 -0.79360762302E+01 -0.52199135432E+02  0.63256871252E+02  0.00000000000E+00 0. -1.
         11    1    1    2    0    0  0.38368283145E+02  0.93790833710E+02 -0.53440918463E+02  0.11456342089E+03  0.00000000000E+00 0.  1.
</event>
<event>
 7    1  0.4394360E-006  0.1745381E+03  0.7561462E-02  0.1173196E+00
         -1   -1    0    0    0  501 -0.00000000000E+00  0.00000000000E+00  0.76178615976E+02  0.76178615976E+02  0.00000000000E+00 0.  1.
          1   -1    0    0  501    0  0.00000000000E+00 -0.00000000000E+00 -0.42926270160E+03  0.42926270160E+03  0.00000000000E+00 0. -1.
         23    2    1    2    0    0 -0.73924044213E+02  0.11678179335E+03 -0.12726600665E+03  0.22571499091E+03  0.12509144297E+03 0.  0.
          5    1    3    3  502    0  0.25661763338E+02  0.72111892298E+02 -0.44143644524E+02  0.88457814014E+02  0.41800000000E+01 0. -1.
         -5    1    3    3    0  502 -0.99585807551E+02  0.44669901049E+02 -0.83122362125E+02  0.13725717690E+03  0.41800000000E+01 0. -1.
        -11    1    1    2    0    0  0.26463565506E+02 -0.11246703254E+03 -0.13956808772E+03  0.18118610548E+03  0.00000000000E+00 0.  1.
         11    1    1    2    0    0  0.47460478707E+02 -0.43147608081E+01 -0.86249991256E+02  0.98540221188E+02  0.00000000000E+00 0. -1.
</event>
<event>
 7    1  0.4394360E-006  0.1504957E+03  0.7561462E-02  0.1199865E+00
          2   -1    0    0  501    0  0.00000000000E+00  0.00000000000E+00  0.68738704024E+03  0.68738704024E+03  0.00000000000E+00 0. -1.
         -2   -1    0    0    0  501 -0.00000000000E+00 -0.00000000000E+00 -0.51834247930E+02  0.51834247930E+02  0.00000000000E+00 0.  1.
         23    2    1    2    0    0  0.39211933827E+02  0.13602460080E+03  0.21374087372E+03  0.28526524192E+03  0.12510327484E+03 0.  0.
          5    1    3    3  502    0  0.68379759562E+01 -0.82383874863E+01 -0.11202568008E+02  0.16049887025E+02  0.41800000000E+01 0.  1.
         -5    1    3    3    0  502  0.32373957871E+02  0.14426298829E+03  0.22494344172E+03  0.26921535490E+03  0.41800000000E+01 0.  1.
        -11    1    1    2    0    0 -0.86568070214E+01 -0.34119512720E+02  0.25116373248E+02  0.43242498323E+02  0.00000000000E+00 0.  1.
         11    1    1    2    0    0 -0.30555126806E+02 -0.10190508808E+03  0.39669554534E+03  0.41071354792E+03  0.00000000000E+00 0. -1.
</event>
<event>
 7    1  0.4394360E-006  0.1315284E+03  0.7561462E-02  0.1225205E+00
         -1   -1    0    0    0  501 -0.00000000000E+00  0.00000000000E+00  0.10262132955E+03  0.10262132955E+03  0.00000000000E+00 0.  1.
          1   -1    0    0  501    0  0.00000000000E+00 -0.00000000000E+00 -0.38737546841E+03  0.38737546841E+03  0.00000000000E+00 0. -1.
         23    2    1    2    0    0 -0.81797659094E+02  0.37716652470E+02  0.23740799436E+02  0.15595987843E+03  0.12508579142E+03 0.  0.
          5    1    3    3  502    0 -0.32526669550E+02 -0.41940370835E+02  0.31537463724E+02  0.61879422718E+02  0.41800000000E+01 0.  1.
         -5    1    3    3    0  502 -0.49270989544E+02  0.79657023305E+02 -0.77966642878E+01  0.94080455710E+02  0.41800000000E+01 0.  1.
        -11    1    1    2    0    0  0.19914232182E+02  0.22269674705E+02 -0.29310866910E+02  0.41852622067E+02  0.00000000000E+00 0.  1.
         11    1    1    2    0    0  0.61883426912E+02 -0.59986327176E+02 -0.27918407139E+03  0.29218429747E+03  0.00000000000E+00 0. -1.
</event>
<event>
 7    1  0.4394360E-006  0.1544322E+03  0.7561462E-02  0.1195130E+00
          2   -1    0    0  501    0  0.00000000000E+00  0.00000000000E+00  0.98099009684E+03  0.98099009684E+03  0.00000000000E+00 0. -1.
         -2   -1    0    0    0  501 -0.00000000000E+00 -0.00000000000E+00 -0.30146962672E+02  0.30146962672E+02  0.00000000000E+00 0.  1.
         23    2    1    2    0    0  0.12985770095E+03  0.24466328059E+02  0.45007618503E+03  0.48546631688E+03  0.12508936320E+03 0.  0.
          5    1    3    3  502    0  0.34507004242E+02  0.47958467828E+02  0.30188936628E+03  0.30764494121E+03  0.41800000000E+01 0.  1.
         -5    1    3    3    0  502  0.95350696707E+02 -0.23492139768E+02  0.14818681875E+03  0.17782137567E+03  0.41800000000E+01 0.  1.
        -11    1    1    2    0    0 -0.36975686657E+02  0.26411238479E+02  0.23920139871E+03  0.24347908343E+03  0.00000000000E+00 0. -1.
         11    1    1    2    0    0 -0.92882014291E+02 -0.50877566538E+02  0.26156555043E+03  0.28219165921E+03  0.00000000000E+00 0.  1.
</event>
<event>
 7    1  0.4394360E-006  0.1261011E+03  0.7561462E-02  0.1233358E+00
          3   -1    0    0  501    0  0.00000000000E+00  0.00000000000E+00  0.48078779098E+02  0.48078779098E+02  0.00000000000E+00 0. -1.
         -3   -1    0    0    0  501 -0.00000000000E+00 -0.00000000000E+00 -0.73828505217E+03  0.73828505217E+03  0.00000000000E+00 0.  1.
         23    2    1    2    0    0 -0.74730713212E+01 -0.68591331551E+02 -0.64894355317E+03  0.66448163034E+03  0.12508990485E+03 0.  0.
          5    1    3    3  502    0 -0.51127514901E+02  0.64630888972E+01 -0.16909786209E+03  0.17682577205E+03  0.41800000000E+01 0. -1.
         -5    1    3    3    0  502  0.43654443580E+02 -0.75054420449E+02 -0.47984569109E+03  0.48765585829E+03  0.41800000000E+01 0. -1.
        -11    1    1    2    0    0 -0.19249255685E+02  0.81607887880E+02 -0.22803879017E+02  0.86893026802E+02  0.00000000000E+00 0. -1.
         11    1    1    2    0    0  0.26722327006E+02 -0.13016556328E+02 -0.18458840883E+02  0.34989174126E+02  0.00000000000E+00 0.  1.
</event>
<event>
 7    1  0.4394360E-006  0.1127630E+03  0.7561462E-02  0.1255537E+00
          3   -1    0    0  501    0  0.00000000000E+00  0.00000000000E+00  0.17655047326E+03  0.17655047326E+03  0.00000000000E+00 0. -1.
         -3   -1    0    0    0  501 -0.00000000000E+00 -0.00000000000E+00 -0.10439963813E+03  0.10439963813E+03  0.00000000000E+00 0.  1.
         23    2    1    2    0    0  0.44319764250E+02 -0.31675408491E+02 -0.22423760089E+02  0.13826937339E+03  0.12509205248E+03 0.  0.
          5    1    3    3  502    0  0.70956711676E+02 -0.60459342703E+02 -0.85896540436E+00  0.93318793785E+02  0.41800000000E+01 0.  1.
         -5    1    3    3    0  502 -0.26636947426E+02  0.28783934211E+02 -0.21564794685E+02  0.44950579603E+02  0.41800000000E+01 0.  1.
        -11    1    1    2    0    0 -0.62300861338E+02  0.76596493420E+01  0.26208866746E+02  0.68021851251E+02  0.00000000000E+00 0.  1.
         11    1    1    2    0    0  0.17981097088E+02  0.24015759149E+02  0.68365728478E+02  0.74658886747E+02  0.00000000000E+00 0. -1.
</event>
<event>
 7    1  0.4394360E-006  0.1994243E+03  0.7561462E-02  0.1150226E+00
         -1   -1    0    0    0  501 -0.00000000000E+00  0.00000000000E+00  0.50380636959E+02  0.50380636959E+02  0.00000000000E+00 0.  1.
          1   -1    0    0  501    0  0.00000000000E+00 -0.00000000000E+00 -0.79144604502E+03  0.79144604502E+03  0.00000000000E+00 0. -1.
         23    2    1    2    0    0 -0.16452149103E+03  0.19848813112E+02 -0.39243431581E+03  0.44397267800E+03  0.12508297324E+03 0.  0.
          5    1    3    3  502    0 -0.98183099194E+02 -0.50724743265E+02 -0.20282693305E+03  0.23101765672E+03  0.41800000000E+01 0. -1.
         -5    1    3    3    0  502 -0.66338391833E+02  0.70573556377E+02 -0.18960738276E+03  0.21295502128E+03  0.41800000000E+01 0. -1.
        -11    1    1    2    0    0  0.10679998441E+03  0.34292269764E+02 -0.19199415119E+03  0.22235995711E+03  0.00000000000E+00 0.  1.
         11    1    1    2    0    0  0.57721506621E+02 -0.54141082876E+02 -0.15663694105E+03  0.17549404686E+03  0.00000000000E+00 0. -1.
</event>
<event>
 7    1  0.4394360E-006  0.1579433E+03  0.7561462E-02  0.1191038E+00
          2   -1    0    0  501    0  0.00000000000E+00  0.00000000000E+00  0.87875623804E+02  0.87875623804E+02  0.00000000000E+00 0. -1.
         -2   -1    0    0    0  501 -0.00000000000E+00 -0.00000000000E+00 -0.35757378136E+03  0.35757378136E+03  0.00000000000E+00 0.  1.
         23    2    1    2    0    0 -0.74869497106E+02  0.11958312653E+03 -0.14784280523E+03  0.23960504520E+03  0.12509003510E+03 0.  0.
          5    1    3    3  502    0 -0.50275018395E+02  0.56018114373E+01  0.64076676593E+00  0.50762592015E+02  0.41800000000E+01 0.  1.
         -5    1    3    3    0  502 -0.24594478711E+02  0.11398131510E+03 -0.14848357199E+03  0.18884245319E+03  0.41800000000E+01 0.  1.
        -11    1    1    2    0    0  0.63170165948E+02 -0.57980790003E+02 -0.22994061136E+02  0.88774820320E+02  0.00000000000E+00 0. -1.
         11    1    1    2    0    0  0.11699331158E+02 -0.61602336531E+02 -0.98861291196E+02  0.11706953964E+03  0.00000000000E+00 0.  1.
</event>
<event>
 7    1  0.4394360E-006  0.1266772E+03  0.7561462E-02  0.1232471E+00
          3   -1    0    0  501    0  0.00000000000E+00  0.00000000000E+00  0.14110463238E+03  0.14110463238E+03  0.00000000000E+00 0. -1.
         -3   -1    0    0    0  501 -0.00000000000E+00 -0.00000000000E+00 -0.16401367399E+03  0.16401367399E+03  0.00000000000E+00 0.  1.
         23    2    1    2    0    0  0.44842639944E+02  0.66638835077E+02 -0.82224588229E+02  0.16988166442E+03  0.12508916940E+03 0.  0.
          5    1    3    3  502    0 -0.31586641467E+02  0.52219081383E+02 -0.66618719794E+02  0.90443764885E+02  0.41800000000E+01 0. -1.
         -5    1    3    3    0  502  0.76429281411E+02  0.14419753695E+02 -0.15605868435E+02  0.79437899539E+02  0.41800000000E+01 0. -1.
        -11    1    1    2    0    0  0.23833078327E+02 -0.12971707230E+02 -0.41096209923E+01  0.27443939143E+02  0.00000000000E+00 0.  1.
         11    1    1    2    0    0 -0.68675718271E+02 -0.53667127847E+02  0.63425167610E+02  0.10779270280E+03  0.00000000000E+00 0. -1.
</event>
<event>
 7    1  0.4394360E-006  0.1263952E+03  0.7561462E-02  0.1232905E+00
         -2   -1    0    0    0  501 -0.00000000000E+00  0.00000000000E+00  0.43190409476E+02  0.43190409476E+02  0.00000000000E+00 0.  1.
          2   -1    0    0  501    0  0.00000000000E+00 -0.00000000000E+00 -0.46313561836E+03  0.46313561836E+03  0.00000000000E+00 0. -1.
         23    2    1    2    0    0  0.63392272679E+02 -0.60745250402E+02 -0.18990371182E+03  0.24375979304E+03  0.12508737450E+03 0.  0.
          5    1    3    3  502    0  0.27351416489E+02  0.26998706806E+02 -0.11938345704E+03  0.12548670195E+03  0.41800000000E+01 0.  1.
         -5    1    3    3    0  502  0.36040856190E+02 -0.87743957208E+02 -0.70520254781E+02  0.11827309109E+03  0.41800000000E+01 0.  1.
        -11    1    1    2    0    0  0.80991215164E+01 -0.13733604431E+02 -0.72351606220E+02  0.74087533247E+02  0.00000000000E+00 0. -1.
         11    1    1    2    0    0 -0.71491394196E+02  0.74478854833E+02 -0.15768989085E+03  0.18847870155E+03  0.00000000000E+00 0.  1.
</event>
<event>
 7    1  0.4394360E-006  0.7649524E+02  0.7561462E-02  0.1339302E+00
          1   -1    0    0  501    0  0.00000000000E+00  0.00000000000E+00  0.54242092496E+03  0.54242092496E+03  0.00000000000E+00 0. -1.
         -1   -1    0    0    0  501 -0.00000000000E+00 -0.00000000000E+00 -0.24923260679E+02  0.24923260679E+02  0.00000000000E+00 0.  1.
         23    2    1    2    0    0  0.22254887211E+02  0.43759077941E+01  0.20768836399E+03  0.24350757553E+03  0.12508818582E+03 0.  0.
          5    1    3    3  502    0 -0.24879495075E+02  0.14492367601E+02  0.18964578436E+03  0.19186457182E+03  0.41800000000E+01 0. -1.
         -5    1    3    3    0  502  0.47134382286E+02 -0.10116459807E+02  0.18042579627E+02  0.51643003709E+02  0.41800000000E+01 0. -1.
        -11    1    1    2    0    0 -0.43607623008E+02 -0.21043442837E+02  0.27741764089E+03  0.28161143220E+03  0.00000000000E+00 0. -1.
         11    1    1    2    0    0  0.21352735797E+02  0.16667535043E+02  0.32391659407E+02  0.42225177910E+02  0.00000000000E+00 0.  1.
</event>
<event>
 7    1  0.4394360E-006  0.1126936E+03  0.7561462E-02  0.1255662E+00
         -2   -1    0    0    0  501 -0.00000000000E+00  0.00000000000E+00  0.41946729734E+02  0.41946729734E+02  0.00000000000E+00 0.  1.
          2   -1    0    0  501    0  0.00000000000E+00 -0.00000000000E+00 -0.42293982801E+03  0.42293982801E+03  0.00000000000E+00 0. -1.
         23    2    1    2    0    0  0.35739513771E+02  0.67465059659E+02 -0.18945910232E+03  0.23952360077E+03  0.12509179331E+03 0.  0.
          5    1    3    3  502    0  0.10002403534E+02  0.85594702819E+02 -0.57228801213E+02  0.10353313149E+03  0.41800000000E+01 0. -1.
         -5    1    3    3    0  502  0.25737110237E+02 -0.18129643160E+02 -0.13223030110E+03  0.13599046928E+03  0.41800000000E+01 0. -1.
        -11    1    1    2    0    0  0.23220608910E+02 -0.28120740238E+02 -0.24562888628E+02  0.43969400809E+02  0.00000000000E+00 0.  1.
         11    1    1    2    0    0 -0.58960122681E+02 -0.39344319421E+02 -0.16697110733E+03  0.18139355617E+03  0.00000000000E+00 0. -1.
</event>
<event>
 7    1  0.4394360E-006  0.1763068E+03  0.7561462E-02  0.1171426E+00
          3   -1    0    0  501    0  0.00000000000E+00  0.00000000000E+00  0.47287265945E+03  0.47287265945E+03  0.00000000000E+00 0. -1.
         -3   -1    0    0    0  501 -0.00000000000E+00 -0.00000000000E+00 -0.14415566056E+03  0.14415566056E+03  0.00000000000E+00 0.  1.
         23    2    1    2    0    0  0.14592063794E+03  0.95650475307E+02 -0.19199319975E+02  0.21553945557E+03  0.12508715768E+03 0.  0.
          5    1    3    3  502    0  0.11802545958E+03  0.83301656252E+02  0.39004251128E+02  0.14969294923E+03  0.41800000000E+01 0. -1.
         -5    1    3    3    0  502  0.27895178358E+02  0.12348819056E+02 -0.58203571103E+02  0.65846506337E+02  0.41800000000E+01 0. -1.
        -11    1    1    2    0    0 -0.69019221879E+02 -0.64048427898E+02  0.89049218074E+02  0.12959790640E+03  0.00000000000E+00 0.  1.
         11    1    1    2    0    0 -0.76901416062E+02 -0.31602047410E+02  0.25886710079E+03  0.27189095804E+03  0.00000000000E+00 0. -1.
</event>
<event>
 7    1  0.4394360E-006  0.6921320E+02  0.7561462E-02  0.1362789E+00
          1   -1    0    0  501    0  0.00000000000E+00  0.00000000000E+00  0.93975809963E+02  0.93975809963E+02  0.00000000000E+00 0. -1.
         -1   -1    0    0    0  501 -0.00000000000E+00 -0.00000000000E+00 -0.14981385703E+04  0.14981385703E+04  0.00000000000E+00 0.  1.
         23    2    1    2    0    0 -0.12473219556E+02 -0.38085029454E+02 -0.14679480667E+04  0.14726211458E+04  0.11016107353E+03 0.  0.
          5    1    3    3  502    0 -0.34946043512E+02 -0.35144623069E+02 -0.27571298460E+03  0.28016333230E+03  0.41800000000E+01 0. -1.
         -5    1    3    3    0  502  0.22472823956E+02 -0.29404063856E+01 -0.11922350821E+04  0.11924578135E+04  0.41800000000E+01 0.  1.
        -11    1    1    2    0    0  0.30515934676E+02  0.97231382183E+01 -0.13849417001E+02  0.34893667580E+02  0.00000000000E+00 0.  1.
         11    1    1    2    0    0 -0.18042715120E+02  0.28361891236E+02  0.77634723322E+02  0.84599566835E+02  0.00000000000E+00 0. -1.
</event>
<event>
 7    1  0.4394360E-006  0.1125918E+03  0.7561462E-02  0.1255844E+00
         -1   -1    0    0    0  501 -0.00000000000E+00  0.00000000000E+00  0.50573867426E+02  0.50573867426E+02  0.00000000000E+00 0.  1.
          1   -1    0    0  501    0  0.00000000000E+00 -0.00000000000E+00 -0.33025399119E+03  0.33025399119E+03  0.00000000000E+00 0. -1.
         23    2    1    2    0    0 -0.66995933121E+02 -0.11283847290E+01 -0.13016159661E+03  0.19256288862E+03  0.12509475023E+03 0.  0.
          5    1    3    3  502    0  0.35182512974E+02 -0.13447791292E+02 -0.45625574680E+02  0.59311194345E+02  0.41800000000E+01 0. -1.
         -5    1    3    3    0  502 -0.10217844609E+03  0.12319406563E+02 -0.84536021930E+02  0.13325169428E+03  0.41800000000E+01 0. -1.
        -11    1    1    2    0    0  0.11913715696E+02 -0.21623239086E+02  0.26620144244E+01  0.24831178205E+02  0.00000000000E+00 0.  1.
         11    1    1    2    0    0  0.55082217426E+02  0.22751623815E+02 -0.15218054158E+03  0.16343379179E+03  0.00000000000E+00 0. -1.
</event>
<event>
 7    1  0.4394360E-006  0.1198693E+03  0.7561462E-02  0.1243313E+00
          1   -1    0    0  501    0  0.00000000000E+00  0.00000000000E+00  0.44766690262E+03  0.44766690262E+03  0.00000000000E+00 0. -1.
         -1   -1    0    0    0  501 -0.00000000000E+00 -0.00000000000E+00 -0.35492277887E+02  0.35492277887E+02  0.00000000000E+00 0.  1.
         23    2    1    2    0    0  0.18263950466E+02 -0.62604886309E+02  0.22948039154E+03  0.26937117114E+03  0.12508650631E+03 0.  0.
          5    1    3    3  502    0  0.42532141350E+01  0.38472015605E+02  0.62275069034E+02  0.73442783433E+02  0.41800000000E+01 0. -1.
         -5    1    3    3    0  502  0.14010736331E+02 -0.10107690191E+03  0.16720532251E+03  0.19592838770E+03  0.41800000000E+01 0. -1.
        -11    1    1    2    0    0 -0.27382227232E+02 -0.71738030948E+01  0.10593925160E+03  0.10965571052E+03  0.00000000000E+00 0.  1.
         11    1    1    2    0    0  0.91182767662E+01  0.69778689403E+02  0.76754981589E+02  0.10413229885E+03  0.00000000000E+00 0. -1.
</event>
<event>
 6    1  0.4394360E-006  0.7694764E+02  0.7561462E-02  0.1337944E+00
         -1   -1    0    0    0  501 -0.00000000000E+00  0.00000000000E+00  0.69088396674E+02  0.69088396674E+02  0.00000000000E+00 0.  1.
          1   -1    0    0  501    0  0.00000000000E+00 -0.00000000000E+00 -0.19981150744E+03  0.19981150744E+03  0.00000000000E+00 0. -1.
          5    1    1    2  502    0  0.84565503215E+01 -0.31599181424E+02 -0.93945033896E+02  0.99564869827E+02  0.41800000000E+01 0. -1.
         -5    1    1    2    0  502 -0.11431561200E+02  0.19182632695E+02  0.38796271671E+02  0.44958615239E+02  0.41800000000E+01 0.  1.
        -11    1    1    2    0    0  0.24217886596E+02 -0.37107972827E+02 -0.40859889667E+02  0.60274690062E+02  0.00000000000E+00 0.  1.
         11    1    1    2    0    0 -0.21242875717E+02  0.49524521555E+02 -0.34714458873E+02  0.64101728985E+02  0.00000000000E+00 0. -1.
</event>
<event>
 7    1  0.4394360E-006  0.1231147E+03  0.7561462E-02  0.1238045E+00
          1   -1    0    0  501    0  0.00000000000E+00  0.00000000000E+00  0.54639728723E+02  0.54639728723E+02  0.00000000000E+00 0. -1.
         -1   -1    0    0    0  501 -0.00000000000E+00 -0.00000000000E+00 -0.48757300066E+03  0.48757300066E+03  0.00000000000E+00 0.  1.
         23    2    1    2    0    0 -0.16378217884E+02  0.91097336059E+02 -0.36320575020E+03  0.39513770562E+03  0.12509363999E+03 0.  0.
          5    1    3    3  502    0 -0.56523866737E+02  0.54423588391E+02 -0.30670638858E+03  0.31661199548E+03  0.41800000000E+01 0.  1.
         -5    1    3    3    0  502  0.40145648853E+02  0.36673747668E+02 -0.56499361621E+02  0.78525710143E+02  0.41800000000E+01 0.  1.
        -11    1    1    2    0    0  0.34056792016E+02 -0.19237346861E+02 -0.61132470281E+02  0.72574923488E+02  0.00000000000E+00 0. -1.
         11    1    1    2    0    0 -0.17678574131E+02 -0.71859989198E+02 -0.85950514500E+01  0.74500100271E+02  0.00000000000E+00 0.  1.
</event>
<event>
 7    1  0.4394360E-006  0.1164682E+03  0.7561462E-02  0.1249040E+00
          3   -1    0    0  501    0  0.00000000000E+00  0.00000000000E+00  0.21536959537E+03  0.21536959537E+03  0.00000000000E+00 0. -1.
         -3   -1    0    0    0  501 -0.00000000000E+00 -0.00000000000E+00 -0.10985928228E+03  0.10985928228E+03  0.00000000000E+00 0.  1.
         23    2    1    2    0    0 -0.55744949223E+02  0.63028726350E+02 -0.19897030664E+02  0.15205867364E+03  0.12508328702E+03 0.  0.
          5    1    3    3  502    0  0.23389753761E+02  0.32373817101E+02 -0.47982648370E+02  0.62569573751E+02  0.41800000000E+01 0.  1.
         -5    1    3    3    0  502 -0.79134702985E+02  0.30654909249E+02  0.28085617706E+02  0.89489099892E+02  0.41800000000E+01 0.  1.
        -11    1    1    2    0    0  0.43876546127E+02 -0.77522727520E+02  0.12614046101E+03  0.15442260355E+03  0.00000000000E+00 0.  1.
         11    1    1    2    0    0  0.11868403097E+02  0.14494001169E+02 -0.73311725394E+00  0.18747600456E+02  0.00000000000E+00 0. -1.
</event>
<event>
 7    1  0.4394360E-006  0.1566435E+03  0.7561462E-02  0.1192539E+00
          2   -1    0    0  501    0  0.00000000000E+00  0.00000000000E+00  0.76469064131E+03  0.76469064131E+03  0.00000000000E+00 0. -1.
         -2   -1    0    0    0  501 -0.00000000000E+00 -0.00000000000E+00 -0.41929065011E+02  0.41929065011E+02  0.00000000000E+00 0.  1.
         23    2    1    2    0    0  0.12443079248E+03 -0.28487992562E+02  0.24056679018E+03  0.29969004506E+03  0.12508858753E+03 0.  0.
          5    1    3    3  502    0  0.81462161873E+02  0.30003924527E+02  0.19603212140E+03  0.21443503521E+03  0.41800000000E+01 0.  1.
         -5    1    3    3    0  502  0.42968630607E+02 -0.58491917089E+02  0.44534668781E+02  0.85255009849E+02  0.41800000000E+01 0.  1.
        -11    1    1    2    0    0 -0.12063371353E+03  0.50908773339E+02  0.43905784451E+03  0.45816589449E+03  0.00000000000E+00 0. -1.
         11    1    1    2    0    0 -0.37970789484E+01 -0.22420780777E+02  0.43136941603E+02  0.48763766775E+02  0.00000000000E+00 0.  1.
</event>
<event>
 7    1  0.4394360E-006  0.8959430E+02  0.7561462E-02  0.1303837E+00
         -1   -1    0    0    0  501 -0.00000000000E+00  0.00000000000E+00  0.84572684008E+02  0.84572684008E+02  0.00000000000E+00 0.  1.
          1   -1    0    0  501    0  0.00000000000E+00 -0.00000000000E+00 -0.23108508217E+03  0.23108508217E+03  0.00000000000E+00 0. -1.
         23    2    1    2    0    0  0.13115752932E+02  0.69267584649E+02 -0.13569452705E+02  0.14422949696E+03  0.12509195214E+03 0.  0.
          5    1    3    3  502    0 -0.13300138611E+02 -0.12392493505E+02  0.39185963320E+02  0.43399074917E+02  0.41800000000E+01 0.  1.
         -5    1    3    3    0  502  0.26415891543E+02  0.81660078154E+02 -0.52755416025E+02  0.10083042205E+03  0.41800000000E+01 0.  1.
        -11    1    1    2    0    0  0.60013746851E+01 -0.33675591486E+02 -0.12584164321E+03  0.13040774948E+03  0.00000000000E+00 0. -1.
         11    1    1    2    0    0 -0.19117127617E+02 -0.35591993163E+02 -0.71013022530E+01  0.41020519735E+02  0.00000000000E+00 0.  1.
</event>
<event>
 6    1  0.4394360E-006  0.2499556E+03  0.7561462E-02  0.1113333E+00
          3   -1    0    0  501    0  0.00000000000E+00  0.00000000000E+00  0.14203028534E+04  0.14203028534E+04  0.00000000000E+00 0. -1.
         -3   -1    0    0    0  501 -0.00000000000E+00 -0.00000000000E+00 -0.46832547089E+02  0.46832547089E+02  0.00000000000E+00 0.  1.
          5    1    1    2  502    0 -0.19330026663E+02 -0.22053513982E+01  0.39027655089E+02  0.43808033137E+02  0.41800000000E+01 0. -1.
         -5    1    1    2    0  502  0.22794356603E+03 -0.94075261146E+02  0.69152563959E+03  0.73418908101E+03  0.41800000000E+01 0.  1.
        -11    1    1    2    0    0 -0.12872058679E+03  0.80872224984E+02  0.29536809889E+03  0.33219214332E+03  0.00000000000E+00 0. -1.
         11    1    1    2    0    0 -0.79892952579E+02  0.15408387561E+02  0.34754891270E+03  0.35694614299E+03  0.00000000000E+00 0.  1.
</event>
<event>
 7    1  0.4394360E-006  0.5784034E+02  0.7561462E-02  0.1407125E+00
          2   -1    0    0  501    0  0.00000000000E+00  0.00000000000E+00  0.25362256599E+03  0.25362256599E+03  0.00000000000E+00 0. -1.
         -2   -1    0    0    0  501 -0.00000000000E+00 -0.00000000000E+00 -0.45851350251E+02  0.45851350251E+02  0.00000000000E+00 0.  1.
         23    2    1    2    0    0  0.10804814051E+01 -0.19579600609E+02  0.10325085265E+03  0.16337541170E+03  0.12508500459E+03 0.  0.
          5    1    3    3  502    0 -0.11908194697E+02 -0.18879116234E+02 -0.25359608288E+02  0.34041272938E+02  0.41800000000E+01 0. -1.
         -5    1    3    3    0  502  0.12988676102E+02 -0.70048437464E+00  0.12861046094E+03  0.12933413876E+03  0.41800000000E+01 0. -1.
        -11    1    1    2    0    0 -0.22690238617E+02 -0.22531580031E+02  0.16087921308E+02  0.35795813152E+02  0.00000000000E+00 0.  1.
         11    1    1    2    0    0  0.21609757212E+02  0.42111180640E+02  0.88432441783E+02  0.10030269140E+03  0.00000000000E+00 0. -1.
</event>
<event>
 7    1  0.4394360E-006  0.5302856E+02  0.7561462E-02  0.1429659E+00
          4   -1    0    0  501    0  0.00000000000E+00  0.00000000000E+00  0.31403904321E+03  0.31403904321E+03  0.00000000000E+00 0. -1.
         -4   -1    0    0    0  501 -0.00000000000E+00 -0.00000000000E+00 -0.38934204247E+02  0.38934204247E+02  0.00000000000E+00 0.  1.
         23    2    1    2    0    0 -0.23904775845E+02 -0.25367260094E+01  0.15431208147E+03  0.20009335417E+03  0.12508900274E+03 0.  0.
          5    1    3    3  502    0 -0.58700676353E+01  0.95076702034E+01 -0.20593126995E+02  0.23799217764E+02  0.41800000000E+01 0. -1.
         -5    1    3    3    0  502 -0.18034708210E+02 -0.12044396213E+02  0.17490520847E+03  0.17629413640E+03  0.41800000000E+01 0. -1.
        -11    1    1    2    0    0  0.29444427513E+02  0.31169194998E+02  0.18833030942E+02  0.46831357901E+02  0.00000000000E+00 0.  1.
         11    1    1    2    0    0 -0.55396516677E+01 -0.28632468989E+02  0.10195972655E+03  0.10604853539E+03  0.00000000000E+00 0. -1.
</event>
<event>
 7    1  0.4394360E-006  0.1214217E+03  0.7561462E-02  0.1240770E+00
         -1   -1    0    0    0  501 -0.00000000000E+00  0.00000000000E+00  0.32617542931E+03  0.32617542931E+03  0.00000000000E+00 0.  1.
          1   -1    0    0  501    0  0.00000000000E+00 -0.00000000000E+00 -0.66480297412E+02  0.66480297412E+02  0.00000000000E+00 0. -1.
         23    2    1    2    0    0 -0.56533858302E+02  0.76198229081E+02  0.17655442797E+03  0.23626684441E+03  0.12509319918E+03 0.  0.
          5    1    3    3  502    0 -0.14594323268E+02 -0.10190958639E+02  0.12664798353E+03  0.12796106455E+03  0.41800000000E+01 0.  1.
         -5    1    3    3    0  502 -0.41939535034E+02  0.86389187720E+02  0.49906444445E+02  0.10830577986E+03  0.41800000000E+01 0.  1.
        -11    1    1    2    0    0 -0.16096089490E+02 -0.47825509559E+02  0.51901777951E+02  0.72388935729E+02  0.00000000000E+00 0.  1.
         11    1    1    2    0    0  0.72629947792E+02 -0.28372719522E+02  0.31238925969E+02  0.83999946578E+02  0.00000000000E+00 0. -1.
</event>
<event>
 7    1  0.4394360E-006  0.1392002E+03  0.7561462E-02  0.1214409E+00
          2   -1    0    0  501    0  0.00000000000E+00  0.00000000000E+00  0.13307392220E+04  0.13307392220E+04  0.00000000000E+00 0. -1.
         -2   -1    0    0    0  501 -0.00000000000E+00 -0.00000000000E+00 -0.19285120936E+02  0.19285120936E+02  0.00000000000E+00 0.  1.
         23    2    1    2    0    0  0.12135331249E+02  0.11027780097E+03  0.86912994779E+03  0.88506668498E+03  0.12509081126E+03 0.  0.
          5    1    3    3  502    0 -0.61560207021E+01 -0.10606718258E+02  0.40123409295E+03  0.40144323236E+03  0.41800000000E+01 0. -1.
         -5    1    3    3    0  502  0.18291351951E+02  0.12088451923E+03  0.46789585484E+03  0.48362345262E+03  0.41800000000E+01 0. -1.
        -11    1    1    2    0    0 -0.49847742828E+02 -0.42311731461E+02  0.21400813116E+03  0.22377345752E+03  0.00000000000E+00 0. -1.
         11    1    1    2    0    0  0.37712411580E+02 -0.67966069508E+02  0.22831602212E+03  0.24118420046E+03  0.00000000000E+00 0.  1.
</event>
<event>
 7    1  0.4394360E-006  0.9681739E+02  0.7561462E-02  0.1287135E+00
          4   -1    0    0  501    0  0.00000000000E+00  0.00000000000E+00  0.29130652098E+02  0.29130652098E+02  0.00000000000E+00 0. -1.
         -4   -1    0    0    0  501 -0.00000000000E+00 -0.00000000000E+00 -0.42966182399E+03  0.42966182399E+03  0.00000000000E+00 0.  1.
         23    2    1    2    0    0  0.38383820332E+01  0.11972536625E+02 -0.26601593105E+03  0.29422642727E+03  0.12508653054E+03 0.  0.
          5    1    3    3  502    0 -0.54486451505E+02  0.19056916251E+02 -0.18648302174E+03  0.19525708502E+03  0.41800000000E+01 0.  1.
         -5    1    3    3    0  502  0.58324833538E+02 -0.70843796260E+01 -0.79532909315E+02  0.98969342253E+02  0.41800000000E+01 0.  1.
        -11    1    1    2    0    0 -0.14963206647E+02 -0.42133388063E+02 -0.26737627531E+02  0.52096263482E+02  0.00000000000E+00 0. -1.
         11    1    1    2    0    0  0.11124824613E+02  0.30160851438E+02 -0.10777761331E+03  0.11246978533E+03  0.00000000000E+00 0.  1.
</event>
<event>
 7    1  0.4394360E-006  0.1122009E+03  0.7561462E-02  0.1256548E+00
         -2   -1    0    0    0  501 -0.00000000000E+00  0.00000000000E+00  0.18120550112E+03  0.18120550112E+03  0.00000000000E+00 0.  1.
          2   -1    0    0  501    0  0.00000000000E+00 -0.00000000000E+00 -0.94962004428E+02  0.94962004428E+02  0.00000000000E+00 0. -1.
         23    2    1    2    0    0 -0.69144352845E+02  0.58265953963E+02  0.89193623445E+02  0.17826689712E+03  0.12509085188E+03 0.  0.
          5    1    3    3  502    0  0.20787696396E+02  0.33821672285E+01  0.67214760899E+02  0.70561064755E+02  0.41800000000E+01 0. -1.
         -5    1    3    3    0  502 -0.89932049241E+02  0.54883786734E+02  0.21978862546E+02  0.10770583237E+03  0.41800000000E+01 0. -1.
        -11    1    1    2    0    0  0.13230915417E+02  0.39827056339E+01 -0.33863112959E+01  0.14226249370E+02  0.00000000000E+00 0. -1.
         11    1    1    2    0    0  0.55913437428E+02 -0.62248659597E+02  0.43618454322E+00  0.83674359057E+02  0.00000000000E+00 0.  1.
</event>
<event>
 7    1  0.4394360E-006  0.1156489E+03  0.7561462E-02  0.1250453E+00
          1   -1    0    0  501    0  0.00000000000E+00  0.00000000000E+00  0.10351033053E+04  0.10351033053E+04  0.00000000000E+00 0. -1.
         -1   -1    0    0    0  501 -0.00000000000E+00 -0.00000000000E+00 -0.13882175125E+02  0.13882175125E+02  0.00000000000E+00 0.  1.
         23    2    1    2    0    0 -0.58196486297E+02 -0.77249842086E+01  0.58141174677E+03  0.59622562193E+03  0.11831680594E+03 0.  0.
          5    1    3    3  502    0 -0.67901366949E+02  0.38117961026E+02  0.44861055054E+03  0.45533775710E+03  0.41800000000E+01 0. -1.
         -5    1    3    3    0  502  0.97048806520E+01 -0.45842945235E+02  0.13280119623E+03  0.14088786483E+03  0.41800000000E+01 0.  1.
        -11    1    1    2    0    0  0.46646834065E+02 -0.37339410510E+02  0.28070150420E+03  0.28699040605E+03  0.00000000000E+00 0.  1.
         11    1    1    2    0    0  0.11549652232E+02  0.45064394719E+02  0.15910787923E+03  0.16576945247E+03  0.00000000000E+00 0. -1.
</event>
<event>
 7    1  0.4394360E-006  0.1001123E+03  0.7561462E-02  0.1280060E+00
         -2   -1    0    0    0  501 -0.00000000000E+00  0.00000000000E+00  0.31263211814E+02  0.31263211814E+02  0.00000000000E+00 0.  1.
          2   -1    0    0  501    0  0.00000000000E+00 -0.00000000000E+00 -0.58909569423E+03  0.58909569423E+03  0.00000000000E+00 0. -1.
         23    2    1    2    0    0 -0.53195114576E+02 -0.45998485653E+02 -0.20663381459E+03  0.25157813830E+03  0.12509374660E+03 0.  0.
          5    1    3    3  502    0 -0.24857194047E+02 -0.54741435274E+02 -0.21265504773E+03  0.22102974134E+03  0.41800000000E+01 0.  1.
         -5    1    3    3    0  502 -0.28337920530E+02  0.87429496211E+01  0.60212331394E+01  0.30548396955E+02  0.41800000000E+01 0.  1.
        -11    1    1    2    0    0 -0.16714997168E+02 -0.10829050577E+02 -0.98730445844E+02  0.10071921566E+03  0.00000000000E+00 0. -1.
         11    1    1    2    0    0  0.69910111744E+02  0.56827536230E+02 -0.25246822198E+03  0.26806155209E+03  0.00000000000E+00 0.  1.
</event>
<event>
 7    1  0.4394360E-006  0.1314134E+03  0.7561462E-02  0.1225373E+00
         -1   -1    0    0    0  501 -0.00000000000E+00  0.00000000000E+00  0.17489164997E+03  0.17489164997E+03  0.00000000000E+00 0.  1.
          1   -1    0    0  501    0  0.00000000000E+00 -0.00000000000E+00 -0.10323907639E+03  0.10323907639E+03  0.00000000000E+00 0. -1.
         23    2    1    2    0    0  0.72681320987E+02  0.37800773637E+02  0.38986032407E+02  0.15453006904E+03  0.12509260012E+03 0.  0.
          5    1    3    3  502    0 -0.27148573287E+01  0.67715779643E+02  0.23460980032E+02  0.71837923460E+02  0.41800000000E+01 0. -1.
         -5    1    3    3    0  502  0.75396178315E+02 -0.29915006006E+02  0.15525052374E+02  0.82692145577E+02  0.41800000000E+01 0. -1.
        -11    1    1    2    0    0 -0.57509380927E+02 -0.62365496434E+02  0.40030214895E+02  0.93804062517E+02  0.00000000000E+00 0.  1.
         11    1    1    2    0    0 -0.15171940059E+02  0.24564722797E+02 -0.73636737159E+01  0.29796594803E+02  0.00000000000E+00 0. -1.
</event>
<event>
 6    1  0.4394360E-006  0.2955411E+03  0.7561462E-02  0.1087491E+00
          1   -1    0    0  501    0  0.00000000000E+00  0.00000000000E+00  0.10088957222E+03  0.10088957222E+03  0.00000000000E+00 0. -1.
         -1   -1    0    0    0  501 -0.00000000000E+00 -0.00000000000E+00 -0.18246641606E+04  0.18246641606E+04  0.00000000000E+00 0.  1.
          5    1    1    2  502    0 -0.76446454333E+02  0.58103666758E+02 -0.23986221567E+03  0.25840172480E+03  0.41800000000E+01 0. -1.
         -5    1    1    2    0  502 -0.19834652652E+03  0.37564241513E+02 -0.12905469764E+04  0.13062470622E+04  0.41800000000E+01 0.  1.
        -11    1    1    2    0    0  0.14189044083E+03 -0.30927221708E+02 -0.14536247751E+03  0.20547418356E+03  0.00000000000E+00 0.  1.
         11    1    1    2    0    0  0.13290254002E+03 -0.64740686562E+02 -0.48002918795E+02  0.15543076225E+03  0.00000000000E+00 0. -1.
</event>
<event>
 7    1  0.4394360E-006  0.1166810E+03  0.7561462E-02  0.1248675E+00
          4   -1    0    0  501    0  0.00000000000E+00  0.00000000000E+00  0.12202478804E+03  0.12202478804E+03  0.00000000000E+00 0. -1.
         -4   -1    0    0    0  501 -0.00000000000E+00 -0.00000000000E+00 -0.14861893875E+03  0.14861893875E+03  0.00000000000E+00 0.  1.
         23    2    1    2    0    0 -0.50205957513E+01  0.79326373426E+02 -0.87727929141E+01  0.14846573963E+03  0.12508890457E+03 0.  0.
          5    1    3    3  502    0 -0.69734360226E+01 -0.29454361530E+02  0.19153698413E+02  0.36062789493E+02  0.41800000000E+01 0. -1.
         -5    1    3    3    0  502  0.19528402713E+01  0.10878073496E+03 -0.27926491328E+02  0.11240295014E+03  0.41800000000E+01 0. -1.
        -11    1    1    2    0    0 -0.22615618338E+02 -0.33741041184E+02  0.30052689822E+02  0.50528093360E+02  0.00000000000E+00 0. -1.
         11    1    1    2    0    0  0.27636214089E+02 -0.45585332241E+02 -0.47874047622E+02  0.71649893793E+02  0.00000000000E+00 0.  1.
</event>
<event>
 7    1  0.4394360E-006  0.1346752E+03  0.7561462E-02  0.1220679E+00
          2   -1    0    0  501    0  0.00000000000E+00  0.00000000000E+00  0.15740218389E+03  0.15740218389E+03  0.00000000000E+00 0. -1.
         -2   -1    0    0    0  501 -0.00000000000E+00 -0.00000000000E+00 -0.14196010327E+03  0.14196010327E+03  0.00000000000E+00 0.  1.
         23    2    1    2    0    0 -0.23436787625E+02 -0.96729782739E+02 -0.14314036828E+02  0.16049545972E+03  0.12509183450E+03 0.  0.
          5    1    3    3  502    0  0.20452801260E+02  0.64491302763E+01 -0.39828139670E+02  0.45427540879E+02  0.41800000000E+01 0. -1.
         -5    1    3    3    0  502 -0.43889588885E+02 -0.10317891302E+03  0.25514102842E+02  0.11506791885E+03  0.41800000000E+01 0. -1.
        -11    1    1    2    0    0  0.40615066798E+02  0.37987000632E+01  0.44664123574E+01  0.41036113516E+02  0.00000000000E+00 0.  1.
         11    1    1    2    0    0 -0.17178279172E+02  0.92931082676E+02  0.25289705097E+02  0.97830713922E+02  0.00000000000E+00 0. -1.
</event>
<event>
 7    1  0.4394360E-006  0.1055006E+03  0.7561462E-02  0.1269136E+00
         -2   -1    0    0    0  501 -0.00000000000E+00  0.00000000000E+00  0.54918784484E+02  0.54918784484E+02  0.00000000000E+00 0.  1.
          2   -1    0    0  501    0  0.00000000000E+00 -0.00000000000E+00 -0.39762003654E+03  0.39762003654E+03  0.00000000000E+00 0. -1.
         23    2    1    2    0    0  0.14749553158E+02 -0.21446715575E+02 -0.37619958147E+02  0.13319251928E+03  0.12508986775E+03 0.  0.
          5    1    3    3  502    0 -0.47906593540E+02  0.88299078447E+01 -0.40399335488E+02  0.63423873147E+02  0.41800000000E+01 0.  1.
         -5    1    3    3    0  502  0.62656146697E+02 -0.30276623420E+02  0.27793773408E+01  0.69768646132E+02  0.41800000000E+01 0.  1.
        -11    1    1    2    0    0  0.90566117434E+01 -0.32335573260E+02 -0.81230033509E+02  0.87897268775E+02  0.00000000000E+00 0.  1.
         11    1    1    2    0    0 -0.23806164901E+02  0.53782288835E+02 -0.22385126040E+03  0.23144903297E+03  0.00000000000E+00 0. -1.
</event>
<event>
 7    1  0.4394360E-006  0.1054206E+03  0.7561462E-02  0.1269293E+00
         -1   -1    0    0    0  501 -0.00000000000E+00  0.00000000000E+00  0.24388373434E+02  0.24388373434E+02  0.00000000000E+00 0.  1.
          1   -1    0    0  501    0  0.00000000000E+00 -0.00000000000E+00 -0.51657438855E+03  0.51657438855E+03  0.00000000000E+00 0. -1.
         23    2    1    2    0    0 -0.21090135500E+02 -0.28661625971E+02 -0.19134131090E+03  0.22479817079E+03  0.11250083430E+03 0.  0.
          5    1    3    3  502    0  0.21068850893E+02 -0.58193361010E+02 -0.73763638952E+02  0.96378994470E+02  0.41800000000E+01 0. -1.
         -5    1    3    3    0  502 -0.42158986393E+02  0.29531735039E+02 -0.11757767194E+03  0.12841917633E+03  0.41800000000E+01 0.  1.
        -11    1    1    2    0    0 -0.28419308356E+02 -0.14120859373E+02 -0.93258727129E+02  0.98510131167E+02  0.00000000000E+00 0.  1.
         11    1    1    2    0    0  0.49509443856E+02  0.42782485344E+02 -0.20758597709E+03  0.21765446002E+03  0.00000000000E+00 0. -1.
</event>
<event>
 6    1  0.4394360E-006  0.1935041E+03  0.7561462E-02  0.1155338E+00
         -1   -1    0    0    0  501 -0.00000000000E+00  0.00000000000E+00  0.23768753975E+03  0.23768753975E+03  0.00000000000E+00 0.  1.
          1   -1    0    0  501    0  0.00000000000E+00 -0.00000000000E+00 -0.22269953496E+03  0.22269953496E+03  0.00000000000E+00 0. -1.
          5    1    1    2  502    0  0.12343415018E+03  0.16302473729E+02 -0.94473589871E+01  0.12493392282E+03  0.41800000000E+01 0. -1.
         -5    1    1    2    0  502 -0.16073396417E+03  0.98897369788E+01  0.11626082268E+03  0.19866369931E+03  0.41800000000E+01 0.  1.
        -11    1    1    2    0    0 -0.29915400506E+02 -0.13993897026E+02 -0.27972795069E+02  0.43280915025E+02  0.00000000000E+00 0.  1.
         11    1    1    2    0    0  0.67215214495E+02 -0.12198313682E+02 -0.63852663839E+02  0.93508537555E+02  0.00000000000E+00 0. -1.
</event>
<event>
 7    1  0.4394360E-006  0.9918432E+02  0.7561462E-02  0.1282021E+00
         -1   -1    0    0    0  501 -0.00000000000E+00  0.00000000000E+00  0.19482132051E+02  0.19482132051E+02  0.00000000000E+00 0.  1.
          1   -1    0    0  501    0  0.00000000000E+00 -0.00000000000E+00 -0.60675346865E+03  0.60675346865E+03  0.00000000000E+00 0. -1.
         23    2    1    2    0    0 -0.17637848614E+02 -0.66030128165E+01 -0.25093722198E+03  0.27718405985E+03  0.11621884605E+03 0.  0.
          5    1    3    3  502    0 -0.66005451496E+02  0.11274277605E+01 -0.11549008276E+03  0.13309178162E+03  0.41800000000E+01 0. -1.
         -5    1    3    3    0  502  0.48367602882E+02 -0.77304405770E+01 -0.13544713922E+03  0.14409227823E+03  0.41800000000E+01 0.  1.
        -11    1    1    2    0    0 -0.11364061575E+01  0.42519396552E+02 -0.25105077393E+03  0.25462851685E+03  0.00000000000E+00 0.  1.
         11    1    1    2    0    0  0.18774254771E+02 -0.35916383736E+02 -0.85283340694E+02  0.94423024008E+02  0.00000000000E+00 0. -1.
</event>
<event>
 7    1  0.4394360E-006  0.1045245E+03  0.7561462E-02  0.1271059E+00
         -2   -1    0    0    0  501 -0.00000000000E+00  0.00000000000E+00  0.73096639766E+02  0.73096639766E+02  0.00000000000E+00 0.  1.
          2   -1    0    0  501    0  0.00000000000E+00 -0.00000000000E+00 -0.20650486614E+03  0.20650486614E+03  0.00000000000E+00 0. -1.
         23    2    1    2    0    0  0.34074259068E+02  0.42831127597E+02 -0.56946454120E+02  0.14793894589E+03  0.12508985751E+03 0.  0.
          5    1    3    3  502    0 -0.16772708952E+02 -0.36115046277E+02 -0.30381143402E+02  0.50260388056E+02  0.41800000000E+01 0.  1.
         -5    1    3    3    0  502  0.50846968020E+02  0.78946173875E+02 -0.26565310718E+02  0.97678557830E+02  0.41800000000E+01 0.  1.
        -11    1    1    2    0    0 -0.42799936863E+02 -0.14218172097E+02 -0.88569811780E+02  0.99391159425E+02  0.00000000000E+00 0. -1.
         11    1    1    2    0    0  0.87256777951E+01 -0.28612955500E+02  0.12108039522E+02  0.32271400597E+02  0.00000000000E+00 0.  1.
</event>
<event>
 7    1  0.4394360E-006  0.7979990E+02  0.7561462E-02  0.1329620E+00
          1   -1    0    0  501    0  0.00000000000E+00  0.00000000000E+00  0.13396227222E+03  0.13396227222E+03  0.00000000000E+00 0. -1.
         -1   -1    0    0    0  501 -0.00000000000E+00 -0.00000000000E+00 -0.94165544901E+02  0.94165544901E+02  0.00000000000E+00 0.  1.
         23    2    1    2    0    0 -0.77301557250E+01  0.30696453568E+02  0.24592310506E+02  0.13135642524E+03  0.12509077163E+03 0.  0.
          5    1    3    3  502    0  0.10704876897E+01  0.72794023130E+02  0.42701900092E+02  0.84504676905E+02  0.41800000000E+01 0.  1.
         -5    1    3    3    0  502 -0.88006434147E+01 -0.42097569561E+02 -0.18109589586E+02  0.46851748339E+02  0.41800000000E+01 0.  1.
        -11    1    1    2    0    0  0.19178994506E+02 -0.17122070145E+02  0.50831776045E+02  0.56963747877E+02  0.00000000000E+00 0. -1.
         11    1    1    2    0    0 -0.11448838781E+02 -0.13574383423E+02 -0.35627359233E+02  0.39807643998E+02  0.00000000000E+00 0.  1.
</event>
<event>
 7    1  0.4394360E-006  0.1058907E+03  0.7561462E-02  0.1268375E+00
          2   -1    0    0  501    0  0.00000000000E+00  0.00000000000E+00  0.99486903248E+02  0.99486903248E+02  0.00000000000E+00 0. -1.
         -2   -1    0    0    0  501 -0.00000000000E+00 -0.00000000000E+00 -0.17951904028E+03  0.17951904028E+03  0.00000000000E+00 0.  1.
         23    2    1    2    0    0  0.53387030921E+02  0.34676995976E+02 -0.77830654495E+02  0.16049257476E+03  0.12509031398E+03 0.  0.
          5    1    3    3  502    0  0.25817110876E+02  0.79142474854E+02 -0.27491337866E+02  0.87768448760E+02  0.41800000000E+01 0. -1.
         -5    1    3    3    0  502  0.27569920045E+02 -0.44465478878E+02 -0.50339316629E+02  0.72724125996E+02  0.41800000000E+01 0. -1.
        -11    1    1    2    0    0 -0.53747924710E+02 -0.14372901725E+02 -0.44728436606E+02  0.71386642699E+02  0.00000000000E+00 0.  1.
         11    1    1    2    0    0  0.36089378942E+00 -0.20304094250E+02  0.42526954070E+02  0.47126726071E+02  0.00000000000E+00 0. -1.
</event>
<event>
 7    1  0.4394360E-006  0.8474168E+02  0.7561462E-02  0.1316109E+00
         -2   -1    0    0    0  501 -0.00000000000E+00  0.00000000000E+00  0.52752358740E+02  0.52752358740E+02  0.00000000000E+00 0.  1.
          2   -1    0    0  501    0  0.00000000000E+00 -0.00000000000E+00 -0.23658387716E+03  0.23658387716E+03  0.00000000000E+00 0. -1.
         23    2    1    2    0    0  0.12539356718E+02  0.12388483524E+02 -0.10601807422E+03  0.16491911623E+03  0.12509105822E+03 0.  0.
          5    1    3    3  502    0  0.67247487335E+02  0.15227993834E+02 -0.74428007927E+02  0.10154367097E+03  0.41800000000E+01 0. -1.
         -5    1    3    3    0  502 -0.54708130618E+02 -0.28395103098E+01 -0.31590066295E+02  0.63375445269E+02  0.41800000000E+01 0. -1.
        -11    1    1    2    0    0 -0.24444117528E+02  0.44479914802E+01  0.15212802101E+02  0.29132951407E+02  0.00000000000E+00 0.  1.
         11    1    1    2    0    0  0.11904760810E+02 -0.16836475004E+02 -0.93026246299E+02  0.95284168260E+02  0.00000000000E+00 0. -1.
</event>
<event>
 7    1  0.4394360E-006  0.9484151E+02  0.7561462E-02  0.1291533E+00
         -3   -1    0    0    0  501 -0.00000000000E+00  0.00000000000E+00  0.37548687615E+03  0.37548687615E+03  0.00000000000E+00 0.  1.
          3   -1    0    0  501    0  0.00000000000E+00 -0.00000000000E+00 -0.71876039388E+02  0.71876039388E+02  0.00000000000E+00 0. -1.
         23    2    1    2    0    0  0.30468468131E+02 -0.24806554205E+02  0.31897725648E+03  0.34487235757E+03  0.12508701043E+03 0.  0.
          5    1    3    3  502    0  0.10750251430E+02 -0.63318407451E+02  0.27723433451E+03  0.28460698737E+03  0.41800000000E+01 0. -1.
         -5    1    3    3    0  502  0.19718216702E+02  0.38511853246E+02  0.41742921971E+02  0.60265370198E+02  0.41800000000E+01 0. -1.
        -11    1    1    2    0    0 -0.51592330917E+02  0.30556768405E+02 -0.38009695779E+02  0.70994518648E+02  0.00000000000E+00 0. -1.
         11    1    1    2    0    0  0.21123862785E+02 -0.57502142008E+01  0.22643276061E+02  0.31496039324E+02  0.00000000000E+00 0.  1.
</event>
<event>
 7    1  0.4394360E-006  0.9972599E+02  0.7561462E-02  0.1280873E+00
          2   -1    0    0  501    0  0.00000000000E+00  0.00000000000E+00  0.70402374974E+02  0.70402374974E+02  0.00000000000E+00 0. -1.
         -2   -1    0    0    0  501 -0.00000000000E+00 -0.00000000000E+00 -0.48820951717E+03  0.48820951717E+03  0.00000000000E+00 0.  1.
         23    2    1    2    0    0 -0.73064359140E+02 -0.48017281103E+02 -0.40299604849E+03  0.43093006529E+03  0.12510334214E+03 0.  0.
          5    1    3    3  502    0 -0.61507906583E+02 -0.22266742620E+02 -0.67022425188E+02  0.93747044099E+02  0.41800000000E+01 0. -1.
         -5    1    3    3    0  502 -0.11556452558E+02 -0.25750538483E+02 -0.33597362330E+03  0.33718302119E+03  0.41800000000E+01 0. -1.
        -11    1    1    2    0    0  0.64148449169E+02  0.83204389694E+01  0.26312841816E+02  0.69832792296E+02  0.00000000000E+00 0. -1.
         11    1    1    2    0    0  0.89159099714E+01  0.39696842133E+02 -0.41123935523E+02  0.57849034555E+02  0.00000000000E+00 0.  1.
</event>
<event>
 7    1  0.4394360E-006  0.9391452E+02  0.7561462E-02  0.1293640E+00
          1   -1    0    0  501    0  0.00000000000E+00  0.00000000000E+00  0.58355666046E+03  0.58355666046E+03  0.00000000000E+00 0. -1.
         -1   -1    0    0    0  501 -0.00000000000E+00 -0.00000000000E+00 -0.23809468110E+02  0.23809468110E+02  0.00000000000E+00 0.  1.
         23    2    1    2    0    0  0.41335472313E+02 -0.62828380730E+01  0.25970072899E+03  0.29127315120E+03  0.12508990626E+03 0.  0.
          5    1    3    3  502    0  0.69812366138E+02  0.12976850061E+02  0.24228190933E+03  0.25250774462E+03  0.41800000000E+01 0.  1.
         -5    1    3    3    0  502 -0.28476893825E+02 -0.19259688134E+02  0.17418819651E+02  0.38765406575E+02  0.41800000000E+01 0.  1.
        -11    1    1    2    0    0 -0.56119097218E+02  0.22192991145E+02  0.28035548922E+03  0.28677706021E+03  0.00000000000E+00 0. -1.
         11    1    1    2    0    0  0.14783624905E+02 -0.15910153072E+02  0.19690974142E+02  0.29315917157E+02  0.00000000000E+00 0.  1.
</event>
<event>
 7    1  0.4394360E-006  0.1137948E+03  0.7561462E-02  0.1253700E+00
          1   -1    0    0  501    0  0.00000000000E+00  0.00000000000E+00  0.61721348009E+02  0.61721348009E+02  0.00000000000E+00 0. -1.
         -1   -1    0    0    0  501 -0.00000000000E+00 -0.00000000000E+00 -0.27103644137E+03  0.27103644137E+03  0.00000000000E+00 0.  1.
         23    2    1    2    0    0  0.63455724500E+02 -0.18773982121E+02 -0.15018529576E+03  0.20635401719E+03  0.12508903218E+03 0.  0.
          5    1    3    3  502    0 -0.34560569886E+02  0.14924090741E+01 -0.14609988695E+02  0.37783388484E+02  0.41800000000E+01 0. -1.
         -5    1    3    3    0  502  0.98016294385E+02 -0.20266391195E+02 -0.13557530706E+03  0.16857062871E+03  0.41800000000E+01 0. -1.
        -11    1    1    2    0    0 -0.48153754974E+02  0.42572819258E+02 -0.39535856099E+01  0.64396117094E+02  0.00000000000E+00 0. -1.
         11    1    1    2    0    0 -0.15301969526E+02 -0.23798837137E+02 -0.55176211998E+02  0.62007655099E+02  0.00000000000E+00 0.  1.
</event>
<event>
 6    1  0.4394360E-006  0.6523840E+02  0.7561462E-02  0.1377077E+00
         -1   -1    0    0    0  501 -0.00000000000E+00  0.00000000000E+00  0.12189664879E+03  0.12189664879E+03  0.00000000000E+00 0.  1.
          1   -1    0    0  501    0  0.00000000000E+00 -0.00000000000E+00 -0.39582750255E+03  0.39582750255E+03  0.00000000000E+00 0. -1.
          5    1    1    2  502    0  0.11838170133E+01 -0.71652629480E+01 -0.56564315368E+02  0.57181610584E+02  0.41800000000E+01 0. -1.
         -5    1    1    2    0  502 -0.67423915084E+00  0.29077471686E+02  0.11325077166E+03  0.11700069932E+03  0.41800000000E+01 0.  1.
        -11    1    1    2    0    0 -0.16585640243E+02  0.32223295873E+02 -0.14919145854E+03  0.15353017801E+03  0.00000000000E+00 0.  1.
         11    1    1    2    0    0  0.16076062380E+02 -0.54135504611E+02 -0.18142585151E+03  0.19001166343E+03  0.00000000000E+00 0. -1.
</event>
<event>
 6    1  0.4394360E-006  0.1093433E+03  0.7561462E-02  0.1261791E+00
         -1   -1    0    0    0  501 -0.00000000000E+00  0.00000000000E+00  0.46402360769E+02  0.46402360769E+02  0.00000000000E+00 0.  1.
          1   -1    0    0  501    0  0.00000000000E+00 -0.00000000000E+00 -0.32900272294E+03  0.32900272294E+03  0.00000000000E+00 0. -1.
          5    1    1    2  502    0 -0.23904071083E+02  0.59870394580E+02 -0.12047303006E+03  0.13670073933E+03  0.41800000000E+01 0. -1.
         -5    1    1    2    0  502  0.11562980350E+02 -0.72168087914E+02 -0.34618346361E+02  0.80980477478E+02  0.41800000000E+01 0.  1.
        -11    1    1    2    0    0 -0.45882477093E+01  0.44372372567E+02 -0.10730418149E+03  0.11620734413E+03  0.00000000000E+00 0.  1.
         11    1    1    2    0    0  0.16929338442E+02 -0.32074679233E+02 -0.20204804263E+02  0.41516522774E+02  0.00000000000E+00 0. -1.
</event>
<event>
 7    1  0.4394360E-006  0.9560890E+02  0.7561462E-02  0.1289811E+00
         -2   -1    0    0    0  501 -0.00000000000E+00  0.00000000000E+00  0.97821034135E+02  0.97821034135E+02  0.00000000000E+00 0.  1.
          2   -1    0    0  501    0  0.00000000000E+00 -0.00000000000E+00 -0.15596573401E+03  0.15596573401E+03  0.00000000000E+00 0. -1.
         23    2    1    2    0    0 -0.34628120142E+02  0.47066884481E+02 -0.16259658389E+02  0.13901649155E+03  0.12508721003E+03 0.  0.
          5    1    3    3  502    0  0.17631018684E+02  0.38180408669E+02 -0.57756201121E+02  0.71567084570E+02  0.41800000000E+01 0. -1.
         -5    1    3    3    0  502 -0.52259138826E+02  0.88864758128E+01  0.41496542732E+02  0.67449406980E+02  0.41800000000E+01 0. -1.
        -11    1    1    2    0    0  0.35750782347E+02  0.11230966761E+02  0.76677798847E+01  0.38249809166E+02  0.00000000000E+00 0.  1.
         11    1    1    2    0    0 -0.11226622052E+01 -0.58297851243E+02 -0.49552821371E+02  0.76520467430E+02  0.00000000000E+00 0. -1.
</event>
<event>
 7    1  0.4394360E-006  0.8311363E+02  0.7561462E-02  0.1320441E+00
          1   -1    0    0  501    0  0.00000000000E+00  0.00000000000E+00  0.75499174280E+02  0.75499174280E+02  0.00000000000E+00 0. -1.
         -1   -1    0    0    0  501 -0.00000000000E+00 -0.00000000000E+00 -0.23388352856E+03  0.23388352856E+03  0.00000000000E+00 0.  1.
         23    2    1    2    0    0  0.40723711176E+02  0.25254973442E+02 -0.15145232037E+03  0.20219061735E+03  0.12508799328E+03 0.  0.
          5    1    3    3  502    0  0.46629382524E+02  0.73407612921E+01 -0.16934947390E+03  0.17585477759E+03  0.41800000000E+01 0. -1.
         -5    1    3    3    0  502 -0.59056713482E+01  0.17914212150E+02  0.17897153535E+02  0.26335839757E+02  0.41800000000E+01 0. -1.
        -11    1    1    2    0    0 -0.68031868417E+02 -0.24140128302E+02 -0.22657512402E+02  0.75660054078E+02  0.00000000000E+00 0. -1.
         11    1    1    2    0    0  0.27308157241E+02 -0.11148451399E+01  0.15725478487E+02  0.31532031416E+02  0.00000000000E+00 0.  1.
</event>
<event>
 7    1  0.4394360E-006  0.1507962E+03  0.7561462E-02  0.1199498E+00
         -1   -1    0    0    0  501 -0.00000000000E+00  0.00000000000E+00  0.10581879122E+03  0.10581879122E+03  0.00000000000E+00 0.  1.
          1   -1    0    0  501    0  0.00000000000E+00 -0.00000000000E+00 -0.32651361649E+03  0.32651361649E+03  0.00000000000E+00 0. -1.
         23    2    1    2    0    0  0.23953267177E+02 -0.12848892803E+03 -0.22473398482E+02  0.17817122293E+03  0.11898221467E+03 0.  0.
          5    1    3    3  502    0 -0.29175264161E+02  0.23726760987E+01  0.13290676830E+02  0.32418206633E+02  0.41800000000E+01 0. -1.
         -5    1    3    3    0  502  0.53128531338E+02 -0.13086160413E+03 -0.35764075312E+02  0.14575301630E+03  0.41800000000E+01 0.  1.
        -11    1    1    2    0    0 -0.13857018923E+02  0.67477373922E+02 -0.30375682568E+02  0.75285423930E+02  0.00000000000E+00 0.  1.
         11    1    1    2    0    0 -0.10096248254E+02  0.61011554109E+02 -0.16784574423E+03  0.17887576085E+03  0.00000000000E+00 0. -1.
</event>
<event>
 7    1  0.4394360E-006  0.1645338E+03  0.7561462E-02  0.1183671E+00
          1   -1    0    0  501    0  0.00000000000E+00  0.00000000000E+00  0.36517433601E+03  0.36517433601E+03  0.00000000000E+00 0. -1.
         -1   -1    0    0    0  501 -0.00000000000E+00 -0.00000000000E+00 -0.92687971106E+02  0.92687971106E+02  0.00000000000E+00 0.  1.
         23    2    1    2    0    0 -0.11063869587E+03 -0.94916979960E+02  0.11361785462E+03  0.22317540843E+03  0.12509233362E+03 0.  0.
          5    1    3    3  502    0 -0.41783998563E+02 -0.75622572296E+02  0.12359265020E+03  0.15085520064E+03  0.41800000000E+01 0. -1.
         -5    1    3    3    0  502 -0.68854697311E+02 -0.19294407665E+02 -0.99747955758E+01  0.72320207796E+02  0.41800000000E+01 0. -1.
        -11    1    1    2    0    0  0.12022084636E+03  0.59290077299E+02  0.13761427072E+03  0.19210948095E+03  0.00000000000E+00 0.  1.
         11    1    1    2    0    0 -0.95821504876E+01  0.35626902662E+02  0.21254239565E+02  0.42577417732E+02  0.00000000000E+00 0. -1.
</event>
<event>
 7    1  0.4394360E-006  0.1972248E+03  0.7561462E-02  0.1152102E+00
          2   -1    0    0  501    0  0.00000000000E+00  0.00000000000E+00  0.52873886294E+03  0.52873886294E+03  0.00000000000E+00 0. -1.
         -2   -1    0    0    0  501 -0.00000000000E+00 -0.00000000000E+00 -0.10726806639E+03  0.10726806639E+03  0.00000000000E+00 0.  1.
         23    2    1    2    0    0 -0.17109923891E+03  0.27939549602E+02  0.55998217073E+02  0.22099568273E+03  0.12509086091E+03 0.  0.
          5    1    3    3  502    0 -0.63069538989E+02 -0.43146556883E+02 -0.74441592220E+01  0.76891352087E+02  0.41800000000E+01 0. -1.
         -5    1    3    3    0  502 -0.10802969992E+03  0.71086106485E+02  0.63442376295E+02  0.14410433064E+03  0.41800000000E+01 0. -1.
        -11    1    1    2    0    0  0.12071238381E+03  0.15884890698E+02  0.28831475121E+03  0.31296837719E+03  0.00000000000E+00 0.  1.
         11    1    1    2    0    0  0.50386855105E+02 -0.43824440300E+02  0.77157828262E+02  0.10204286941E+03  0.00000000000E+00 0. -1.
</event>
<event>
 7    1  0.4394360E-006  0.9068645E+02  0.7561462E-02  0.1301198E+00
         -1   -1    0    0    0  501 -0.00000000000E+00  0.00000000000E+00  0.40768278944E+02  0.40768278944E+02  0.00000000000E+00 0.  1.
          1   -1    0    0  501    0  0.00000000000E+00 -0.00000000000E+00 -0.55212902751E+03  0.55212902751E+03  0.00000000000E+00 0. -1.
         23    2    1    2    0    0  0.81727811468E+02 -0.60991374033E+01 -0.15599481458E+03  0.21609764712E+03  0.12508867363E+03 0.  0.
          5    1    3    3  502    0  0.22413800687E+02 -0.29635397695E+00 -0.15466752305E+03  0.15633931487E+03  0.41800000000E+01 0. -1.
         -5    1    3    3    0  502  0.59314010781E+02 -0.58027834264E+01 -0.13272915259E+01  0.59758332249E+02  0.41800000000E+01 0. -1.
        -11    1    1    2    0    0 -0.47760012579E+02  0.30797987964E+02 -0.30923929997E+03  0.31441768320E+03  0.00000000000E+00 0. -1.
         11    1    1    2    0    0 -0.33967798889E+02 -0.24698850561E+02 -0.46126634018E+02  0.62381976133E+02  0.00000000000E+00 0.  1.
</event>
<event>
 7    1  0.4394360E-006  0.1463213E+03  0.7561462E-02  0.1205068E+00
         -2   -1    0    0    0  501 -0.00000000000E+00  0.00000000000E+00  0.10973320191E+03  0.10973320191E+03  0.00000000000E+00 0. -1.
          2   -1    0    0  501    0  0.00000000000E+00 -0.00000000000E+00 -0.20832425478E+03  0.20832425478E+03  0.00000000000E+00 0.  1.
         23    2    1    2    0    0 -0.41334221310E+02 -0.95486451629E+02 -0.35163819393E+02  0.16646863923E+03  0.12509649618E+03 0.  0.
          5    1    3    3  502    0 -0.63376766174E+02  0.11098843387E+01 -0.15025701436E+02  0.65277028407E+02  0.41800000000E+01 0.  1.
         -5    1    3    3    0  502  0.22042544864E+02 -0.96596335967E+02 -0.20138117956E+02  0.10119161082E+03  0.41800000000E+01 0.  1.
        -11    1    1    2    0    0 -0.21924701407E+02  0.11356001963E+02 -0.34502315214E+02  0.42427126553E+02  0.00000000000E+00 0.  1.
         11    1    1    2    0    0  0.63258922717E+02  0.84130449665E+02 -0.28924918260E+02  0.10916169090E+03  0.00000000000E+00 0. -1.
</event>
<event>
 7    1  0.4394360E-006  0.1244306E+03  0.7561462E-02  0.1235962E+00
          2   -1    0    0  501    0  0.00000000000E+00  0.00000000000E+00  0.26260617948E+03  0.26260617948E+03  0.00000000000E+00 0. -1.
         -2   -1    0    0    0  501 -0.00000000000E+00 -0.00000000000E+00 -0.63702014717E+02  0.63702014717E+02  0.00000000000E+00 0.  1.
         23    2    1    2    0    0  0.83603541693E+01  0.79346329238E+02  0.10522067617E+03  0.18189171090E+03  0.12508984097E+03 0.  0.
          5    1    3    3  502    0  0.63190736229E+02  0.35911359582E+02  0.78052171390E+02  0.10673475887E+03  0.41800000000E+01 0.  1.
         -5    1    3    3    0  502 -0.54830382060E+02  0.43434969655E+02  0.27168504781E+02  0.75156952026E+02  0.41800000000E+01 0.  1.
        -11    1    1    2    0    0  0.28307072215E+02 -0.15281733467E+02  0.12032513859E+02  0.34345350557E+02  0.00000000000E+00 0.  1.
         11    1    1    2    0    0 -0.36667426385E+02 -0.64064595771E+02  0.81650974738E+02  0.11007113275E+03  0.00000000000E+00 0. -1.
</event>
<event>
 7    1  0.4394360E-006  0.1035755E+03  0.7561462E-02  0.1272952E+00
         -1   -1    0    0    0  501 -0.00000000000E+00  0.00000000000E+00  0.38476331878E+02  0.38476331878E+02  0.00000000000E+00 0.  1.
          1   -1    0    0  501    0  0.00000000000E+00 -0.00000000000E+00 -0.45353364188E+03  0.45353364188E+03  0.00000000000E+00 0. -1.
         23    2    1    2    0    0 -0.64180124600E+02  0.23965036615E+02 -0.17012959444E+03  0.22182273814E+03  0.12477113800E+03 0.  0.
          5    1    3    3  502    0 -0.17889223851E+02 -0.39554498418E+02 -0.12072916823E+02  0.45252739096E+02  0.41800000000E+01 0.  1.
         -5    1    3    3    0  502 -0.46290900749E+02  0.63519535032E+02 -0.15805667762E+03  0.17656999904E+03  0.41800000000E+01 0.  1.
        -11    1    1    2    0    0 -0.56067380388E+01 -0.13038202751E+02  0.10853538590E+01  0.14234051967E+02  0.00000000000E+00 0.  1.
         11    1    1    2    0    0  0.69786862639E+02 -0.10926833864E+02 -0.24601306942E+03  0.25595318365E+03  0.00000000000E+00 0. -1.
</event>
<event>
 7    1  0.4394360E-006  0.1344947E+03  0.7561462E-02  0.1220935E+00
         -1   -1    0    0    0  501 -0.00000000000E+00  0.00000000000E+00  0.52449281277E+02  0.52449281277E+02  0.00000000000E+00 0.  1.
          1   -1    0    0  501    0  0.00000000000E+00 -0.00000000000E+00 -0.43393916727E+03  0.43393916727E+03  0.00000000000E+00 0. -1.
         23    2    1    2    0    0  0.42366403972E+02 -0.93047490523E+02 -0.17328952381E+03  0.23692106851E+03  0.12509830519E+03 0.  0.
          5    1    3    3  502    0  0.82910615745E+02 -0.34750296647E+02 -0.10534857686E+03  0.13855521775E+03  0.41800000000E+01 0.  1.
         -5    1    3    3    0  502 -0.40544211773E+02 -0.58297193875E+02 -0.67940946956E+02  0.98365850758E+02  0.41800000000E+01 0.  1.
        -11    1    1    2    0    0 -0.23474602473E+02  0.15702565467E+02 -0.18652483750E+01  0.28303827922E+02  0.00000000000E+00 0.  1.
         11    1    1    2    0    0 -0.18891801499E+02  0.77344925056E+02 -0.20633511381E+03  0.22116355212E+03  0.00000000000E+00 0. -1.
</event>
<event>
 6    1  0.4394360E-006  0.1200190E+03  0.7561462E-02  0.1243066E+00
         -1   -1    0    0    0  501 -0.00000000000E+00  0.00000000000E+00  0.20596567472E+03  0.20596567472E+03  0.00000000000E+00 0.  1.
          1   -1    0    0  501    0  0.00000000000E+00 -0.00000000000E+00 -0.14689893863E+03  0.14689893863E+03  0.00000000000E+00 0. -1.
          5    1    1    2  502    0  0.40917150353E+02  0.90952923653E+02 -0.36599964698E+02  0.10631875343E+03  0.41800000000E+01 0. -1.
         -5    1    1    2    0  502 -0.29235638354E+02 -0.18284251868E+02  0.12016148128E+03  0.12508113527E+03  0.41800000000E+01 0.  1.
        -11    1    1    2    0    0 -0.21977209831E+02  0.85739053255E+01 -0.31408456758E+02  0.39281048362E+02  0.00000000000E+00 0. -1.
         11    1    1    2    0    0  0.10295697832E+02 -0.81242577110E+02  0.69136762704E+01  0.82183676293E+02  0.00000000000E+00 0.  1.
</event>
<event>
 7    1  0.4394360E-006  0.2309253E+03  0.7561462E-02  0.1125990E+00
          1   -1    0    0  501    0  0.00000000000E+00  0.00000000000E+00  0.56661059697E+03  0.56661059697E+03  0.00000000000E+00 0. -1.
         -1   -1    0    0    0  501 -0.00000000000E+00 -0.00000000000E+00 -0.10373965562E+03  0.10373965562E+03  0.00000000000E+00 0.  1.
         23    2    1    2    0    0 -0.20161381869E+02  0.21541895889E+03  0.21559650020E+03  0.33006293298E+03  0.12509148517E+03 0.  0.
          5    1    3    3  502    0  0.35167963227E+02  0.58322262874E+02  0.11982432536E+03  0.13788985942E+03  0.41800000000E+01 0. -1.
         -5    1    3    3    0  502 -0.55329345096E+02  0.15709669601E+03  0.95772174845E+02  0.19217307356E+03  0.41800000000E+01 0. -1.
        -11    1    1    2    0    0 -0.21466826702E+02 -0.13250281542E+03  0.18491743619E+03  0.22850006335E+03  0.00000000000E+00 0. -1.
         11    1    1    2    0    0  0.41628208570E+02 -0.82916143462E+02  0.62357004956E+02  0.11178725626E+03  0.00000000000E+00 0.  1.
</event>
<event>
 7    1  0.4394360E-006  0.1354067E+03  0.7561462E-02  0.1219647E+00
         -2   -1    0    0    0  501 -0.00000000000E+00  0.00000000000E+00  0.50640793639E+02  0.50640793639E+02  0.00000000000E+00 0. -1.
          2   -1    0    0  501    0  0.00000000000E+00 -0.00000000000E+00 -0.38915509206E+03  0.38915509206E+03  0.00000000000E+00 0.  1.
         23    2    1    2    0    0  0.16222404123E+02  0.86791027709E+02 -0.16877452501E+03  0.22787697046E+03  0.12508886636E+03 0.  0.
          5    1    3    3  502    0  0.68030568817E+02  0.40502104207E+02 -0.11610940235E+03  0.14059674411E+03  0.41800000000E+01 0.  1.
         -5    1    3    3    0  502 -0.51808164694E+02  0.46288923502E+02 -0.52665122653E+02  0.87280226351E+02  0.41800000000E+01 0.  1.
        -11    1    1    2    0    0  0.31495712349E+02 -0.58538759100E+02 -0.62756902451E+02  0.91417695325E+02  0.00000000000E+00 0.  1.
         11    1    1    2    0    0 -0.47718116472E+02 -0.28252268609E+02 -0.10698287097E+03  0.12050121992E+03  0.00000000000E+00 0. -1.
</event>
<event>
 7    1  0.4394360E-006  0.1023741E+03  0.7561462E-02  0.1275381E+00
          1   -1    0    0  501    0  0.00000000000E+00  0.00000000000E+00  0.51254934520E+02  0.51254934520E+02  0.00000000000E+00 0. -1.
         -1   -1    0    0    0  501 -0.00000000000E+00 -0.00000000000E+00 -0.39555645210E+03  0.39555645210E+03  0.00000000000E+00 0.  1.
         23    2    1    2    0    0 -0.42826091648E+02  0.63291299141E+02 -0.24686468785E+03  0.28710491351E+03  0.12508874683E+03 0.  0.
          5    1    3    3  502    0 -0.44389582407E+02  0.51692278954E+02 -0.26012377724E+03  0.26893192190E+03  0.41800000000E+01 0. -1.
         -5    1    3    3    0  502  0.15634907594E+01  0.11599020187E+02  0.13259089393E+02  0.18172991613E+02  0.41800000000E+01 0. -1.
        -11    1    1    2    0    0  0.38904133835E+02 -0.89481975543E+02 -0.88574880224E+02  0.13178036646E+03  0.00000000000E+00 0.  1.
         11    1    1    2    0    0  0.39219578128E+01  0.26190676402E+02 -0.88619495025E+01  0.27926106647E+02  0.00000000000E+00 0. -1.
</event>
<event>
 7    1  0.4394360E-006  0.1432712E+03  0.7561462E-02  0.1208994E+00
         -1   -1    0    0    0  501 -0.00000000000E+00  0.00000000000E+00  0.92605444200E+02  0.92605444200E+02  0.00000000000E+00 0.  1.
          1   -1    0    0  501    0  0.00000000000E+00 -0.00000000000E+00 -0.27864368016E+03  0.27864368016E+03  0.00000000000E+00 0. -1.
         23    2    1    2    0    0 -0.53092128733E+02  0.10239942822E+03 -0.70457945121E+02  0.18416454939E+03  0.12509133539E+03 0.  0.
          5    1    3    3  502    0  0.20681991685E+02 -0.17458758301E+02 -0.16235350660E+01  0.27434673090E+02  0.41800000000E+01 0. -1.
         -5    1    3    3    0  502 -0.73774120418E+02  0.11985818652E+03 -0.68834410055E+02  0.15672987630E+03  0.41800000000E+01 0. -1.
        -11    1    1    2    0    0  0.32108729456E+02 -0.33825821324E+02 -0.10461326116E+03  0.11453860094E+03  0.00000000000E+00 0. -1.
         11    1    1    2    0    0  0.20983399277E+02 -0.68573606892E+02 -0.10967029683E+02  0.72545974027E+02  0.00000000000E+00 0.  1.
</event>
<event>
 7    1  0.4394360E-006  0.1150399E+03  0.7561462E-02  0.1251511E+00
          3   -1    0    0  501    0  0.00000000000E+00  0.00000000000E+00  0.42585953000E+03  0.42585953000E+03  0.00000000000E+00 0. -1.
         -3   -1    0    0    0  501 -0.00000000000E+00 -0.00000000000E+00 -0.42363749804E+02  0.42363749804E+02  0.00000000000E+00 0.  1.
         23    2    1    2    0    0 -0.37836227751E+02 -0.66945982661E+02  0.18068183713E+03  0.23282286900E+03  0.12508883778E+03 0.  0.
          5    1    3    3  502    0  0.35243254892E+02 -0.61287601466E+02  0.11056214651E+03  0.13130010568E+03  0.41800000000E+01 0. -1.
         -5    1    3    3    0  502 -0.73079482644E+02 -0.56583811950E+01  0.70119690613E+02  0.10152276332E+03  0.41800000000E+01 0. -1.
        -11    1    1    2    0    0  0.43718043792E+02  0.43516585978E+02  0.20202377785E+03  0.21123107590E+03  0.00000000000E+00 0. -1.
         11    1    1    2    0    0 -0.58818160410E+01  0.23429396683E+02  0.79016522208E+00  0.24169334909E+02  0.00000000000E+00 0.  1.
</event>
<event>
 7    1  0.4394360E-006  0.1063976E+03  0.7561462E-02  0.1267390E+00
          1   -1    0    0  501    0  0.00000000000E+00  0.00000000000E+00  0.71763821947E+03  0.71763821947E+03  0.00000000000E+00 0. -1.
         -1   -1    0    0    0  501 -0.00000000000E+00 -0.00000000000E+00 -0.32394458903E+02  0.32394458903E+02  0.00000000000E+00 0.  1.
         23    2    1    2    0    0 -0.88049674861E+02  0.15992571894E+02  0.54169916675E+03  0.56311176991E+03  0.12509344727E+03 0.  0.
          5    1    3    3  502    0 -0.83466441492E+02  0.82544972847E+01  0.54591433418E+03  0.55233569162E+03  0.41800000000E+01 0. -1.
         -5    1    3    3    0  502 -0.45832333696E+01  0.77380746096E+01 -0.42151674250E+01  0.10776078285E+02  0.41800000000E+01 0. -1.
        -11    1    1    2    0    0 -0.11530681576E+02 -0.15499788483E+02  0.32122416418E+02  0.37483992546E+02  0.00000000000E+00 0. -1.
         11    1    1    2    0    0  0.99580356437E+02 -0.49278341159E+00  0.11142217739E+03  0.14943691592E+03  0.00000000000E+00 0.  1.
</event>
<event>
 7    1  0.4394360E-006  0.9355595E+02  0.7561462E-02  0.1294462E+00
         -4   -1    0    0    0  501 -0.00000000000E+00  0.00000000000E+00  0.22340576983E+03  0.22340576983E+03  0.00000000000E+00 0.  1.
          4   -1    0    0  501    0  0.00000000000E+00 -0.00000000000E+00 -0.59193003646E+02  0.59193003646E+02  0.00000000000E+00 0. -1.
         23    2    1    2    0    0  0.30183424788E+02  0.11353477413E+02  0.11594431755E+03  0.17357919308E+03  0.12508681353E+03 0.  0.
          5    1    3    3  502    0  0.57237940283E+02 -0.23180636071E+02  0.11369798532E+03  0.12945357454E+03  0.41800000000E+01 0. -1.
         -5    1    3    3    0  502 -0.27054515495E+02  0.34534113484E+02  0.22463322268E+01  0.44125618537E+02  0.41800000000E+01 0. -1.
        -11    1    1    2    0    0 -0.32142086862E+02  0.27466498215E+02 -0.55400301466E+01  0.42640523050E+02  0.00000000000E+00 0. -1.
         11    1    1    2    0    0  0.19586620738E+01 -0.38819975628E+02  0.53808478778E+02  0.66379057340E+02  0.00000000000E+00 0.  1.
</event>
<event>
 7    1  0.4394360E-006  0.9305739E+02  0.7561462E-02  0.1295612E+00
          1   -1    0    0  501    0  0.00000000000E+00  0.00000000000E+00  0.17230808257E+03  0.17230808257E+03  0.00000000000E+00 0. -1.
         -1   -1    0    0    0  501 -0.00000000000E+00 -0.00000000000E+00 -0.71529330858E+02  0.71529330858E+02  0.00000000000E+00 0.  1.
         23    2    1    2    0    0  0.10345285913E+02  0.76127990118E+01  0.39599771328E+02  0.13183401276E+03  0.12508831033E+03 0.  0.
          5    1    3    3  502    0 -0.53888871216E+02  0.23679651303E+02  0.13463832659E+02  0.60526717379E+02  0.41800000000E+01 0. -1.
         -5    1    3    3    0  502  0.64234157129E+02 -0.16066852292E+02  0.26135938669E+02  0.71307295383E+02  0.41800000000E+01 0. -1.
        -11    1    1    2    0    0 -0.30031061812E+02 -0.21269855371E+02  0.75570195769E+02  0.84054303338E+02  0.00000000000E+00 0. -1.
         11    1    1    2    0    0  0.19685775899E+02  0.13657056359E+02 -0.14391215387E+02  0.27949097328E+02  0.00000000000E+00 0.  1.
</event>
<event>
 7    1  0.4394360E-006  0.1122279E+03  0.7561462E-02  0.1256499E+00
         -1   -1    0    0    0  501 -0.00000000000E+00  0.00000000000E+00  0.65030539717E+02  0.65030539717E+02  0.00000000000E+00 0.  1.
          1   -1    0    0  501    0  0.00000000000E+00 -0.00000000000E+00 -0.19983209931E+03  0.19983209931E+03  0.00000000000E+00 0. -1.
         23    2    1    2    0    0  0.38827905368E+02 -0.87808464554E+01 -0.71527583853E+02  0.14949374861E+03  0.12508987218E+03 0.  0.
          5    1    3    3  502    0 -0.98574998208E+01  0.50464595204E+02 -0.13748204245E+02  0.53388493066E+02  0.41800000000E+01 0.  1.
         -5    1    3    3    0  502  0.48685405189E+02 -0.59245441660E+02 -0.57779379608E+02  0.96105255547E+02  0.41800000000E+01 0.  1.
        -11    1    1    2    0    0 -0.12870118898E+02 -0.39341950836E+02 -0.32487695161E+02  0.52620142464E+02  0.00000000000E+00 0. -1.
         11    1    1    2    0    0 -0.25957786470E+02  0.48122797292E+02 -0.30786280584E+02  0.62748747954E+02  0.00000000000E+00 0.  1.
</event>
<event>
 7    1  0.4394360E-006  0.1219529E+03  0.7561462E-02  0.1239910E+00
          2   -1    0    0  501    0  0.00000000000E+00  0.00000000000E+00  0.65161484938E+03  0.65161484938E+03  0.00000000000E+00 0.  1.
         -2   -1    0    0    0  501 -0.00000000000E+00 -0.00000000000E+00 -0.33898466084E+02  0.33898466084E+02  0.00000000000E+00 0. -1.
         23    2    1    2    0    0  0.27371260963E+02  0.78210348860E+02  0.19532239077E+03  0.24629947833E+03  0.12508617867E+03 0.  0.
          5    1    3    3  502    0  0.13517340617E+02  0.10396763065E+03  0.94398238195E+02  0.14113995357E+03  0.41800000000E+01 0. -1.
         -5    1    3    3    0  502  0.13853920346E+02 -0.25757281789E+02  0.10092415258E+03  0.10515952476E+03  0.41800000000E+01 0. -1.
        -11    1    1    2    0    0 -0.32205829161E+02 -0.90590648373E+02  0.40971725297E+03  0.42084689423E+03  0.00000000000E+00 0.  1.
         11    1    1    2    0    0  0.48345681985E+01  0.12380299513E+02  0.12676739550E+02  0.18366942895E+02  0.00000000000E+00 0. -1.
</event>
<event>
 7    1  0.4394360E-006  0.7550084E+02  0.7561462E-02  0.1342327E+00
         -2   -1    0    0    0  501 -0.00000000000E+00  0.00000000000E+00  0.11746673702E+03  0.11746673702E+03  0.00000000000E+00 0.  1.
          2   -1    0    0  501    0  0.00000000000E+00 -0.00000000000E+00 -0.12072629968E+03  0.12072629968E+03  0.00000000000E+00 0. -1.
         23    2    1    2    0    0 -0.34531944836E+02 -0.39069458646E+01  0.34550536067E+02  0.13434713480E+03  0.12509074165E+03 0.  0.
          5    1    3    3  502    0 -0.33645629004E+02 -0.19641567744E+02  0.78355428826E+02  0.87606307770E+02  0.41800000000E+01 0. -1.
         -5    1    3    3    0  502 -0.88631583225E+00  0.15734621880E+02 -0.43804892760E+02  0.46740827027E+02  0.41800000000E+01 0. -1.
        -11    1    1    2    0    0  0.22522632994E+02 -0.42218872984E+02 -0.10775303942E+02  0.49049051041E+02  0.00000000000E+00 0.  1.
         11    1    1    2    0    0  0.12009311842E+02  0.46125818849E+02 -0.27034794790E+02  0.54796850865E+02  0.00000000000E+00 0. -1.
</event>
<event>
 7    1  0.4394360E-006  0.1699219E+03  0.7561462E-02  0.1177929E+00
         -1   -1    0    0    0  501 -0.00000000000E+00  0.00000000000E+00  0.84740959760E+02  0.84740959760E+02  0.00000000000E+00 0.  1.
          1   -1    0    0  501    0  0.00000000000E+00 -0.00000000000E+00 -0.52334155511E+03  0.52334155511E+03  0.00000000000E+00 0. -1.
         23    2    1    2    0    0 -0.16102583232E+03  0.47661505575E+02 -0.13379304583E+03  0.24849588946E+03  0.12509472481E+03 0.  0.
          5    1    3    3  502    0 -0.11272153340E+03  0.15880900024E+02 -0.13176672438E+02  0.11467102587E+03  0.41800000000E+01 0. -1.
         -5    1    3    3    0  502 -0.48304298919E+02  0.31780605551E+02 -0.12061637339E+03  0.13382486359E+03  0.41800000000E+01 0. -1.
        -11    1    1    2    0    0  0.15993636960E+02 -0.57090073496E+01  0.25283249137E+01  0.17169205427E+02  0.00000000000E+00 0. -1.
         11    1    1    2    0    0  0.14503219536E+03 -0.41952498225E+02 -0.30733587443E+03  0.34241741998E+03  0.00000000000E+00 0.  1.
</event>
<event>
 7    1  0.4394360E-006  0.1032886E+03  0.7561462E-02  0.1273529E+00
         -1   -1    0    0    0  501 -0.00000000000E+00  0.00000000000E+00  0.79286509214E+02  0.79286509214E+02  0.00000000000E+00 0.  1.
          1   -1    0    0  501    0  0.00000000000E+00 -0.00000000000E+00 -0.20945098728E+03  0.20945098728E+03  0.00000000000E+00 0. -1.
         23    2    1    2    0    0 -0.67225578076E+02 -0.26834576521E+01 -0.54824381010E+02  0.15222063094E+03  0.12505570134E+03 0.  0.
          5    1    3    3  502    0 -0.18678797819E+02  0.29588057047E+02  0.31971844796E+02  0.47581738801E+02  0.41800000000E+01 0.  1.
         -5    1    3    3    0  502 -0.48546780257E+02 -0.32271514699E+02 -0.86796225806E+02  0.10463889214E+03  0.41800000000E+01 0.  1.
        -11    1    1    2    0    0 -0.74809141326E+01 -0.30314572434E+02 -0.29012745889E+02  0.42622491740E+02  0.00000000000E+00 0. -1.
         11    1    1    2    0    0  0.74706492208E+02  0.32998030086E+02 -0.46327351168E+02  0.93894373814E+02  0.00000000000E+00 0.  1.
</event>
<event>
 7    1  0.4394360E-006  0.1591169E+03  0.7561462E-02  0.1189697E+00
          1   -1    0    0  501    0  0.00000000000E+00  0.00000000000E+00  0.54755995217E+03  0.54755995217E+03  0.00000000000E+00 0. -1.
         -1   -1    0    0    0  501 -0.00000000000E+00 -0.00000000000E+00 -0.14754944474E+03  0.14754944474E+03  0.00000000000E+00 0.  1.
         23    2    1    2    0    0  0.10972099211E+03  0.60806414418E+02 -0.81384430154E+02  0.18936313919E+03  0.11618458103E+03 0.  0.
          5    1    3    3  502    0  0.74561223173E+02 -0.21755360740E+02 -0.19233109051E+02  0.80125255729E+02  0.41800000000E+01 0. -1.
         -5    1    3    3    0  502  0.35159768937E+02  0.82561775158E+02 -0.62151321103E+02  0.10923788346E+03  0.41800000000E+01 0.  1.
        -11    1    1    2    0    0 -0.78051531762E+02 -0.81452741883E+02  0.40631723592E+03  0.42168742805E+03  0.00000000000E+00 0. -1.
         11    1    1    2    0    0 -0.31669460347E+02  0.20646327465E+02  0.75077701665E+02  0.84058829660E+02  0.00000000000E+00 0.  1.
</event>
<event>
 7    1  0.4394360E-006  0.1244953E+03  0.7561462E-02  0.1235860E+00
         -2   -1    0    0    0  501 -0.00000000000E+00  0.00000000000E+00  0.50182924300E+03  0.50182924300E+03  0.00000000000E+00 0.  1.
          2   -1    0    0  501    0  0.00000000000E+00 -0.00000000000E+00 -0.44821892969E+02  0.44821892969E+02  0.00000000000E+00 0. -1.
         23    2    1    2    0    0 -0.15658161895E+02 -0.84195158614E+02  0.34897407843E+03  0.38048989466E+03  0.12512253894E+03 0.  0.
          5    1    3    3  502    0  0.32715319968E+02 -0.85654795775E+02  0.15154967650E+03  0.17717734914E+03  0.41800000000E+01 0. -1.
         -5    1    3    3    0  502 -0.48373481863E+02  0.14596371614E+01  0.19742440193E+03  0.20331254552E+03  0.41800000000E+01 0. -1.
        -11    1    1    2    0    0  0.39744206712E+02  0.70477163806E+02  0.35208799628E+02  0.88239969156E+02  0.00000000000E+00 0. -1.
         11    1    1    2    0    0 -0.24086044817E+02  0.13717994807E+02  0.72824471967E+02  0.77921272152E+02  0.00000000000E+00 0.  1.
</event>
<event>
 7    1  0.4394360E-006  0.1475497E+03  0.7561462E-02  0.1203517E+00
          2   -1    0    0  501    0  0.00000000000E+00  0.00000000000E+00  0.31710068406E+03  0.31710068406E+03  0.00000000000E+00 0. -1.
         -2   -1    0    0    0  501 -0.00000000000E+00 -0.00000000000E+00 -0.10955980634E+03  0.10955980634E+03  0.00000000000E+00 0.  1.
         23    2    1    2    0    0 -0.40674040172E+02 -0.13932342199E+03  0.59481977518E+02  0.20063352077E+03  0.12510120122E+03 0.  0.
          5    1    3    3  502    0 -0.29616777883E+02 -0.89217578307E+02 -0.28826737640E+02  0.98414343539E+02  0.41800000000E+01 0.  1.
         -5    1    3    3    0  502 -0.11057262289E+02 -0.50105843687E+02  0.88308715158E+02  0.10221917723E+03  0.41800000000E+01 0.  1.
        -11    1    1    2    0    0  0.13297708078E+02  0.10391743954E+03  0.14793122488E+03  0.18127137274E+03  0.00000000000E+00 0. -1.
         11    1    1    2    0    0  0.27376332093E+02  0.35405982449E+02  0.12767531964E+00  0.44755596891E+02  0.00000000000E+00 0.  1.
</event>
<event>
 7    1  0.4394360E-006  0.1388491E+03  0.7561462E-02  0.1214886E+00
         -1   -1    0    0    0  501 -0.00000000000E+00  0.00000000000E+00  0.27738045455E+03  0.27738045455E+03  0.00000000000E+00 0.  1.
          1   -1    0    0  501    0  0.00000000000E+00 -0.00000000000E+00 -0.10996289720E+03  0.10996289720E+03  0.00000000000E+00 0. -1.
         23    2    1    2    0    0  0.91240527555E+01  0.10560400832E+03  0.18526189916E+03  0.24740363909E+03  0.12510449409E+03 0.  0.
          5    1    3    3  502    0  0.54150743541E+02  0.17068094521E+02  0.33735892824E+02  0.66175567555E+02  0.41800000000E+01 0.  1.
         -5    1    3    3    0  502 -0.45026690785E+02  0.88535913801E+02  0.15152600634E+03  0.18122807154E+03  0.41800000000E+01 0.  1.
        -11    1    1    2    0    0 -0.34411015323E+02 -0.64053249374E+02 -0.43721619044E+02  0.84844072879E+02  0.00000000000E+00 0. -1.
         11    1    1    2    0    0  0.25286962567E+02 -0.41550758949E+02  0.25877277235E+02  0.55095639774E+02  0.00000000000E+00 0.  1.
</event>
<event>
 7    1  0.4394360E-006  0.1646765E+03  0.7561462E-02  0.1183516E+00
         -1   -1    0    0    0  501 -0.00000000000E+00  0.00000000000E+00  0.23081304597E+02  0.23081304597E+02  0.00000000000E+00 0.  1.
          1   -1    0    0  501    0  0.00000000000E+00 -0.00000000000E+00 -0.11876167871E+04  0.11876167871E+04  0.00000000000E+00 0. -1.
         23    2    1    2    0    0  0.10298094842E+03  0.70970331686E+02 -0.59351465068E+03  0.61931322326E+03  0.12508942488E+03 0.  0.
          5    1    3    3  502    0 -0.14799441932E+02  0.54708085068E+02 -0.22524949953E+03  0.23230757089E+03  0.41800000000E+01 0. -1.
         -5    1    3    3    0  502  0.11778039035E+03  0.16262246618E+02 -0.36826515115E+03  0.38700565237E+03  0.41800000000E+01 0. -1.
        -11    1    1    2    0    0 -0.87193326887E+02 -0.67873813660E+01 -0.34339486504E+03  0.35435685140E+03  0.00000000000E+00 0. -1.
         11    1    1    2    0    0 -0.15787621533E+02 -0.64182950320E+02 -0.22762596677E+03  0.23702801702E+03  0.00000000000E+00 0.  1.
</event>
<event>
 7    1  0.4394360E-006  0.5809878E+02  0.7561462E-02  0.1405988E+00
          1   -1    0    0  501    0  0.00000000000E+00  0.00000000000E+00  0.56960104337E+02  0.56960104337E+02  0.00000000000E+00 0. -1.
         -1   -1    0    0    0  501 -0.00000000000E+00 -0.00000000000E+00 -0.20970893712E+03  0.20970893712E+03  0.00000000000E+00 0.  1.
         23    2    1    2    0    0  0.32237374620E+01  0.11986769005E+02 -0.80879691197E+02  0.14947594860E+03  0.12508980633E+03 0.  0.
          5    1    3    3  502    0  0.15616645775E+02 -0.18941366443E+02 -0.10514029781E+03  0.10804910740E+03  0.41800000000E+01 0.  1.
         -5    1    3    3    0  502 -0.12392908313E+02  0.30928135448E+02  0.24260606609E+02  0.41426841199E+02  0.41800000000E+01 0.  1.
        -11    1    1    2    0    0  0.25924855582E+02  0.67933445916E+00 -0.80240607288E+02  0.84327425493E+02  0.00000000000E+00 0.  1.
         11    1    1    2    0    0 -0.29148593044E+02 -0.12666103464E+02  0.83714656997E+01  0.32865667365E+02  0.00000000000E+00 0. -1.
</event>
<event>
 7    1  0.4394360E-006  0.1727542E+03  0.7561462E-02  0.1175006E+00
         -4   -1    0    0    0  501 -0.00000000000E+00  0.00000000000E+00  0.38847063099E+03  0.38847063099E+03  0.00000000000E+00 0.  1.
          4   -1    0    0  501    0  0.00000000000E+00 -0.00000000000E+00 -0.90541179335E+02  0.90541179335E+02  0.00000000000E+00 0. -1.
         23    2    1    2    0    0  0.55329812500E+02  0.14124891693E+03  0.18278710831E+03  0.26846022262E+03  0.12508844662E+03 0.  0.
          5    1    3    3  502    0  0.24852036218E+02  0.31685004143E+00  0.97887452753E+02  0.10107991840E+03  0.41800000000E+01 0.  1.
         -5    1    3    3    0  502  0.30477776281E+02  0.14093206689E+03  0.84899655561E+02  0.16738030422E+03  0.41800000000E+01 0.  1.
        -11    1    1    2    0    0 -0.42209604172E+02 -0.15283160461E+03  0.10039610282E+03  0.18766599988E+03  0.00000000000E+00 0.  1.
         11    1    1    2    0    0 -0.13120208327E+02  0.11582687673E+02  0.14746240527E+02  0.22885587822E+02  0.00000000000E+00 0. -1.
</event>
<event>
 7    1  0.4394360E-006  0.7092897E+02  0.7561462E-02  0.1356962E+00
         -2   -1    0    0    0  501 -0.00000000000E+00  0.00000000000E+00  0.10867225980E+03  0.10867225980E+03  0.00000000000E+00 0.  1.
          2   -1    0    0  501    0  0.00000000000E+00 -0.00000000000E+00 -0.12732476965E+03  0.12732476965E+03  0.00000000000E+00 0. -1.
         23    2    1    2    0    0 -0.42390491144E+02  0.54351031702E+01  0.60402498182E+01  0.13232861245E+03  0.12509149839E+03 0.  0.
          5    1    3    3  502    0  0.38039695734E+01 -0.60669547169E+01  0.59815719353E+02  0.60387670975E+02  0.41800000000E+01 0. -1.
         -5    1    3    3    0  502 -0.46194460717E+02  0.11502057887E+02 -0.53775469535E+02  0.71940941475E+02  0.41800000000E+01 0. -1.
        -11    1    1    2    0    0  0.25842334492E+02 -0.39905027530E+02  0.13706918352E+02  0.49478450712E+02  0.00000000000E+00 0.  1.
         11    1    1    2    0    0  0.16548156652E+02  0.34469924359E+02 -0.38399678021E+02  0.54189966285E+02  0.00000000000E+00 0. -1.
</event>
<event>
 7    1  0.4394360E-006  0.1086548E+03  0.7561462E-02  0.1263081E+00
         -2   -1    0    0    0  501 -0.00000000000E+00  0.00000000000E+00  0.31975825863E+02  0.31975825863E+02  0.00000000000E+00 0.  1.
          2   -1    0    0  501    0  0.00000000000E+00 -0.00000000000E+00 -0.45976852422E+03  0.45976852422E+03  0.00000000000E+00 0. -1.
         23    2    1    2    0    0 -0.15907316429E+02 -0.50078092117E+02 -0.21521805432E+03  0.25441474985E+03  0.12508875254E+03 0.  0.
          5    1    3    3  502    0  0.32002227249E+02  0.28552214616E+02 -0.59543332757E+02  0.73500016219E+02  0.41800000000E+01 0.  1.
         -5    1    3    3    0  502 -0.47909543678E+02 -0.78630306733E+02 -0.15567472156E+03  0.18091473363E+03  0.41800000000E+01 0.  1.
        -11    1    1    2    0    0 -0.16066615184E+02  0.47298471713E+02 -0.19382747465E+03  0.20016086401E+03  0.00000000000E+00 0. -1.
         11    1    1    2    0    0  0.31973931613E+02  0.27796204040E+01 -0.18747169383E+02  0.37168736221E+02  0.00000000000E+00 0.  1.
</event>
<event>
 7    1  0.4394360E-006  0.1485354E+03  0.7561462E-02  0.1202284E+00
         -1   -1    0    0    0  501 -0.00000000000E+00  0.00000000000E+00  0.77745517089E+02  0.77745517089E+02  0.00000000000E+00 0.  1.
          1   -1    0    0  501    0  0.00000000000E+00 -0.00000000000E+00 -0.35365990128E+03  0.35365990128E+03  0.00000000000E+00 0. -1.
         23    2    1    2    0    0  0.42922431477E+02 -0.11829715064E+03 -0.15636874823E+03  0.23650650608E+03  0.12509033145E+03 0.  0.
          5    1    3    3  502    0  0.81404109398E+02 -0.74790341978E+02 -0.65445207402E+02  0.12853315468E+03  0.41800000000E+01 0.  1.
         -5    1    3    3    0  502 -0.38481677921E+02 -0.43506808663E+02 -0.90923540828E+02  0.10797335140E+03  0.41800000000E+01 0.  1.
        -11    1    1    2    0    0 -0.76556390030E+00  0.33558093505E+02 -0.89516642496E+02  0.95603143314E+02  0.00000000000E+00 0.  1.
         11    1    1    2    0    0 -0.42156867577E+02  0.84739057137E+02 -0.30028993468E+02  0.99295768979E+02  0.00000000000E+00 0. -1.
</event>
<event>
 7    1  0.4394360E-006  0.9697714E+02  0.7561462E-02  0.1286784E+00
         -2   -1    0    0    0  501 -0.00000000000E+00  0.00000000000E+00  0.42365097743E+03  0.42365097743E+03  0.00000000000E+00 0.  1.
          2   -1    0    0  501    0  0.00000000000E+00 -0.00000000000E+00 -0.39426068962E+02  0.39426068962E+02  0.00000000000E+00 0. -1.
         23    2    1    2    0    0 -0.10075879839E+02  0.12972694450E+02  0.33299729092E+03  0.35609626823E+03  0.12509013683E+03 0.  0.
          5    1    3    3  502    0  0.51206945747E+02 -0.67685612578E+01  0.21957504891E+03  0.22560726765E+03  0.41800000000E+01 0. -1.
         -5    1    3    3    0  502 -0.61282825586E+02  0.19741255708E+02  0.11342224201E+03  0.13048900058E+03  0.41800000000E+01 0. -1.
        -11    1    1    2    0    0 -0.24920996977E+02  0.18109996934E+02  0.51687121848E+02  0.60171310807E+02  0.00000000000E+00 0.  1.
         11    1    1    2    0    0  0.34996876817E+02 -0.31082691384E+02 -0.45950429221E+00  0.46809467363E+02  0.00000000000E+00 0. -1.
</event>
<event>
 7    1  0.4394360E-006  0.1027974E+03  0.7561462E-02  0.1274521E+00
          2   -1    0    0  501    0  0.00000000000E+00  0.00000000000E+00  0.20066017098E+03  0.20066017098E+03  0.00000000000E+00 0. -1.
         -2   -1    0    0    0  501 -0.00000000000E+00 -0.00000000000E+00 -0.64993668494E+02  0.64993668494E+02  0.00000000000E+00 0.  1.
         23    2    1    2    0    0  0.20163150138E+02  0.79695545481E+01  0.42481365620E+02  0.13389191527E+03  0.12510920081E+03 0.  0.
          5    1    3    3  502    0  0.60490334713E+02 -0.19271583825E+02 -0.74308433409E+01  0.64055947184E+02  0.41800000000E+01 0. -1.
         -5    1    3    3    0  502 -0.40327184575E+02  0.27241138373E+02  0.49912208961E+02  0.69835968089E+02  0.41800000000E+01 0. -1.
        -11    1    1    2    0    0  0.11923004462E+02 -0.43586510536E+02  0.46835274007E+02  0.65080602543E+02  0.00000000000E+00 0.  1.
         11    1    1    2    0    0 -0.32086154600E+02  0.35616955988E+02  0.46349862858E+02  0.66681321656E+02  0.00000000000E+00 0. -1.
</event>
<event>
 7    1  0.4394360E-006  0.1045475E+03  0.7561462E-02  0.1271014E+00
         -2   -1    0    0    0  501 -0.00000000000E+00  0.00000000000E+00  0.39215559230E+02  0.39215559230E+02  0.00000000000E+00 0.  1.
          2   -1    0    0  501    0  0.00000000000E+00 -0.00000000000E+00 -0.51633359351E+03  0.51633359351E+03  0.00000000000E+00 0. -1.
         23    2    1    2    0    0 -0.52853095525E+01  0.29222694918E+02 -0.89274281113E+02  0.15652072654E+03  0.12508772990E+03 0.  0.
          5    1    3    3  502    0  0.25770072563E+02 -0.35474929385E+02 -0.28940550881E+01  0.44140856467E+02  0.41800000000E+01 0.  1.
         -5    1    3    3    0  502 -0.31055382116E+02  0.64697624303E+02 -0.86380226025E+02  0.11237987007E+03  0.41800000000E+01 0.  1.
        -11    1    1    2    0    0 -0.16176343886E+02 -0.56319186881E+02 -0.22057527032E+03  0.22822571018E+03  0.00000000000E+00 0.  1.
         11    1    1    2    0    0  0.21461653439E+02  0.27096491962E+02 -0.16726848285E+03  0.17080271602E+03  0.00000000000E+00 0. -1.
</event>
<event>
 7    1  0.4394360E-006  0.8084597E+02  0.7561462E-02  0.1326668E+00
         -2   -1    0    0    0  501 -0.00000000000E+00  0.00000000000E+00  0.12154929773E+03  0.12154929773E+03  0.00000000000E+00 0.  1.
          2   -1    0    0  501    0  0.00000000000E+00 -0.00000000000E+00 -0.13380885281E+03  0.13380885281E+03  0.00000000000E+00 0. -1.
         23    2    1    2    0    0 -0.20500745039E+02  0.51017442826E+02  0.36435856979E+02  0.14141438673E+03  0.12508955625E+03 0.  0.
          5    1    3    3  502    0 -0.35829980327E+02  0.38412721938E+02 -0.37545830995E+02  0.64703064240E+02  0.41800000000E+01 0. -1.
         -5    1    3    3    0  502  0.15329235288E+02  0.12604720888E+02  0.73981687974E+02  0.76711322493E+02  0.41800000000E+01 0. -1.
        -11    1    1    2    0    0 -0.25624355233E+02 -0.11973541108E+02  0.97071740515E+01  0.29903218821E+02  0.00000000000E+00 0.  1.
         11    1    1    2    0    0  0.46125100272E+02 -0.39043901718E+02 -0.58402586117E+02  0.84040544987E+02  0.00000000000E+00 0. -1.
</event>
<event>
 7    1  0.4394360E-006  0.1259876E+03  0.7561462E-02  0.1233534E+00
         -2   -1    0    0    0  501 -0.00000000000E+00  0.00000000000E+00  0.32282557796E+03  0.32282557796E+03  0.00000000000E+00 0.  1.
          2   -1    0    0  501    0  0.00000000000E+00 -0.00000000000E+00 -0.81238212930E+02  0.81238212930E+02  0.00000000000E+00 0. -1.
         23    2    1    2    0    0 -0.76473464960E+02 -0.87114387847E+02  0.93926637968E+02  0.19469691752E+03  0.12509024326E+03 0.  0.
          5    1    3    3  502    0 -0.72220763072E+02 -0.69287006213E+02  0.12389329450E+03  0.15932215373E+03  0.41800000000E+01 0. -1.
         -5    1    3    3    0  502 -0.42527018880E+01 -0.17827381634E+02 -0.29966656532E+02  0.35374763787E+02  0.41800000000E+01 0. -1.
        -11    1    1    2    0    0  0.39345081661E+02  0.87432517369E+02  0.14268463653E+03  0.17190516585E+03  0.00000000000E+00 0.  1.
         11    1    1    2    0    0  0.37128383299E+02 -0.31812952221E+00  0.49760905267E+01  0.37461707512E+02  0.00000000000E+00 0. -1.
</event>
<event>
 7    1  0.4394360E-006  0.9263017E+02  0.7561462E-02  0.1296605E+00
          4   -1    0    0  501    0  0.00000000000E+00  0.00000000000E+00  0.63054984711E+02  0.63054984711E+02  0.00000000000E+00 0.  1.
         -4   -1    0    0    0  501 -0.00000000000E+00 -0.00000000000E+00 -0.25467355011E+03  0.25467355011E+03  0.00000000000E+00 0. -1.
         23    2    1    2    0    0 -0.32243754465E+02 -0.11800549487E+02 -0.17811675851E+03  0.22034467108E+03  0.12508909520E+03 0.  0.
          5    1    3    3  502    0  0.35960609766E+02 -0.35539268327E+02 -0.10931025334E+03  0.12050895789E+03  0.41800000000E+01 0. -1.
         -5    1    3    3    0  502 -0.68204364231E+02  0.23738718840E+02 -0.68806505175E+02  0.99835713183E+02  0.41800000000E+01 0. -1.
        -11    1    1    2    0    0  0.20784695953E+02 -0.19720417109E+02  0.30637977142E+02  0.41947396584E+02  0.00000000000E+00 0.  1.
         11    1    1    2    0    0  0.11459058512E+02  0.31520966596E+02 -0.44139784030E+02  0.55436467161E+02  0.00000000000E+00 0. -1.
</event>
<event>
 7    1  0.6030122E-006  0.1379963E+03  0.7561462E-02  0.1216051E+00
         -1   -1    0    0    0  501 -0.00000000000E+00  0.00000000000E+00  0.33074252236E+02  0.33074252236E+02  0.00000000000E+00 0.  1.
          1   -1    0    0  501    0  0.00000000000E+00 -0.00000000000E+00 -0.81091841353E+03  0.81091841353E+03  0.00000000000E+00 0. -1.
         23    2    1    2    0    0  0.11098816134E+03  0.49693484114E+02 -0.36864875890E+03  0.40784483492E+03  0.12509071755E+03 0.  0.
          5    1    3    3  502    0  0.49281717272E+02  0.70135258036E+02 -0.30472773622E+03  0.31658191309E+03  0.41800000000E+01 0. -1.
         -5    1    3    3    0  502  0.61706444069E+02 -0.20441773922E+02 -0.63921022678E+02  0.91262921830E+02  0.41800000000E+01 0. -1.
        -11    1    1    2    0    0 -0.50776840208E+02 -0.38662033822E+02 -0.85374499206E+02  0.10659195784E+03  0.00000000000E+00 0.  1.
         11    1    1    2    0    0 -0.60211321134E+02 -0.11031450292E+02 -0.32382090319E+03  0.32955587301E+03  0.00000000000E+00 0. -1.
</event>
<event>
 7    1  0.4394360E-006  0.8708119E+02  0.7561462E-02  0.1310078E+00
          1   -1    0    0  501    0  0.00000000000E+00  0.00000000000E+00  0.13193878429E+03  0.13193878429E+03  0.00000000000E+00 0. -1.
         -1   -1    0    0    0  501 -0.00000000000E+00 -0.00000000000E+00 -0.16997138168E+03  0.16997138168E+03  0.00000000000E+00 0.  1.
         23    2    1    2    0    0  0.17200630390E+02 -0.21730459718E+02 -0.12088242925E+03  0.17615011075E+03  0.12509286650E+03 0.  0.
          5    1    3    3  502    0  0.60530603271E+01  0.49344361582E+02 -0.77081894589E+02  0.91818279404E+02  0.41800000000E+01 0.  1.
         -5    1    3    3    0  502  0.11147570063E+02 -0.71074821301E+02 -0.43800534662E+02  0.84331831344E+02  0.41800000000E+01 0.  1.
        -11    1    1    2    0    0  0.13687370839E+02 -0.11980590138E+01 -0.15166880497E+02  0.20464939040E+02  0.00000000000E+00 0.  1.
         11    1    1    2    0    0 -0.30888001229E+02  0.22928518732E+02  0.98016712357E+02  0.10529511619E+03  0.00000000000E+00 0. -1.
</event>
<event>
 7    1  0.4394360E-006  0.1040366E+03  0.7561462E-02  0.1272029E+00
          2   -1    0    0  501    0  0.00000000000E+00  0.00000000000E+00  0.66040319145E+03  0.66040319145E+03  0.00000000000E+00 0.  1.
         -2   -1    0    0    0  501 -0.00000000000E+00 -0.00000000000E+00 -0.25091610914E+02  0.25091610914E+02  0.00000000000E+00 0. -1.
         23    2    1    2    0    0 -0.29978669549E+02 -0.43260909629E+02  0.23458232909E+03  0.27104541385E+03  0.12516597110E+03 0.  0.
          5    1    3    3  502    0 -0.36429153565E+02  0.19097397121E+02  0.17222852966E+02  0.44787195386E+02  0.41800000000E+01 0.  1.
         -5    1    3    3    0  502  0.64504840160E+01 -0.62358306749E+02  0.21735947612E+03  0.22625821847E+03  0.41800000000E+01 0.  1.
        -11    1    1    2    0    0 -0.30898519355E+02  0.26632722835E+02  0.12104220452E+03  0.12773110702E+03  0.00000000000E+00 0. -1.
         11    1    1    2    0    0  0.60877188903E+02  0.16628186794E+02  0.27968704692E+03  0.28671828149E+03  0.00000000000E+00 0.  1.
</event>
<event>
 7    1  0.4394360E-006  0.1065482E+03  0.7561462E-02  0.1267099E+00
          2   -1    0    0  501    0  0.00000000000E+00  0.00000000000E+00  0.12260518199E+03  0.12260518199E+03  0.00000000000E+00 0. -1.
         -2   -1    0    0    0  501 -0.00000000000E+00 -0.00000000000E+00 -0.13057580445E+03  0.13057580445E+03  0.00000000000E+00 0.  1.
         23    2    1    2    0    0  0.24293291243E+02  0.54100819418E+01 -0.66949532163E+02  0.14404443997E+03  0.12508848006E+03 0.  0.
          5    1    3    3  502    0 -0.50871191049E+02  0.10292949124E+02 -0.28916792487E+02  0.59560693147E+02  0.41800000000E+01 0. -1.
         -5    1    3    3    0  502  0.75164482293E+02 -0.48828671822E+01 -0.38032739676E+02  0.84483746825E+02  0.41800000000E+01 0. -1.
        -11    1    1    2    0    0 -0.52399523250E+02 -0.17140166989E+02  0.55920318902E+02  0.78527558394E+02  0.00000000000E+00 0.  1.
         11    1    1    2    0    0  0.28106232006E+02  0.11730085047E+02  0.30585907992E+01  0.30608988067E+02  0.00000000000E+00 0. -1.
</event>
<event>
 7    1  0.4394360E-006  0.1276507E+03  0.7561462E-02  0.1230984E+00
         -1   -1    0    0    0  501 -0.00000000000E+00  0.00000000000E+00  0.29955841989E+03  0.29955841989E+03  0.00000000000E+00 0.  1.
          1   -1    0    0  501    0  0.00000000000E+00 -0.00000000000E+00 -0.66250499813E+02  0.66250499813E+02  0.00000000000E+00 0. -1.
         23    2    1    2    0    0  0.41660745028E+02 -0.61036861507E+02  0.18916305396E+03  0.23852009055E+03  0.12509219190E+03 0.  0.
          5    1    3    3  502    0 -0.40100026276E+02 -0.27812469344E+01  0.30147486237E+02  0.50419150809E+02  0.41800000000E+01 0. -1.
         -5    1    3    3    0  502  0.81760771305E+02 -0.58255614572E+02  0.15901556772E+03  0.18810093974E+03  0.41800000000E+01 0. -1.
        -11    1    1    2    0    0  0.26920934529E+02  0.25873409743E+02 -0.21188153719E+01  0.37398655407E+02  0.00000000000E+00 0. -1.
         11    1    1    2    0    0 -0.68581679557E+02  0.35163451764E+02  0.46263681486E+02  0.89890173743E+02  0.00000000000E+00 0.  1.
</event>
<event>
 7    1  0.4394360E-006  0.8515301E+02  0.7561462E-02  0.1315033E+00
          1   -1    0    0  501    0  0.00000000000E+00  0.00000000000E+00  0.41289735395E+03  0.41289735395E+03  0.00000000000E+00 0. -1.
         -1   -1    0    0    0  501 -0.00000000000E+00 -0.00000000000E+00 -0.31257491473E+02  0.31257491473E+02  0.00000000000E+00 0.  1.
         23    2    1    2    0    0 -0.32456125189E+02 -0.77564072447E+01  0.22778018249E+03  0.26200260478E+03  0.12509193203E+03 0.  0.
          5    1    3    3  502    0  0.26239690086E+02  0.26391476206E+01  0.19362727168E+00  0.26701991077E+02  0.41800000000E+01 0. -1.
         -5    1    3    3    0  502 -0.58695815275E+02 -0.10395554865E+02  0.22758655522E+03  0.23530061370E+03  0.41800000000E+01 0. -1.
        -11    1    1    2    0    0 -0.17395682464E+00  0.38806284649E+02  0.26314139993E+02  0.46887012624E+02  0.00000000000E+00 0.  1.
         11    1    1    2    0    0  0.32630082014E+02 -0.31049877405E+02  0.12754553999E+03  0.13526522802E+03  0.00000000000E+00 0. -1.
</event>
<event>
 7    1  0.4394360E-006  0.1197533E+03  0.7561462E-02  0.1243505E+00
         -3   -1    0    0    0  501 -0.00000000000E+00  0.00000000000E+00  0.14258591868E+03  0.14258591868E+03  0.00000000000E+00 0.  1.
          3   -1    0    0  501    0  0.00000000000E+00 -0.00000000000E+00 -0.10603545870E+03  0.10603545870E+03  0.00000000000E+00 0. -1.
         23    2    1    2    0    0  0.55997660705E+02  0.25759367959E+02  0.35823490803E+02  0.14001664291E+03  0.12050748838E+03 0.  0.
          5    1    3    3  502    0  0.50097468589E+02 -0.41459085996E+02  0.39719140066E+01  0.65282927872E+02  0.41800000000E+01 0. -1.
         -5    1    3    3    0  502  0.59001921163E+01  0.67218453955E+02  0.31851576797E+02  0.74733715039E+02  0.41800000000E+01 0.  1.
        -11    1    1    2    0    0 -0.39362682493E+02 -0.58211559792E+02 -0.90453490599E+01  0.70850721987E+02  0.00000000000E+00 0. -1.
         11    1    1    2    0    0 -0.16634978212E+02  0.32452191832E+02  0.97723182296E+01  0.37754012481E+02  0.00000000000E+00 0.  1.
</event>
<event>
 7    1  0.4394360E-006  0.1215608E+03  0.7561462E-02  0.1240544E+00
          1   -1    0    0  501    0  0.00000000000E+00  0.00000000000E+00  0.19584917502E+03  0.19584917502E+03  0.00000000000E+00 0. -1.
         -1   -1    0    0    0  501 -0.00000000000E+00 -0.00000000000E+00 -0.11769002459E+03  0.11769002459E+03  0.00000000000E+00 0.  1.
         23    2    1    2    0    0  0.36797377221E+02 -0.65167106663E+02 -0.42864120157E+02  0.14440032128E+03  0.11581589367E+03 0.  0.
          5    1    3    3  502    0 -0.22702476606E+02  0.20785163688E+02  0.70297701296E+00  0.31070758765E+02  0.41800000000E+01 0. -1.
         -5    1    3    3    0  502  0.59499853827E+02 -0.85952270351E+02 -0.43567097170E+02  0.11332956251E+03  0.41800000000E+01 0.  1.
        -11    1    1    2    0    0  0.23615306778E+02  0.10066084408E+02  0.65368281123E+02  0.70228348596E+02  0.00000000000E+00 0.  1.
         11    1    1    2    0    0 -0.60412684000E+02  0.55101022255E+02  0.55654989465E+02  0.98910529742E+02  0.00000000000E+00 0. -1.
</event>
<event>
 7    1  0.4394360E-006  0.2316891E+03  0.7561462E-02  0.1125456E+00
          2   -1    0    0  501    0  0.00000000000E+00  0.00000000000E+00  0.37842516720E+03  0.37842516720E+03  0.00000000000E+00 0. -1.
         -2   -1    0    0    0  501 -0.00000000000E+00 -0.00000000000E+00 -0.16465862020E+03  0.16465862020E+03  0.00000000000E+00 0.  1.
         23    2    1    2    0    0  0.21239889675E+03 -0.71365126480E+02  0.99677482425E+02  0.27530578424E+03  0.12510556229E+03 0.  0.
          5    1    3    3  502    0  0.51875241844E+02 -0.67975759810E+01 -0.28698145884E+02  0.59818924537E+02  0.41800000000E+01 0. -1.
         -5    1    3    3    0  502  0.16052365490E+03 -0.64567550499E+02  0.12837562831E+03  0.21548685970E+03  0.41800000000E+01 0. -1.
        -11    1    1    2    0    0 -0.12301971794E+03 -0.67646601094E+00  0.84440554037E+02  0.14921298795E+03  0.00000000000E+00 0.  1.
         11    1    1    2    0    0 -0.89379178807E+02  0.72041592491E+02  0.29648510538E+02  0.11856501520E+03  0.00000000000E+00 0. -1.
</event>
<event>
 7    1  0.4394360E-006  0.8299742E+02  0.7561462E-02  0.1320754E+00
          1   -1    0    0  501    0  0.00000000000E+00  0.00000000000E+00  0.31396395583E+02  0.31396395583E+02  0.00000000000E+00 0. -1.
         -1   -1    0    0    0  501 -0.00000000000E+00 -0.00000000000E+00 -0.41109482214E+03  0.41109482214E+03  0.00000000000E+00 0.  1.
         23    2    1    2    0    0 -0.28778209627E+02 -0.18935689848E+02 -0.24774177923E+03  0.27965937019E+03  0.12508648391E+03 0.  0.
          5    1    3    3  502    0  0.25083050778E+02  0.10083439214E+02 -0.20021335788E+03  0.20207349222E+03  0.41800000000E+01 0. -1.
         -5    1    3    3    0  502 -0.53861260405E+02 -0.29019129062E+02 -0.47528421346E+02  0.77585877965E+02  0.41800000000E+01 0. -1.
        -11    1    1    2    0    0 -0.13218310055E+02  0.30933251986E+02 -0.12919417877E+02  0.36034721553E+02  0.00000000000E+00 0. -1.
         11    1    1    2    0    0  0.41996519682E+02 -0.11997562138E+02 -0.11903722945E+03  0.12679712598E+03  0.00000000000E+00 0.  1.
</event>
<event>
 7    1  0.4934798E-006  0.1294554E+03  0.7561462E-02  0.1228266E+00
         -1   -1    0    0    0  501 -0.00000000000E+00  0.00000000000E+00  0.31699757908E+02  0.31699757908E+02  0.00000000000E+00 0.  1.
          1   -1    0    0  501    0  0.00000000000E+00 -0.00000000000E+00 -0.84945008987E+03  0.84945008987E+03  0.00000000000E+00 0. -1.
         23    2    1    2    0    0  0.83962215711E+02  0.77394833233E+02 -0.30601761613E+03  0.34976281113E+03  0.12509048239E+03 0.  0.
          5    1    3    3  502    0  0.53030286474E+02  0.32724641511E+01 -0.27712681947E+02  0.60069838070E+02  0.41800000000E+01 0. -1.
         -5    1    3    3    0  502  0.30931929237E+02  0.74122369082E+02 -0.27830493419E+03  0.28969297306E+03  0.41800000000E+01 0. -1.
        -11    1    1    2    0    0 -0.76550550557E+02 -0.38673727030E+02 -0.45028250000E+03  0.45837754500E+03  0.00000000000E+00 0. -1.
         11    1    1    2    0    0 -0.74116651542E+01 -0.38721106203E+02 -0.61450215825E+02  0.73009491649E+02  0.00000000000E+00 0.  1.
</event>
<event>
 7    1  0.4394360E-006  0.1255673E+03  0.7561462E-02  0.1234185E+00
          1   -1    0    0  501    0  0.00000000000E+00  0.00000000000E+00  0.56076797133E+03  0.56076797133E+03  0.00000000000E+00 0. -1.
         -1   -1    0    0    0  501 -0.00000000000E+00 -0.00000000000E+00 -0.38869824640E+02  0.38869824640E+02  0.00000000000E+00 0.  1.
         23    2    1    2    0    0 -0.66095536050E+02 -0.71525408880E+02  0.31377408465E+03  0.35154771083E+03  0.12508841988E+03 0.  0.
          5    1    3    3  502    0 -0.22778425063E+02  0.31799502920E+02  0.41947662242E+02  0.57507771665E+02  0.41800000000E+01 0.  1.
         -5    1    3    3    0  502 -0.43317110987E+02 -0.10332491180E+03  0.27182642241E+03  0.29403993916E+03  0.41800000000E+01 0.  1.
        -11    1    1    2    0    0  0.55900548892E+02  0.46691345022E+02  0.20890033569E+03  0.22123359446E+03  0.00000000000E+00 0. -1.
         11    1    1    2    0    0  0.10194987159E+02  0.24834063858E+02 -0.77627365280E+00  0.26856490681E+02  0.00000000000E+00 0.  1.
</event>
<event>
 7    1  0.4394360E-006  0.9651125E+02  0.7561462E-02  0.1287808E+00
          1   -1    0    0  501    0  0.00000000000E+00  0.00000000000E+00  0.28146862004E+03  0.28146862004E+03  0.00000000000E+00 0. -1.
         -1   -1    0    0    0  501 -0.00000000000E+00 -0.00000000000E+00 -0.55352080549E+02  0.55352080549E+02  0.00000000000E+00 0.  1.
         23    2    1    2    0    0  0.23504457232E+02 -0.36678414025E+02  0.66679884635E+02  0.14829629265E+03  0.12509123804E+03 0.  0.
          5    1    3    3  502    0 -0.45242395946E+02 -0.41514158413E+02  0.43879523136E+02  0.75585611661E+02  0.41800000000E+01 0.  1.
         -5    1    3    3    0  502  0.68746853178E+02  0.48357443872E+01  0.22800361500E+02  0.72710680991E+02  0.41800000000E+01 0.  1.
        -11    1    1    2    0    0 -0.19259286327E+00  0.39005998725E+02  0.16040208213E+03  0.16507674876E+03  0.00000000000E+00 0. -1.
         11    1    1    2    0    0 -0.23311864369E+02 -0.23275847000E+01 -0.96542728087E+00  0.23447659174E+02  0.00000000000E+00 0.  1.
</event>
<event>
 7    1  0.4394360E-006  0.1285515E+03  0.7561462E-02  0.1229621E+00
          1   -1    0    0  501    0  0.00000000000E+00  0.00000000000E+00  0.23420990637E+03  0.23420990637E+03  0.00000000000E+00 0. -1.
         -1   -1    0    0    0  501 -0.00000000000E+00 -0.00000000000E+00 -0.13243884326E+03  0.13243884326E+03  0.00000000000E+00 0.  1.
         23    2    1    2    0    0 -0.11416160382E+03  0.30270103647E+01 -0.27282343320E+02  0.17156104411E+03  0.12508729360E+03 0.  0.
          5    1    3    3  502    0 -0.62013132311E+02 -0.38560935025E+02 -0.62327879546E+02  0.96097925356E+02  0.41800000000E+01 0.  1.
         -5    1    3    3    0  502 -0.52148471506E+02  0.41587945390E+02  0.35045536226E+02  0.75463118751E+02  0.41800000000E+01 0.  1.
        -11    1    1    2    0    0  0.99438833345E+02 -0.11562933926E+02  0.45756642648E+02  0.11007022015E+03  0.00000000000E+00 0.  1.
         11    1    1    2    0    0  0.14722770473E+02  0.85359235616E+01  0.83296763788E+02  0.85017485373E+02  0.00000000000E+00 0. -1.
</event>
<event>
 7    1  0.4394360E-006  0.1053869E+03  0.7561462E-02  0.1269359E+00
          3   -1    0    0  501    0  0.00000000000E+00  0.00000000000E+00  0.21117646601E+03  0.21117646601E+03  0.00000000000E+00 0. -1.
         -3   -1    0    0    0  501 -0.00000000000E+00 -0.00000000000E+00 -0.10045806012E+03  0.10045806012E+03  0.00000000000E+00 0.  1.
         23    2    1    2    0    0 -0.54808880509E+02 -0.65551092358E+02  0.10078035397E+02  0.15182851909E+03  0.12509745529E+03 0.  0.
          5    1    3    3  502    0 -0.48734911789E+02 -0.65214161730E+02  0.60091035352E+02  0.10127380435E+03  0.41800000000E+01 0.  1.
         -5    1    3    3    0  502 -0.60739687197E+01 -0.33693062845E+00 -0.50012999955E+02  0.50554714743E+02  0.41800000000E+01 0.  1.
        -11    1    1    2    0    0  0.62949270961E+02  0.76612265878E+01  0.67463089008E+02  0.92588193016E+02  0.00000000000E+00 0.  1.
         11    1    1    2    0    0 -0.81403904525E+01  0.57889865770E+02  0.33177281488E+02  0.67217814027E+02  0.00000000000E+00 0. -1.
</event>
<event>
 7    1  0.4394360E-006  0.1682498E+03  0.7561462E-02  0.1179685E+00
          2   -1    0    0  501    0  0.00000000000E+00  0.00000000000E+00  0.19648761094E+03  0.19648761094E+03  0.00000000000E+00 0.  1.
         -2   -1    0    0    0  501 -0.00000000000E+00 -0.00000000000E+00 -0.15618299189E+03  0.15618299189E+03  0.00000000000E+00 0. -1.
         23    2    1    2    0    0 -0.11400368869E+03 -0.77119944291E+02  0.20370513268E+02  0.18707573015E+03  0.12505216574E+03 0.  0.
          5    1    3    3  502    0 -0.13564963942E+01 -0.64727910254E+02 -0.18048811262E+02  0.67340733856E+02  0.41800000000E+01 0.  1.
         -5    1    3    3    0  502 -0.11264719230E+03 -0.12392034037E+02  0.38419324531E+02  0.11973499629E+03  0.41800000000E+01 0.  1.
        -11    1    1    2    0    0 -0.55785813548E+01  0.28648011702E+02  0.21994498545E+02  0.36545685254E+02  0.00000000000E+00 0.  1.
         11    1    1    2    0    0  0.11958227004E+03  0.48471932590E+02 -0.20603927578E+01  0.12904918743E+03  0.00000000000E+00 0. -1.
</event>
<event>
 7    1  0.4394360E-006  0.1524391E+03  0.7561462E-02  0.1197507E+00
          1   -1    0    0  501    0  0.00000000000E+00  0.00000000000E+00  0.40290503205E+03  0.40290503205E+03  0.00000000000E+00 0. -1.
         -1   -1    0    0    0  501 -0.00000000000E+00 -0.00000000000E+00 -0.72771920174E+02  0.72771920174E+02  0.00000000000E+00 0.  1.
         23    2    1    2    0    0  0.11882978991E+03  0.56459864003E+02  0.19043914128E+03  0.26310077562E+03  0.12508683537E+03 0.  0.
          5    1    3    3  502    0 -0.17460642883E+02  0.29032637230E+02  0.74803088911E+02  0.82223734926E+02  0.41800000000E+01 0.  1.
         -5    1    3    3    0  502  0.13629043280E+03  0.27427226772E+02  0.11563605237E+03  0.18087704069E+03  0.41800000000E+01 0.  1.
        -11    1    1    2    0    0 -0.68945946816E+02 -0.35500867286E+02  0.13817207111E+03  0.15844676202E+03  0.00000000000E+00 0. -1.
         11    1    1    2    0    0 -0.49883843096E+02 -0.20958996717E+02  0.15218994831E+01  0.54129414587E+02  0.00000000000E+00 0.  1.
</event>
<event>
 7    1  0.4394360E-006  0.1160616E+03  0.7561462E-02  0.1249739E+00
          1   -1    0    0  501    0  0.00000000000E+00  0.00000000000E+00  0.19287172716E+03  0.19287172716E+03  0.00000000000E+00 0. -1.
         -1   -1    0    0    0  501 -0.00000000000E+00 -0.00000000000E+00 -0.14685161454E+03  0.14685161454E+03  0.00000000000E+00 0.  1.
         23    2    1    2    0    0 -0.94254002478E-01 -0.87675542034E+02 -0.69897295752E+02  0.16798650345E+03  0.12508726487E+03 0.  0.
          5    1    3    3  502    0 -0.27057240381E+02 -0.10076298695E+03 -0.84558016679E+02  0.13436072484E+03  0.41800000000E+01 0. -1.
         -5    1    3    3    0  502  0.26962986378E+02  0.13087444912E+02  0.14660720927E+02  0.33625778606E+02  0.41800000000E+01 0. -1.
        -11    1    1    2    0    0 -0.18707791901E+02  0.20791469139E+02 -0.85027369866E+01  0.29232913009E+02  0.00000000000E+00 0.  1.
         11    1    1    2    0    0  0.18802045904E+02  0.66884072895E+02  0.12442014537E+03  0.14250392524E+03  0.00000000000E+00 0. -1.
</event>
<event>
 7    1  0.4394360E-006  0.1152182E+03  0.7561462E-02  0.1251201E+00
         -1   -1    0    0    0  501 -0.00000000000E+00  0.00000000000E+00  0.10554860647E+03  0.10554860647E+03  0.00000000000E+00 0.  1.
          1   -1    0    0  501    0  0.00000000000E+00 -0.00000000000E+00 -0.16123937123E+03  0.16123937123E+03  0.00000000000E+00 0. -1.
         23    2    1    2    0    0  0.52613353612E+02  0.59321725157E+02 -0.31608741165E+02  0.15143949286E+03  0.12509026911E+03 0.  0.
          5    1    3    3  502    0 -0.26757030875E+02  0.12473501838E+02  0.28564608666E+02  0.41290873297E+02  0.41800000000E+01 0. -1.
         -5    1    3    3    0  502  0.79370384487E+02  0.46848223318E+02 -0.60173349831E+02  0.11014861956E+03  0.41800000000E+01 0. -1.
        -11    1    1    2    0    0 -0.71517986192E+02 -0.43496740410E+02 -0.44357174016E+01  0.83824008280E+02  0.00000000000E+00 0.  1.
         11    1    1    2    0    0  0.18904632580E+02 -0.15824984747E+02 -0.19646306200E+02  0.31524476562E+02  0.00000000000E+00 0. -1.
</event>
<event>
 7    1  0.4394360E-006  0.1052554E+03  0.7561462E-02  0.1269617E+00
         -2   -1    0    0    0  501 -0.00000000000E+00  0.00000000000E+00  0.12540627362E+04  0.12540627362E+04  0.00000000000E+00 0.  1.
          2   -1    0    0  501    0  0.00000000000E+00 -0.00000000000E+00 -0.21147316607E+02  0.21147316607E+02  0.00000000000E+00 0. -1.
         23    2    1    2    0    0 -0.63668176612E+02 -0.19606410164E+02  0.10574119815E+04  0.10668686903E+04  0.12510258092E+03 0.  0.
          5    1    3    3  502    0  0.49187030954E+01 -0.37903508811E+02  0.76385755835E+03  0.76482462792E+03  0.41800000000E+01 0. -1.
         -5    1    3    3    0  502 -0.68586879708E+02  0.18297098648E+02  0.29355442312E+03  0.30204406239E+03  0.41800000000E+01 0. -1.
        -11    1    1    2    0    0  0.69238021464E+02 -0.10769737143E+02  0.15800657638E+03  0.17284666336E+03  0.00000000000E+00 0.  1.
         11    1    1    2    0    0 -0.55698448516E+01  0.30376147307E+02  0.17496861741E+02  0.35494699149E+02  0.00000000000E+00 0. -1.
</event>
<event>
 7    1  0.4394360E-006  0.1107650E+03  0.7561462E-02  0.1259160E+00
          1   -1    0    0  501    0  0.00000000000E+00  0.00000000000E+00  0.13083987356E+03  0.13083987356E+03  0.00000000000E+00 0. -1.
         -1   -1    0    0    0  501 -0.00000000000E+00 -0.00000000000E+00 -0.11435669327E+03  0.11435669327E+03  0.00000000000E+00 0.  1.
         23    2    1    2    0    0 -0.35616537307E+02  0.20982214078E+02 -0.25433647680E+02  0.13417448206E+03  0.12508848934E+03 0.  0.
          5    1    3    3  502    0  0.38019652827E+02  0.39937137531E+02 -0.63025548415E+01  0.55656657757E+02  0.41800000000E+01 0.  1.
         -5    1    3    3    0  502 -0.73636190133E+02 -0.18954923452E+02 -0.19131092838E+02  0.78517824305E+02  0.41800000000E+01 0.  1.
        -11    1    1    2    0    0 -0.91197660934E+01  0.24585543242E+02 -0.10658789709E+02  0.28305986437E+02  0.00000000000E+00 0.  1.
         11    1    1    2    0    0  0.44736303400E+02 -0.45567757320E+02  0.52575617680E+02  0.82716098334E+02  0.00000000000E+00 0. -1.
</event>
<event>
 7    1  0.4394360E-006  0.1080886E+03  0.7561462E-02  0.1264151E+00
         -2   -1    0    0    0  501 -0.00000000000E+00  0.00000000000E+00  0.15640700438E+03  0.15640700438E+03  0.00000000000E+00 0. -1.
          2   -1    0    0  501    0  0.00000000000E+00 -0.00000000000E+00 -0.89372787082E+02  0.89372787082E+02  0.00000000000E+00 0.  1.
         23    2    1    2    0    0  0.14000799139E+02 -0.33280305527E+01  0.84014571015E+02  0.15137508501E+03  0.12509544379E+03 0.  0.
          5    1    3    3  502    0 -0.67238426619E+01 -0.61683528115E+02  0.54310155298E+02  0.82565931651E+02  0.41800000000E+01 0.  1.
         -5    1    3    3    0  502  0.20724641801E+02  0.58355497562E+02  0.29704415718E+02  0.68809153364E+02  0.41800000000E+01 0.  1.
        -11    1    1    2    0    0 -0.40200676931E+02  0.33235283379E+02 -0.16267775973E+02  0.54638073009E+02  0.00000000000E+00 0.  1.
         11    1    1    2    0    0  0.26199877792E+02 -0.29907252826E+02 -0.71257774570E+00  0.39766633438E+02  0.00000000000E+00 0. -1.
</event>
<event>
 7    1  0.4394360E-006  0.1498090E+03  0.7561462E-02  0.1200708E+00
          2   -1    0    0  501    0  0.00000000000E+00  0.00000000000E+00  0.32586814252E+03  0.32586814252E+03  0.00000000000E+00 0. -1.
         -2   -1    0    0    0  501 -0.00000000000E+00 -0.00000000000E+00 -0.86613047954E+02  0.86613047954E+02  0.00000000000E+00 0.  1.
         23    2    1    2    0    0 -0.58985630386E+02 -0.88458948482E+02  0.40104861405E+02  0.16899777246E+03  0.12509019558E+03 0.  0.
          5    1    3    3  502    0 -0.89730317277E+02 -0.27755239459E+02  0.10254642205E+02  0.94575436783E+02  0.41800000000E+01 0. -1.
         -5    1    3    3    0  502  0.30744686891E+02 -0.60703709023E+02  0.29850219200E+02  0.74422335676E+02  0.41800000000E+01 0. -1.
        -11    1    1    2    0    0  0.79309728119E+02  0.49513178183E+02  0.15621198998E+03  0.18205431498E+03  0.00000000000E+00 0. -1.
         11    1    1    2    0    0 -0.20324097733E+02  0.38945770299E+02  0.42938243186E+02  0.61429103043E+02  0.00000000000E+00 0.  1.
</event>
<event>
 7    1  0.4394360E-006  0.1335880E+03  0.7561462E-02  0.1222227E+00
         -1   -1    0    0    0  501 -0.00000000000E+00  0.00000000000E+00  0.23225168793E+02  0.23225168793E+02  0.00000000000E+00 0.  1.
          1   -1    0    0  501    0  0.00000000000E+00 -0.00000000000E+00 -0.87974440001E+03  0.87974440001E+03  0.00000000000E+00 0. -1.
         23    2    1    2    0    0  0.45299388099E+02 -0.80975200459E+02 -0.47395082589E+03  0.49888461100E+03  0.12508977609E+03 0.  0.
          5    1    3    3  502    0  0.32833047397E+02  0.17908745178E+02 -0.26133435675E+03  0.26403001832E+03  0.41800000000E+01 0. -1.
         -5    1    3    3    0  502  0.12466340702E+02 -0.98883945638E+02 -0.21261646914E+03  0.23485459268E+03  0.41800000000E+01 0. -1.
        -11    1    1    2    0    0 -0.60960434566E+02  0.16100289421E+02 -0.17191821222E+03  0.18311544335E+03  0.00000000000E+00 0.  1.
         11    1    1    2    0    0  0.15661046467E+02  0.64874911038E+02 -0.21065019311E+03  0.22096951445E+03  0.00000000000E+00 0. -1.
</event>
<event>
 7    1  0.4394360E-006  0.1234908E+03  0.7561462E-02  0.1237447E+00
         -3   -1    0    0    0  501 -0.00000000000E+00  0.00000000000E+00  0.15392079182E+03  0.15392079182E+03  0.00000000000E+00 0.  1.
          3   -1    0    0  501    0  0.00000000000E+00 -0.00000000000E+00 -0.17364375912E+03  0.17364375912E+03  0.00000000000E+00 0. -1.
         23    2    1    2    0    0  0.72166796391E+02 -0.32838265084E+02  0.85480076550E+02  0.16782573773E+03  0.12071551931E+03 0.  0.
          5    1    3    3  502    0 -0.25700448258E+02  0.20118963527E+02  0.22916429126E+02  0.40098888488E+02  0.41800000000E+01 0. -1.
         -5    1    3    3    0  502  0.97867244650E+02 -0.52957228611E+02  0.62563647424E+02  0.12772684924E+03  0.41800000000E+01 0.  1.
        -11    1    1    2    0    0 -0.46786100498E+02 -0.14522633498E+02 -0.93795094136E+01  0.49878064120E+02  0.00000000000E+00 0.  1.
         11    1    1    2    0    0 -0.25380695893E+02  0.47360898581E+02 -0.95823534440E+02  0.10986074909E+03  0.00000000000E+00 0. -1.
</event>
<event>
 6    1  0.4394360E-006  0.1274548E+03  0.7561462E-02  0.1231282E+00
          1   -1    0    0  501    0  0.00000000000E+00  0.00000000000E+00  0.66241209905E+03  0.66241209905E+03  0.00000000000E+00 0. -1.
         -1   -1    0    0    0  501 -0.00000000000E+00 -0.00000000000E+00 -0.30007128226E+02  0.30007128226E+02  0.00000000000E+00 0.  1.
          5    1    1    2  502    0 -0.37694798073E+02 -0.64136683436E+02  0.13065844172E+03  0.15041114572E+03  0.41800000000E+01 0. -1.
         -5    1    1    2    0  502  0.68692173273E+02  0.43672808968E+02  0.16575290466E+03  0.18470903257E+03  0.41800000000E+01 0.  1.
        -11    1    1    2    0    0 -0.59606145620E+02 -0.60158968542E+01  0.29383297562E+03  0.29987814387E+03  0.00000000000E+00 0. -1.
         11    1    1    2    0    0  0.28608770421E+02  0.26479771322E+02  0.42160648827E+02  0.57420905111E+02  0.00000000000E+00 0.  1.
</event>
<event>
 7    1  0.4394360E-006  0.1867350E+03  0.7561462E-02  0.1161439E+00
          1   -1    0    0  501    0  0.00000000000E+00  0.00000000000E+00  0.21682041428E+02  0.21682041428E+02  0.00000000000E+00 0. -1.
         -1   -1    0    0    0  501 -0.00000000000E+00 -0.00000000000E+00 -0.24764065820E+04  0.24764065820E+04  0.00000000000E+00 0.  1.
         23    2    1    2    0    0 -0.16408216443E+03  0.79935011645E+02 -0.17700004859E+04  0.17837775497E+04  0.12509222296E+03 0.  0.
          5    1    3    3  502    0 -0.40833311767E+02  0.21215874766E+02 -0.10451380899E+04  0.10461589612E+04  0.41800000000E+01 0.  1.
         -5    1    3    3    0  502 -0.12324885266E+03  0.58719136879E+02 -0.72486239597E+03  0.73761858857E+03  0.41800000000E+01 0.  1.
        -11    1    1    2    0    0  0.76667334300E+02 -0.67951294723E+02 -0.24052079174E+03  0.26142974173E+03  0.00000000000E+00 0. -1.
         11    1    1    2    0    0  0.87414830128E+02 -0.11983716922E+02 -0.44420326301E+03  0.45288133199E+03  0.00000000000E+00 0.  1.
</event>
<event>
 7    1  0.4394360E-006  0.1402850E+03  0.7561462E-02  0.1212946E+00
          1   -1    0    0  501    0  0.00000000000E+00  0.00000000000E+00  0.38598643046E+03  0.38598643046E+03  0.00000000000E+00 0. -1.
         -1   -1    0    0    0  501 -0.00000000000E+00 -0.00000000000E+00 -0.66075949001E+02  0.66075949001E+02  0.00000000000E+00 0.  1.
         23    2    1    2    0    0  0.49229774670E+02 -0.10257733773E+03  0.12990121404E+03  0.21323255387E+03  0.12509242860E+03 0.  0.
          5    1    3    3  502    0 -0.14664106533E+02  0.17101758208E+02 -0.31944776943E+01  0.23134027793E+02  0.41800000000E+01 0. -1.
         -5    1    3    3    0  502  0.63893881203E+02 -0.11967909593E+03  0.13309569173E+03  0.19009852607E+03  0.41800000000E+01 0. -1.
        -11    1    1    2    0    0 -0.16948454000E+02  0.81797814914E+02  0.58891872042E+02  0.10220755946E+03  0.00000000000E+00 0.  1.
         11    1    1    2    0    0 -0.32281320671E+02  0.20779522811E+02  0.13111739538E+03  0.13662226614E+03  0.00000000000E+00 0. -1.
</event>
<event>
 7    1  0.4394360E-006  0.7969688E+02  0.7561462E-02  0.1329914E+00
         -2   -1    0    0    0  501 -0.00000000000E+00  0.00000000000E+00  0.73305988384E+02  0.73305988384E+02  0.00000000000E+00 0.  1.
          2   -1    0    0  501    0  0.00000000000E+00 -0.00000000000E+00 -0.34825814005E+03  0.34825814005E+03  0.00000000000E+00 0. -1.
         23    2    1    2    0    0  0.35523997598E+02 -0.24870036030E+02 -0.42192200868E+01  0.13246233935E+03  0.12509195190E+03 0.  0.
          5    1    3    3  502    0  0.25256290719E+02  0.11575820094E+02 -0.59226183188E+02  0.65552215880E+02  0.41800000000E+01 0.  1.
         -5    1    3    3    0  502  0.10267706879E+02 -0.36445856124E+02  0.55006963102E+02  0.66910123471E+02  0.41800000000E+01 0.  1.
        -11    1    1    2    0    0 -0.89012787353E+01  0.53426078671E+02 -0.21023859924E+03  0.21710331010E+03  0.00000000000E+00 0. -1.
         11    1    1    2    0    0 -0.26622718862E+02 -0.28556042640E+02 -0.60494332338E+02  0.71998478984E+02  0.00000000000E+00 0.  1.
</event>
<event>
 7    1  0.4394360E-006  0.1011894E+03  0.7561462E-02  0.1277815E+00
          2   -1    0    0  501    0  0.00000000000E+00  0.00000000000E+00  0.60526796701E+03  0.60526796701E+03  0.00000000000E+00 0. -1.
         -2   -1    0    0    0  501 -0.00000000000E+00 -0.00000000000E+00 -0.17119712438E+02  0.17119712438E+02  0.00000000000E+00 0.  1.
         23    2    1    2    0    0  0.16868574028E+02 -0.25997074722E+02  0.35551813847E+03  0.37815422452E+03  0.12508826508E+03 0.  0.
          5    1    3    3  502    0  0.58493326126E+02 -0.52454555204E+02  0.19872933241E+03  0.21373761841E+03  0.41800000000E+01 0. -1.
         -5    1    3    3    0  502 -0.41624752098E+02  0.26457480482E+02  0.15678880606E+03  0.16441660612E+03  0.41800000000E+01 0. -1.
        -11    1    1    2    0    0  0.13682642539E+02 -0.16769341122E+02  0.75910147113E+02  0.78935264256E+02  0.00000000000E+00 0.  1.
         11    1    1    2    0    0 -0.30551216567E+02  0.42766415844E+02  0.15671996899E+03  0.16529819067E+03  0.00000000000E+00 0. -1.
</event>
<event>
 7    1  0.4394360E-006  0.2426024E+03  0.7561462E-02  0.1118071E+00
          2   -1    0    0  501    0  0.00000000000E+00  0.00000000000E+00  0.81660921986E+03  0.81660921986E+03  0.00000000000E+00 0.  1.
         -2   -1    0    0    0  501 -0.00000000000E+00 -0.00000000000E+00 -0.12996364907E+03  0.12996364907E+03  0.00000000000E+00 0. -1.
         23    2    1    2    0    0 -0.11946844680E+03  0.20221411948E+03  0.61078478750E+02  0.27302267536E+03  0.12509013068E+03 0.  0.
          5    1    3    3  502    0 -0.62158143034E+02  0.12074741408E+03 -0.28692061812E+02  0.13886784928E+03  0.41800000000E+01 0.  1.
         -5    1    3    3    0  502 -0.57310303767E+02  0.81466705400E+02  0.89770540561E+02  0.13415482608E+03  0.41800000000E+01 0.  1.
        -11    1    1    2    0    0 -0.64510643754E+01 -0.57297334369E+02  0.14900704053E+03  0.15977389926E+03  0.00000000000E+00 0. -1.
         11    1    1    2    0    0  0.12591951118E+03 -0.14491678511E+03  0.47656005151E+03  0.51377629431E+03  0.00000000000E+00 0.  1.
</event>
<event>
 7    1  0.4394360E-006  0.9034453E+02  0.7561462E-02  0.1302020E+00
         -2   -1    0    0    0  501 -0.00000000000E+00  0.00000000000E+00  0.46316828172E+02  0.46316828172E+02  0.00000000000E+00 0. -1.
          2   -1    0    0  501    0  0.00000000000E+00 -0.00000000000E+00 -0.33689301790E+03  0.33689301790E+03  0.00000000000E+00 0.  1.
         23    2    1    2    0    0  0.61531449723E+00 -0.33088413888E+02 -0.80871653315E+02  0.15259027387E+03  0.12509334764E+03 0.  0.
          5    1    3    3  502    0 -0.44312735021E+02  0.43988083054E+00  0.10107429150E+02  0.45644764258E+02  0.41800000000E+01 0. -1.
         -5    1    3    3    0  502  0.44928049518E+02 -0.33528294718E+02 -0.90979082465E+02  0.10694550961E+03  0.41800000000E+01 0. -1.
        -11    1    1    2    0    0  0.28136795643E+02 -0.85088940035E+01 -0.14776296035E+03  0.15065846474E+03  0.00000000000E+00 0.  1.
         11    1    1    2    0    0 -0.28752110140E+02  0.41597307891E+02 -0.61941576062E+02  0.79961107461E+02  0.00000000000E+00 0. -1.
</event>
<event>
 7    1  0.4394360E-006  0.9507286E+02  0.7561462E-02  0.1291012E+00
         -1   -1    0    0    0  501 -0.00000000000E+00  0.00000000000E+00  0.53559602161E+02  0.53559602161E+02  0.00000000000E+00 0.  1.
          1   -1    0    0  501    0  0.00000000000E+00 -0.00000000000E+00 -0.23195476817E+03  0.23195476817E+03  0.00000000000E+00 0. -1.
         23    2    1    2    0    0 -0.22649441792E+02 -0.69060235643E+01 -0.85481043905E+02  0.15334840051E+03  0.12509209686E+03 0.  0.
          5    1    3    3  502    0 -0.68620326263E+02 -0.20452051622E+02 -0.24756733052E+02  0.75877558101E+02  0.41800000000E+01 0.  1.
         -5    1    3    3    0  502  0.45970884471E+02  0.13546028057E+02 -0.60724310853E+02  0.77470842410E+02  0.41800000000E+01 0.  1.
        -11    1    1    2    0    0  0.41347031026E+02  0.21492302586E+02 -0.12383968688E+02  0.48216788836E+02  0.00000000000E+00 0.  1.
         11    1    1    2    0    0 -0.18697589235E+02 -0.14586279022E+02 -0.80530153420E+02  0.83949180989E+02  0.00000000000E+00 0. -1.
</event>
<event>
 7    1  0.4394360E-006  0.1095806E+03  0.7561462E-02  0.1261349E+00
         -1   -1    0    0    0  501 -0.00000000000E+00  0.00000000000E+00  0.47589044695E+03  0.47589044695E+03  0.00000000000E+00 0.  1.
          1   -1    0    0  501    0  0.00000000000E+00 -0.00000000000E+00 -0.10227416508E+03  0.10227416508E+03  0.00000000000E+00 0. -1.
         23    2    1    2    0    0 -0.41053744301E+01  0.46066443964E+02  0.43765635878E+03  0.45752538859E+03  0.12508965371E+03 0.  0.
          5    1    3    3  502    0  0.50287103198E+02  0.48266931902E+02  0.32395289956E+03  0.33139318490E+03  0.41800000000E+01 0.  1.
         -5    1    3    3    0  502 -0.54392477628E+02 -0.22004879383E+01  0.11370345923E+03  0.12613220370E+03  0.41800000000E+01 0.  1.
        -11    1    1    2    0    0 -0.28738576768E+02 -0.53799128021E+02 -0.18068716212E+02  0.63613917314E+02  0.00000000000E+00 0.  1.
         11    1    1    2    0    0  0.32843951199E+02  0.77326840570E+01 -0.45971360706E+02  0.57025306121E+02  0.00000000000E+00 0. -1.
</event>
<event>
 6    1  0.4394360E-006  0.1628348E+03  0.7561462E-02  0.1185533E+00
         -1   -1    0    0    0  501 -0.00000000000E+00  0.00000000000E+00  0.85145165079E+02  0.85145165079E+02  0.00000000000E+00 0.  1.
          1   -1    0    0  501    0  0.00000000000E+00 -0.00000000000E+00 -0.49854410223E+03  0.49854410223E+03  0.00000000000E+00 0. -1.
          5    1    1    2  502    0 -0.33973023345E+02  0.11071876641E+03 -0.10912660718E+03  0.15918197242E+03  0.41800000000E+01 0. -1.
         -5    1    1    2    0  502  0.22720836991E+02 -0.12331632094E+03 -0.22770241488E+02  0.12751120633E+03  0.41800000000E+01 0.  1.
        -11    1    1    2    0    0 -0.35979421268E+02  0.80488690831E+01 -0.59634108847E+02  0.70110840719E+02  0.00000000000E+00 0.  1.
         11    1    1    2    0    0  0.47231607622E+02  0.45486854497E+01 -0.22186797963E+03  0.22688524783E+03  0.00000000000E+00 0. -1.
</event>
<event>
 7    1  0.4394360E-006  0.1157623E+03  0.7561462E-02  0.1250256E+00
         -2   -1    0    0    0  501 -0.00000000000E+00  0.00000000000E+00  0.70405156643E+02  0.70405156643E+02  0.00000000000E+00 0. -1.
          2   -1    0    0  501    0  0.00000000000E+00 -0.00000000000E+00 -0.27631322760E+03  0.27631322760E+03  0.00000000000E+00 0.  1.
         23    2    1    2    0    0  0.10753516039E+02  0.82742091825E+02 -0.14252939202E+03  0.20718226936E+03  0.12509185937E+03 0.  0.
          5    1    3    3  502    0  0.36758878597E+02  0.27729565034E+02 -0.13854893671E+03  0.14605965971E+03  0.41800000000E+01 0. -1.
         -5    1    3    3    0  502 -0.26005362558E+02  0.55012526791E+02 -0.39804553147E+01  0.61122609648E+02  0.41800000000E+01 0. -1.
        -11    1    1    2    0    0 -0.16021992813E+02  0.17609568640E+02 -0.11304131167E+02  0.26354971880E+02  0.00000000000E+00 0. -1.
         11    1    1    2    0    0  0.52684767739E+01 -0.10035166046E+03 -0.52074547765E+02  0.11318114300E+03  0.00000000000E+00 0.  1.
</event>
<event>
 7    1  0.4394360E-006  0.9544226E+02  0.7561462E-02  0.1290183E+00
          2   -1    0    0  501    0  0.00000000000E+00  0.00000000000E+00  0.19569107926E+03  0.19569107926E+03  0.00000000000E+00 0. -1.
         -2   -1    0    0    0  501 -0.00000000000E+00 -0.00000000000E+00 -0.79000960134E+02  0.79000960134E+02  0.00000000000E+00 0.  1.
         23    2    1    2    0    0 -0.23408780737E+02 -0.55578799895E+02  0.36094522085E+02  0.14348613324E+03  0.12509389231E+03 0.  0.
          5    1    3    3  502    0  0.25165363429E+02  0.23234540002E+02 -0.15040423186E+02  0.37640750461E+02  0.41800000000E+01 0. -1.
         -5    1    3    3    0  502 -0.48574144166E+02 -0.78813339897E+02  0.51134945271E+02  0.10584538278E+03  0.41800000000E+01 0. -1.
        -11    1    1    2    0    0 -0.32505801700E+01  0.13549868296E+02  0.80232554538E+02  0.81433580359E+02  0.00000000000E+00 0. -1.
         11    1    1    2    0    0  0.26659360907E+02  0.42028931599E+02  0.36304250088E+00  0.49772325796E+02  0.00000000000E+00 0.  1.
</event>
<event>
 7    1  0.4394360E-006  0.1104449E+03  0.7561462E-02  0.1259748E+00
          1   -1    0    0  501    0  0.00000000000E+00  0.00000000000E+00  0.89402951438E+03  0.89402951438E+03  0.00000000000E+00 0. -1.
         -1   -1    0    0    0  501 -0.00000000000E+00 -0.00000000000E+00 -0.14173518486E+02  0.14173518486E+02  0.00000000000E+00 0.  1.
         23    2    1    2    0    0 -0.28449876685E+02 -0.74068821142E+01  0.47801216696E+03  0.49498218642E+03  0.12508987058E+03 0.  0.
          5    1    3    3  502    0 -0.18616257973E+02  0.57039085924E+02  0.17624245747E+03  0.18622271236E+03  0.41800000000E+01 0.  1.
         -5    1    3    3    0  502 -0.98336187120E+01 -0.64445968038E+02  0.30176970949E+03  0.30875947406E+03  0.41800000000E+01 0.  1.
        -11    1    1    2    0    0  0.19361206164E+00 -0.40123095604E+02  0.19704609502E+03  0.20108969106E+03  0.00000000000E+00 0. -1.
         11    1    1    2    0    0  0.28256264623E+02  0.47529977718E+02  0.20479773391E+03  0.21213115539E+03  0.00000000000E+00 0.  1.
</event>
<event>
 7    1  0.4394360E-006  0.1109751E+03  0.7561462E-02  0.1258775E+00
          2   -1    0    0  501    0  0.00000000000E+00  0.00000000000E+00  0.35776215272E+03  0.35776215272E+03  0.00000000000E+00 0.  1.
         -2   -1    0    0    0  501 -0.00000000000E+00 -0.00000000000E+00 -0.47793671847E+02  0.47793671847E+02  0.00000000000E+00 0. -1.
         23    2    1    2    0    0  0.30688623949E+02  0.17959778694E+02  0.73735473484E+02  0.14947921289E+03  0.12507105878E+03 0.  0.
          5    1    3    3  502    0  0.70132143972E+01 -0.50365787798E+02  0.54245184022E+02  0.74470867769E+02  0.41800000000E+01 0.  1.
         -5    1    3    3    0  502  0.23675409552E+02  0.68325566492E+02  0.19490289462E+02  0.75008345117E+02  0.41800000000E+01 0.  1.
        -11    1    1    2    0    0  0.10346789983E+02 -0.47063088402E+02  0.10491856021E+03  0.11545516285E+03  0.00000000000E+00 0.  1.
         11    1    1    2    0    0 -0.41035413932E+02  0.29103309709E+02  0.13131444717E+03  0.14062144882E+03  0.00000000000E+00 0. -1.
</event>
<event>
 7    1  0.4394360E-006  0.1411793E+03  0.7561462E-02  0.1211751E+00
          1   -1    0    0  501    0  0.00000000000E+00  0.00000000000E+00  0.55296885296E+02  0.55296885296E+02  0.00000000000E+00 0. -1.
         -1   -1    0    0    0  501 -0.00000000000E+00 -0.00000000000E+00 -0.36137377924E+03  0.36137377924E+03  0.00000000000E+00 0.  1.
         23    2    1    2    0    0  0.84694395873E+02 -0.31282903153E+02 -0.16344822817E+03  0.22469798396E+03  0.12498839938E+03 0.  0.
          5    1    3    3  502    0 -0.17565609726E+02 -0.47238179843E+02 -0.51395212188E+02  0.72103651196E+02  0.41800000000E+01 0.  1.
         -5    1    3    3    0  502  0.10226000560E+03  0.15955276691E+02 -0.11205301598E+03  0.15259433276E+03  0.41800000000E+01 0.  1.
        -11    1    1    2    0    0 -0.81719064826E+02 -0.13927379554E+02 -0.85987720210E+02  0.11943979858E+03  0.00000000000E+00 0.  1.
         11    1    1    2    0    0 -0.29753310471E+01  0.45210282707E+02 -0.56640945566E+02  0.72532882005E+02  0.00000000000E+00 0. -1.
</event>
<event>
 7    1  0.4394360E-006  0.1039512E+03  0.7561462E-02  0.1272200E+00
         -2   -1    0    0    0  501 -0.00000000000E+00  0.00000000000E+00  0.18496751560E+02  0.18496751560E+02  0.00000000000E+00 0.  1.
          2   -1    0    0  501    0  0.00000000000E+00 -0.00000000000E+00 -0.69181041065E+03  0.69181041065E+03  0.00000000000E+00 0. -1.
         23    2    1    2    0    0 -0.18658833564E+01  0.16643878597E+02 -0.30555649193E+03  0.33059540353E+03  0.12509216946E+03 0.  0.
          5    1    3    3  502    0  0.17068514598E+02 -0.50360629748E+02 -0.97203679108E+02  0.11087630428E+03  0.41800000000E+01 0.  1.
         -5    1    3    3    0  502 -0.18934397955E+02  0.67004508344E+02 -0.20835281282E+03  0.21971909925E+03  0.41800000000E+01 0.  1.
        -11    1    1    2    0    0 -0.12059315360E+02 -0.48535307788E+02 -0.29318356224E+03  0.29741839950E+03  0.00000000000E+00 0. -1.
         11    1    1    2    0    0  0.13925198717E+02  0.31891429191E+02 -0.74573604922E+02  0.82293359187E+02  0.00000000000E+00 0.  1.
</event>
<event>
 7    1  0.4394360E-006  0.1398264E+03  0.7561462E-02  0.1213563E+00
         -2   -1    0    0    0  501 -0.00000000000E+00  0.00000000000E+00  0.72157584950E+02  0.72157584950E+02  0.00000000000E+00 0.  1.
          2   -1    0    0  501    0  0.00000000000E+00 -0.00000000000E+00 -0.33452608478E+03  0.33452608478E+03  0.00000000000E+00 0. -1.
         23    2    1    2    0    0 -0.10683981023E+03 -0.35251171261E+01 -0.12380401858E+03  0.20591974312E+03  0.12509330154E+03 0.  0.
          5    1    3    3  502    0 -0.21896110188E+01 -0.29184924802E+02  0.12518813052E+02  0.32105253656E+02  0.41800000000E+01 0. -1.
         -5    1    3    3    0  502 -0.10465019921E+03  0.25659807676E+02 -0.13632283163E+03  0.17381448946E+03  0.41800000000E+01 0. -1.
        -11    1    1    2    0    0 -0.50013438926E+01 -0.26087467342E+02 -0.43742681848E+02  0.51176084339E+02  0.00000000000E+00 0.  1.
         11    1    1    2    0    0  0.11184115412E+03  0.29612584468E+02 -0.94821799407E+02  0.14958784227E+03  0.00000000000E+00 0. -1.
</event>
<event>
 6    1  0.4394360E-006  0.1403413E+03  0.7561462E-02  0.1212870E+00
          1   -1    0    0  501    0  0.00000000000E+00  0.00000000000E+00  0.45992661237E+03  0.45992661237E+03  0.00000000000E+00 0. -1.
         -1   -1    0    0    0  501 -0.00000000000E+00 -0.00000000000E+00 -0.55060248992E+02  0.55060248992E+02  0.00000000000E+00 0.  1.
          5    1    1    2  502    0  0.63181337420E+02  0.28314538189E+02  0.89705276558E+02  0.11339357792E+03  0.41800000000E+01 0. -1.
         -5    1    1    2    0  502 -0.36188490811E+02 -0.10580433213E+03  0.85490180108E+02  0.14081976729E+03  0.41800000000E+01 0.  1.
        -11    1    1    2    0    0  0.10233805097E+02  0.54965400062E+02  0.20108441239E+03  0.20871240231E+03  0.00000000000E+00 0. -1.
         11    1    1    2    0    0 -0.37226651706E+02  0.22524393882E+02  0.28586494327E+02  0.52061113846E+02  0.00000000000E+00 0.  1.
</event>
<event>
 7    1  0.4394360E-006  0.1053464E+03  0.7561462E-02  0.1269439E+00
         -1   -1    0    0    0  501 -0.00000000000E+00  0.00000000000E+00  0.16952543322E+03  0.16952543322E+03  0.00000000000E+00 0.  1.
          1   -1    0    0  501    0  0.00000000000E+00 -0.00000000000E+00 -0.74108953923E+02  0.74108953923E+02  0.00000000000E+00 0. -1.
         23    2    1    2    0    0 -0.26125646884E+02  0.34476112823E+02  0.66996302296E+02  0.13888107232E+03  0.11370266464E+03 0.  0.
          5    1    3    3  502    0 -0.63909554895E+02  0.46586182293E+02  0.30683486737E+02  0.84933222863E+02  0.41800000000E+01 0. -1.
         -5    1    3    3    0  502  0.37783908011E+02 -0.12110069470E+02  0.36312815559E+02  0.53947849457E+02  0.41800000000E+01 0.  1.
        -11    1    1    2    0    0  0.29999395222E+02 -0.59309686891E+02  0.39466106775E+02  0.77299264270E+02  0.00000000000E+00 0.  1.
         11    1    1    2    0    0 -0.38737483374E+01  0.24833574069E+02 -0.11045929774E+02  0.27454050553E+02  0.00000000000E+00 0. -1.
</event>
<event>
 7    1  0.4394360E-006  0.5765394E+02  0.7561462E-02  0.1407949E+00
         -2   -1    0    0    0  501 -0.00000000000E+00  0.00000000000E+00  0.47684774572E+02  0.47684774572E+02  0.00000000000E+00 0.  1.
          2   -1    0    0  501    0  0.00000000000E+00 -0.00000000000E+00 -0.25995936714E+03  0.25995936714E+03  0.00000000000E+00 0. -1.
         23    2    1    2    0    0 -0.26182127061E+02  0.64211643316E+01 -0.10290178379E+03  0.16420186243E+03  0.12508692734E+03 0.  0.
          5    1    3    3  502    0 -0.28625358486E+02  0.83864528516E+01 -0.13161477511E+03  0.13501727729E+03  0.41800000000E+01 0.  1.
         -5    1    3    3    0  502  0.24432314243E+01 -0.19652885200E+01  0.28712991328E+02  0.29184585139E+02  0.41800000000E+01 0.  1.
        -11    1    1    2    0    0 -0.24055447733E+02  0.11449299114E+02 -0.76009995400E+02  0.80543593268E+02  0.00000000000E+00 0. -1.
         11    1    1    2    0    0  0.50237574794E+02 -0.17870463445E+02 -0.33362813379E+02  0.62898686008E+02  0.00000000000E+00 0.  1.
</event>
<event>
 7    1  0.4394360E-006  0.4447666E+03  0.7561462E-02  0.1029294E+00
         -2   -1    0    0    0  501 -0.00000000000E+00  0.00000000000E+00  0.12624485978E+03  0.12624485978E+03  0.00000000000E+00 0.  1.
          2   -1    0    0  501    0  0.00000000000E+00 -0.00000000000E+00 -0.17443831632E+04  0.17443831632E+04  0.00000000000E+00 0. -1.
         23    2    1    2    0    0 -0.43076472444E+03 -0.60502539581E+02 -0.54233908722E+03  0.70634094887E+03  0.12476796628E+03 0.  0.
          5    1    3    3  502    0 -0.22706595651E+03  0.15606424383E+02 -0.34074018219E+03  0.40978513059E+03  0.41800000000E+01 0.  1.
         -5    1    3    3    0  502 -0.20369876793E+03 -0.76108963964E+02 -0.20159890503E+03  0.29655581829E+03  0.41800000000E+01 0.  1.
        -11    1    1    2    0    0  0.26965091197E+03 -0.69394461734E+01 -0.68705011583E+03  0.73810407932E+03  0.00000000000E+00 0.  1.
         11    1    1    2    0    0  0.16111381247E+03  0.67441985755E+02 -0.38874910033E+03  0.42618299476E+03  0.00000000000E+00 0. -1.
</event>
<event>
 7    1  0.4394360E-006  0.1915114E+03  0.7561462E-02  0.1157105E+00
         -2   -1    0    0    0  501 -0.00000000000E+00  0.00000000000E+00  0.37020499673E+03  0.37020499673E+03  0.00000000000E+00 0.  1.
          2   -1    0    0  501    0  0.00000000000E+00 -0.00000000000E+00 -0.11121383644E+03  0.11121383644E+03  0.00000000000E+00 0. -1.
         23    2    1    2    0    0 -0.13515626870E+03  0.87828932681E+02  0.20468241611E+03  0.28900570086E+03  0.12509302650E+03 0.  0.
          5    1    3    3  502    0 -0.11540206658E+03  0.11964538297E+03  0.16969673958E+03  0.23758600645E+03  0.41800000000E+01 0.  1.
         -5    1    3    3    0  502 -0.19754202123E+02 -0.31816450293E+02  0.34985676530E+02  0.51419694408E+02  0.41800000000E+01 0.  1.
        -11    1    1    2    0    0  0.75054879823E+02 -0.30259228255E+01  0.46132649806E+02  0.88151078111E+02  0.00000000000E+00 0.  1.
         11    1    1    2    0    0  0.60101388879E+02 -0.84803009855E+02  0.81760943754E+01  0.10426205419E+03  0.00000000000E+00 0. -1.
</event>
<event>
 7    1  0.4394360E-006  0.9786402E+02  0.7561462E-02  0.1284853E+00
          1   -1    0    0  501    0  0.00000000000E+00  0.00000000000E+00  0.29985791321E+03  0.29985791321E+03  0.00000000000E+00 0. -1.
         -1   -1    0    0    0  501 -0.00000000000E+00 -0.00000000000E+00 -0.43443976483E+02  0.43443976483E+02  0.00000000000E+00 0.  1.
         23    2    1    2    0    0  0.10690603392E+02  0.19891520053E+02  0.10526842109E+03  0.16504576633E+03  0.12509477580E+03 0.  0.
          5    1    3    3  502    0 -0.40925720665E+02  0.50614485111E+02  0.68040809941E+02  0.94253726358E+02  0.41800000000E+01 0. -1.
         -5    1    3    3    0  502  0.51616324057E+02 -0.30722965057E+02  0.37227611146E+02  0.70792039967E+02  0.41800000000E+01 0. -1.
        -11    1    1    2    0    0  0.25203728350E+02 -0.23184664567E+02  0.14941199027E+02  0.37363030152E+02  0.00000000000E+00 0.  1.
         11    1    1    2    0    0 -0.35894331742E+02  0.32931445135E+01  0.13620431661E+03  0.14089309322E+03  0.00000000000E+00 0. -1.
</event>
<event>
 7    1  0.4394360E-006  0.1483493E+03  0.7561462E-02  0.1202516E+00
         -2   -1    0    0    0  501 -0.00000000000E+00  0.00000000000E+00  0.43498326458E+02  0.43498326458E+02  0.00000000000E+00 0.  1.
          2   -1    0    0  501    0  0.00000000000E+00 -0.00000000000E+00 -0.65947996162E+03  0.65947996162E+03  0.00000000000E+00 0. -1.
         23    2    1    2    0    0 -0.12331152154E+03 -0.38778383854E+02 -0.34384002943E+03  0.38804928856E+03  0.12508713010E+03 0.  0.
          5    1    3    3  502    0 -0.10206384327E+03 -0.59425690858E+02 -0.14541218545E+03  0.18737827226E+03  0.41800000000E+01 0.  1.
         -5    1    3    3    0  502 -0.21247678263E+02  0.20647307004E+02 -0.19842784397E+03  0.20067101630E+03  0.41800000000E+01 0.  1.
        -11    1    1    2    0    0  0.51125165572E+02  0.54495206843E+02 -0.81998575383E+02  0.11093816516E+03  0.00000000000E+00 0. -1.
         11    1    1    2    0    0  0.72186355963E+02 -0.15716822989E+02 -0.19014303035E+03  0.20399083436E+03  0.00000000000E+00 0.  1.
</event>
<event>
 7    1  0.4394360E-006  0.1220010E+03  0.7561462E-02  0.1239832E+00
         -2   -1    0    0    0  501 -0.00000000000E+00  0.00000000000E+00  0.18772464118E+02  0.18772464118E+02  0.00000000000E+00 0.  1.
          2   -1    0    0  501    0  0.00000000000E+00 -0.00000000000E+00 -0.92685850880E+03  0.92685850880E+03  0.00000000000E+00 0. -1.
         23    2    1    2    0    0  0.87929369815E+01 -0.69091400443E+02 -0.59902424039E+03  0.61589670022E+03  0.12509103651E+03 0.  0.
          5    1    3    3  502    0  0.64218651729E+02 -0.57483232420E+02 -0.34981425330E+03  0.36029965508E+03  0.41800000000E+01 0. -1.
         -5    1    3    3    0  502 -0.55425714747E+02 -0.11608168023E+02 -0.24920998709E+03  0.25559704514E+03  0.41800000000E+01 0. -1.
        -11    1    1    2    0    0  0.20849254114E+02  0.68155914064E+02 -0.13021122638E+03  0.14844151540E+03  0.00000000000E+00 0.  1.
         11    1    1    2    0    0 -0.29642191095E+02  0.93548637934E+00 -0.17885057792E+03  0.18129275730E+03  0.00000000000E+00 0. -1.
</event>
<event>
 7    1  0.4394360E-006  0.3332651E+03  0.7561462E-02  0.1069701E+00
          2   -1    0    0  501    0  0.00000000000E+00  0.00000000000E+00  0.23663101816E+03  0.23663101816E+03  0.00000000000E+00 0. -1.
         -2   -1    0    0    0  501 -0.00000000000E+00 -0.00000000000E+00 -0.50978866444E+03  0.50978866444E+03  0.00000000000E+00 0.  1.
         23    2    1    2    0    0 -0.55176578268E+02 -0.31916313003E+03 -0.20500777975E+03  0.40321538966E+03  0.12507958400E+03 0.  0.
          5    1    3    3  502    0 -0.51379666773E+02 -0.46400637846E+02 -0.71018930044E+02  0.99267568596E+02  0.41800000000E+01 0. -1.
         -5    1    3    3    0  502 -0.37969114946E+01 -0.27276249219E+03 -0.13398884971E+03  0.30394782106E+03  0.41800000000E+01 0. -1.
        -11    1    1    2    0    0  0.20450141112E+02  0.16863927624E+03 -0.80990757754E+02  0.18819382722E+03  0.00000000000E+00 0.  1.
         11    1    1    2    0    0  0.34726437156E+02  0.15052385379E+03  0.12840891228E+02  0.15501046573E+03  0.00000000000E+00 0. -1.
</event>
<event>
 7    1  0.4394360E-006  0.1556991E+03  0.7561462E-02  0.1193640E+00
         -3   -1    0    0    0  501 -0.00000000000E+00  0.00000000000E+00  0.90618851690E+02  0.90618851690E+02  0.00000000000E+00 0.  1.
          3   -1    0    0  501    0  0.00000000000E+00 -0.00000000000E+00 -0.30214013344E+03  0.30214013344E+03  0.00000000000E+00 0. -1.
         23    2    1    2    0    0  0.11863369279E+03 -0.38703580638E+02 -0.99929243952E+02  0.20298973906E+03  0.12508820947E+03 0.  0.
          5    1    3    3  502    0  0.85395491275E+02  0.24966137213E+02 -0.12779975495E+02  0.89980542959E+02  0.41800000000E+01 0. -1.
         -5    1    3    3    0  502  0.33238201511E+02 -0.63669717851E+02 -0.87149268457E+02  0.11300919610E+03  0.41800000000E+01 0. -1.
        -11    1    1    2    0    0 -0.37746898714E+02 -0.26806606523E+02 -0.52808930243E+02  0.70229663456E+02  0.00000000000E+00 0. -1.
         11    1    1    2    0    0 -0.80886794072E+02  0.65510187161E+02 -0.58783107552E+02  0.11953958261E+03  0.00000000000E+00 0.  1.
</event>
<event>
 7    1  0.4394360E-006  0.1341608E+03  0.7561462E-02  0.1221409E+00
          2   -1    0    0  501    0  0.00000000000E+00  0.00000000000E+00  0.67346582708E+03  0.67346582708E+03  0.00000000000E+00 0.  1.
         -2   -1    0    0    0  501 -0.00000000000E+00 -0.00000000000E+00 -0.34601397914E+02  0.34601397914E+02  0.00000000000E+00 0. -1.
         23    2    1    2    0    0  0.22148790294E+02 -0.95362777470E+02  0.20997365160E+03  0.25957417904E+03  0.11706917536E+03 0.  0.
          5    1    3    3  502    0 -0.26114830216E+02  0.42805303682E+01  0.99766439245E+02  0.10330112341E+03  0.41800000000E+01 0.  1.
         -5    1    3    3    0  502  0.48263620510E+02 -0.99643307838E+02  0.11020721235E+03  0.15627305563E+03  0.41800000000E+01 0. -1.
        -11    1    1    2    0    0 -0.26467241923E+02 -0.77132361484E+01  0.10567695474E+03  0.10921367895E+03  0.00000000000E+00 0.  1.
         11    1    1    2    0    0  0.43184516295E+01  0.10307601362E+03  0.32321382282E+03  0.33927936700E+03  0.00000000000E+00 0. -1.
</event>
<event>
 7    1  0.4394360E-006  0.1047967E+03  0.7561462E-02  0.1270521E+00
          2   -1    0    0  501    0  0.00000000000E+00  0.00000000000E+00  0.13687892714E+03  0.13687892714E+03  0.00000000000E+00 0. -1.
         -2   -1    0    0    0  501 -0.00000000000E+00 -0.00000000000E+00 -0.15598921276E+03  0.15598921276E+03  0.00000000000E+00 0.  1.
         23    2    1    2    0    0 -0.15838289471E+02  0.83443838879E+02 -0.56632950501E+02  0.16145798305E+03  0.12509062134E+03 0.  0.
          5    1    3    3  502    0 -0.47677166157E+02  0.52229036939E+02 -0.83289421717E+02  0.10934159612E+03  0.41800000000E+01 0. -1.
         -5    1    3    3    0  502  0.31838876686E+02  0.31214801940E+02  0.26656471217E+02  0.52116386928E+02  0.41800000000E+01 0. -1.
        -11    1    1    2    0    0 -0.11717593014E+02 -0.95894480057E+01 -0.26057400932E+02  0.30137147218E+02  0.00000000000E+00 0.  1.
         11    1    1    2    0    0  0.27555882485E+02 -0.73854390873E+02  0.63580065815E+02  0.10127300963E+03  0.00000000000E+00 0. -1.
</event>
<event>
 7    1  0.4394360E-006  0.1219017E+03  0.7561462E-02  0.1239992E+00
          2   -1    0    0  501    0  0.00000000000E+00  0.00000000000E+00  0.46507050727E+02  0.46507050727E+02  0.00000000000E+00 0. -1.
         -2   -1    0    0    0  501 -0.00000000000E+00 -0.00000000000E+00 -0.37892787797E+03  0.37892787797E+03  0.00000000000E+00 0.  1.
         23    2    1    2    0    0 -0.35377416949E+02  0.65843201363E+02 -0.18942202835E+03  0.23898863802E+03  0.12509186818E+03 0.  0.
          5    1    3    3  502    0 -0.23318655617E+02  0.98699612145E+02 -0.98356519029E+02  0.14133948625E+03  0.41800000000E+01 0.  1.
         -5    1    3    3    0  502 -0.12058761333E+02 -0.32856410782E+02 -0.91065509318E+02  0.97649151772E+02  0.41800000000E+01 0.  1.
        -11    1    1    2    0    0 -0.24170524254E+02 -0.13033386876E+02 -0.81085807966E+02  0.85609530250E+02  0.00000000000E+00 0.  1.
         11    1    1    2    0    0  0.59547941203E+02 -0.52809814488E+02 -0.61912990933E+02  0.10083676043E+03  0.00000000000E+00 0. -1.
</event>
<event>
 7    1  0.4394360E-006  0.1588102E+03  0.7561462E-02  0.1190047E+00
          2   -1    0    0  501    0  0.00000000000E+00  0.00000000000E+00  0.54424321448E+03  0.54424321448E+03  0.00000000000E+00 0.  1.
         -2   -1    0    0    0  501 -0.00000000000E+00 -0.00000000000E+00 -0.56294548314E+02  0.56294548314E+02  0.00000000000E+00 0. -1.
         23    2    1    2    0    0 -0.12170951948E+03  0.33416273841E+02  0.16856942259E+03  0.24493764581E+03  0.12509574580E+03 0.  0.
          5    1    3    3  502    0 -0.37887937482E+02  0.62064807491E+02  0.26587382432E+02  0.77536426537E+02  0.41800000000E+01 0.  1.
         -5    1    3    3    0  502 -0.83821581994E+02 -0.28648533649E+02  0.14198204016E+03  0.16740121928E+03  0.41800000000E+01 0.  1.
        -11    1    1    2    0    0  0.13982063105E+02 -0.45594795097E+02  0.10713734427E+03  0.11727230690E+03  0.00000000000E+00 0.  1.
         11    1    1    2    0    0  0.10772745637E+03  0.12178521255E+02  0.21224189930E+03  0.23832781007E+03  0.00000000000E+00 0. -1.
</event>
<event>
 7    1  0.4394360E-006  0.1252513E+03  0.7561462E-02  0.1234677E+00
          2   -1    0    0  501    0  0.00000000000E+00  0.00000000000E+00  0.14702079784E+03  0.14702079784E+03  0.00000000000E+00 0. -1.
         -2   -1    0    0    0  501 -0.00000000000E+00 -0.00000000000E+00 -0.14343287835E+03  0.14343287835E+03  0.00000000000E+00 0.  1.
         23    2    1    2    0    0 -0.48373336023E+02  0.36084590207E+02 -0.68647781482E+02  0.15492488827E+03  0.12508847195E+03 0.  0.
          5    1    3    3  502    0 -0.84238344996E+00 -0.44512272000E+02 -0.28465270226E+02  0.53007508690E+02  0.41800000000E+01 0. -1.
         -5    1    3    3    0  502 -0.47530952573E+02  0.80596862208E+02 -0.40182511256E+02  0.10191737958E+03  0.41800000000E+01 0. -1.
        -11    1    1    2    0    0  0.75367038683E+02 -0.39199897579E+02  0.41638719925E+02  0.94607639687E+02  0.00000000000E+00 0.  1.
         11    1    1    2    0    0 -0.26993702660E+02  0.31153073719E+01  0.30596981041E+02  0.40921148226E+02  0.00000000000E+00 0. -1.
</event>
<event>
 7    1  0.4394360E-006  0.1035811E+03  0.7561462E-02  0.1272941E+00
         -1   -1    0    0    0  501 -0.00000000000E+00  0.00000000000E+00  0.11782764466E+03  0.11782764466E+03  0.00000000000E+00 0.  1.
          1   -1    0    0  501    0  0.00000000000E+00 -0.00000000000E+00 -0.13167696048E+03  0.13167696048E+03  0.00000000000E+00 0. -1.
         23    2    1    2    0    0 -0.55477261902E+02 -0.23936803305E+02  0.31815505168E+01  0.13895553436E+03  0.12509125119E+03 0.  0.
          5    1    3    3  502    0  0.27139275657E+02 -0.28403778149E+02  0.32418234850E+02  0.51105080443E+02  0.41800000000E+01 0.  1.
         -5    1    3    3    0  502 -0.82616537559E+02  0.44669748444E+01 -0.29236684333E+02  0.87850453916E+02  0.41800000000E+01 0.  1.
        -11    1    1    2    0    0  0.55356657932E+02  0.40285331175E+02  0.18941705180E+02  0.71035594460E+02  0.00000000000E+00 0.  1.
         11    1    1    2    0    0  0.12060396994E+00 -0.16348527870E+02 -0.35972571524E+02  0.39513476320E+02  0.00000000000E+00 0. -1.
</event>
<event>
 7    1  0.4394360E-006  0.1478005E+03  0.7561462E-02  0.1203202E+00
          1   -1    0    0  501    0  0.00000000000E+00  0.00000000000E+00  0.56930724585E+03  0.56930724585E+03  0.00000000000E+00 0. -1.
         -1   -1    0    0    0  501 -0.00000000000E+00 -0.00000000000E+00 -0.42941378296E+02  0.42941378296E+02  0.00000000000E+00 0.  1.
         23    2    1    2    0    0 -0.10973686489E+03 -0.21371800677E+02  0.24637243557E+03  0.29806883102E+03  0.12508684038E+03 0.  0.
          5    1    3    3  502    0 -0.65108014268E+02  0.50882049663E+02  0.12192992030E+03  0.14735132970E+03  0.41800000000E+01 0.  1.
         -5    1    3    3    0  502 -0.44628850618E+02 -0.72253850340E+02  0.12444251527E+03  0.15071750132E+03  0.41800000000E+01 0.  1.
        -11    1    1    2    0    0  0.12135945136E+02 -0.18728976830E+02  0.12308464410E+03  0.12509150791E+03  0.00000000000E+00 0. -1.
         11    1    1    2    0    0  0.97600919750E+02  0.40100777507E+02  0.15690878788E+03  0.18908828521E+03  0.00000000000E+00 0.  1.
</event>
<event>
 7    1  0.4394360E-006  0.1005547E+03  0.7561462E-02  0.1279134E+00
          1   -1    0    0  501    0  0.00000000000E+00  0.00000000000E+00  0.34211049805E+03  0.34211049805E+03  0.00000000000E+00 0. -1.
         -1   -1    0    0    0  501 -0.00000000000E+00 -0.00000000000E+00 -0.36671222304E+02  0.36671222304E+02  0.00000000000E+00 0.  1.
         23    2    1    2    0    0 -0.62393187635E+01 -0.14849780648E+02  0.13591386133E+03  0.18541677820E+03  0.12508940345E+03 0.  0.
          5    1    3    3  502    0 -0.59412851417E+02 -0.32670440099E+02  0.90349556667E+02  0.11303875158E+03  0.41800000000E+01 0. -1.
         -5    1    3    3    0  502  0.53173532653E+02  0.17820659451E+02  0.45564304661E+02  0.72378026620E+02  0.41800000000E+01 0. -1.
        -11    1    1    2    0    0 -0.19523641767E+02  0.37732188734E+02  0.14493338780E+03  0.15103171042E+03  0.00000000000E+00 0. -1.
         11    1    1    2    0    0  0.25762960530E+02 -0.22882408085E+02  0.24592026616E+02  0.42333231724E+02  0.00000000000E+00 0.  1.
</event>
<event>
 7    1  0.4394360E-006  0.1334032E+03  0.7561462E-02  0.1222492E+00
          1   -1    0    0  501    0  0.00000000000E+00  0.00000000000E+00  0.12259570132E+03  0.12259570132E+03  0.00000000000E+00 0. -1.
         -1   -1    0    0    0  501 -0.00000000000E+00 -0.00000000000E+00 -0.19955729119E+03  0.19955729119E+03  0.00000000000E+00 0.  1.
         23    2    1    2    0    0  0.52733869018E+02 -0.77919167474E+02 -0.10518106019E+03  0.18857999182E+03  0.12508836993E+03 0.  0.
          5    1    3    3  502    0  0.21010988888E+02  0.30510465427E+02 -0.51111825015E+02  0.63263269050E+02  0.41800000000E+01 0.  1.
         -5    1    3    3    0  502  0.31722880130E+02 -0.10842963290E+03 -0.54069235173E+02  0.12531672277E+03  0.41800000000E+01 0.  1.
        -11    1    1    2    0    0 -0.69511831367E+01  0.69594142582E+02  0.46051238953E+02  0.83739956042E+02  0.00000000000E+00 0. -1.
         11    1    1    2    0    0 -0.45782685881E+02  0.83250248916E+01 -0.17831768628E+02  0.49833044643E+02  0.00000000000E+00 0.  1.
</event>
<event>
 7    1  0.4394360E-006  0.1169711E+03  0.7561462E-02  0.1248179E+00
         -1   -1    0    0    0  501 -0.00000000000E+00  0.00000000000E+00  0.29920068281E+02  0.29920068281E+02  0.00000000000E+00 0.  1.
          1   -1    0    0  501    0  0.00000000000E+00 -0.00000000000E+00 -0.76082299967E+03  0.76082299967E+03  0.00000000000E+00 0. -1.
         23    2    1    2    0    0 -0.93664750097E+02 -0.50057281853E+02 -0.37761182301E+03  0.41171734434E+03  0.12506664574E+03 0.  0.
          5    1    3    3  502    0 -0.13691314464E+02  0.13298463113E+02  0.10121473839E+01  0.19565225663E+02  0.41800000000E+01 0.  1.
         -5    1    3    3    0  502 -0.79973435633E+02 -0.63355744967E+02 -0.37862397040E+03  0.39215211868E+03  0.41800000000E+01 0.  1.
        -11    1    1    2    0    0  0.43832475986E+02  0.43971973903E+02 -0.29776739946E+03  0.30417140664E+03  0.00000000000E+00 0. -1.
         11    1    1    2    0    0  0.49832274111E+02  0.60853079507E+01 -0.55523708920E+02  0.74854316964E+02  0.00000000000E+00 0.  1.
</event>
<event>
 7    1  0.4394360E-006  0.1485557E+03  0.7561462E-02  0.1202259E+00
         -2   -1    0    0    0  501 -0.00000000000E+00  0.00000000000E+00  0.37267575406E+02  0.37267575406E+02  0.00000000000E+00 0.  1.
          2   -1    0    0  501    0  0.00000000000E+00 -0.00000000000E+00 -0.78148486727E+03  0.78148486727E+03  0.00000000000E+00 0. -1.
         23    2    1    2    0    0 -0.72215741540E+02 -0.93444129048E+02 -0.26352687473E+03  0.31470704472E+03  0.12508873534E+03 0.  0.
          5    1    3    3  502    0 -0.61751951124E+02  0.51013044691E+01 -0.51694549583E+02  0.80803005089E+02  0.41800000000E+01 0. -1.
         -5    1    3    3    0  502 -0.10463790416E+02 -0.98545433517E+02 -0.21183232515E+03  0.23390403963E+03  0.41800000000E+01 0. -1.
        -11    1    1    2    0    0  0.56577788360E+02  0.10298428508E+03 -0.46593665143E+03  0.48052447623E+03  0.00000000000E+00 0.  1.
         11    1    1    2    0    0  0.15637953180E+02 -0.95401560298E+01 -0.14753765708E+02  0.23520921736E+02  0.00000000000E+00 0. -1.
</event>
<event>
 7    1  0.4394360E-006  0.1567837E+03  0.7561462E-02  0.1192376E+00
          1   -1    0    0  501    0  0.00000000000E+00  0.00000000000E+00  0.12356039616E+04  0.12356039616E+04  0.00000000000E+00 0. -1.
         -1   -1    0    0    0  501 -0.00000000000E+00 -0.00000000000E+00 -0.23774466197E+02  0.23774466197E+02  0.00000000000E+00 0.  1.
         23    2    1    2    0    0 -0.87768254700E+02 -0.99031880994E+02  0.73256316876E+03  0.75485511005E+03  0.12508741327E+03 0.  0.
          5    1    3    3  502    0 -0.14814648684E+01 -0.63366814636E+02  0.12571280134E+03  0.14085002221E+03  0.41800000000E+01 0.  1.
         -5    1    3    3    0  502 -0.86286789832E+02 -0.35665066358E+02  0.60685036742E+03  0.61400508784E+03  0.41800000000E+01 0.  1.
        -11    1    1    2    0    0  0.57128526352E+02  0.46075985454E+01  0.20423948736E+03  0.21212889168E+03  0.00000000000E+00 0.  1.
         11    1    1    2    0    0  0.30639728349E+02  0.94424282448E+02  0.27502683925E+03  0.29239442604E+03  0.00000000000E+00 0. -1.
</event>
<event>
 7    1  0.4394360E-006  0.1330008E+03  0.7561462E-02  0.1223070E+00
         -4   -1    0    0    0  501 -0.00000000000E+00  0.00000000000E+00  0.13584585046E+03  0.13584585046E+03  0.00000000000E+00 0. -1.
          4   -1    0    0  501    0  0.00000000000E+00 -0.00000000000E+00 -0.20213008296E+03  0.20213008296E+03  0.00000000000E+00 0.  1.
         23    2    1    2    0    0 -0.99042465534E+02  0.44638133120E+02  0.22158744248E+02  0.16716769754E+03  0.12510817818E+03 0.  0.
          5    1    3    3  502    0  0.58270969270E+01 -0.23936171745E+02  0.32929081743E+02  0.41336330278E+02  0.41800000000E+01 0.  1.
         -5    1    3    3    0  502 -0.10486956246E+03  0.68574304865E+02 -0.10770337495E+02  0.12583136727E+03  0.41800000000E+01 0.  1.
        -11    1    1    2    0    0  0.32980417154E+02 -0.36322017391E+02 -0.91856390354E+02  0.10413737711E+03  0.00000000000E+00 0.  1.
         11    1    1    2    0    0  0.66062048379E+02 -0.83161157290E+01  0.34134136056E+01  0.66670858771E+02  0.00000000000E+00 0. -1.
</event>
<event>
 7    1  0.4394360E-006  0.2715764E+03  0.7561462E-02  0.1100381E+00
          3   -1    0    0  501    0  0.00000000000E+00  0.00000000000E+00  0.79175578427E+03  0.79175578427E+03  0.00000000000E+00 0. -1.
         -3   -1    0    0    0  501 -0.00000000000E+00 -0.00000000000E+00 -0.10411593107E+03  0.10411593107E+03  0.00000000000E+00 0.  1.
         23    2    1    2    0    0 -0.25473095259E+03  0.15744052780E+02  0.47329021066E+03  0.55207493549E+03  0.12508947793E+03 0.  0.
          5    1    3    3  502    0 -0.41058837707E+02 -0.37440753123E+02  0.15756183658E+03  0.16712523117E+03  0.41800000000E+01 0. -1.
         -5    1    3    3    0  502 -0.21367211488E+03  0.53184805904E+02  0.31572837409E+03  0.38494970432E+03  0.41800000000E+01 0. -1.
        -11    1    1    2    0    0  0.90575567825E+02 -0.43886226164E+02  0.62916511901E+02  0.11869465786E+03  0.00000000000E+00 0. -1.
         11    1    1    2    0    0  0.16415538476E+03  0.28142173384E+02  0.15143313064E+03  0.22510212199E+03  0.00000000000E+00 0.  1.
</event>
<event>
 7    1  0.4394360E-006  0.2270284E+03  0.7561462E-02  0.1128749E+00
          2   -1    0    0  501    0  0.00000000000E+00  0.00000000000E+00  0.96686856537E+03  0.96686856537E+03  0.00000000000E+00 0. -1.
         -2   -1    0    0    0  501 -0.00000000000E+00 -0.00000000000E+00 -0.54415121562E+02  0.54415121562E+02  0.00000000000E+00 0.  1.
         23    2    1    2    0    0 -0.19278459467E+03 -0.58531196534E+02  0.49088169928E+03  0.54516538416E+03  0.12509457416E+03 0.  0.
          5    1    3    3  502    0  0.75298917143E+01 -0.32459579572E+02  0.50513148168E+02  0.60657844613E+02  0.41800000000E+01 0.  1.
         -5    1    3    3    0  502 -0.20031448639E+03 -0.26071616961E+02  0.44036855112E+03  0.48450753955E+03  0.41800000000E+01 0.  1.
        -11    1    1    2    0    0  0.90156346943E+02  0.71386510620E+02  0.25973086678E+03  0.28404986173E+03  0.00000000000E+00 0.  1.
         11    1    1    2    0    0  0.10262824773E+03 -0.12855314087E+02  0.16184087775E+03  0.19206844104E+03  0.00000000000E+00 0. -1.
</event>
<event>
 7    1  0.4394360E-006  0.1442646E+03  0.7561462E-02  0.1207703E+00
          1   -1    0    0  501    0  0.00000000000E+00  0.00000000000E+00  0.24512619049E+03  0.24512619049E+03  0.00000000000E+00 0. -1.
         -1   -1    0    0    0  501 -0.00000000000E+00 -0.00000000000E+00 -0.11926739345E+03  0.11926739345E+03  0.00000000000E+00 0.  1.
         23    2    1    2    0    0  0.88325073671E+01 -0.11630479313E+03  0.12819494102E+01  0.17103923732E+03  0.12509180316E+03 0.  0.
          5    1    3    3  502    0 -0.16047914704E+01 -0.13719413455E+03  0.22636017978E+02  0.13912105384E+03  0.41800000000E+01 0. -1.
         -5    1    3    3    0  502  0.10437298837E+02  0.20889341427E+02 -0.21354068568E+02  0.31918183480E+02  0.41800000000E+01 0. -1.
        -11    1    1    2    0    0 -0.24614426780E+02  0.25760322478E+02 -0.34022346369E+01  0.35791611034E+02  0.00000000000E+00 0.  1.
         11    1    1    2    0    0  0.15781919413E+02  0.90544470649E+02  0.12797908227E+03  0.15756273558E+03  0.00000000000E+00 0. -1.
</event>
<event>
 7    1  0.4394360E-006  0.8777429E+02  0.7561462E-02  0.1308333E+00
         -1   -1    0    0    0  501 -0.00000000000E+00  0.00000000000E+00  0.13424980119E+03  0.13424980119E+03  0.00000000000E+00 0.  1.
          1   -1    0    0  501    0  0.00000000000E+00 -0.00000000000E+00 -0.99181974131E+02  0.99181974131E+02  0.00000000000E+00 0. -1.
         23    2    1    2    0    0  0.13159752468E+02 -0.10993161977E+02  0.55404140681E+02  0.13788286048E+03  0.12509210892E+03 0.  0.
          5    1    3    3  502    0 -0.12308674125E+02  0.40069385431E+02  0.67345811809E+02  0.79435444707E+02  0.41800000000E+01 0.  1.
         -5    1    3    3    0  502  0.25468426593E+02 -0.51062547407E+02 -0.11941671128E+02  0.58447415770E+02  0.41800000000E+01 0.  1.
        -11    1    1    2    0    0  0.23806647515E+02  0.26938169393E+02 -0.37352025935E+02  0.51842022314E+02  0.00000000000E+00 0. -1.
         11    1    1    2    0    0 -0.36966399983E+02 -0.15945007416E+02  0.17015712312E+02  0.43706892530E+02  0.00000000000E+00 0.  1.
</event>
<event>
 7    1  0.4394360E-006  0.1254323E+03  0.7561462E-02  0.1234395E+00
         -1   -1    0    0    0  501 -0.00000000000E+00  0.00000000000E+00  0.25907814928E+02  0.25907814928E+02  0.00000000000E+00 0.  1.
          1   -1    0    0  501    0  0.00000000000E+00 -0.00000000000E+00 -0.74018188303E+03  0.74018188303E+03  0.00000000000E+00 0. -1.
         23    2    1    2    0    0  0.49190054754E+02 -0.68596512197E+02 -0.25069323848E+03  0.28671878383E+03  0.11061382465E+03 0.  0.
          5    1    3    3  502    0  0.63454790204E+02 -0.87708970253E+02 -0.16280530968E+03  0.19555668007E+03  0.41800000000E+01 0. -1.
         -5    1    3    3    0  502 -0.14264735450E+02  0.19112458056E+02 -0.87887928808E+02  0.91162103753E+02  0.41800000000E+01 0.  1.
        -11    1    1    2    0    0  0.21315661363E+02  0.21340574868E+01 -0.46715460909E+02  0.51393053116E+02  0.00000000000E+00 0. -1.
         11    1    1    2    0    0 -0.70505716117E+02  0.66462454710E+02 -0.41686536871E+03  0.42797786102E+03  0.00000000000E+00 0.  1.
</event>
<event>
 7    1  0.4394360E-006  0.9998743E+02  0.7561462E-02  0.1280322E+00
          2   -1    0    0  501    0  0.00000000000E+00  0.00000000000E+00  0.88315956817E+03  0.88315956817E+03  0.00000000000E+00 0. -1.
         -2   -1    0    0    0  501 -0.00000000000E+00 -0.00000000000E+00 -0.17076756835E+02  0.17076756835E+02  0.00000000000E+00 0.  1.
         23    2    1    2    0    0  0.54430728841E+02 -0.18644691945E+02  0.46509668954E+03  0.48504013603E+03  0.12505468469E+03 0.  0.
          5    1    3    3  502    0 -0.14552937648E+02 -0.17545231485E+02  0.35012576804E+03  0.35089193348E+03  0.41800000000E+01 0. -1.
         -5    1    3    3    0  502  0.68983666488E+02 -0.10994604602E+01  0.11497092150E+03  0.13414820255E+03  0.41800000000E+01 0. -1.
        -11    1    1    2    0    0 -0.37553493214E+02  0.55576800306E+02  0.25294181316E+03  0.26168417306E+03  0.00000000000E+00 0. -1.
         11    1    1    2    0    0 -0.16877235627E+02 -0.36932108361E+02  0.14804430863E+03  0.15351201591E+03  0.00000000000E+00 0.  1.
</event>
<event>
 7    1  0.4394360E-006  0.1050538E+03  0.7561462E-02  0.1270014E+00
         -1   -1    0    0    0  501 -0.00000000000E+00  0.00000000000E+00  0.29855058422E+03  0.29855058422E+03  0.00000000000E+00 0.  1.
          1   -1    0    0  501    0  0.00000000000E+00 -0.00000000000E+00 -0.45046415886E+02  0.45046415886E+02  0.00000000000E+00 0. -1.
         23    2    1    2    0    0 -0.24735491491E+01 -0.89695840173E+01  0.19283239298E+03  0.23004066254E+03  0.12509117777E+03 0.  0.
          5    1    3    3  502    0  0.30554097576E+02 -0.57648993255E+02  0.86233344374E+02  0.10821562449E+03  0.41800000000E+01 0. -1.
         -5    1    3    3    0  502 -0.33027646725E+02  0.48679409238E+02  0.10659904861E+03  0.12182503805E+03  0.41800000000E+01 0. -1.
        -11    1    1    2    0    0  0.36690281262E+01 -0.38297012399E+02  0.53252742788E+02  0.65696099888E+02  0.00000000000E+00 0.  1.
         11    1    1    2    0    0 -0.11954789771E+01  0.47266596416E+02  0.74190325707E+01  0.47860237682E+02  0.00000000000E+00 0. -1.
</event>
<event>
 7    1  0.4394360E-006  0.1359359E+03  0.7561462E-02  0.1218905E+00
         -1   -1    0    0    0  501 -0.00000000000E+00  0.00000000000E+00  0.29122492399E+03  0.29122492399E+03  0.00000000000E+00 0.  1.
          1   -1    0    0  501    0  0.00000000000E+00 -0.00000000000E+00 -0.11795043454E+03  0.11795043454E+03  0.00000000000E+00 0. -1.
         23    2    1    2    0    0  0.98137762641E+02  0.11219020299E+02  0.21578050660E+03  0.26826156659E+03  0.12508458821E+03 0.  0.
          5    1    3    3  502    0  0.10527271688E+03 -0.26540830213E+02  0.10565633900E+03  0.15155030504E+03  0.41800000000E+01 0.  1.
         -5    1    3    3    0  502 -0.71349542371E+01  0.37759850512E+02  0.11012416760E+03  0.11671126155E+03  0.41800000000E+01 0.  1.
        -11    1    1    2    0    0 -0.94404710042E+02  0.17155420404E+02 -0.53965780353E+02  0.11008570832E+03  0.00000000000E+00 0. -1.
         11    1    1    2    0    0 -0.37330525989E+01 -0.28374440702E+02  0.11459763212E+02  0.30828083621E+02  0.00000000000E+00 0.  1.
</event>
<event>
 7    1  0.4394360E-006  0.1058714E+03  0.7561462E-02  0.1268412E+00
         -1   -1    0    0    0  501 -0.00000000000E+00  0.00000000000E+00  0.30747820717E+03  0.30747820717E+03  0.00000000000E+00 0.  1.
          1   -1    0    0  501    0  0.00000000000E+00 -0.00000000000E+00 -0.46682481755E+02  0.46682481755E+02  0.00000000000E+00 0. -1.
         23    2    1    2    0    0 -0.32781278152E+02  0.27769709773E+02  0.19034691869E+03  0.23178660331E+03  0.12508921232E+03 0.  0.
          5    1    3    3  502    0 -0.31736461674E+02  0.74184439273E+02  0.14891114143E+03  0.16941822355E+03  0.41800000000E+01 0. -1.
         -5    1    3    3    0  502 -0.10448164783E+01 -0.46414729499E+02  0.41435777263E+02  0.62368379756E+02  0.41800000000E+01 0. -1.
        -11    1    1    2    0    0 -0.20830255046E+02 -0.22184021823E+02  0.60274246955E+02  0.67520479823E+02  0.00000000000E+00 0.  1.
         11    1    1    2    0    0  0.53611533198E+02 -0.55856879504E+01  0.10174559763E+02  0.54853605790E+02  0.00000000000E+00 0. -1.
</event>
<event>
 7    1  0.4394360E-006  0.1269242E+03  0.7561462E-02  0.1232092E+00
          2   -1    0    0  501    0  0.00000000000E+00  0.00000000000E+00  0.44208137132E+03  0.44208137132E+03  0.00000000000E+00 0. -1.
         -2   -1    0    0    0  501 -0.00000000000E+00 -0.00000000000E+00 -0.72343905393E+02  0.72343905393E+02  0.00000000000E+00 0.  1.
         23    2    1    2    0    0 -0.65919662842E+02 -0.91556269479E+02  0.56028317594E+02  0.17752425079E+03  0.12509090621E+03 0.  0.
          5    1    3    3  502    0 -0.76510382534E+02 -0.54900466484E+02  0.86945610608E+02  0.12823771465E+03  0.41800000000E+01 0.  1.
         -5    1    3    3    0  502  0.10590719692E+02 -0.36655802996E+02 -0.30917293014E+02  0.49286536135E+02  0.41800000000E+01 0.  1.
        -11    1    1    2    0    0 -0.66784839117E+01  0.98817782494E+01  0.50900377837E+02  0.52279060366E+02  0.00000000000E+00 0.  1.
         11    1    1    2    0    0  0.72598146753E+02  0.81674491230E+02  0.26280877050E+03  0.28462196556E+03  0.00000000000E+00 0. -1.
</event>
<event>
 7    1  0.4394360E-006  0.1238215E+03  0.7561462E-02  0.1236923E+00
         -2   -1    0    0    0  501 -0.00000000000E+00  0.00000000000E+00  0.63342038205E+02  0.63342038205E+02  0.00000000000E+00 0.  1.
          2   -1    0    0  501    0  0.00000000000E+00 -0.00000000000E+00 -0.31210467525E+03  0.31210467525E+03  0.00000000000E+00 0. -1.
         23    2    1    2    0    0  0.74364535021E+02 -0.26856348296E+02 -0.79950508502E+02  0.16820312127E+03  0.12509539833E+03 0.  0.
          5    1    3    3  502    0  0.86982172409E+02 -0.64085664459E+02 -0.53455340644E+02  0.12061432978E+03  0.41800000000E+01 0. -1.
         -5    1    3    3    0  502 -0.12617637387E+02  0.37229316163E+02 -0.26495167858E+02  0.47588791485E+02  0.41800000000E+01 0. -1.
        -11    1    1    2    0    0 -0.69423733432E+01 -0.17809702733E+02  0.10155270185E+01  0.19141926606E+02  0.00000000000E+00 0.  1.
         11    1    1    2    0    0 -0.67422161678E+02  0.44666051029E+02 -0.16982765556E+03  0.18810166558E+03  0.00000000000E+00 0. -1.
</event>
<event>
 7    1  0.4394360E-006  0.4646108E+03  0.7561462E-02  0.1023452E+00
         -2   -1    0    0    0  501 -0.00000000000E+00  0.00000000000E+00  0.10964481125E+03  0.10964481125E+03  0.00000000000E+00 0. -1.
          2   -1    0    0  501    0  0.00000000000E+00 -0.00000000000E+00 -0.28754982791E+04  0.28754982791E+04  0.00000000000E+00 0.  1.
         23    2    1    2    0    0  0.43362036572E+03 -0.13119563379E+03 -0.55836345276E+03  0.72983264217E+03  0.12508806619E+03 0.  0.
          5    1    3    3  502    0  0.23272571009E+03 -0.98762375123E+01 -0.24216736389E+03  0.33603764780E+03  0.41800000000E+01 0. -1.
         -5    1    3    3    0  502  0.20089465563E+03 -0.12131939628E+03 -0.31619608886E+03  0.39379499436E+03  0.41800000000E+01 0. -1.
        -11    1    1    2    0    0 -0.33792489938E+03  0.13925353011E+03 -0.17868919643E+04  0.18238880654E+04  0.00000000000E+00 0.  1.
         11    1    1    2    0    0 -0.95695466341E+02 -0.80578963190E+01 -0.42059805087E+03  0.43142238279E+03  0.00000000000E+00 0. -1.
</event>
<event>
 7    1  0.4394360E-006  0.2165106E+03  0.7561462E-02  0.1136512E+00
         -1   -1    0    0    0  501 -0.00000000000E+00  0.00000000000E+00  0.14623977696E+03  0.14623977696E+03  0.00000000000E+00 0.  1.
          1   -1    0    0  501    0  0.00000000000E+00 -0.00000000000E+00 -0.42601479979E+03  0.42601479979E+03  0.00000000000E+00 0. -1.
         23    2    1    2    0    0 -0.41499710876E+02  0.20560390610E+03 -0.53893896858E+02  0.25009444386E+03  0.12508991375E+03 0.  0.
          5    1    3    3  502    0 -0.42658690282E+02  0.46106077010E+02 -0.64572104676E+02  0.90180725746E+02  0.41800000000E+01 0.  1.
         -5    1    3    3    0  502  0.11589794059E+01  0.15949782909E+03  0.10678207817E+02  0.15991371811E+03  0.41800000000E+01 0.  1.
        -11    1    1    2    0    0  0.33518038720E+02 -0.12176790526E+03 -0.19527086980E+03  0.23255449741E+03  0.00000000000E+00 0. -1.
         11    1    1    2    0    0  0.79816721569E+01 -0.83836000839E+02 -0.30610256168E+02  0.89605635480E+02  0.00000000000E+00 0.  1.
</event>
<event>
 7    1  0.4394360E-006  0.3079317E+03  0.7561462E-02  0.1081341E+00
          1   -1    0    0  501    0  0.00000000000E+00  0.00000000000E+00  0.10084781934E+04  0.10084781934E+04  0.00000000000E+00 0. -1.
         -1   -1    0    0    0  501 -0.00000000000E+00 -0.00000000000E+00 -0.10167372988E+03  0.10167372988E+03  0.00000000000E+00 0.  1.
         23    2    1    2    0    0  0.17984023198E+03 -0.24048528038E+03  0.43518327046E+03  0.54333224512E+03  0.12509904312E+03 0.  0.
          5    1    3    3  502    0  0.10403869056E+03 -0.91049508515E+02  0.10717732474E+03  0.17498146608E+03  0.41800000000E+01 0.  1.
         -5    1    3    3    0  502  0.75801541418E+02 -0.14943577186E+03  0.32800594572E+03  0.36835077904E+03  0.41800000000E+01 0.  1.
        -11    1    1    2    0    0 -0.16322944038E+03  0.16297053593E+03  0.30592668182E+03  0.38313754768E+03  0.00000000000E+00 0.  1.
         11    1    1    2    0    0 -0.16610791601E+02  0.77514744446E+02  0.16569451126E+03  0.18368213050E+03  0.00000000000E+00 0. -1.
</event>
<event>
 7    1  0.4394360E-006  0.8484191E+02  0.7561462E-02  0.1315846E+00
         -1   -1    0    0    0  501 -0.00000000000E+00  0.00000000000E+00  0.61035974221E+02  0.61035974221E+02  0.00000000000E+00 0.  1.
          1   -1    0    0  501    0  0.00000000000E+00 -0.00000000000E+00 -0.19532401145E+03  0.19532401145E+03  0.00000000000E+00 0. -1.
         23    2    1    2    0    0 -0.85810561055E+01  0.14053505372E+01 -0.59798493021E+02  0.13892678845E+03  0.12509669559E+03 0.  0.
          5    1    3    3  502    0  0.52910657561E+02 -0.14855257957E+01 -0.13457271259E+00  0.53096468623E+02  0.41800000000E+01 0.  1.
         -5    1    3    3    0  502 -0.61491713666E+02  0.28908763329E+01 -0.59663920308E+02  0.85830319830E+02  0.41800000000E+01 0.  1.
        -11    1    1    2    0    0  0.14533474277E+01 -0.27651350884E+02  0.94028985450E+01  0.29242502039E+02  0.00000000000E+00 0.  1.
         11    1    1    2    0    0  0.71277086777E+01  0.26246000347E+02 -0.83892442750E+02  0.88190695177E+02  0.00000000000E+00 0. -1.
</event>
<event>
 7    1  0.4394360E-006  0.1273243E+03  0.7561462E-02  0.1231481E+00
          3   -1    0    0  501    0  0.00000000000E+00  0.00000000000E+00  0.78741403747E+02  0.78741403747E+02  0.00000000000E+00 0. -1.
         -3   -1    0    0    0  501 -0.00000000000E+00 -0.00000000000E+00 -0.25012125661E+03  0.25012125661E+03  0.00000000000E+00 0.  1.
         23    2    1    2    0    0 -0.46577945531E+02  0.61905183520E+02 -0.13229911633E+03  0.19787031685E+03  0.12509136402E+03 0.  0.
          5    1    3    3  502    0 -0.71567888525E+02  0.78309758202E+01 -0.11492552360E+03  0.13567842579E+03  0.41800000000E+01 0. -1.
         -5    1    3    3    0  502  0.24989942994E+02  0.54074207700E+02 -0.17373592729E+02  0.62191891059E+02  0.41800000000E+01 0. -1.
        -11    1    1    2    0    0 -0.21881308012E+02 -0.48290304482E+02 -0.29113816260E+02  0.60484373556E+02  0.00000000000E+00 0.  1.
         11    1    1    2    0    0  0.68459253543E+02 -0.13614879038E+02 -0.99669202733E+01  0.70507969951E+02  0.00000000000E+00 0. -1.
</event>
<event>
 7    1  0.4394360E-006  0.1351353E+03  0.7561462E-02  0.1220029E+00
         -2   -1    0    0    0  501 -0.00000000000E+00  0.00000000000E+00  0.63757049539E+03  0.63757049539E+03  0.00000000000E+00 0.  1.
          2   -1    0    0  501    0  0.00000000000E+00 -0.00000000000E+00 -0.36977728186E+02  0.36977728186E+02  0.00000000000E+00 0. -1.
         23    2    1    2    0    0  0.90078023679E+02  0.58103673969E+02  0.35612759928E+03  0.39238264211E+03  0.12508870285E+03 0.  0.
          5    1    3    3  502    0  0.10780660187E+03  0.15678654888E+02  0.30289332844E+03  0.32191602079E+03  0.41800000000E+01 0.  1.
         -5    1    3    3    0  502 -0.17728578191E+02  0.42425019081E+02  0.53234270837E+02  0.70466621320E+02  0.41800000000E+01 0.  1.
        -11    1    1    2    0    0 -0.18962956362E+02  0.54224076317E+01 -0.40818394744E-01  0.19723029297E+02  0.00000000000E+00 0. -1.
         11    1    1    2    0    0 -0.71115067317E+02 -0.63526081601E+02  0.24450598632E+03  0.26244255217E+03  0.00000000000E+00 0.  1.
</event>
<event>
 6    1  0.4394360E-006  0.2326209E+03  0.7561462E-02  0.1124809E+00
         -2   -1    0    0    0  501 -0.00000000000E+00  0.00000000000E+00  0.77011152687E+02  0.77011152687E+02  0.00000000000E+00 0.  1.
          2   -1    0    0  501    0  0.00000000000E+00 -0.00000000000E+00 -0.11515742982E+04  0.11515742982E+04  0.00000000000E+00 0. -1.
          5    1    1    2  502    0 -0.55011660670E+01 -0.31718426183E+02 -0.37114759796E+02  0.49308206034E+02  0.41800000000E+01 0. -1.
         -5    1    1    2    0  502  0.16057458690E+03  0.12998353163E+03 -0.25880904280E+03  0.33117896897E+03  0.41800000000E+01 0.  1.
        -11    1    1    2    0    0 -0.13030356239E+02  0.31289759170E+02  0.10810238486E+02  0.35576684342E+02  0.00000000000E+00 0.  1.
         11    1    1    2    0    0 -0.14204306460E+03 -0.12955486461E+03 -0.78944958143E+03  0.81252159157E+03  0.00000000000E+00 0. -1.
</event>
<event>
 7    1  0.4394360E-006  0.9168637E+02  0.7561462E-02  0.1298819E+00
         -1   -1    0    0    0  501 -0.00000000000E+00  0.00000000000E+00  0.25515943373E+02  0.25515943373E+02  0.00000000000E+00 0.  1.
          1   -1    0    0  501    0  0.00000000000E+00 -0.00000000000E+00 -0.75725487417E+03  0.75725487417E+03  0.00000000000E+00 0. -1.
         23    2    1    2    0    0 -0.80566507227E+02  0.26584990362E+02 -0.32914523446E+03  0.36218925939E+03  0.12508697156E+03 0.  0.
          5    1    3    3  502    0 -0.61005951743E+02  0.34377598443E+02 -0.33306108359E+03  0.34036848154E+03  0.41800000000E+01 0. -1.
         -5    1    3    3    0  502 -0.19560555485E+02 -0.77926080812E+01  0.39158491365E+01  0.21820777851E+02  0.41800000000E+01 0. -1.
        -11    1    1    2    0    0  0.62125331161E+02 -0.35194240010E+01 -0.37512254165E+03  0.38024842455E+03  0.00000000000E+00 0. -1.
         11    1    1    2    0    0  0.18441176066E+02 -0.23065566361E+02 -0.27471154696E+02  0.40333133608E+02  0.00000000000E+00 0.  1.
</event>
<event>
 7    1  0.4394360E-006  0.1037430E+03  0.7561462E-02  0.1272616E+00
          3   -1    0    0  501    0  0.00000000000E+00  0.00000000000E+00  0.14993178118E+03  0.14993178118E+03  0.00000000000E+00 0. -1.
         -3   -1    0    0    0  501 -0.00000000000E+00 -0.00000000000E+00 -0.97120272485E+02  0.97120272485E+02  0.00000000000E+00 0.  1.
         23    2    1    2    0    0  0.77175431812E+01 -0.19223171849E+02 -0.18371435478E+02  0.12871825012E+03  0.12570516085E+03 0.  0.
          5    1    3    3  502    0  0.36468019889E+02  0.44308371316E+02 -0.78441196371E+01  0.58070223490E+02  0.41800000000E+01 0. -1.
         -5    1    3    3    0  502 -0.28750476708E+02 -0.63531543165E+02 -0.10527315841E+02  0.70648026629E+02  0.41800000000E+01 0.  1.
        -11    1    1    2    0    0 -0.29442636184E+02 -0.19761273114E+02  0.13838852197E+01  0.35486502770E+02  0.00000000000E+00 0.  1.
         11    1    1    2    0    0  0.21725093003E+02  0.38984444963E+02  0.69799058954E+02  0.82847300776E+02  0.00000000000E+00 0. -1.
</event>
<event>
 7    1  0.4394360E-006  0.2095225E+03  0.7561462E-02  0.1141945E+00
          2   -1    0    0  501    0  0.00000000000E+00  0.00000000000E+00  0.68146521790E+03  0.68146521790E+03  0.00000000000E+00 0. -1.
         -2   -1    0    0    0  501 -0.00000000000E+00 -0.00000000000E+00 -0.71844607786E+02  0.71844607786E+02  0.00000000000E+00 0.  1.
         23    2    1    2    0    0  0.18722551941E+02  0.18318689174E+03  0.21990511348E+03  0.31291153370E+03  0.12508955884E+03 0.  0.
          5    1    3    3  502    0 -0.32885967738E+02  0.10343462656E+02  0.10046062675E+02  0.36150655168E+02  0.41800000000E+01 0. -1.
         -5    1    3    3    0  502  0.51608519679E+02  0.17284342908E+03  0.20985905081E+03  0.27676087853E+03  0.41800000000E+01 0. -1.
        -11    1    1    2    0    0  0.33417745722E+02 -0.10257745359E+03  0.18204281292E+03  0.21160922817E+03  0.00000000000E+00 0.  1.
         11    1    1    2    0    0 -0.52140297663E+02 -0.80609438149E+02  0.20767268371E+03  0.22878906381E+03  0.00000000000E+00 0. -1.
</event>
<event>
 6    1  0.4394360E-006  0.1794706E+03  0.7561462E-02  0.1168316E+00
          2   -1    0    0  501    0  0.00000000000E+00  0.00000000000E+00  0.82558638534E+02  0.82558638534E+02  0.00000000000E+00 0. -1.
         -2   -1    0    0    0  501 -0.00000000000E+00 -0.00000000000E+00 -0.48660460714E+03  0.48660460714E+03  0.00000000000E+00 0.  1.
          5    1    1    2  502    0  0.10365764104E+03  0.92971672724E+01 -0.57847246606E+02  0.11914327595E+03  0.41800000000E+01 0. -1.
         -5    1    1    2    0  502 -0.11593964862E+03 -0.79157574723E+02 -0.28713182514E+03  0.31964054994E+03  0.41800000000E+01 0.  1.
        -11    1    1    2    0    0  0.42141723279E+02  0.73022046425E+02 -0.32733155039E+02  0.90441160673E+02  0.00000000000E+00 0. -1.
         11    1    1    2    0    0 -0.29859715692E+02 -0.31616389750E+01 -0.26333741824E+02  0.39938259109E+02  0.00000000000E+00 0.  1.
</event>
<event>
 7    1  0.4394360E-006  0.1241845E+03  0.7561462E-02  0.1236349E+00
         -1   -1    0    0    0  501 -0.00000000000E+00  0.00000000000E+00  0.12253088045E+03  0.12253088045E+03  0.00000000000E+00 0.  1.
          1   -1    0    0  501    0  0.00000000000E+00 -0.00000000000E+00 -0.22156765615E+03  0.22156765615E+03  0.00000000000E+00 0. -1.
         23    2    1    2    0    0  0.86393396097E+02 -0.63182991080E+02  0.16224234491E+02  0.16542995493E+03  0.12509170617E+03 0.  0.
          5    1    3    3  502    0  0.62280187551E+02 -0.14104841984E+02  0.65594298384E+02  0.91639798719E+02  0.41800000000E+01 0. -1.
         -5    1    3    3    0  502  0.24113208546E+02 -0.49078149095E+02 -0.49370063893E+02  0.73790156212E+02  0.41800000000E+01 0. -1.
        -11    1    1    2    0    0 -0.56600476936E+02  0.77909966764E+02 -0.10791036948E+03  0.14463134084E+03  0.00000000000E+00 0.  1.
         11    1    1    2    0    0 -0.29792919161E+02 -0.14726975684E+02 -0.73506407150E+01  0.34037240838E+02  0.00000000000E+00 0. -1.
</event>
<event>
 7    1  0.4394360E-006  0.9023664E+02  0.7561462E-02  0.1302280E+00
          1   -1    0    0  501    0  0.00000000000E+00  0.00000000000E+00  0.11019267923E+02  0.11019267923E+02  0.00000000000E+00 0. -1.
         -1   -1    0    0    0  501 -0.00000000000E+00 -0.00000000000E+00 -0.11949686951E+04  0.11949686951E+04  0.00000000000E+00 0.  1.
         23    2    1    2    0    0 -0.14906046587E+02  0.56856493630E+01 -0.85319272505E+03  0.86246194311E+03  0.12509300701E+03 0.  0.
          5    1    3    3  502    0 -0.51867056854E+02  0.14653568873E+02 -0.75716020582E+03  0.75908758938E+03  0.41800000000E+01 0. -1.
         -5    1    3    3    0  502  0.36961010267E+02 -0.89679195096E+01 -0.96032519231E+02  0.10337435373E+03  0.41800000000E+01 0. -1.
        -11    1    1    2    0    0 -0.60179784195E+01 -0.44046324772E+02 -0.22029260963E+03  0.22473346134E+03  0.00000000000E+00 0.  1.
         11    1    1    2    0    0  0.20924025007E+02  0.38360675409E+02 -0.11046409251E+03  0.11879255858E+03  0.00000000000E+00 0. -1.
</event>
<event>
 7    1  0.4394360E-006  0.1427174E+03  0.7561462E-02  0.1209719E+00
          3   -1    0    0  501    0  0.00000000000E+00  0.00000000000E+00  0.97087160702E+03  0.97087160702E+03  0.00000000000E+00 0. -1.
         -3   -1    0    0    0  501 -0.00000000000E+00 -0.00000000000E+00 -0.23436172221E+02  0.23436172221E+02  0.00000000000E+00 0.  1.
         23    2    1    2    0    0  0.10263522223E+03  0.17472777798E+02  0.53491758863E+03  0.55912723374E+03  0.12508856893E+03 0.  0.
          5    1    3    3  502    0  0.92795267560E+02 -0.31153874733E+02  0.22744035603E+03  0.24764513632E+03  0.41800000000E+01 0. -1.
         -5    1    3    3    0  502  0.98399546718E+01  0.48626652531E+02  0.30747723260E+03  0.31148209742E+03  0.41800000000E+01 0. -1.
        -11    1    1    2    0    0 -0.10944256416E+03 -0.38151616308E+02  0.36388522943E+03  0.38189747429E+03  0.00000000000E+00 0. -1.
         11    1    1    2    0    0  0.68073419289E+01  0.20678838510E+02  0.48632616739E+02  0.53283071206E+02  0.00000000000E+00 0.  1.
</event>
<event>
 7    1  0.4394360E-006  0.9861400E+02  0.7561462E-02  0.1283238E+00
         -3   -1    0    0    0  501 -0.00000000000E+00  0.00000000000E+00  0.91935770146E+02  0.91935770146E+02  0.00000000000E+00 0.  1.
          3   -1    0    0  501    0  0.00000000000E+00 -0.00000000000E+00 -0.24944700229E+03  0.24944700229E+03  0.00000000000E+00 0. -1.
         23    2    1    2    0    0  0.16858916492E+02  0.52376706403E+01  0.31561372248E+02  0.13021343687E+03  0.12509101752E+03 0.  0.
          5    1    3    3  502    0  0.72678444555E+01  0.63680718346E+02  0.29268489802E+01  0.64296922921E+02  0.41800000000E+01 0. -1.
         -5    1    3    3    0  502  0.95910720369E+01 -0.58443047706E+02  0.28634523268E+02  0.65916513946E+02  0.41800000000E+01 0. -1.
        -11    1    1    2    0    0 -0.15143231285E+02 -0.37954432569E+02 -0.16635840009E+03  0.17130374685E+03  0.00000000000E+00 0. -1.
         11    1    1    2    0    0 -0.17156852072E+01  0.32716761929E+02 -0.22714204307E+02  0.39865588722E+02  0.00000000000E+00 0.  1.
</event>
<event>
 7    1  0.4394360E-006  0.1142399E+03  0.7561462E-02  0.1252914E+00
          2   -1    0    0  501    0  0.00000000000E+00  0.00000000000E+00  0.32329217009E+03  0.32329217009E+03  0.00000000000E+00 0. -1.
         -2   -1    0    0    0  501 -0.00000000000E+00 -0.00000000000E+00 -0.96941476958E+02  0.96941476958E+02  0.00000000000E+00 0.  1.
         23    2    1    2    0    0  0.24569956837E+02 -0.90175670404E+02 -0.33491375230E+01  0.15618402834E+03  0.12508756803E+03 0.  0.
          5    1    3    3  502    0  0.17834771917E+02 -0.98273114951E+01  0.53528281347E+02  0.57423030610E+02  0.41800000000E+01 0.  1.
         -5    1    3    3    0  502  0.67351849207E+01 -0.80348358909E+02 -0.56877418870E+02  0.98760997730E+02  0.41800000000E+01 0.  1.
        -11    1    1    2    0    0 -0.12087265381E+02  0.10606273617E+03  0.16725805698E+03  0.19842042136E+03  0.00000000000E+00 0.  1.
         11    1    1    2    0    0 -0.12482691456E+02 -0.15887065768E+02  0.62441773675E+02  0.65629197347E+02  0.00000000000E+00 0. -1.
</event>
<event>
 7    1  0.4394360E-006  0.6581755E+02  0.7561462E-02  0.1374922E+00
          3   -1    0    0  501    0  0.00000000000E+00  0.00000000000E+00  0.11468950760E+03  0.11468950760E+03  0.00000000000E+00 0. -1.
         -3   -1    0    0    0  501 -0.00000000000E+00 -0.00000000000E+00 -0.11185066991E+03  0.11185066991E+03  0.00000000000E+00 0.  1.
         23    2    1    2    0    0 -0.29548766583E+02 -0.51279342580E+01 -0.13288963786E+02  0.12931844256E+03  0.12508891922E+03 0.  0.
          5    1    3    3  502    0 -0.13193880112E+02 -0.35070958513E+02 -0.60278428614E+02  0.71098607297E+02  0.41800000000E+01 0.  1.
         -5    1    3    3    0  502 -0.16354886471E+02  0.29943024255E+02  0.46989464827E+02  0.58219835261E+02  0.41800000000E+01 0.  1.
        -11    1    1    2    0    0  0.34255205821E+02 -0.16075014500E+02 -0.28645037755E+02  0.47459070840E+02  0.00000000000E+00 0.  1.
         11    1    1    2    0    0 -0.47064392381E+01  0.21202948758E+02  0.44772839235E+02  0.49762664112E+02  0.00000000000E+00 0. -1.
</event>
<event>
 7    1  0.4394360E-006  0.1443229E+03  0.7561462E-02  0.1207628E+00
          1   -1    0    0  501    0  0.00000000000E+00  0.00000000000E+00  0.69232201639E+03  0.69232201639E+03  0.00000000000E+00 0. -1.
         -1   -1    0    0    0  501 -0.00000000000E+00 -0.00000000000E+00 -0.34661650668E+02  0.34661650668E+02  0.00000000000E+00 0.  1.
         23    2    1    2    0    0  0.97967037046E+02 -0.12658317150E+02  0.24091823495E+03  0.28887102745E+03  0.12508837366E+03 0.  0.
          5    1    3    3  502    0  0.32787630276E+01 -0.51925807819E+02  0.50791042728E+02  0.72830228793E+02  0.41800000000E+01 0. -1.
         -5    1    3    3    0  502  0.94688274018E+02  0.39267490669E+02  0.19012719222E+03  0.21604079865E+03  0.41800000000E+01 0. -1.
        -11    1    1    2    0    0 -0.82660433793E+02 -0.30465833268E+02  0.30185242434E+03  0.31444522637E+03  0.00000000000E+00 0.  1.
         11    1    1    2    0    0 -0.15306603253E+02  0.43124150418E+02  0.11488970644E+03  0.12366741324E+03  0.00000000000E+00 0. -1.
</event>
<event>
 7    1  0.4394360E-006  0.9277666E+02  0.7561462E-02  0.1296264E+00
          2   -1    0    0  501    0  0.00000000000E+00  0.00000000000E+00  0.38793293168E+03  0.38793293168E+03  0.00000000000E+00 0. -1.
         -2   -1    0    0    0  501 -0.00000000000E+00 -0.00000000000E+00 -0.32994979587E+02  0.32994979587E+02  0.00000000000E+00 0.  1.
         23    2    1    2    0    0  0.31876729109E+02 -0.11812144182E+02  0.21876517068E+03  0.25426249392E+03  0.12504224608E+03 0.  0.
          5    1    3    3  502    0 -0.21223821434E+02 -0.33459445287E+02  0.15052445132E+02  0.42591473086E+02  0.41800000000E+01 0.  1.
         -5    1    3    3    0  502  0.53100550543E+02  0.21647301105E+02  0.20371272554E+03  0.21167102084E+03  0.41800000000E+01 0.  1.
        -11    1    1    2    0    0 -0.21971815393E+02  0.46880780947E+02  0.11068604540E+03  0.12219643587E+03  0.00000000000E+00 0. -1.
         11    1    1    2    0    0 -0.99049137162E+01 -0.35068636764E+02  0.25486736017E+02  0.44468981471E+02  0.00000000000E+00 0.  1.
</event>
<event>
 7    1  0.4394360E-006  0.1315741E+03  0.7561462E-02  0.1225139E+00
          1   -1    0    0  501    0  0.00000000000E+00  0.00000000000E+00  0.67026857053E+02  0.67026857053E+02  0.00000000000E+00 0. -1.
         -1   -1    0    0    0  501 -0.00000000000E+00 -0.00000000000E+00 -0.39114747851E+03  0.39114747851E+03  0.00000000000E+00 0.  1.
         23    2    1    2    0    0  0.46999609326E+02 -0.73248552822E+02 -0.29229009977E+03  0.32962955947E+03  0.12509128781E+03 0.  0.
          5    1    3    3  502    0 -0.29621123692E+02 -0.56655836566E+02 -0.75267000134E+02  0.98842746294E+02  0.41800000000E+01 0.  1.
         -5    1    3    3    0  502  0.76620733019E+02 -0.16592716257E+02 -0.21702309963E+03  0.23078681318E+03  0.41800000000E+01 0.  1.
        -11    1    1    2    0    0  0.95872547669E+01  0.62177011286E+02 -0.48100351606E+00  0.62913651546E+02  0.00000000000E+00 0. -1.
         11    1    1    2    0    0 -0.56586864093E+02  0.11071541536E+02 -0.31349518174E+02  0.65631124549E+02  0.00000000000E+00 0.  1.
</event>
<event>
 7    1  0.4394360E-006  0.1053684E+03  0.7561462E-02  0.1269396E+00
         -1   -1    0    0    0  501 -0.00000000000E+00  0.00000000000E+00  0.93266501631E+02  0.93266501631E+02  0.00000000000E+00 0.  1.
          1   -1    0    0  501    0  0.00000000000E+00 -0.00000000000E+00 -0.12896082988E+03  0.12896082988E+03  0.00000000000E+00 0. -1.
         23    2    1    2    0    0  0.18435356491E+02 -0.13401480207E+02 -0.25556202609E+02  0.12700344793E+03  0.12230001740E+03 0.  0.
          5    1    3    3  502    0 -0.40416597399E+02  0.29834390023E+02 -0.31710743209E+01  0.50508615955E+02  0.41800000000E+01 0. -1.
         -5    1    3    3    0  502  0.58851953889E+02 -0.43235870230E+02 -0.22385128288E+02  0.76494831980E+02  0.41800000000E+01 0.  1.
        -11    1    1    2    0    0  0.27190010083E+00  0.47919470490E+02 -0.23991031760E+02  0.53590290040E+02  0.00000000000E+00 0. -1.
         11    1    1    2    0    0 -0.18707256592E+02 -0.34517990283E+02  0.13852906124E+02  0.41633593532E+02  0.00000000000E+00 0.  1.
</event>
<event>
 7    1  0.4394360E-006  0.9889389E+02  0.7561462E-02  0.1282639E+00
         -2   -1    0    0    0  501 -0.00000000000E+00  0.00000000000E+00  0.73677568570E+02  0.73677568570E+02  0.00000000000E+00 0.  1.
          2   -1    0    0  501    0  0.00000000000E+00 -0.00000000000E+00 -0.21112396006E+03  0.21112396006E+03  0.00000000000E+00 0. -1.
         23    2    1    2    0    0  0.86864395183E+00  0.49139922035E+02 -0.37867587639E+02  0.13963349993E+03  0.12509226047E+03 0.  0.
          5    1    3    3  502    0  0.29827696695E+02  0.78231270177E+02 -0.29522644606E+00  0.83829485757E+02  0.41800000000E+01 0.  1.
         -5    1    3    3    0  502 -0.28959052744E+02 -0.29091348142E+02 -0.37572361193E+02  0.55804014176E+02  0.41800000000E+01 0.  1.
        -11    1    1    2    0    0  0.24338803342E+02 -0.38029838930E+02 -0.35778025215E+01  0.45292898649E+02  0.00000000000E+00 0.  1.
         11    1    1    2    0    0 -0.25207447293E+02 -0.11110083105E+02 -0.96001001332E+02  0.99875130049E+02  0.00000000000E+00 0. -1.
</event>
<event>
 7    1  0.4394360E-006  0.2066184E+03  0.7561462E-02  0.1144272E+00
          2   -1    0    0  501    0  0.00000000000E+00  0.00000000000E+00  0.63189842418E+03  0.63189842418E+03  0.00000000000E+00 0.  1.
         -2   -1    0    0    0  501 -0.00000000000E+00 -0.00000000000E+00 -0.74887025379E+02  0.74887025379E+02  0.00000000000E+00 0. -1.
         23    2    1    2    0    0  0.39893272162E+02  0.17481349695E+03  0.20072488913E+03  0.29679933302E+03  0.12509249013E+03 0.  0.
          5    1    3    3  502    0  0.82948020182E+02  0.12323542997E+03  0.11561626336E+03  0.18828685033E+03  0.41800000000E+01 0.  1.
         -5    1    3    3    0  502 -0.43054748021E+02  0.51578066977E+02  0.85108625765E+02  0.10851248269E+03  0.41800000000E+01 0.  1.
        -11    1    1    2    0    0 -0.62315416244E+02 -0.89207560646E+02  0.24284601511E+03  0.26611160635E+03  0.00000000000E+00 0.  1.
         11    1    1    2    0    0  0.22422144082E+02 -0.85605936305E+02  0.11344049456E+03  0.14387451019E+03  0.00000000000E+00 0. -1.
</event>
<event>
 7    1  0.4394360E-006  0.8992318E+02  0.7561462E-02  0.1303038E+00
          1   -1    0    0  501    0  0.00000000000E+00  0.00000000000E+00  0.17201085226E+03  0.17201085226E+03  0.00000000000E+00 0. -1.
         -1   -1    0    0    0  501 -0.00000000000E+00 -0.00000000000E+00 -0.14716554887E+03  0.14716554887E+03  0.00000000000E+00 0.  1.
         23    2    1    2    0    0 -0.35525008943E+01  0.22392806446E+02 -0.10084456471E+03  0.16226972275E+03  0.12509108141E+03 0.  0.
          5    1    3    3  502    0  0.44171887012E+02  0.52886937804E+02 -0.43680540350E+02  0.81692385188E+02  0.41800000000E+01 0.  1.
         -5    1    3    3    0  502 -0.47724387906E+02 -0.30494131358E+02 -0.57164024355E+02  0.80577337563E+02  0.41800000000E+01 0.  1.
        -11    1    1    2    0    0  0.25135938982E+02 -0.35750689048E+01 -0.25426624586E+01  0.25515910302E+02  0.00000000000E+00 0.  1.
         11    1    1    2    0    0 -0.21583438088E+02 -0.18817737541E+02  0.12823253055E+03  0.13139076808E+03  0.00000000000E+00 0. -1.
</event>
<event>
 7    1  0.4394360E-006  0.2176731E+03  0.7561462E-02  0.1135630E+00
          1   -1    0    0  501    0  0.00000000000E+00  0.00000000000E+00  0.57691156125E+03  0.57691156125E+03  0.00000000000E+00 0. -1.
         -1   -1    0    0    0  501 -0.00000000000E+00 -0.00000000000E+00 -0.96067173864E+02  0.96067173864E+02  0.00000000000E+00 0.  1.
         23    2    1    2    0    0  0.13985473724E+03  0.13502808541E+03  0.14229107112E+03  0.27145266449E+03  0.12509144160E+03 0.  0.
          5    1    3    3  502    0  0.15451546957E+02 -0.24134187243E+02  0.21207524470E+02  0.35894857450E+02  0.41800000000E+01 0.  1.
         -5    1    3    3    0  502  0.12440319029E+03  0.15916227265E+03  0.12108354665E+03  0.23555780704E+03  0.41800000000E+01 0.  1.
        -11    1    1    2    0    0 -0.62944808770E+02 -0.20162915903E+02  0.17680096795E+03  0.18875162091E+03  0.00000000000E+00 0. -1.
         11    1    1    2    0    0 -0.76909928473E+02 -0.11486516951E+03  0.16175234832E+03  0.21277444971E+03  0.00000000000E+00 0.  1.
</event>
<event>
 7    1  0.4394360E-006  0.9768680E+02  0.7561462E-02  0.1285237E+00
         -2   -1    0    0    0  501 -0.00000000000E+00  0.00000000000E+00  0.40711796082E+03  0.40711796082E+03  0.00000000000E+00 0.  1.
          2   -1    0    0  501    0  0.00000000000E+00 -0.00000000000E+00 -0.48271977465E+02  0.48271977465E+02  0.00000000000E+00 0. -1.
         23    2    1    2    0    0 -0.54514398255E+02 -0.62654532700E+02  0.25224073065E+03  0.29354833244E+03  0.12509127545E+03 0.  0.
          5    1    3    3  502    0 -0.12237904280E+02 -0.10737970674E+02  0.21722923748E+03  0.21787859998E+03  0.41800000000E+01 0. -1.
         -5    1    3    3    0  502 -0.42276493975E+02 -0.51916562026E+02  0.35011493165E+02  0.75669732450E+02  0.41800000000E+01 0. -1.
        -11    1    1    2    0    0  0.43443651722E+02 -0.42651757078E+01  0.75520183481E+02  0.87228669094E+02  0.00000000000E+00 0.  1.
         11    1    1    2    0    0  0.11070746533E+02  0.66919708408E+02  0.31085069223E+02  0.74612936752E+02  0.00000000000E+00 0. -1.
</event>
<event>
 7    1  0.4394360E-006  0.1246190E+03  0.7561462E-02  0.1235666E+00
         -3   -1    0    0    0  501 -0.00000000000E+00  0.00000000000E+00  0.15576659475E+03  0.15576659475E+03  0.00000000000E+00 0.  1.
          3   -1    0    0  501    0  0.00000000000E+00 -0.00000000000E+00 -0.13436197875E+03  0.13436197875E+03  0.00000000000E+00 0. -1.
         23    2    1    2    0    0 -0.27167738667E+02  0.71956867747E+02  0.68027247297E+02  0.16183419931E+03  0.12508686922E+03 0.  0.
          5    1    3    3  502    0  0.33335048439E+02  0.69928450612E+02  0.64774053393E+02  0.10106613702E+03  0.41800000000E+01 0. -1.
         -5    1    3    3    0  502 -0.60502787106E+02  0.20284171354E+01  0.32531939043E+01  0.60768062288E+02  0.41800000000E+01 0. -1.
        -11    1    1    2    0    0  0.45234561527E+02 -0.98487836825E+01  0.35554959876E+01  0.46430654187E+02  0.00000000000E+00 0.  1.
         11    1    1    2    0    0 -0.18066822860E+02 -0.62108084065E+02 -0.50178127288E+02  0.81863720002E+02  0.00000000000E+00 0. -1.
</event>
<event>
 6    1  0.4394360E-006  0.2079975E+03  0.7561462E-02  0.1143162E+00
         -2   -1    0    0    0  501 -0.00000000000E+00  0.00000000000E+00  0.17179127143E+03  0.17179127143E+03  0.00000000000E+00 0.  1.
          2   -1    0    0  501    0  0.00000000000E+00 -0.00000000000E+00 -0.26973796251E+03  0.26973796251E+03  0.00000000000E+00 0. -1.
          5    1    1    2  502    0 -0.44612537984E+02  0.14518924162E+03 -0.29918893881E+02  0.15486383386E+03  0.41800000000E+01 0. -1.
         -5    1    1    2    0  502  0.43118154316E+02 -0.16563897071E+03 -0.24326510420E+01  0.17122743366E+03  0.41800000000E+01 0.  1.
        -11    1    1    2    0    0  0.46022181743E+02  0.97601991993E+01 -0.21005446797E+02  0.51522145685E+02  0.00000000000E+00 0.  1.
         11    1    1    2    0    0 -0.44527798076E+02  0.10689529885E+02 -0.44589699353E+02  0.63915820726E+02  0.00000000000E+00 0. -1.
</event>
<event>
 7    1  0.4394360E-006  0.8565253E+02  0.7561462E-02  0.1313735E+00
         -1   -1    0    0    0  501 -0.00000000000E+00  0.00000000000E+00  0.81775806674E+02  0.81775806674E+02  0.00000000000E+00 0.  1.
          1   -1    0    0  501    0  0.00000000000E+00 -0.00000000000E+00 -0.21423131684E+03  0.21423131684E+03  0.00000000000E+00 0. -1.
         23    2    1    2    0    0  0.29436820551E+02  0.43251558183E+02 -0.10688439130E+02  0.13601124787E+03  0.12509033986E+03 0.  0.
          5    1    3    3  502    0  0.43362831863E+02 -0.24075316485E+02  0.27899512818E+02  0.57059716670E+02  0.41800000000E+01 0.  1.
         -5    1    3    3    0  502 -0.13926011312E+02  0.67326874668E+02 -0.38587951948E+02  0.78951531202E+02  0.41800000000E+01 0.  1.
        -11    1    1    2    0    0 -0.12447776785E+02 -0.23549630977E+02  0.78691261538E+01  0.27775086183E+02  0.00000000000E+00 0.  1.
         11    1    1    2    0    0 -0.16989043766E+02 -0.19701927206E+02 -0.12963619719E+03  0.13222078946E+03  0.00000000000E+00 0. -1.
</event>
<event>
 7    1  0.4394360E-006  0.9236287E+02  0.7561462E-02  0.1297228E+00
         -4   -1    0    0    0  501 -0.00000000000E+00  0.00000000000E+00  0.82597968687E+03  0.82597968687E+03  0.00000000000E+00 0.  1.
          4   -1    0    0  501    0  0.00000000000E+00 -0.00000000000E+00 -0.18442576000E+02  0.18442576000E+02  0.00000000000E+00 0. -1.
         23    2    1    2    0    0 -0.51457909614E+02  0.29160222743E+02  0.47702584268E+03  0.49668996242E+03  0.12509607959E+03 0.  0.
          5    1    3    3  502    0 -0.66164873513E+02  0.15745877814E+02  0.11201439290E+03  0.13111224112E+03  0.41800000000E+01 0. -1.
         -5    1    3    3    0  502  0.14706963899E+02  0.13414344929E+02  0.36501144979E+03  0.36557772130E+03  0.41800000000E+01 0. -1.
        -11    1    1    2    0    0 -0.11249939434E+01 -0.42082379890E+02  0.22744514773E+03  0.23130820897E+03  0.00000000000E+00 0.  1.
         11    1    1    2    0    0  0.52582903557E+02  0.12922157147E+02  0.10306612045E+03  0.11642409148E+03  0.00000000000E+00 0. -1.
</event>
<event>
 7    1  0.4394360E-006  0.1078189E+03  0.7561462E-02  0.1264663E+00
          2   -1    0    0  501    0  0.00000000000E+00  0.00000000000E+00  0.47356170719E+03  0.47356170719E+03  0.00000000000E+00 0. -1.
         -2   -1    0    0    0  501 -0.00000000000E+00 -0.00000000000E+00 -0.44928800685E+02  0.44928800685E+02  0.00000000000E+00 0.  1.
         23    2    1    2    0    0 -0.57738946471E+02 -0.43400862876E+02  0.10693494742E+03  0.17975585347E+03  0.12513857534E+03 0.  0.
          5    1    3    3  502    0 -0.65926285462E+02 -0.75648522462E+02  0.46571316064E+02  0.11070381179E+03  0.41800000000E+01 0.  1.
         -5    1    3    3    0  502  0.81873389909E+01  0.32247659586E+02  0.60363631358E+02  0.69052041673E+02  0.41800000000E+01 0.  1.
        -11    1    1    2    0    0  0.24439587079E+02 -0.29337753618E+01  0.20078401317E+02  0.31765431744E+02  0.00000000000E+00 0.  1.
         11    1    1    2    0    0  0.33299359392E+02  0.46334638237E+02  0.30161955777E+03  0.30696922266E+03  0.00000000000E+00 0. -1.
</event>
<event>
 7    1  0.4394360E-006  0.9554852E+02  0.7561462E-02  0.1289945E+00
          2   -1    0    0  501    0  0.00000000000E+00  0.00000000000E+00  0.56610499217E+03  0.56610499217E+03  0.00000000000E+00 0. -1.
         -2   -1    0    0    0  501 -0.00000000000E+00 -0.00000000000E+00 -0.29930433576E+02  0.29930433576E+02  0.00000000000E+00 0.  1.
         23    2    1    2    0    0 -0.56323980134E+00  0.68700849126E+02  0.25203721341E+03  0.28963816163E+03  0.12508950324E+03 0.  0.
          5    1    3    3  502    0  0.40611328929E+01 -0.25967657583E+02  0.79724165375E+01  0.27782078147E+02  0.41800000000E+01 0.  1.
         -5    1    3    3    0  502 -0.46243726942E+01  0.94668506709E+02  0.24406479687E+03  0.26185608348E+03  0.41800000000E+01 0.  1.
        -11    1    1    2    0    0 -0.42628050099E+01 -0.53310183740E+02  0.28525879235E+03  0.29022874739E+03  0.00000000000E+00 0. -1.
         11    1    1    2    0    0  0.48260448112E+01 -0.15390665386E+02 -0.11214471619E+01  0.16168516731E+02  0.00000000000E+00 0.  1.
</event>
<event>
 7    1  0.4394360E-006  0.1820308E+03  0.7561462E-02  0.1165852E+00
          1   -1    0    0  501    0  0.00000000000E+00  0.00000000000E+00  0.71955608168E+03  0.71955608168E+03  0.00000000000E+00 0. -1.
         -1   -1    0    0    0  501 -0.00000000000E+00 -0.00000000000E+00 -0.61281280569E+02  0.61281280569E+02  0.00000000000E+00 0.  1.
         23    2    1    2    0    0 -0.13717624021E+03 -0.94847818483E+02  0.21894792469E+03  0.30232240780E+03  0.12508882837E+03 0.  0.
          5    1    3    3  502    0 -0.29871028999E+01  0.10411365320E+02 -0.11005280496E+02  0.15997121940E+02  0.41800000000E+01 0.  1.
         -5    1    3    3    0  502 -0.13418913731E+03 -0.10525918380E+03  0.22995320518E+03  0.28632528586E+03  0.41800000000E+01 0.  1.
        -11    1    1    2    0    0  0.10901916701E+03  0.33010105747E+02  0.20482205414E+03  0.23436492852E+03  0.00000000000E+00 0.  1.
         11    1    1    2    0    0  0.28157073200E+02  0.61837712736E+02  0.23450482228E+03  0.24415002592E+03  0.00000000000E+00 0. -1.
</event>
<event>
 7    1  0.4394360E-006  0.1064942E+03  0.7561462E-02  0.1267203E+00
         -1   -1    0    0    0  501 -0.00000000000E+00  0.00000000000E+00  0.23257329874E+02  0.23257329874E+02  0.00000000000E+00 0.  1.
          1   -1    0    0  501    0  0.00000000000E+00 -0.00000000000E+00 -0.68934510102E+03  0.68934510102E+03  0.00000000000E+00 0. -1.
         23    2    1    2    0    0 -0.14023182707E+02 -0.54094985441E+02 -0.31176264374E+03  0.34053848736E+03  0.12509036029E+03 0.  0.
          5    1    3    3  502    0 -0.56687490652E+02 -0.81685932337E+01 -0.23201998313E+03  0.23902079927E+03  0.41800000000E+01 0. -1.
         -5    1    3    3    0  502  0.42664307945E+02 -0.45926392208E+02 -0.79742660615E+02  0.10151768809E+03  0.41800000000E+01 0. -1.
        -11    1    1    2    0    0 -0.11244359459E+02 -0.15241994331E+02 -0.13296673497E+02  0.23142072874E+02  0.00000000000E+00 0.  1.
         11    1    1    2    0    0  0.25267542166E+02  0.69336979773E+02 -0.34102845391E+03  0.34892187066E+03  0.00000000000E+00 0. -1.
</event>
<event>
 6    1  0.4394360E-006  0.1102175E+03  0.7561462E-02  0.1260168E+00
         -2   -1    0    0    0  501 -0.00000000000E+00  0.00000000000E+00  0.34786540260E+02  0.34786540260E+02  0.00000000000E+00 0.  1.
          2   -1    0    0  501    0  0.00000000000E+00 -0.00000000000E+00 -0.91795293192E+03  0.91795293192E+03  0.00000000000E+00 0. -1.
          5    1    1    2  502    0  0.15980012366E+02  0.58207270076E+02 -0.36782087497E+03  0.37276415539E+03  0.41800000000E+01 0. -1.
         -5    1    1    2    0  502  0.35249822723E+02 -0.45951228706E+02 -0.36435226924E+01  0.58179146429E+02  0.41800000000E+01 0.  1.
        -11    1    1    2    0    0 -0.16758282128E+02 -0.48818150761E+02 -0.27835880565E+03  0.28310364983E+03  0.00000000000E+00 0. -1.
         11    1    1    2    0    0 -0.34471552962E+02  0.36562109392E+02 -0.23334318836E+03  0.23869252053E+03  0.00000000000E+00 0.  1.
</event>
<event>
 7    1  0.4394360E-006  0.1163813E+03  0.7561462E-02  0.1249189E+00
          2   -1    0    0  501    0  0.00000000000E+00  0.00000000000E+00  0.95469364164E+03  0.95469364164E+03  0.00000000000E+00 0. -1.
         -2   -1    0    0    0  501 -0.00000000000E+00 -0.00000000000E+00 -0.17484972047E+02  0.17484972047E+02  0.00000000000E+00 0.  1.
         23    2    1    2    0    0 -0.55241535290E+02 -0.42631027355E+02  0.44539911834E+03  0.46786430579E+03  0.12509037654E+03 0.  0.
          5    1    3    3  502    0 -0.60738534025E+02  0.19783683421E+02  0.11561374802E+03  0.13215360297E+03  0.41800000000E+01 0. -1.
         -5    1    3    3    0  502  0.54969987349E+01 -0.62414710776E+02  0.32978537032E+03  0.33571070283E+03  0.41800000000E+01 0. -1.
        -11    1    1    2    0    0  0.67384469984E+01 -0.23212829763E+02  0.57525020686E+02  0.62396876031E+02  0.00000000000E+00 0.  1.
         11    1    1    2    0    0  0.48503088291E+02  0.65843857119E+02  0.43428453057E+03  0.44191743186E+03  0.00000000000E+00 0. -1.
</event>
<event>
 7    1  0.4394360E-006  0.9356514E+02  0.7561462E-02  0.1294441E+00
          2   -1    0    0  501    0  0.00000000000E+00  0.00000000000E+00  0.27153155004E+03  0.27153155004E+03  0.00000000000E+00 0. -1.
         -2   -1    0    0    0  501 -0.00000000000E+00 -0.00000000000E+00 -0.43512430873E+02  0.43512430873E+02  0.00000000000E+00 0.  1.
         23    2    1    2    0    0  0.33810325769E+01 -0.23199819980E+02  0.12802451810E+03  0.18052134807E+03  0.12509203351E+03 0.  0.
          5    1    3    3  502    0 -0.50030530055E+02  0.55936079140E+01  0.10306141215E+03  0.11477573551E+03  0.41800000000E+01 0.  1.
         -5    1    3    3    0  502  0.53411562632E+02 -0.28793427894E+02  0.24963105942E+02  0.65745612561E+02  0.41800000000E+01 0.  1.
        -11    1    1    2    0    0 -0.35041020929E+02  0.26539538331E+02  0.91596487784E+02  0.10159791739E+03  0.00000000000E+00 0. -1.
         11    1    1    2    0    0  0.31659988352E+02 -0.33397183509E+01  0.83981132874E+01  0.32924715456E+02  0.00000000000E+00 0.  1.
</event>
<event>
 7    1  0.4394360E-006  0.1109445E+03  0.7561462E-02  0.1258831E+00
         -1   -1    0    0    0  501 -0.00000000000E+00  0.00000000000E+00  0.24705586557E+02  0.24705586557E+02  0.00000000000E+00 0.  1.
          1   -1    0    0  501    0  0.00000000000E+00 -0.00000000000E+00 -0.67062640404E+03  0.67062640404E+03  0.00000000000E+00 0. -1.
         23    2    1    2    0    0  0.61699410963E+02  0.26538781835E+02 -0.37236673321E+03  0.39851778918E+03  0.12509324539E+03 0.  0.
          5    1    3    3  502    0  0.28736137760E+02 -0.50360964742E+02 -0.14602336494E+03  0.15716961504E+03  0.41800000000E+01 0. -1.
         -5    1    3    3    0  502  0.32963273204E+02  0.76899746578E+02 -0.22634336827E+03  0.24134817415E+03  0.41800000000E+01 0. -1.
        -11    1    1    2    0    0 -0.66653251050E+01 -0.23982108944E+02 -0.88190940948E+01  0.26407281738E+02  0.00000000000E+00 0.  1.
         11    1    1    2    0    0 -0.55034085858E+02 -0.25566728914E+01 -0.26473499019E+03  0.27040691968E+03  0.00000000000E+00 0. -1.
</event>
<event>
 6    1  0.4394360E-006  0.2107918E+03  0.7561462E-02  0.1140941E+00
          2   -1    0    0  501    0  0.00000000000E+00  0.00000000000E+00  0.35885786031E+03  0.35885786031E+03  0.00000000000E+00 0. -1.
         -2   -1    0    0    0  501 -0.00000000000E+00 -0.00000000000E+00 -0.16276757507E+03  0.16276757507E+03  0.00000000000E+00 0.  1.
          5    1    1    2  502    0  0.90260964746E+01  0.13914633375E+02 -0.22542042428E+02  0.28296705044E+02  0.41800000000E+01 0. -1.
         -5    1    1    2    0  502 -0.19008933920E+03 -0.60441756959E+02  0.97615028071E+01  0.19974964881E+03  0.41800000000E+01 0. -1.
        -11    1    1    2    0    0  0.10586031656E+03 -0.16131840112E+02  0.12572614468E+03  0.16514752902E+03  0.00000000000E+00 0. -1.
         11    1    1    2    0    0  0.75202926168E+02  0.62658963695E+02  0.83144680192E+02  0.12843155251E+03  0.00000000000E+00 0.  1.
</event>
<event>
 7    1  0.4394360E-006  0.1275707E+03  0.7561462E-02  0.1231106E+00
          1   -1    0    0  501    0  0.00000000000E+00  0.00000000000E+00  0.40220739660E+03  0.40220739660E+03  0.00000000000E+00 0. -1.
         -1   -1    0    0    0  501 -0.00000000000E+00 -0.00000000000E+00 -0.59472248797E+02  0.59472248797E+02  0.00000000000E+00 0.  1.
         23    2    1    2    0    0  0.75102482019E+02 -0.79361154348E+02  0.19911766513E+03  0.25930195456E+03  0.12510429029E+03 0.  0.
          5    1    3    3  502    0  0.55760055786E+02  0.43402592172E+01  0.15025808656E+03  0.16038387278E+03  0.41800000000E+01 0.  1.
         -5    1    3    3    0  502  0.19342426233E+02 -0.83701413565E+02  0.48859578569E+02  0.98918081781E+02  0.41800000000E+01 0.  1.
        -11    1    1    2    0    0 -0.39948553993E+02  0.21558131999E+02  0.20093927995E+01  0.45438724463E+02  0.00000000000E+00 0.  1.
         11    1    1    2    0    0 -0.35153928026E+02  0.57803022349E+02  0.14160808988E+03  0.15693896638E+03  0.00000000000E+00 0. -1.
</event>
<event>
 7    1  0.4394360E-006  0.9536575E+02  0.7561462E-02  0.1290354E+00
         -2   -1    0    0    0  501 -0.00000000000E+00  0.00000000000E+00  0.22320891947E+02  0.22320891947E+02  0.00000000000E+00 0.  1.
          2   -1    0    0  501    0  0.00000000000E+00 -0.00000000000E+00 -0.62507103529E+03  0.62507103529E+03  0.00000000000E+00 0. -1.
         23    2    1    2    0    0 -0.23119830619E+02 -0.70406047986E+01 -0.23189086920E+03  0.26458509024E+03  0.12509115906E+03 0.  0.
          5    1    3    3  502    0  0.25816989732E+02 -0.34556159314E+02 -0.18874357107E+03  0.19365498477E+03  0.41800000000E+01 0. -1.
         -5    1    3    3    0  502 -0.48936820351E+02  0.27515554516E+02 -0.43147298132E+02  0.70930105473E+02  0.41800000000E+01 0. -1.
        -11    1    1    2    0    0  0.10190388754E+02  0.47521254268E+02 -0.14340760309E+03  0.15141946458E+03  0.00000000000E+00 0.  1.
         11    1    1    2    0    0  0.12929441865E+02 -0.40480649470E+02 -0.22745167105E+03  0.23138737241E+03  0.00000000000E+00 0. -1.
</event>
<event>
 7    1  0.4394360E-006  0.8354165E+02  0.7561462E-02  0.1319291E+00
         -2   -1    0    0    0  501 -0.00000000000E+00  0.00000000000E+00  0.31440217417E+02  0.31440217417E+02  0.00000000000E+00 0.  1.
          2   -1    0    0  501    0  0.00000000000E+00 -0.00000000000E+00 -0.39636723206E+03  0.39636723206E+03  0.00000000000E+00 0. -1.
         23    2    1    2    0    0 -0.12363365343E+02 -0.25841610708E+02 -0.20790815359E+03  0.24432401718E+03  0.12509110039E+03 0.  0.
          5    1    3    3  502    0 -0.20685918923E+02 -0.56403833070E+02 -0.20331400897E+03  0.21204565138E+03  0.41800000000E+01 0. -1.
         -5    1    3    3    0  502  0.83225535793E+01  0.30562222362E+02 -0.45941446163E+01  0.32278365797E+02  0.41800000000E+01 0. -1.
        -11    1    1    2    0    0 -0.24772394484E+02 -0.65604660777E+01 -0.11764026415E+03  0.12039909881E+03  0.00000000000E+00 0. -1.
         11    1    1    2    0    0  0.37135759827E+02  0.32402076786E+02 -0.39378596904E+02  0.63084333492E+02  0.00000000000E+00 0.  1.
</event>
<event>
 7    1  0.4394360E-006  0.9711147E+02  0.7561462E-02  0.1286490E+00
         -2   -1    0    0    0  501 -0.00000000000E+00  0.00000000000E+00  0.39042584639E+02  0.39042584639E+02  0.00000000000E+00 0.  1.
          2   -1    0    0  501    0  0.00000000000E+00 -0.00000000000E+00 -0.67095895600E+03  0.67095895600E+03  0.00000000000E+00 0. -1.
         23    2    1    2    0    0 -0.48623785322E+02  0.54903233151E+02 -0.10994037847E+03  0.17521159475E+03  0.11503729225E+03 0.  0.
          5    1    3    3  502    0 -0.14916346611E+02  0.19173105735E+01 -0.11117125372E+03  0.11226171890E+03  0.41800000000E+01 0. -1.
         -5    1    3    3    0  502 -0.33707438711E+02  0.52985922578E+02  0.12308752519E+01  0.62949875852E+02  0.41800000000E+01 0.  1.
        -11    1    1    2    0    0  0.28221614427E+02 -0.79124630720E+02 -0.40366863586E+03  0.41231727381E+03  0.00000000000E+00 0. -1.
         11    1    1    2    0    0  0.20402170894E+02  0.24221397569E+02 -0.11830735704E+03  0.12247267208E+03  0.00000000000E+00 0.  1.
</event>
<event>
 7    1  0.4394360E-006  0.1270720E+03  0.7561462E-02  0.1231866E+00
          1   -1    0    0  501    0  0.00000000000E+00  0.00000000000E+00  0.31135792781E+03  0.31135792781E+03  0.00000000000E+00 0. -1.
         -1   -1    0    0    0  501 -0.00000000000E+00 -0.00000000000E+00 -0.58444397213E+02  0.58444397213E+02  0.00000000000E+00 0.  1.
         23    2    1    2    0    0 -0.53158778789E+02 -0.68625124784E+02  0.10520679072E+03  0.17553814222E+03  0.11049844816E+03 0.  0.
          5    1    3    3  502    0  0.11908786848E+02  0.23507924360E+02  0.28670940832E+02  0.39165507275E+02  0.41800000000E+01 0. -1.
         -5    1    3    3    0  502 -0.65067565638E+02 -0.92133049143E+02  0.76535849890E+02  0.13637263494E+03  0.41800000000E+01 0.  1.
        -11    1    1    2    0    0  0.11832451663E+02  0.72151386190E+02  0.13003304085E+03  0.14917915790E+03  0.00000000000E+00 0. -1.
         11    1    1    2    0    0  0.41326327126E+02 -0.35262614060E+01  0.17673699033E+02  0.45085024906E+02  0.00000000000E+00 0.  1.
</event>
<event>
 7    1  0.4394360E-006  0.1981626E+03  0.7561462E-02  0.1151299E+00
          3   -1    0    0  501    0  0.00000000000E+00  0.00000000000E+00  0.49284421073E+02  0.49284421073E+02  0.00000000000E+00 0. -1.
         -3   -1    0    0    0  501 -0.00000000000E+00 -0.00000000000E+00 -0.10437112838E+04  0.10437112838E+04  0.00000000000E+00 0.  1.
         23    2    1    2    0    0  0.11878303480E+02  0.19638375753E+03 -0.58759178564E+03  0.63215471265E+03  0.12509116621E+03 0.  0.
          5    1    3    3  502    0  0.17144690579E+02  0.11631852439E+03 -0.16898101457E+03  0.20590287811E+03  0.41800000000E+01 0.  1.
         -5    1    3    3    0  502 -0.52663870996E+01  0.80065233142E+02 -0.41861077107E+03  0.42625183454E+03  0.41800000000E+01 0.  1.
        -11    1    1    2    0    0 -0.16367763259E+02 -0.70907761699E+02 -0.68421476786E+02  0.99886499733E+02  0.00000000000E+00 0.  1.
         11    1    1    2    0    0  0.44894597792E+01 -0.12547599583E+03 -0.33841360034E+03  0.36095449252E+03  0.00000000000E+00 0. -1.
</event>
<event>
 7    1  0.4394360E-006  0.1189452E+03  0.7561462E-02  0.1244847E+00
          2   -1    0    0  501    0  0.00000000000E+00  0.00000000000E+00  0.36345702061E+03  0.36345702061E+03  0.00000000000E+00 0. -1.
         -2   -1    0    0    0  501 -0.00000000000E+00 -0.00000000000E+00 -0.56042994384E+02  0.56042994384E+02  0.00000000000E+00 0.  1.
         23    2    1    2    0    0  0.22116011665E+01  0.80194956773E+02  0.96941240397E+02  0.17742869086E+03  0.12508882435E+03 0.  0.
          5    1    3    3  502    0 -0.40775263528E+02  0.22606397026E+02 -0.10622842452E+02  0.47999880042E+02  0.41800000000E+01 0. -1.
         -5    1    3    3    0  502  0.42986864695E+02  0.57588559748E+02  0.10756408285E+03  0.12942881082E+03  0.41800000000E+01 0. -1.
        -11    1    1    2    0    0  0.42918755854E+02 -0.39099159531E+02  0.91733839703E+02  0.10856270643E+03  0.00000000000E+00 0.  1.
         11    1    1    2    0    0 -0.45130357020E+02 -0.41095797242E+02  0.11873894613E+03  0.13350861771E+03  0.00000000000E+00 0. -1.
</event>
<event>
 7    1  0.4394360E-006  0.7901253E+02  0.7561462E-02  0.1331877E+00
          3   -1    0    0  501    0  0.00000000000E+00  0.00000000000E+00  0.76118513634E+03  0.76118513634E+03  0.00000000000E+00 0. -1.
         -3   -1    0    0    0  501 -0.00000000000E+00 -0.00000000000E+00 -0.18237532853E+02  0.18237532853E+02  0.00000000000E+00 0.  1.
         23    2    1    2    0    0  0.26478860566E+02  0.39195377165E+02  0.44008913394E+03  0.45996049160E+03  0.12509116823E+03 0.  0.
          5    1    3    3  502    0  0.31088934612E+02  0.43461741900E+02  0.62665283626E+02  0.82461233536E+02  0.41800000000E+01 0. -1.
         -5    1    3    3    0  502 -0.46100740454E+01 -0.42663647347E+01  0.37742385031E+03  0.37749925806E+03  0.41800000000E+01 0. -1.
        -11    1    1    2    0    0 -0.13254639958E+02 -0.65825964817E+02  0.15958735499E+03  0.17313828865E+03  0.00000000000E+00 0.  1.
         11    1    1    2    0    0 -0.13224220608E+02  0.26630587652E+02  0.14327111456E+03  0.14632388894E+03  0.00000000000E+00 0. -1.
</event>
<event>
 7    1  0.4394360E-006  0.8662500E+02  0.7561462E-02  0.1311237E+00
          2   -1    0    0  501    0  0.00000000000E+00  0.00000000000E+00  0.44323948974E+03  0.44323948974E+03  0.00000000000E+00 0. -1.
         -2   -1    0    0    0  501 -0.00000000000E+00 -0.00000000000E+00 -0.42087672106E+02  0.42087672106E+02  0.00000000000E+00 0.  1.
         23    2    1    2    0    0 -0.79572119567E+02 -0.69529732100E+01  0.15348425663E+03  0.21350693508E+03  0.12509087994E+03 0.  0.
          5    1    3    3  502    0 -0.38146152425E+02  0.18949046143E+02 -0.90435363500E+01  0.43743036523E+02  0.41800000000E+01 0. -1.
         -5    1    3    3    0  502 -0.41425967142E+02 -0.25902019353E+02  0.16252779298E+03  0.16976389856E+03  0.41800000000E+01 0. -1.
        -11    1    1    2    0    0  0.32724306205E+02 -0.49081275773E+01  0.19115323887E+02  0.38214729362E+02  0.00000000000E+00 0.  1.
         11    1    1    2    0    0  0.46847813362E+02  0.11861100787E+02  0.22855223712E+03  0.23360549741E+03  0.00000000000E+00 0. -1.
</event>
<event>
 7    1  0.4394360E-006  0.9532825E+02  0.7561462E-02  0.1290438E+00
          2   -1    0    0  501    0  0.00000000000E+00  0.00000000000E+00  0.75243245832E+03  0.75243245832E+03  0.00000000000E+00 0. -1.
         -2   -1    0    0    0  501 -0.00000000000E+00 -0.00000000000E+00 -0.18993154534E+02  0.18993154534E+02  0.00000000000E+00 0.  1.
         23    2    1    2    0    0  0.40617432368E+02 -0.12758549916E+02  0.33016401428E+03  0.35562598163E+03  0.12509598745E+03 0.  0.
          5    1    3    3  502    0  0.43773129034E+02 -0.42558025111E+02  0.31661514271E+03  0.32247463981E+03  0.41800000000E+01 0.  1.
         -5    1    3    3    0  502 -0.31556966659E+01  0.29799475194E+02  0.13548871562E+02  0.33151341811E+02  0.41800000000E+01 0.  1.
        -11    1    1    2    0    0 -0.69491416807E+02  0.81797219795E+01  0.24271699004E+03  0.25260146895E+03  0.00000000000E+00 0.  1.
         11    1    1    2    0    0  0.28873984438E+02  0.45788279369E+01  0.16055829946E+03  0.16319816227E+03  0.00000000000E+00 0. -1.
</event>
<event>
 7    1  0.4394360E-006  0.6933798E+02  0.7561462E-02  0.1362359E+00
         -2   -1    0    0    0  501 -0.00000000000E+00  0.00000000000E+00  0.54369846526E+02  0.54369846526E+02  0.00000000000E+00 0.  1.
          2   -1    0    0  501    0  0.00000000000E+00 -0.00000000000E+00 -0.25541025298E+03  0.25541025298E+03  0.00000000000E+00 0. -1.
         23    2    1    2    0    0  0.10804201345E+02 -0.22175084632E+02 -0.63397750568E+02  0.14239139882E+03  0.12509024956E+03 0.  0.
          5    1    3    3  502    0 -0.22663362414E+02 -0.43980847181E+02  0.17030878490E+02  0.52492534106E+02  0.41800000000E+01 0.  1.
         -5    1    3    3    0  502  0.33467563758E+02  0.21805762550E+02 -0.80428629059E+02  0.89898864712E+02  0.41800000000E+01 0.  1.
        -11    1    1    2    0    0  0.15102942416E+02  0.54851296713E+00  0.85415548881E+01  0.17359662900E+02  0.00000000000E+00 0.  1.
         11    1    1    2    0    0 -0.25907143761E+02  0.21626571665E+02 -0.14618421078E+03  0.15002903779E+03  0.00000000000E+00 0. -1.
</event>
<event>
 7    1  0.4394360E-006  0.1235321E+03  0.7561462E-02  0.1237381E+00
          2   -1    0    0  501    0  0.00000000000E+00  0.00000000000E+00  0.27704811620E+03  0.27704811620E+03  0.00000000000E+00 0. -1.
         -2   -1    0    0    0  501 -0.00000000000E+00 -0.00000000000E+00 -0.74276015626E+02  0.74276015626E+02  0.00000000000E+00 0.  1.
         23    2    1    2    0    0 -0.21305491439E+02 -0.89830254533E+02  0.93863527872E+02  0.18161148401E+03  0.12509584592E+03 0.  0.
          5    1    3    3  502    0  0.32279509757E+02 -0.69720645515E+02  0.66764644895E+01  0.77233300714E+02  0.41800000000E+01 0. -1.
         -5    1    3    3    0  502 -0.53585001196E+02 -0.20109609018E+02  0.87187063382E+02  0.10437818330E+03  0.41800000000E+01 0. -1.
        -11    1    1    2    0    0  0.35979467427E+02  0.19570284222E+02  0.20791922872E+01  0.41010256539E+02  0.00000000000E+00 0.  1.
         11    1    1    2    0    0 -0.14673975987E+02  0.70259970311E+02  0.10682938041E+03  0.12870239127E+03  0.00000000000E+00 0. -1.
</event>
<event>
 7    1  0.4394360E-006  0.1019038E+03  0.7561462E-02  0.1276343E+00
          2   -1    0    0  501    0  0.00000000000E+00  0.00000000000E+00  0.31181336366E+03  0.31181336366E+03  0.00000000000E+00 0. -1.
         -2   -1    0    0    0  501 -0.00000000000E+00 -0.00000000000E+00 -0.58026745468E+02  0.58026745468E+02  0.00000000000E+00 0.  1.
         23    2    1    2    0    0  0.11511948684E+02 -0.46117838928E+02  0.56983226138E+02  0.14544556804E+03  0.12509174701E+03 0.  0.
          5    1    3    3  502    0  0.38638817480E+02  0.32043923329E+02  0.14901117469E+02  0.52528915279E+02  0.41800000000E+01 0. -1.
         -5    1    3    3    0  502 -0.27126868796E+02 -0.78161762256E+02  0.42082108668E+02  0.92916652758E+02  0.41800000000E+01 0. -1.
        -11    1    1    2    0    0  0.18912020168E+02  0.31736023977E+02  0.15616066795E+02  0.40108618361E+02  0.00000000000E+00 0.  1.
         11    1    1    2    0    0 -0.30423968851E+02  0.14381814951E+02  0.18118732526E+03  0.18428592273E+03  0.00000000000E+00 0. -1.
</event>
<event>
 7    1  0.4394360E-006  0.9416758E+02  0.7561462E-02  0.1293062E+00
         -2   -1    0    0    0  501 -0.00000000000E+00  0.00000000000E+00  0.46679588578E+02  0.46679588578E+02  0.00000000000E+00 0.  1.
          2   -1    0    0  501    0  0.00000000000E+00 -0.00000000000E+00 -0.28340303352E+03  0.28340303352E+03  0.00000000000E+00 0. -1.
         23    2    1    2    0    0  0.10888037793E+02 -0.21350656199E+02 -0.89360770794E+02  0.15558158227E+03  0.12508349810E+03 0.  0.
          5    1    3    3  502    0 -0.34813415263E+02 -0.36337995461E+02  0.38160450903E+01  0.50640481795E+02  0.41800000000E+01 0. -1.
         -5    1    3    3    0  502  0.45701453056E+02  0.14987339262E+02 -0.93176815884E+02  0.10494110047E+03  0.41800000000E+01 0. -1.
        -11    1    1    2    0    0 -0.35846794095E+02 -0.20158534960E+02 -0.93022501207E+02  0.10170813591E+03  0.00000000000E+00 0. -1.
         11    1    1    2    0    0  0.24958756302E+02  0.41509191159E+02 -0.54340172942E+02  0.72792903927E+02  0.00000000000E+00 0.  1.
</event>
<event>
 7    1  0.4394360E-006  0.1440210E+03  0.7561462E-02  0.1208019E+00
         -2   -1    0    0    0  501 -0.00000000000E+00  0.00000000000E+00  0.28975315484E+02  0.28975315484E+02  0.00000000000E+00 0.  1.
          2   -1    0    0  501    0  0.00000000000E+00 -0.00000000000E+00 -0.90331201864E+03  0.90331201864E+03  0.00000000000E+00 0. -1.
         23    2    1    2    0    0 -0.69110524530E+02 -0.88996593846E+02 -0.35250501545E+03  0.39064611078E+03  0.12509172487E+03 0.  0.
          5    1    3    3  502    0 -0.94606325920E+02 -0.69635320600E+02 -0.17887640830E+03  0.21404129654E+03  0.41800000000E+01 0.  1.
         -5    1    3    3    0  502  0.25495801390E+02 -0.19361273246E+02 -0.17362860715E+03  0.17660481424E+03  0.41800000000E+01 0.  1.
        -11    1    1    2    0    0 -0.16101018501E+02  0.31618531901E+02 -0.72514430809E+02  0.80729901721E+02  0.00000000000E+00 0.  1.
         11    1    1    2    0    0  0.85211543030E+02  0.57378061945E+02 -0.44931725690E+03  0.46091132163E+03  0.00000000000E+00 0. -1.
</event>
<event>
 7    1  0.4394360E-006  0.2330054E+03  0.7561462E-02  0.1124542E+00
          1   -1    0    0  501    0  0.00000000000E+00  0.00000000000E+00  0.38394907457E+03  0.38394907457E+03  0.00000000000E+00 0. -1.
         -1   -1    0    0    0  501 -0.00000000000E+00 -0.00000000000E+00 -0.17299180023E+03  0.17299180023E+03  0.00000000000E+00 0.  1.
         23    2    1    2    0    0 -0.17834032451E+03  0.11232797332E+03 -0.15352355619E-01  0.24509197451E+03  0.12508889159E+03 0.  0.
          5    1    3    3  502    0 -0.22808245243E+02 -0.25796516411E+02 -0.11975260426E+02  0.36695443481E+02  0.41800000000E+01 0. -1.
         -5    1    3    3    0  502 -0.15553207927E+03  0.13812448973E+03  0.11959908071E+02  0.20839653103E+03  0.41800000000E+01 0. -1.
        -11    1    1    2    0    0  0.13172968744E+03 -0.40811974733E+02  0.16448287051E+03  0.21464608667E+03  0.00000000000E+00 0. -1.
         11    1    1    2    0    0  0.46610637074E+02 -0.71515998591E+02  0.46489756183E+02  0.97202813606E+02  0.00000000000E+00 0.  1.
</event>
<event>
 7    1  0.4394360E-006  0.8352342E+02  0.7561462E-02  0.1319340E+00
          1   -1    0    0  501    0  0.00000000000E+00  0.00000000000E+00  0.51838467756E+02  0.51838467756E+02  0.00000000000E+00 0. -1.
         -1   -1    0    0    0  501 -0.00000000000E+00 -0.00000000000E+00 -0.29207598935E+03  0.29207598935E+03  0.00000000000E+00 0.  1.
         23    2    1    2    0    0  0.26792192086E+02  0.47931189897E+02 -0.16446013760E+03  0.21379838056E+03  0.12508952853E+03 0.  0.
          5    1    3    3  502    0 -0.46363894391E+01 -0.95553131054E+01  0.17198343784E+02  0.20641112966E+02  0.41800000000E+01 0.  1.
         -5    1    3    3    0  502  0.31428581525E+02  0.57486503003E+02 -0.18165848139E+03  0.19315726759E+03  0.41800000000E+01 0.  1.
        -11    1    1    2    0    0 -0.93991007802E+01 -0.64963151571E+02 -0.81955094560E+02  0.10500091277E+03  0.00000000000E+00 0.  1.
         11    1    1    2    0    0 -0.17393091306E+02  0.17031961674E+02  0.61777105716E+01  0.25115163777E+02  0.00000000000E+00 0. -1.
</event>
<event>
 7    1  0.4394360E-006  0.1737827E+03  0.7561462E-02  0.1173959E+00
         -3   -1    0    0    0  501 -0.00000000000E+00  0.00000000000E+00  0.68351038538E+03  0.68351038538E+03  0.00000000000E+00 0.  1.
          3   -1    0    0  501    0  0.00000000000E+00 -0.00000000000E+00 -0.54581209286E+02  0.54581209286E+02  0.00000000000E+00 0. -1.
         23    2    1    2    0    0 -0.15003092220E+03  0.39785016469E+02  0.26056357511E+03  0.32807510677E+03  0.12509106225E+03 0.  0.
          5    1    3    3  502    0 -0.32026709486E+01  0.24786984840E+02 -0.34546528156E+01  0.25574572229E+02  0.41800000000E+01 0. -1.
         -5    1    3    3    0  502 -0.14682825125E+03  0.14998031630E+02  0.26401822793E+03  0.30250053454E+03  0.41800000000E+01 0. -1.
        -11    1    1    2    0    0  0.95861649774E+02  0.15576965003E+02  0.15378108315E+03  0.18188105803E+03  0.00000000000E+00 0. -1.
         11    1    1    2    0    0  0.54169272423E+02 -0.55361981472E+02  0.21458451784E+03  0.22813542987E+03  0.00000000000E+00 0.  1.
</event>
<event>
 7    1  0.4394360E-006  0.1741999E+03  0.7561462E-02  0.1173537E+00
         -2   -1    0    0    0  501 -0.00000000000E+00  0.00000000000E+00  0.48174619115E+02  0.48174619115E+02  0.00000000000E+00 0.  1.
          2   -1    0    0  501    0  0.00000000000E+00 -0.00000000000E+00 -0.77373787211E+03  0.77373787211E+03  0.00000000000E+00 0. -1.
         23    2    1    2    0    0 -0.12034736155E+03  0.96952359894E+02 -0.29810020900E+03  0.35832232763E+03  0.12509159984E+03 0.  0.
          5    1    3    3  502    0 -0.71855595078E+01  0.47316770014E+02 -0.18369291048E+03  0.18987118462E+03  0.41800000000E+01 0. -1.
         -5    1    3    3    0  502 -0.11316180205E+03  0.49635589880E+02 -0.11440729852E+03  0.16845114301E+03  0.41800000000E+01 0. -1.
        -11    1    1    2    0    0  0.21550762865E+02  0.15862284873E+02 -0.98303534279E+02  0.10188048053E+03  0.00000000000E+00 0. -1.
         11    1    1    2    0    0  0.98796598690E+02 -0.11281464477E+03 -0.32915950972E+03  0.36170968307E+03  0.00000000000E+00 0.  1.
</event>
<event>
 7    1  0.4394360E-006  0.3425582E+03  0.7561462E-02  0.1065712E+00
          2   -1    0    0  501    0  0.00000000000E+00  0.00000000000E+00  0.86631434789E+03  0.86631434789E+03  0.00000000000E+00 0. -1.
         -2   -1    0    0    0  501 -0.00000000000E+00 -0.00000000000E+00 -0.16522165380E+03  0.16522165380E+03  0.00000000000E+00 0.  1.
         23    2    1    2    0    0 -0.60584983565E+02  0.33148208397E+03  0.17380388602E+03  0.39925848071E+03  0.12509448986E+03 0.  0.
          5    1    3    3  502    0 -0.38904502204E+02  0.25873346456E+03  0.18762167834E+03  0.32198747267E+03  0.41800000000E+01 0.  1.
         -5    1    3    3    0  502 -0.21680481361E+02  0.72748619412E+02 -0.13817792319E+02  0.77271008037E+02  0.41800000000E+01 0.  1.
        -11    1    1    2    0    0  0.53547948341E+02 -0.82628995614E+02  0.17683253401E+03  0.20239732897E+03  0.00000000000E+00 0.  1.
         11    1    1    2    0    0  0.70370352231E+01 -0.24885308836E+03  0.35045627406E+03  0.42988019201E+03  0.00000000000E+00 0. -1.
</event>
<event>
 7    1  0.4394360E-006  0.9541001E+02  0.7561462E-02  0.1290255E+00
          1   -1    0    0  501    0  0.00000000000E+00  0.00000000000E+00  0.11936583090E+03  0.11936583090E+03  0.00000000000E+00 0. -1.
         -1   -1    0    0    0  501 -0.00000000000E+00 -0.00000000000E+00 -0.10067339733E+03  0.10067339733E+03  0.00000000000E+00 0.  1.
         23    2    1    2    0    0  0.22939229254E+02  0.10918011870E+02 -0.61292152106E+01  0.12779569047E+03  0.12509500390E+03 0.  0.
          5    1    3    3  502    0  0.48943158954E+02 -0.28181047032E+02  0.33856003876E+02  0.65979584863E+02  0.41800000000E+01 0.  1.
         -5    1    3    3    0  502 -0.26003929700E+02  0.39099058902E+02 -0.39985219087E+02  0.61816105606E+02  0.41800000000E+01 0.  1.
        -11    1    1    2    0    0  0.29278403602E+02 -0.17972379276E+02  0.87579637902E+00  0.34365656601E+02  0.00000000000E+00 0.  1.
         11    1    1    2    0    0 -0.52217632856E+02  0.70543674068E+01  0.23945852406E+02  0.57877881164E+02  0.00000000000E+00 0. -1.
</event>
<event>
 7    1  0.4394360E-006  0.8651149E+02  0.7561462E-02  0.1311527E+00
          2   -1    0    0  501    0  0.00000000000E+00  0.00000000000E+00  0.19302827218E+03  0.19302827218E+03  0.00000000000E+00 0. -1.
         -2   -1    0    0    0  501 -0.00000000000E+00 -0.00000000000E+00 -0.11267480600E+03  0.11267480600E+03  0.00000000000E+00 0.  1.
         23    2    1    2    0    0  0.44942461643E+02  0.92139181409E+01 -0.48059488660E+02  0.14163365369E+03  0.12508259776E+03 0.  0.
          5    1    3    3  502    0  0.21309544735E+02 -0.27001208558E+02 -0.80349629314E+02  0.87502555913E+02  0.41800000000E+01 0. -1.
         -5    1    3    3    0  502  0.23632916908E+02  0.36215126699E+02  0.32290140654E+02  0.54131097780E+02  0.41800000000E+01 0. -1.
        -11    1    1    2    0    0 -0.69651944178E+02 -0.88774375720E+01  0.11787794271E+03  0.13720572729E+03  0.00000000000E+00 0. -1.
         11    1    1    2    0    0  0.24709482535E+02 -0.33648056893E+00  0.10535012134E+02  0.26863697195E+02  0.00000000000E+00 0.  1.
</event>
<event>
 7    1  0.4394360E-006  0.1010322E+03  0.7561462E-02  0.1278140E+00
         -2   -1    0    0    0  501 -0.00000000000E+00  0.00000000000E+00  0.52869756265E+02  0.52869756265E+02  0.00000000000E+00 0.  1.
          2   -1    0    0  501    0  0.00000000000E+00 -0.00000000000E+00 -0.29185961804E+03  0.29185961804E+03  0.00000000000E+00 0. -1.
         23    2    1    2    0    0 -0.26900418768E+02 -0.50517480202E+02 -0.15089511433E+03  0.20418885705E+03  0.12509238776E+03 0.  0.
          5    1    3    3  502    0  0.44102385628E+01  0.20506176843E+02  0.11402269283E+02  0.24237112817E+02  0.41800000000E+01 0. -1.
         -5    1    3    3    0  502 -0.31310657331E+02 -0.71023657045E+02 -0.16229738361E+03  0.17995174423E+03  0.41800000000E+01 0. -1.
        -11    1    1    2    0    0  0.44596686964E+02  0.65850239656E+02 -0.85836357210E+02  0.11701708751E+03  0.00000000000E+00 0. -1.
         11    1    1    2    0    0 -0.17696268196E+02 -0.15332759453E+02 -0.22583902312E+01  0.23523429745E+02  0.00000000000E+00 0.  1.
</event>
<event>
 7    1  0.4394360E-006  0.2075924E+03  0.7561462E-02  0.1143487E+00
         -1   -1    0    0    0  501 -0.00000000000E+00  0.00000000000E+00  0.24217329881E+03  0.24217329881E+03  0.00000000000E+00 0.  1.
          1   -1    0    0  501    0  0.00000000000E+00 -0.00000000000E+00 -0.22863125532E+03  0.22863125532E+03  0.00000000000E+00 0. -1.
         23    2    1    2    0    0  0.13756749909E+03 -0.11552487941E+03  0.11277947724E+03  0.24623935400E+03  0.12507515502E+03 0.  0.
          5    1    3    3  502    0  0.15488343827E+03 -0.73213043762E+02  0.10071762664E+03  0.19877258851E+03  0.41800000000E+01 0.  1.
         -5    1    3    3    0  502 -0.17315939184E+02 -0.42311835648E+02  0.12061850596E+02  0.47466765484E+02  0.41800000000E+01 0.  1.
        -11    1    1    2    0    0  0.12344598228E+00  0.41654210995E+02 -0.39120033567E+02  0.57144252194E+02  0.00000000000E+00 0. -1.
         11    1    1    2    0    0 -0.13769094507E+03  0.73870668416E+02 -0.60117400182E+02  0.16742094794E+03  0.00000000000E+00 0.  1.
</event>
<event>
 7    1  0.4394360E-006  0.1208895E+03  0.7561462E-02  0.1241637E+00
          2   -1    0    0  501    0  0.00000000000E+00  0.00000000000E+00  0.12781527403E+03  0.12781527403E+03  0.00000000000E+00 0. -1.
         -2   -1    0    0    0  501 -0.00000000000E+00 -0.00000000000E+00 -0.18101903738E+03  0.18101903738E+03  0.00000000000E+00 0.  1.
         23    2    1    2    0    0 -0.20809979332E+02 -0.10176026685E+03 -0.51568231109E+02  0.17057646633E+03  0.12509532868E+03 0.  0.
          5    1    3    3  502    0 -0.31550958127E+02 -0.44148269972E+02  0.35906489714E+02  0.65201848929E+02  0.41800000000E+01 0.  1.
         -5    1    3    3    0  502  0.10740978795E+02 -0.57611996878E+02 -0.87474720823E+02  0.10537461740E+03  0.41800000000E+01 0.  1.
        -11    1    1    2    0    0  0.41158639072E+02  0.10004463650E+03  0.18302723469E+02  0.10971760365E+03  0.00000000000E+00 0. -1.
         11    1    1    2    0    0 -0.20348659740E+02  0.17156303472E+01 -0.19938255704E+02  0.28540241436E+02  0.00000000000E+00 0.  1.
</event>
<event>
 7    1  0.4394360E-006  0.1855541E+03  0.7561462E-02  0.1162534E+00
         -2   -1    0    0    0  501 -0.00000000000E+00  0.00000000000E+00  0.21691112039E+03  0.21691112039E+03  0.00000000000E+00 0.  1.
          2   -1    0    0  501    0  0.00000000000E+00 -0.00000000000E+00 -0.21630382007E+03  0.21630382007E+03  0.00000000000E+00 0. -1.
         23    2    1    2    0    0  0.12633628712E+03  0.12020248139E+03  0.68835567618E+02  0.22537131834E+03  0.12507758305E+03 0.  0.
          5    1    3    3  502    0  0.93664124496E+02  0.84631861235E+02  0.10551535874E+03  0.16457971772E+03  0.41800000000E+01 0.  1.
         -5    1    3    3    0  502  0.32672162623E+02  0.35570620160E+02 -0.36679791122E+02  0.60791600619E+02  0.41800000000E+01 0.  1.
        -11    1    1    2    0    0 -0.12475334610E+03 -0.64207839390E+02 -0.48340548454E+02  0.14840098594E+03  0.00000000000E+00 0. -1.
         11    1    1    2    0    0 -0.15829410190E+01 -0.55994642005E+02 -0.19887718848E+02  0.59442636184E+02  0.00000000000E+00 0.  1.
</event>
<event>
 7    1  0.4394360E-006  0.8083812E+02  0.7561462E-02  0.1326690E+00
         -2   -1    0    0    0  501 -0.00000000000E+00  0.00000000000E+00  0.20170638478E+02  0.20170638478E+02  0.00000000000E+00 0.  1.
          2   -1    0    0  501    0  0.00000000000E+00 -0.00000000000E+00 -0.54783802368E+03  0.54783802368E+03  0.00000000000E+00 0. -1.
         23    2    1    2    0    0 -0.29350522685E+01 -0.29016450770E+02 -0.32489814333E+03  0.34635196207E+03  0.11640579517E+03 0.  0.
          5    1    3    3  502    0 -0.20786042533E+02 -0.60066952644E+02 -0.28722196673E+03  0.29420066101E+03  0.41800000000E+01 0. -1.
         -5    1    3    3    0  502  0.17850990265E+02  0.31050501874E+02 -0.37676176594E+02  0.52151301065E+02  0.41800000000E+01 0.  1.
        -11    1    1    2    0    0 -0.19155917571E+02  0.34225134448E+02 -0.19300317402E+03  0.19694804946E+03  0.00000000000E+00 0.  1.
         11    1    1    2    0    0  0.22090969840E+02 -0.52086836777E+01 -0.97660678549E+01  0.24708650620E+02  0.00000000000E+00 0. -1.
</event>
<event>
 7    1  0.4394360E-006  0.9901238E+02  0.7561462E-02  0.1282387E+00
          2   -1    0    0  501    0  0.00000000000E+00  0.00000000000E+00  0.85071979133E+02  0.85071979133E+02  0.00000000000E+00 0. -1.
         -2   -1    0    0    0  501 -0.00000000000E+00 -0.00000000000E+00 -0.17090006836E+03  0.17090006836E+03  0.00000000000E+00 0.  1.
         23    2    1    2    0    0  0.51108020335E+02 -0.88874828259E+01 -0.70828122623E+02  0.15282468515E+03  0.12509094429E+03 0.  0.
          5    1    3    3  502    0  0.19720121886E+02 -0.50516306763E+02  0.11208927287E+02  0.55532809285E+02  0.41800000000E+01 0. -1.
         -5    1    3    3    0  502  0.31387898450E+02  0.41628823937E+02 -0.82037049910E+02  0.97291875866E+02  0.41800000000E+01 0. -1.
        -11    1    1    2    0    0 -0.27025538466E+02 -0.33219552583E+02 -0.30099652349E+02  0.52344125503E+02  0.00000000000E+00 0.  1.
         11    1    1    2    0    0 -0.24082481870E+02  0.42107035409E+02  0.15099685742E+02  0.50803236840E+02  0.00000000000E+00 0. -1.
</event>
<event>
 6    1  0.4394360E-006  0.2110959E+03  0.7561462E-02  0.1140701E+00
          2   -1    0    0  501    0  0.00000000000E+00  0.00000000000E+00  0.13376302239E+03  0.13376302239E+03  0.00000000000E+00 0. -1.
         -2   -1    0    0    0  501 -0.00000000000E+00 -0.00000000000E+00 -0.37034590805E+03  0.37034590805E+03  0.00000000000E+00 0.  1.
          5    1    1    2  502    0  0.30538726728E+02  0.52256333849E+02  0.10210299015E+02  0.61522848304E+02  0.41800000000E+01 0. -1.
         -5    1    1    2    0  502 -0.87229471780E+02  0.12824753762E+03 -0.12539677102E+03  0.19949494789E+03  0.41800000000E+01 0.  1.
        -11    1    1    2    0    0 -0.89856548284E+01 -0.10863802490E+03 -0.88231284953E+02  0.14024165605E+03  0.00000000000E+00 0.  1.
         11    1    1    2    0    0  0.65676399880E+02 -0.71865846561E+02 -0.33165128708E+02  0.10284947820E+03  0.00000000000E+00 0. -1.
</event>
<event>
 7    1  0.4394360E-006  0.8163476E+02  0.7561462E-02  0.1324475E+00
         -1   -1    0    0    0  501 -0.00000000000E+00  0.00000000000E+00  0.17974235721E+03  0.17974235721E+03  0.00000000000E+00 0.  1.
          1   -1    0    0  501    0  0.00000000000E+00 -0.00000000000E+00 -0.91020061875E+02  0.91020061875E+02  0.00000000000E+00 0. -1.
         23    2    1    2    0    0 -0.44272375668E+02  0.28011460351E+02  0.94491455698E+02  0.16529189197E+03  0.12509232267E+03 0.  0.
          5    1    3    3  502    0  0.10271169378E+02  0.10895973556E+02 -0.26888230788E+02  0.31059113236E+02  0.41800000000E+01 0.  1.
         -5    1    3    3    0  502 -0.54543545045E+02  0.17115486795E+02  0.12137968649E+03  0.13423277873E+03  0.41800000000E+01 0.  1.
        -11    1    1    2    0    0 -0.19426500725E+02 -0.16889854678E+02 -0.27103107333E+02  0.37379600701E+02  0.00000000000E+00 0. -1.
         11    1    1    2    0    0  0.63698876393E+02 -0.11121605673E+02  0.21333946966E+02  0.68090926411E+02  0.00000000000E+00 0.  1.
</event>
<event>
 7    1  0.4394360E-006  0.1374599E+03  0.7561462E-02  0.1216788E+00
         -4   -1    0    0    0  501 -0.00000000000E+00  0.00000000000E+00  0.79594056813E+03  0.79594056813E+03  0.00000000000E+00 0. -1.
          4   -1    0    0  501    0  0.00000000000E+00 -0.00000000000E+00 -0.29945979617E+02  0.29945979617E+02  0.00000000000E+00 0.  1.
         23    2    1    2    0    0 -0.31272630152E+02  0.10266982122E+03  0.46714135843E+03  0.49536556712E+03  0.12508767622E+03 0.  0.
          5    1    3    3  502    0 -0.20601032902E+02 -0.18287102716E+02  0.27133234823E+02  0.38890943860E+02  0.41800000000E+01 0.  1.
         -5    1    3    3    0  502 -0.10671597251E+02  0.12095692394E+03  0.44000812361E+03  0.45647462326E+03  0.41800000000E+01 0.  1.
        -11    1    1    2    0    0 -0.20174976043E+02 -0.36924720732E+02  0.38218892533E+02  0.56843191377E+02  0.00000000000E+00 0. -1.
         11    1    1    2    0    0  0.51447606195E+02 -0.65745100488E+02  0.26063433755E+03  0.27367778925E+03  0.00000000000E+00 0.  1.
</event>
<event>
 7    1  0.4394360E-006  0.1783028E+03  0.7561462E-02  0.1169456E+00
         -2   -1    0    0    0  501 -0.00000000000E+00  0.00000000000E+00  0.10805791858E+03  0.10805791858E+03  0.00000000000E+00 0.  1.
          2   -1    0    0  501    0  0.00000000000E+00 -0.00000000000E+00 -0.35061041306E+03  0.35061041306E+03  0.00000000000E+00 0. -1.
         23    2    1    2    0    0 -0.14342557631E+03  0.63259812820E+02 -0.16352299340E+03  0.25876222016E+03  0.12508164275E+03 0.  0.
          5    1    3    3  502    0 -0.65961014606E+02 -0.34894172693E+02 -0.50873932862E+02  0.90410664087E+02  0.41800000000E+01 0. -1.
         -5    1    3    3    0  502 -0.77464561702E+02  0.98153985513E+02 -0.11264906054E+03  0.16835155607E+03  0.41800000000E+01 0. -1.
        -11    1    1    2    0    0  0.94452159126E+02 -0.41625879442E+02  0.14700239018E+01  0.10322831575E+03  0.00000000000E+00 0.  1.
         11    1    1    2    0    0  0.48973417182E+02 -0.21633933377E+02 -0.80499524981E+02  0.96677795723E+02  0.00000000000E+00 0. -1.
</event>
<event>
 7    1  0.4394360E-006  0.1178368E+03  0.7561462E-02  0.1246709E+00
         -2   -1    0    0    0  501 -0.00000000000E+00  0.00000000000E+00  0.31240459453E+03  0.31240459453E+03  0.00000000000E+00 0.  1.
          2   -1    0    0  501    0  0.00000000000E+00 -0.00000000000E+00 -0.47162452153E+02  0.47162452153E+02  0.00000000000E+00 0. -1.
         23    2    1    2    0    0  0.47240546873E+02  0.78383978655E+01  0.13343970843E+03  0.18906622294E+03  0.12508705418E+03 0.  0.
          5    1    3    3  502    0 -0.15184562280E+02  0.49781815686E+02  0.84203720605E+02  0.99078449061E+02  0.41800000000E+01 0.  1.
         -5    1    3    3    0  502  0.62425109153E+02 -0.41943417820E+02  0.49235987823E+02  0.89987773881E+02  0.41800000000E+01 0.  1.
        -11    1    1    2    0    0 -0.70215948235E+01  0.42854972600E+02  0.54693915138E+02  0.69837495828E+02  0.00000000000E+00 0. -1.
         11    1    1    2    0    0 -0.40218952049E+02 -0.50693370465E+02  0.77108518805E+02  0.10066332791E+03  0.00000000000E+00 0.  1.
</event>
<event>
 7    1  0.4394360E-006  0.9866607E+02  0.7561462E-02  0.1283126E+00
          2   -1    0    0  501    0  0.00000000000E+00  0.00000000000E+00  0.12593812034E+03  0.12593812034E+03  0.00000000000E+00 0. -1.
         -2   -1    0    0    0  501 -0.00000000000E+00 -0.00000000000E+00 -0.99185297782E+02  0.99185297782E+02  0.00000000000E+00 0.  1.
         23    2    1    2    0    0  0.10384848213E+02 -0.21894104839E+02  0.42819821935E+01  0.12748797914E+03  0.12509057741E+03 0.  0.
          5    1    3    3  502    0  0.50849479647E+02  0.27386749794E+02  0.20726221906E+02  0.61504083760E+02  0.41800000000E+01 0. -1.
         -5    1    3    3    0  502 -0.40464631435E+02 -0.49280854632E+02 -0.16444239713E+02  0.65983895385E+02  0.41800000000E+01 0. -1.
        -11    1    1    2    0    0 -0.41218105052E+02  0.15487502822E+02  0.41776935180E+02  0.60696847042E+02  0.00000000000E+00 0. -1.
         11    1    1    2    0    0  0.30833256840E+02  0.64066020162E+01 -0.19306094820E+02  0.36938591932E+02  0.00000000000E+00 0.  1.
</event>
<event>
 7    1  0.4394360E-006  0.9421729E+02  0.7561462E-02  0.1292949E+00
         -2   -1    0    0    0  501 -0.00000000000E+00  0.00000000000E+00  0.21061529587E+03  0.21061529587E+03  0.00000000000E+00 0.  1.
          2   -1    0    0  501    0  0.00000000000E+00 -0.00000000000E+00 -0.75175913223E+02  0.75175913223E+02  0.00000000000E+00 0. -1.
         23    2    1    2    0    0 -0.28112420327E+02  0.54804362625E+02  0.51175496101E+02  0.14852430597E+03  0.12508681675E+03 0.  0.
          5    1    3    3  502    0 -0.34251416178E+02  0.69126830481E+02  0.82661025177E+02  0.11314590442E+03  0.41800000000E+01 0. -1.
         -5    1    3    3    0  502  0.61389958515E+01 -0.14322467856E+02 -0.31485529076E+02  0.35378401557E+02  0.41800000000E+01 0. -1.
        -11    1    1    2    0    0  0.13105602810E+02  0.17123977209E+02 -0.45091795929E+01  0.22029982321E+02  0.00000000000E+00 0. -1.
         11    1    1    2    0    0  0.15006817517E+02 -0.71928339834E+02  0.88773066134E+02  0.11523692079E+03  0.00000000000E+00 0.  1.
</event>
<event>
 7    1  0.4394360E-006  0.1412786E+03  0.7561462E-02  0.1211619E+00
         -1   -1    0    0    0  501 -0.00000000000E+00  0.00000000000E+00  0.41070940309E+03  0.41070940309E+03  0.00000000000E+00 0.  1.
          1   -1    0    0  501    0  0.00000000000E+00 -0.00000000000E+00 -0.63053669502E+02  0.63053669502E+02  0.00000000000E+00 0. -1.
         23    2    1    2    0    0  0.12032190177E+03  0.23549515560E+02  0.19364281112E+03  0.26110824748E+03  0.12509212156E+03 0.  0.
          5    1    3    3  502    0  0.12127684016E+03  0.47763948326E+02  0.10013252942E+03  0.16441855908E+03  0.41800000000E+01 0. -1.
         -5    1    3    3    0  502 -0.95493839007E+00 -0.24214432766E+02  0.93510281696E+02  0.96689688408E+02  0.41800000000E+01 0. -1.
        -11    1    1    2    0    0 -0.83154169194E+02  0.73517240298E+00  0.14529484742E+03  0.16740892754E+03  0.00000000000E+00 0.  1.
         11    1    1    2    0    0 -0.37167732578E+02 -0.24284687963E+02  0.87180750460E+01  0.45245897570E+02  0.00000000000E+00 0. -1.
</event>
<event>
 7    1  0.4394360E-006  0.1373249E+03  0.7561462E-02  0.1216974E+00
         -1   -1    0    0    0  501 -0.00000000000E+00  0.00000000000E+00  0.61822820667E+02  0.61822820667E+02  0.00000000000E+00 0.  1.
          1   -1    0    0  501    0  0.00000000000E+00 -0.00000000000E+00 -0.70082330692E+03  0.70082330692E+03  0.00000000000E+00 0. -1.
         23    2    1    2    0    0  0.11873356382E+03  0.30899070991E+02 -0.94458446594E+02  0.19905259091E+03  0.12508846490E+03 0.  0.
          5    1    3    3  502    0  0.12106424886E+02 -0.23704973485E+02  0.19812374397E+02  0.33443891381E+02  0.41800000000E+01 0. -1.
         -5    1    3    3    0  502  0.10662713894E+03  0.54604044476E+02 -0.11427082099E+03  0.16560869953E+03  0.41800000000E+01 0. -1.
        -11    1    1    2    0    0 -0.75454276943E+01  0.70752912797E+01 -0.51533592646E+01  0.11556398119E+02  0.00000000000E+00 0.  1.
         11    1    1    2    0    0 -0.11118813613E+03 -0.37974362271E+02 -0.53938868039E+03  0.55203713855E+03  0.00000000000E+00 0. -1.
</event>
<event>
 7    1  0.4394360E-006  0.1106392E+03  0.7561462E-02  0.1259391E+00
         -1   -1    0    0    0  501 -0.00000000000E+00  0.00000000000E+00  0.51579002175E+02  0.51579002175E+02  0.00000000000E+00 0.  1.
          1   -1    0    0  501    0  0.00000000000E+00 -0.00000000000E+00 -0.40289310645E+03  0.40289310645E+03  0.00000000000E+00 0. -1.
         23    2    1    2    0    0  0.78792655510E+02 -0.46212411932E+02 -0.11867853733E+03  0.19517386228E+03  0.12515738778E+03 0.  0.
          5    1    3    3  502    0  0.73023965097E+02 -0.12554739530E+02 -0.27672448394E+01  0.74264735959E+02  0.41800000000E+01 0. -1.
         -5    1    3    3    0  502  0.57686904134E+01 -0.33657672402E+02 -0.11591129249E+03  0.12090912632E+03  0.41800000000E+01 0. -1.
        -11    1    1    2    0    0 -0.33079800655E+02  0.56807654644E+02 -0.15809558959E+03  0.17121798470E+03  0.00000000000E+00 0. -1.
         11    1    1    2    0    0 -0.45712854855E+02 -0.10595242712E+02 -0.74539977359E+02  0.88080261647E+02  0.00000000000E+00 0.  1.
</event>
<event>
 7    1  0.4394360E-006  0.1108520E+03  0.7561462E-02  0.1259000E+00
         -2   -1    0    0    0  501 -0.00000000000E+00  0.00000000000E+00  0.14943349136E+02  0.14943349136E+02  0.00000000000E+00 0.  1.
          2   -1    0    0  501    0  0.00000000000E+00 -0.00000000000E+00 -0.94963097911E+03  0.94963097911E+03  0.00000000000E+00 0. -1.
         23    2    1    2    0    0 -0.87458337218E+01  0.47097613772E+02 -0.44115593544E+03  0.46104674580E+03  0.12510342766E+03 0.  0.
          5    1    3    3  502    0  0.42391198241E+02 -0.14064850665E+02 -0.85637874079E+02  0.96675496322E+02  0.41800000000E+01 0.  1.
         -5    1    3    3    0  502 -0.51137031963E+02  0.61162464436E+02 -0.35551806136E+03  0.36437124948E+03  0.41800000000E+01 0.  1.
        -11    1    1    2    0    0  0.28749825751E+01  0.24754380346E+02 -0.81096125811E+02  0.84838826564E+02  0.00000000000E+00 0.  1.
         11    1    1    2    0    0  0.58708511468E+01 -0.71851994117E+02 -0.41243556872E+03  0.41868875588E+03  0.00000000000E+00 0. -1.
</event>
<event>
 7    1  0.4394360E-006  0.1574851E+03  0.7561462E-02  0.1191566E+00
         -2   -1    0    0    0  501 -0.00000000000E+00  0.00000000000E+00  0.53750546890E+02  0.53750546890E+02  0.00000000000E+00 0. -1.
          2   -1    0    0  501    0  0.00000000000E+00 -0.00000000000E+00 -0.56263832147E+03  0.56263832147E+03  0.00000000000E+00 0.  1.
         23    2    1    2    0    0  0.22703993196E+02 -0.13140124658E+03 -0.30042572288E+03  0.35169119031E+03  0.12509724002E+03 0.  0.
          5    1    3    3  502    0 -0.18401802595E+02 -0.95195486372E+02 -0.27409894684E+03  0.29077226831E+03  0.41800000000E+01 0. -1.
         -5    1    3    3    0  502  0.41105795791E+02 -0.36205760205E+02 -0.26326776049E+02  0.60918921993E+02  0.41800000000E+01 0. -1.
        -11    1    1    2    0    0 -0.43253737222E+02  0.16551891369E+02 -0.54451332420E+02  0.71482854545E+02  0.00000000000E+00 0. -1.
         11    1    1    2    0    0  0.20549744026E+02  0.11484935521E+03 -0.15401071928E+03  0.19321482351E+03  0.00000000000E+00 0.  1.
</event>
<event>
 7    1  0.4394360E-006  0.4675425E+03  0.7561462E-02  0.1022616E+00
         -2   -1    0    0    0  501 -0.00000000000E+00  0.00000000000E+00  0.14037419967E+03  0.14037419967E+03  0.00000000000E+00 0.  1.
          2   -1    0    0  501    0  0.00000000000E+00 -0.00000000000E+00 -0.19917130183E+04  0.19917130183E+04  0.00000000000E+00 0. -1.
         23    2    1    2    0    0  0.21658686992E+03 -0.40228353956E+03 -0.44252304048E+03  0.64829392593E+03  0.12536528473E+03 0.  0.
          5    1    3    3  502    0  0.14490421692E+03 -0.13888339133E+03 -0.18835749040E+03  0.27528502513E+03  0.41800000000E+01 0.  1.
         -5    1    3    3    0  502  0.71682653001E+02 -0.26340014823E+03 -0.25416555008E+03  0.37300890080E+03  0.41800000000E+01 0.  1.
        -11    1    1    2    0    0 -0.17395371321E+03  0.26033922597E+03 -0.10465022081E+04  0.10923384450E+04  0.00000000000E+00 0.  1.
         11    1    1    2    0    0 -0.42633156710E+02  0.14194431359E+03 -0.36231357008E+03  0.39145484705E+03  0.00000000000E+00 0. -1.
</event>
<event>
 7    1  0.4394360E-006  0.3357002E+03  0.7561462E-02  0.1068642E+00
          2   -1    0    0  501    0  0.00000000000E+00  0.00000000000E+00  0.30406053911E+03  0.30406053911E+03  0.00000000000E+00 0. -1.
         -2   -1    0    0    0  501 -0.00000000000E+00 -0.00000000000E+00 -0.39354702508E+03  0.39354702508E+03  0.00000000000E+00 0.  1.
         23    2    1    2    0    0  0.31512393416E+03  0.47881517224E+02 -0.12382667287E+03  0.36411141719E+03  0.12509334773E+03 0.  0.
          5    1    3    3  502    0  0.22050056903E+02  0.43637527418E+02 -0.13397971700E+02  0.50866657589E+02  0.41800000000E+01 0.  1.
         -5    1    3    3    0  502  0.29307387725E+03  0.42439898060E+01 -0.11042870117E+03  0.31324475960E+03  0.41800000000E+01 0.  1.
        -11    1    1    2    0    0 -0.10593973229E+03 -0.56047216156E+02  0.32357800154E+02  0.12414324205E+03  0.00000000000E+00 0. -1.
         11    1    1    2    0    0 -0.20918420187E+03  0.81656989312E+01  0.19823867424E+01  0.20935290494E+03  0.00000000000E+00 0.  1.
</event>
<event>
 7    1  0.5843717E-006  0.2933508E+03  0.7561462E-02  0.1088613E+00
          1   -1    0    0  501    0  0.00000000000E+00  0.00000000000E+00  0.42688971469E+03  0.42688971469E+03  0.00000000000E+00 0. -1.
         -1   -1    0    0    0  501 -0.00000000000E+00 -0.00000000000E+00 -0.28950471234E+03  0.28950471234E+03  0.00000000000E+00 0.  1.
         23    2    1    2    0    0  0.23203756681E+03 -0.16330845423E+03 -0.10984160306E+03  0.32897369683E+03  0.12508969506E+03 0.  0.
          5    1    3    3  502    0  0.37579506215E+02 -0.63246183381E+02  0.17686087012E+02  0.75779740521E+02  0.41800000000E+01 0.  1.
         -5    1    3    3    0  502  0.19445806059E+03 -0.10006227085E+03 -0.12752769007E+03  0.25319395631E+03  0.41800000000E+01 0.  1.
        -11    1    1    2    0    0 -0.66969951678E+02  0.93619284895E+02  0.66529700715E+02  0.13295016363E+03  0.00000000000E+00 0.  1.
         11    1    1    2    0    0 -0.16506761513E+03  0.69689169339E+02  0.18069690469E+03  0.25447056657E+03  0.00000000000E+00 0. -1.
</event>
<event>
 7    1  0.4394360E-006  0.1402437E+03  0.7561462E-02  0.1213001E+00
         -4   -1    0    0    0  501 -0.00000000000E+00  0.00000000000E+00  0.12912700906E+03  0.12912700906E+03  0.00000000000E+00 0.  1.
          4   -1    0    0  501    0  0.00000000000E+00 -0.00000000000E+00 -0.17472053054E+03  0.17472053054E+03  0.00000000000E+00 0. -1.
         23    2    1    2    0    0  0.90285192214E+02 -0.50272542893E+02 -0.31859609554E+02  0.16535151618E+03  0.12508934679E+03 0.  0.
          5    1    3    3  502    0  0.89982086872E+02  0.29277902536E+01 -0.56710014619E+02  0.10648401792E+03  0.41800000000E+01 0. -1.
         -5    1    3    3    0  502  0.30310534216E+00 -0.53200333146E+02  0.24850405065E+02  0.58867498262E+02  0.41800000000E+01 0. -1.
        -11    1    1    2    0    0 -0.10578066091E+03  0.27233213514E+02 -0.16978305104E+02  0.11054166176E+03  0.00000000000E+00 0.  1.
         11    1    1    2    0    0  0.15495468697E+02  0.23039329379E+02  0.32443931815E+01  0.27954361654E+02  0.00000000000E+00 0. -1.
</event>
<event>
 7    1  0.4394360E-006  0.1496765E+03  0.7561462E-02  0.1200871E+00
         -1   -1    0    0    0  501 -0.00000000000E+00  0.00000000000E+00  0.60842152059E+02  0.60842152059E+02  0.00000000000E+00 0.  1.
          1   -1    0    0  501    0  0.00000000000E+00 -0.00000000000E+00 -0.67643657651E+03  0.67643657651E+03  0.00000000000E+00 0. -1.
         23    2    1    2    0    0  0.11156494511E+03  0.49459455245E+02 -0.10306449797E+03  0.20288382616E+03  0.12508629615E+03 0.  0.
          5    1    3    3  502    0  0.60750015055E+02 -0.20721314809E+02 -0.96389590068E+02  0.11588081243E+03  0.41800000000E+01 0.  1.
         -5    1    3    3    0  502  0.50814930055E+02  0.70180770054E+02 -0.66749078997E+01  0.87003013725E+02  0.41800000000E+01 0.  1.
        -11    1    1    2    0    0 -0.11756950874E+03 -0.63062241684E+02 -0.48602911579E+03  0.50400767564E+03  0.00000000000E+00 0.  1.
         11    1    1    2    0    0  0.60045636273E+01  0.13602786439E+02 -0.26500810687E+02  0.30387226763E+02  0.00000000000E+00 0. -1.
</event>
<event>
 7    1  0.4394360E-006  0.1168364E+03  0.7561462E-02  0.1248409E+00
         -2   -1    0    0    0  501 -0.00000000000E+00  0.00000000000E+00  0.67615074235E+02  0.67615074235E+02  0.00000000000E+00 0.  1.
          2   -1    0    0  501    0  0.00000000000E+00 -0.00000000000E+00 -0.23386903655E+03  0.23386903655E+03  0.00000000000E+00 0. -1.
         23    2    1    2    0    0  0.14688153025E+02 -0.54770559259E+02 -0.65234336508E+02  0.15206657095E+03  0.12511261863E+03 0.  0.
          5    1    3    3  502    0 -0.31545985525E+02  0.24825934483E+02 -0.39319613843E+02  0.56346966719E+02  0.41800000000E+01 0. -1.
         -5    1    3    3    0  502  0.46234138550E+02 -0.79596493742E+02 -0.25914722665E+02  0.95719604232E+02  0.41800000000E+01 0. -1.
        -11    1    1    2    0    0 -0.42417644217E+02  0.31049460644E+01 -0.72870525768E+02  0.84374230406E+02  0.00000000000E+00 0. -1.
         11    1    1    2    0    0  0.27729491192E+02  0.51665613194E+02 -0.28149100043E+02  0.65043309431E+02  0.00000000000E+00 0.  1.
</event>
<event>
 7    1  0.4394360E-006  0.1033984E+03  0.7561462E-02  0.1273308E+00
         -1   -1    0    0    0  501 -0.00000000000E+00  0.00000000000E+00  0.10906942952E+03  0.10906942952E+03  0.00000000000E+00 0.  1.
          1   -1    0    0  501    0  0.00000000000E+00 -0.00000000000E+00 -0.19117980579E+03  0.19117980579E+03  0.00000000000E+00 0. -1.
         23    2    1    2    0    0  0.31998945357E+02 -0.13517814161E+02  0.46515340295E+02  0.13790468674E+03  0.12508941577E+03 0.  0.
          5    1    3    3  502    0 -0.37079368738E+02  0.18560017771E+02 -0.10136727836E+02  0.42890319385E+02  0.41800000000E+01 0.  1.
         -5    1    3    3    0  502  0.69078314096E+02 -0.32077831932E+02  0.56652068132E+02  0.95014367352E+02  0.41800000000E+01 0.  1.
        -11    1    1    2    0    0  0.27605642883E+02 -0.51191496425E+00 -0.78489864036E+02  0.83204521105E+02  0.00000000000E+00 0. -1.
         11    1    1    2    0    0 -0.59604588241E+02  0.14029729125E+02 -0.50135852525E+02  0.79140027465E+02  0.00000000000E+00 0.  1.
</event>
<event>
 7    1  0.4394360E-006  0.1115070E+03  0.7561462E-02  0.1257804E+00
          2   -1    0    0  501    0  0.00000000000E+00  0.00000000000E+00  0.10639118362E+04  0.10639118362E+04  0.00000000000E+00 0. -1.
         -2   -1    0    0    0  501 -0.00000000000E+00 -0.00000000000E+00 -0.17422675386E+02  0.17422675386E+02  0.00000000000E+00 0.  1.
         23    2    1    2    0    0 -0.19032435853E-01  0.54416967985E+02  0.36575524605E+03  0.39036661110E+03  0.12509190335E+03 0.  0.
          5    1    3    3  502    0 -0.44530594307E+02  0.29376048960E+02  0.60201024863E+02  0.80545402578E+02  0.41800000000E+01 0. -1.
         -5    1    3    3    0  502  0.44511561871E+02  0.25040919025E+02  0.30555422119E+03  0.30982120853E+03  0.41800000000E+01 0. -1.
        -11    1    1    2    0    0 -0.23056978556E+02 -0.80323345898E+02  0.49973161605E+03  0.50667065460E+03  0.00000000000E+00 0.  1.
         11    1    1    2    0    0  0.23076010992E+02  0.25906377913E+02  0.18100229871E+03  0.18429724587E+03  0.00000000000E+00 0. -1.
</event>
<event>
 7    1  0.4394360E-006  0.1809268E+03  0.7561462E-02  0.1166909E+00
          2   -1    0    0  501    0  0.00000000000E+00  0.00000000000E+00  0.14543124162E+03  0.14543124162E+03  0.00000000000E+00 0.  1.
         -2   -1    0    0    0  501 -0.00000000000E+00 -0.00000000000E+00 -0.34359977212E+03  0.34359977212E+03  0.00000000000E+00 0. -1.
         23    2    1    2    0    0 -0.56447031935E+02  0.16496881342E+03 -0.19840693405E+03  0.29225766912E+03  0.12509299288E+03 0.  0.
          5    1    3    3  502    0 -0.35425617474E+02  0.84908193786E+02 -0.18161710063E+02  0.93870633629E+02  0.41800000000E+01 0.  1.
         -5    1    3    3    0  502 -0.21021414461E+02  0.80060619631E+02 -0.18024522399E+03  0.19838703549E+03  0.41800000000E+01 0.  1.
        -11    1    1    2    0    0 -0.15389483614E+02 -0.21652931454E+02 -0.22555818822E+02  0.34848968553E+02  0.00000000000E+00 0. -1.
         11    1    1    2    0    0  0.71836515549E+02 -0.14331588196E+03  0.22794222376E+02  0.16192437606E+03  0.00000000000E+00 0.  1.
</event>
<event>
 7    1  0.4394360E-006  0.8284591E+02  0.7561462E-02  0.1321164E+00
         -1   -1    0    0    0  501 -0.00000000000E+00  0.00000000000E+00  0.60411343100E+02  0.60411343100E+02  0.00000000000E+00 0.  1.
          1   -1    0    0  501    0  0.00000000000E+00 -0.00000000000E+00 -0.21359081322E+03  0.21359081322E+03  0.00000000000E+00 0. -1.
         23    2    1    2    0    0 -0.24417555804E+02 -0.13250677980E+01 -0.65634662226E+02  0.14336542501E+03  0.12509102033E+03 0.  0.
          5    1    3    3  502    0  0.19730045444E+02 -0.30968673216E+02  0.20342731024E+02  0.42185690933E+02  0.41800000000E+01 0. -1.
         -5    1    3    3    0  502 -0.44147601248E+02  0.29643605418E+02 -0.85977393249E+02  0.10117973408E+03  0.41800000000E+01 0. -1.
        -11    1    1    2    0    0  0.26516052190E+02 -0.32251438277E+02 -0.56901031399E+01  0.42138267269E+02  0.00000000000E+00 0.  1.
         11    1    1    2    0    0 -0.20984963854E+01  0.33576506075E+02 -0.81854704755E+02  0.88498464042E+02  0.00000000000E+00 0. -1.
</event>
<event>
 7    1  0.4394360E-006  0.9244038E+02  0.7561462E-02  0.1297047E+00
          1   -1    0    0  501    0  0.00000000000E+00  0.00000000000E+00  0.93826907295E+02  0.93826907295E+02  0.00000000000E+00 0. -1.
         -1   -1    0    0    0  501 -0.00000000000E+00 -0.00000000000E+00 -0.13625331630E+03  0.13625331630E+03  0.00000000000E+00 0.  1.
         23    2    1    2    0    0 -0.14467694519E+02 -0.37301106758E+02 -0.31024143691E+02  0.13494629378E+03  0.12508924000E+03 0.  0.
          5    1    3    3  502    0 -0.48624563737E+02 -0.22627938297E+02 -0.65026106147E+02  0.84393356793E+02  0.41800000000E+01 0. -1.
         -5    1    3    3    0  502  0.34156869218E+02 -0.14673168461E+02  0.34001962455E+02  0.50552936990E+02  0.41800000000E+01 0. -1.
        -11    1    1    2    0    0  0.49651951572E+02  0.29094182379E+02 -0.10750269706E+01  0.57558174277E+02  0.00000000000E+00 0. -1.
         11    1    1    2    0    0 -0.35184257053E+02  0.82069243793E+01 -0.10327238342E+02  0.37575755533E+02  0.00000000000E+00 0.  1.
</event>
<event>
 7    1  0.4394360E-006  0.6424458E+02  0.7561462E-02  0.1380836E+00
         -1   -1    0    0    0  501 -0.00000000000E+00  0.00000000000E+00  0.26236653610E+02  0.26236653610E+02  0.00000000000E+00 0.  1.
          1   -1    0    0  501    0  0.00000000000E+00 -0.00000000000E+00 -0.48733379710E+03  0.48733379710E+03  0.00000000000E+00 0. -1.
         23    2    1    2    0    0 -0.14693732099E+02  0.24111946361E+02 -0.25168429494E+03  0.28248312450E+03  0.12511770294E+03 0.  0.
          5    1    3    3  502    0  0.59834808384E+01  0.36383196889E+01 -0.25292827604E+03  0.25305972543E+03  0.41800000000E+01 0.  1.
         -5    1    3    3    0  502 -0.20677212937E+02  0.20473626673E+02  0.12439811007E+01  0.29423399072E+02  0.41800000000E+01 0.  1.
        -11    1    1    2    0    0 -0.34311204571E+02  0.38316043858E+01 -0.41677048684E+02  0.54119463581E+02  0.00000000000E+00 0.  1.
         11    1    1    2    0    0  0.49004936669E+02 -0.27943550747E+02 -0.16773579986E+03  0.17696786262E+03  0.00000000000E+00 0. -1.
</event>
<event>
 7    1  0.4394360E-006  0.8908394E+02  0.7561462E-02  0.1305085E+00
         -1   -1    0    0    0  501 -0.00000000000E+00  0.00000000000E+00  0.36253474882E+02  0.36253474882E+02  0.00000000000E+00 0.  1.
          1   -1    0    0  501    0  0.00000000000E+00 -0.00000000000E+00 -0.41733263804E+03  0.41733263804E+03  0.00000000000E+00 0. -1.
         23    2    1    2    0    0 -0.41733900245E+02 -0.21520282260E+02 -0.12266447808E+03  0.17543751634E+03  0.11630523196E+03 0.  0.
          5    1    3    3  502    0  0.34367446244E+01  0.15762837117E+02 -0.11502247080E+03  0.11622357522E+03  0.41800000000E+01 0. -1.
         -5    1    3    3    0  502 -0.45170644870E+02 -0.37283119378E+02 -0.76420072772E+01  0.59213941126E+02  0.41800000000E+01 0.  1.
        -11    1    1    2    0    0 -0.16593238721E+02  0.38592878298E+02 -0.11219327008E+03  0.11980014891E+03  0.00000000000E+00 0.  1.
         11    1    1    2    0    0  0.58327138966E+02 -0.17072596037E+02 -0.14622141500E+03  0.15834844767E+03  0.00000000000E+00 0. -1.
</event>
<event>
 7    1  0.4394360E-006  0.1227901E+03  0.7561462E-02  0.1238564E+00
         -4   -1    0    0    0  501 -0.00000000000E+00  0.00000000000E+00  0.10222076768E+03  0.10222076768E+03  0.00000000000E+00 0.  1.
          4   -1    0    0  501    0  0.00000000000E+00 -0.00000000000E+00 -0.16824177198E+03  0.16824177198E+03  0.00000000000E+00 0. -1.
         23    2    1    2    0    0 -0.47975849050E+02  0.40943561266E+02  0.36224143243E+01  0.14013841258E+03  0.12509034933E+03 0.  0.
          5    1    3    3  502    0 -0.83834203997E+02  0.55782685520E+02  0.65535678486E+01  0.10099655150E+03  0.41800000000E+01 0. -1.
         -5    1    3    3    0  502  0.35858354947E+02 -0.14839124254E+02 -0.29311535243E+01  0.39141861084E+02  0.41800000000E+01 0. -1.
        -11    1    1    2    0    0 -0.19317251656E+02  0.96313519950E+01 -0.83600372200E+00  0.21601343824E+02  0.00000000000E+00 0.  1.
         11    1    1    2    0    0  0.67293100706E+02 -0.50574913261E+02 -0.68807414902E+02  0.10872278326E+03  0.00000000000E+00 0. -1.
</event>
<event>
 7    1  0.4394360E-006  0.1161878E+03  0.7561462E-02  0.1249522E+00
          1   -1    0    0  501    0  0.00000000000E+00  0.00000000000E+00  0.32532148642E+03  0.32532148642E+03  0.00000000000E+00 0. -1.
         -1   -1    0    0    0  501 -0.00000000000E+00 -0.00000000000E+00 -0.56269002972E+02  0.56269002972E+02  0.00000000000E+00 0.  1.
         23    2    1    2    0    0  0.27460758215E+02  0.64990365410E+02  0.91509836987E+02  0.17029058753E+03  0.12508794146E+03 0.  0.
          5    1    3    3  502    0  0.74832409740E+02  0.52953511178E+02  0.43153745170E+02  0.10140849085E+03  0.41800000000E+01 0. -1.
         -5    1    3    3    0  502 -0.47371651525E+02  0.12036854232E+02  0.48356091817E+02  0.68882096686E+02  0.41800000000E+01 0. -1.
        -11    1    1    2    0    0 -0.40248470598E+02 -0.20319658538E+02  0.15143109124E+03  0.15800064336E+03  0.00000000000E+00 0. -1.
         11    1    1    2    0    0  0.12787712383E+02 -0.44670706872E+02  0.26111555222E+02  0.53299258499E+02  0.00000000000E+00 0.  1.
</event>
<event>
 7    1  0.4394360E-006  0.1080903E+03  0.7561462E-02  0.1264148E+00
         -4   -1    0    0    0  501 -0.00000000000E+00  0.00000000000E+00  0.88970149018E+03  0.88970149018E+03  0.00000000000E+00 0.  1.
          4   -1    0    0  501    0  0.00000000000E+00 -0.00000000000E+00 -0.18038692605E+02  0.18038692605E+02  0.00000000000E+00 0. -1.
         23    2    1    2    0    0  0.26477194759E+02 -0.45023141452E+02  0.62346516947E+03  0.63803065413E+03  0.12508466317E+03 0.  0.
          5    1    3    3  502    0  0.72344953314E+02 -0.31200178664E+02  0.48680315602E+03  0.49315517692E+03  0.41800000000E+01 0.  1.
         -5    1    3    3    0  502 -0.45867758555E+02 -0.13822962788E+02  0.13666201345E+03  0.14487547721E+03  0.41800000000E+01 0.  1.
        -11    1    1    2    0    0 -0.37643798478E+01  0.61197403769E+02  0.88919099480E+02  0.10800879148E+03  0.00000000000E+00 0. -1.
         11    1    1    2    0    0 -0.22712814911E+02 -0.16174262317E+02  0.15927852863E+03  0.16170073718E+03  0.00000000000E+00 0.  1.
</event>
<event>
 7    1  0.4394360E-006  0.2028601E+03  0.7561462E-02  0.1147348E+00
         -2   -1    0    0    0  501 -0.00000000000E+00  0.00000000000E+00  0.92099348991E+02  0.92099348991E+02  0.00000000000E+00 0.  1.
          2   -1    0    0  501    0  0.00000000000E+00 -0.00000000000E+00 -0.53180842007E+03  0.53180842007E+03  0.00000000000E+00 0. -1.
         23    2    1    2    0    0 -0.10940019288E+03 -0.14400231233E+03 -0.13870830622E+03  0.25998698022E+03  0.12509263571E+03 0.  0.
          5    1    3    3  502    0 -0.64470484815E+02 -0.15568559151E+03 -0.84689048843E+02  0.18863762671E+03  0.41800000000E+01 0. -1.
         -5    1    3    3    0  502 -0.44929708069E+02  0.11683279176E+02 -0.54019257373E+02  0.71349353512E+02  0.41800000000E+01 0. -1.
        -11    1    1    2    0    0  0.10514851280E+03  0.96064238860E+02 -0.15644657894E+03  0.21156578125E+03  0.00000000000E+00 0.  1.
         11    1    1    2    0    0  0.42516800798E+01  0.47938073472E+02 -0.14455418592E+03  0.15235500759E+03  0.00000000000E+00 0. -1.
</event>
<event>
 7    1  0.4394360E-006  0.6358070E+02  0.7561462E-02  0.1383391E+00
         -1   -1    0    0    0  501 -0.00000000000E+00  0.00000000000E+00  0.25783332007E+03  0.25783332007E+03  0.00000000000E+00 0.  1.
          1   -1    0    0  501    0  0.00000000000E+00 -0.00000000000E+00 -0.63474209962E+02  0.63474209962E+02  0.00000000000E+00 0. -1.
         23    2    1    2    0    0  0.18812894210E+02 -0.54710456218E+02  0.15149847371E+03  0.20481028540E+03  0.12509319110E+03 0.  0.
          5    1    3    3  502    0  0.20754568177E+02 -0.55586553619E+02  0.17292861667E+03  0.18287262208E+03  0.41800000000E+01 0.  1.
         -5    1    3    3    0  502 -0.19416739669E+01  0.87609740159E+00 -0.21430142959E+02  0.21937663315E+02  0.41800000000E+01 0.  1.
        -11    1    1    2    0    0  0.35761583204E+01  0.27586618003E+02  0.67864520634E+02  0.73344417388E+02  0.00000000000E+00 0.  1.
         11    1    1    2    0    0 -0.22389052531E+02  0.27123838215E+02 -0.25003884235E+02  0.43152827249E+02  0.00000000000E+00 0. -1.
</event>
<event>
 7    1  0.4394360E-006  0.1081385E+03  0.7561462E-02  0.1264056E+00
         -2   -1    0    0    0  501 -0.00000000000E+00  0.00000000000E+00  0.20594579845E+02  0.20594579845E+02  0.00000000000E+00 0.  1.
          2   -1    0    0  501    0  0.00000000000E+00 -0.00000000000E+00 -0.77475094009E+03  0.77475094009E+03  0.00000000000E+00 0. -1.
         23    2    1    2    0    0 -0.54177191976E+02 -0.16684019247E+02 -0.34025870709E+03  0.36692976636E+03  0.12509173057E+03 0.  0.
          5    1    3    3  502    0 -0.84063287195E+02 -0.27806820416E+01 -0.31245734962E+03  0.32360691615E+03  0.41800000000E+01 0.  1.
         -5    1    3    3    0  502  0.29886095219E+02 -0.13903337206E+02 -0.27801357475E+02  0.43322850210E+02  0.41800000000E+01 0.  1.
        -11    1    1    2    0    0  0.63529582094E+02  0.39066621959E+02 -0.37666803518E+03  0.38398049102E+03  0.00000000000E+00 0. -1.
         11    1    1    2    0    0 -0.93523901184E+01 -0.22382602711E+02 -0.37229617969E+02  0.44435262565E+02  0.00000000000E+00 0.  1.
</event>
<event>
 7    1  0.4394360E-006  0.2004236E+03  0.7561462E-02  0.1149382E+00
          1   -1    0    0  501    0  0.00000000000E+00  0.00000000000E+00  0.12435762869E+04  0.12435762869E+04  0.00000000000E+00 0. -1.
         -1   -1    0    0    0  501 -0.00000000000E+00 -0.00000000000E+00 -0.34400333551E+02  0.34400333551E+02  0.00000000000E+00 0.  1.
         23    2    1    2    0    0  0.94360907757E+02  0.14500566180E+03  0.59930675306E+03  0.63619697504E+03  0.12508950362E+03 0.  0.
          5    1    3    3  502    0 -0.11963976740E+02  0.71286387585E+02  0.12412830775E+03  0.14370175705E+03  0.41800000000E+01 0.  1.
         -5    1    3    3    0  502  0.10632488450E+03  0.73719274218E+02  0.47517844530E+03  0.49249521798E+03  0.41800000000E+01 0.  1.
        -11    1    1    2    0    0 -0.86225691336E+02 -0.42435897915E+02  0.26494583709E+03  0.28183678232E+03  0.00000000000E+00 0.  1.
         11    1    1    2    0    0 -0.81352164209E+01 -0.10256976389E+03  0.34492336323E+03  0.35994286313E+03  0.00000000000E+00 0. -1.
</event>
<event>
 7    1  0.6959401E-006  0.2293915E+03  0.7561462E-02  0.1127069E+00
         -2   -1    0    0    0  501 -0.00000000000E+00  0.00000000000E+00  0.29945663259E+02  0.29945663259E+02  0.00000000000E+00 0.  1.
          2   -1    0    0  501    0  0.00000000000E+00 -0.00000000000E+00 -0.19871314222E+04  0.19871314222E+04  0.00000000000E+00 0. -1.
         23    2    1    2    0    0 -0.14124919003E+03 -0.16525090133E+03 -0.96971021056E+03  0.10016213864E+04  0.12509322574E+03 0.  0.
          5    1    3    3  502    0 -0.30371392721E+02 -0.60682152892E+01 -0.34740023031E+02  0.46728859742E+02  0.41800000000E+01 0. -1.
         -5    1    3    3    0  502 -0.11087779731E+03 -0.15918268605E+03 -0.93497018753E+03  0.95489252665E+03  0.41800000000E+01 0. -1.
        -11    1    1    2    0    0  0.62007844579E+02  0.13520654071E+03 -0.54480598565E+03  0.56474715000E+03  0.00000000000E+00 0.  1.
         11    1    1    2    0    0  0.79241345448E+02  0.30044360627E+02 -0.44266956276E+03  0.45070854910E+03  0.00000000000E+00 0. -1.
</event>
<event>
 7    1  0.4394360E-006  0.1538904E+03  0.7561462E-02  0.1195772E+00
         -4   -1    0    0    0  501 -0.00000000000E+00  0.00000000000E+00  0.69198519113E+03  0.69198519113E+03  0.00000000000E+00 0. -1.
          4   -1    0    0  501    0  0.00000000000E+00 -0.00000000000E+00 -0.50893046788E+02  0.50893046788E+02  0.00000000000E+00 0.  1.
         23    2    1    2    0    0 -0.21265324997E+02 -0.12832918901E+03  0.49499649186E+03  0.52686717659E+03  0.12508756939E+03 0.  0.
          5    1    3    3  502    0  0.32399150226E+02 -0.11211359450E+03  0.25644490864E+03  0.28178116789E+03  0.41800000000E+01 0. -1.
         -5    1    3    3    0  502 -0.53664475223E+02 -0.16215594510E+02  0.23855158321E+03  0.24508600870E+03  0.41800000000E+01 0. -1.
        -11    1    1    2    0    0 -0.68266981106E+01  0.66818596199E+02  0.13026396631E+03  0.14656066840E+03  0.00000000000E+00 0. -1.
         11    1    1    2    0    0  0.28092023108E+02  0.61510592811E+02  0.15831686178E+02  0.69450392926E+02  0.00000000000E+00 0.  1.
</event>
<event>
 7    1  0.4394360E-006  0.1518790E+03  0.7561462E-02  0.1198183E+00
         -3   -1    0    0    0  501 -0.00000000000E+00  0.00000000000E+00  0.15728213830E+04  0.15728213830E+04  0.00000000000E+00 0.  1.
          3   -1    0    0  501    0  0.00000000000E+00 -0.00000000000E+00 -0.16977296987E+02  0.16977296987E+02  0.00000000000E+00 0. -1.
         23    2    1    2    0    0  0.52719278198E+02 -0.10238911832E+03  0.10047102737E+04  0.10189960501E+04  0.12508941666E+03 0.  0.
          5    1    3    3  502    0  0.74628630073E+02 -0.10913772914E+03  0.63921114474E+03  0.65275480565E+03  0.41800000000E+01 0.  1.
         -5    1    3    3    0  502 -0.21909351874E+02  0.67486108198E+01  0.36549912898E+03  0.36624124444E+03  0.41800000000E+01 0.  1.
        -11    1    1    2    0    0  0.18707467394E+02  0.64829893891E+02  0.27128829198E+03  0.27955361175E+03  0.00000000000E+00 0.  1.
         11    1    1    2    0    0 -0.71426745592E+02  0.37559224430E+02  0.27984552036E+03  0.29124901818E+03  0.00000000000E+00 0. -1.
</event>
<event>
 7    1  0.4394360E-006  0.8959653E+02  0.7561462E-02  0.1303832E+00
          2   -1    0    0  501    0  0.00000000000E+00  0.00000000000E+00  0.12024186610E+02  0.12024186610E+02  0.00000000000E+00 0. -1.
         -2   -1    0    0    0  501 -0.00000000000E+00 -0.00000000000E+00 -0.11267817872E+04  0.11267817872E+04  0.00000000000E+00 0.  1.
         23    2    1    2    0    0 -0.19083974130E+02  0.32134506485E+02 -0.68492127232E+03  0.69725422828E+03  0.12509790167E+03 0.  0.
          5    1    3    3  502    0  0.95038284188E+01  0.47031645405E+02 -0.63997629506E+03  0.64178612408E+03  0.41800000000E+01 0.  1.
         -5    1    3    3    0  502 -0.28587802549E+02 -0.14897138920E+02 -0.44944977265E+02  0.55468104204E+02  0.41800000000E+01 0.  1.
        -11    1    1    2    0    0  0.44450217466E+02  0.13377084335E+02 -0.15425204147E+03  0.16108525853E+03  0.00000000000E+00 0. -1.
         11    1    1    2    0    0 -0.25366243336E+02 -0.45511590820E+02 -0.27558428681E+03  0.28046648701E+03  0.00000000000E+00 0.  1.
</event>
<event>
 7    1  0.4394360E-006  0.6138526E+02  0.7561462E-02  0.1392109E+00
         -2   -1    0    0    0  501 -0.00000000000E+00  0.00000000000E+00  0.41803806244E+02  0.41803806244E+02  0.00000000000E+00 0. -1.
          2   -1    0    0  501    0  0.00000000000E+00 -0.00000000000E+00 -0.29252624730E+03  0.29252624730E+03  0.00000000000E+00 0.  1.
         23    2    1    2    0    0 -0.80218753841E+01 -0.97124360773E+01 -0.11043263768E+03  0.16733191909E+03  0.12508365913E+03 0.  0.
          5    1    3    3  502    0  0.14851434019E+02 -0.14221344424E+02  0.23393976959E+02  0.31425503777E+02  0.41800000000E+01 0. -1.
         -5    1    3    3    0  502 -0.22873309404E+02  0.45089083464E+01 -0.13382661464E+03  0.13590641532E+03  0.41800000000E+01 0. -1.
        -11    1    1    2    0    0 -0.16220856898E+02  0.37720060814E+02 -0.11509441975E+03  0.12219920067E+03  0.00000000000E+00 0.  1.
         11    1    1    2    0    0  0.24242732282E+02 -0.28007624737E+02 -0.25195383617E+02  0.44798933776E+02  0.00000000000E+00 0. -1.
</event>
<event>
 7    1  0.4394360E-006  0.9811428E+02  0.7561462E-02  0.1284312E+00
         -2   -1    0    0    0  501 -0.00000000000E+00  0.00000000000E+00  0.24123424785E+03  0.24123424785E+03  0.00000000000E+00 0.  1.
          2   -1    0    0  501    0  0.00000000000E+00 -0.00000000000E+00 -0.51721943071E+02  0.51721943071E+02  0.00000000000E+00 0. -1.
         23    2    1    2    0    0  0.10773383395E+02 -0.22044782368E+02  0.12448936088E+03  0.17817119656E+03  0.12508131792E+03 0.  0.
          5    1    3    3  502    0  0.40318679059E+02  0.28233157854E+02  0.11150618423E+02  0.50641048317E+02  0.41800000000E+01 0.  1.
         -5    1    3    3    0  502 -0.29545295665E+02 -0.50277940221E+02  0.11333874246E+03  0.12753014824E+03  0.41800000000E+01 0.  1.
        -11    1    1    2    0    0  0.37340772053E+02  0.73598145840E+01  0.82720007091E+01  0.38947735800E+02  0.00000000000E+00 0. -1.
         11    1    1    2    0    0 -0.48114155447E+02  0.14684967784E+02  0.56750943189E+02  0.75837258561E+02  0.00000000000E+00 0.  1.
</event>
<event>
 7    1  0.4394360E-006  0.3872489E+03  0.7561462E-02  0.1048287E+00
          2   -1    0    0  501    0  0.00000000000E+00  0.00000000000E+00  0.53201834002E+03  0.53201834002E+03  0.00000000000E+00 0. -1.
         -2   -1    0    0    0  501 -0.00000000000E+00 -0.00000000000E+00 -0.29253479574E+03  0.29253479574E+03  0.00000000000E+00 0.  1.
         23    2    1    2    0    0 -0.26804513422E+03  0.26153633055E+03  0.59203263841E+02  0.39925037700E+03  0.12508553437E+03 0.  0.
          5    1    3    3  502    0 -0.93201694769E+02  0.18122217907E+02  0.17407647824E+02  0.96620232314E+02  0.41800000000E+01 0. -1.
         -5    1    3    3    0  502 -0.17484343945E+03  0.24341411265E+03  0.41795616017E+02  0.30263014468E+03  0.41800000000E+01 0. -1.
        -11    1    1    2    0    0  0.16304814336E+03 -0.11527576955E+03  0.58992266771E+02  0.20821452311E+03  0.00000000000E+00 0.  1.
         11    1    1    2    0    0  0.10499699086E+03 -0.14626056101E+03  0.12128801367E+03  0.21708823565E+03  0.00000000000E+00 0. -1.
</event>
<event>
 7    1  0.4394360E-006  0.1436946E+03  0.7561462E-02  0.1208442E+00
         -1   -1    0    0    0  501 -0.00000000000E+00  0.00000000000E+00  0.37557198976E+03  0.37557198976E+03  0.00000000000E+00 0.  1.
          1   -1    0    0  501    0  0.00000000000E+00 -0.00000000000E+00 -0.83102814274E+02  0.83102814274E+02  0.00000000000E+00 0. -1.
         23    2    1    2    0    0  0.34779291634E+02 -0.12370543806E+03  0.22563247059E+03  0.28821860970E+03  0.12508925080E+03 0.  0.
          5    1    3    3  502    0  0.30305798300E+02  0.33053194592E+01  0.11699026686E+03  0.12096925844E+03  0.41800000000E+01 0. -1.
         -5    1    3    3    0  502  0.44734933334E+01 -0.12701075752E+03  0.10864220373E+03  0.16724935127E+03  0.41800000000E+01 0. -1.
        -11    1    1    2    0    0 -0.15691443931E+02  0.83400456217E+02 -0.59735070299E+01  0.85073734466E+02  0.00000000000E+00 0. -1.
         11    1    1    2    0    0 -0.19087847703E+02  0.40304981843E+02  0.72810211931E+02  0.85382459866E+02  0.00000000000E+00 0.  1.
</event>
<event>
 7    1  0.4394360E-006  0.2246412E+03  0.7561462E-02  0.1130469E+00
         -3   -1    0    0    0  501 -0.00000000000E+00  0.00000000000E+00  0.23690546893E+03  0.23690546893E+03  0.00000000000E+00 0.  1.
          3   -1    0    0  501    0  0.00000000000E+00 -0.00000000000E+00 -0.24935252978E+03  0.24935252978E+03  0.00000000000E+00 0. -1.
         23    2    1    2    0    0  0.17734665333E+03  0.86751910905E+02  0.83890201522E+02  0.24831878453E+03  0.12508766265E+03 0.  0.
          5    1    3    3  502    0  0.69057455415E+01 -0.27338761068E+02  0.12230227251E+02  0.31018511197E+02  0.41800000000E+01 0.  1.
         -5    1    3    3    0  502  0.17044090778E+03  0.11409067197E+03  0.71659974271E+02  0.21730027333E+03  0.41800000000E+01 0.  1.
        -11    1    1    2    0    0 -0.11219775582E+03 -0.66681233403E+01 -0.34373184291E+02  0.11753431873E+03  0.00000000000E+00 0.  1.
         11    1    1    2    0    0 -0.65148897501E+02 -0.80083787565E+02 -0.61964078083E+02  0.12040489545E+03  0.00000000000E+00 0. -1.
</event>
<event>
 7    1  0.4394360E-006  0.1547853E+03  0.7561462E-02  0.1194713E+00
          3   -1    0    0  501    0  0.00000000000E+00  0.00000000000E+00  0.34442959324E+03  0.34442959324E+03  0.00000000000E+00 0. -1.
         -3   -1    0    0    0  501 -0.00000000000E+00 -0.00000000000E+00 -0.79861923247E+02  0.79861923247E+02  0.00000000000E+00 0.  1.
         23    2    1    2    0    0 -0.39600011619E+02 -0.11808637004E+03  0.13563712665E+03  0.22261544016E+03  0.12509057662E+03 0.  0.
          5    1    3    3  502    0  0.44375467182E+02 -0.25074793423E+02  0.39184869866E+02  0.64427119905E+02  0.41800000000E+01 0. -1.
         -5    1    3    3    0  502 -0.83975478801E+02 -0.93011576617E+02  0.96452256786E+02  0.15818832025E+03  0.41800000000E+01 0. -1.
        -11    1    1    2    0    0  0.33471637694E+00  0.74040751456E+02  0.18263299217E+02  0.76260691116E+02  0.00000000000E+00 0.  1.
         11    1    1    2    0    0  0.39265295242E+02  0.44045618584E+02  0.11066724412E+03  0.12541538521E+03  0.00000000000E+00 0. -1.
</event>
<event>
 7    1  0.4394360E-006  0.1128183E+03  0.7561462E-02  0.1255438E+00
          1   -1    0    0  501    0  0.00000000000E+00  0.00000000000E+00  0.11615988240E+04  0.11615988240E+04  0.00000000000E+00 0. -1.
         -1   -1    0    0    0  501 -0.00000000000E+00 -0.00000000000E+00 -0.11132276052E+02  0.11132276052E+02  0.00000000000E+00 0.  1.
         23    2    1    2    0    0 -0.26892128238E+02  0.22740469078E+02  0.71259816479E+03  0.72435053063E+03  0.12508889349E+03 0.  0.
          5    1    3    3  502    0 -0.33727571665E+02 -0.47766074434E+02  0.34972169490E+03  0.35460101980E+03  0.41800000000E+01 0. -1.
         -5    1    3    3    0  502  0.68354434270E+01  0.70506543512E+02  0.36287646988E+03  0.36974951083E+03  0.41800000000E+01 0. -1.
        -11    1    1    2    0    0  0.28807827108E+02  0.30976971924E+02  0.17119674500E+03  0.17634565260E+03  0.00000000000E+00 0. -1.
         11    1    1    2    0    0 -0.19156988698E+01 -0.53717441001E+02  0.26667163811E+03  0.27203491677E+03  0.00000000000E+00 0.  1.
</event>
<event>
 7    1  0.4394360E-006  0.1713708E+03  0.7561462E-02  0.1176426E+00
         -2   -1    0    0    0  501 -0.00000000000E+00  0.00000000000E+00  0.72708675985E+02  0.72708675985E+02  0.00000000000E+00 0.  1.
          2   -1    0    0  501    0  0.00000000000E+00 -0.00000000000E+00 -0.65354124483E+03  0.65354124483E+03  0.00000000000E+00 0. -1.
         23    2    1    2    0    0  0.28454822121E+02  0.15186748791E+03 -0.12070929624E+03  0.23257785312E+03  0.12509321635E+03 0.  0.
          5    1    3    3  502    0  0.41218293896E+02  0.61541391431E+01 -0.62190341938E+02  0.74979545281E+02  0.41800000000E+01 0. -1.
         -5    1    3    3    0  502 -0.12763471775E+02  0.14571334877E+03 -0.58518954306E+02  0.15759830784E+03  0.41800000000E+01 0. -1.
        -11    1    1    2    0    0 -0.11631601976E+02 -0.56210573944E+02 -0.30716879689E+03  0.31248614781E+03  0.00000000000E+00 0.  1.
         11    1    1    2    0    0 -0.16823220145E+02 -0.95656913967E+02 -0.15295447571E+03  0.18118591988E+03  0.00000000000E+00 0. -1.
</event>
<event>
 7    1  0.4394360E-006  0.6970754E+02  0.7561462E-02  0.1361090E+00
         -2   -1    0    0    0  501 -0.00000000000E+00  0.00000000000E+00  0.13141806248E+03  0.13141806248E+03  0.00000000000E+00 0.  1.
          2   -1    0    0  501    0  0.00000000000E+00 -0.00000000000E+00 -0.33451729635E+03  0.33451729635E+03  0.00000000000E+00 0. -1.
         23    2    1    2    0    0 -0.28271370251E+02 -0.21486696102E+02  0.91990073891E+02  0.15485813116E+03  0.11940652666E+03 0.  0.
          5    1    3    3  502    0 -0.20698864450E+02  0.67710027823E+01 -0.25450607899E+02  0.33756411401E+02  0.41800000000E+01 0. -1.
         -5    1    3    3    0  502 -0.75725058014E+01 -0.28257698884E+02  0.11744068179E+03  0.12110171976E+03  0.41800000000E+01 0.  1.
        -11    1    1    2    0    0 -0.11600264224E+02 -0.24328256182E+02 -0.36040579461E+02  0.45003928126E+02  0.00000000000E+00 0.  1.
         11    1    1    2    0    0  0.39871634476E+02  0.45814952283E+02 -0.25904872830E+03  0.26607329953E+03  0.00000000000E+00 0. -1.
</event>
<event>
 7    1  0.4394360E-006  0.9145433E+02  0.7561462E-02  0.1299368E+00
         -1   -1    0    0    0  501 -0.00000000000E+00  0.00000000000E+00  0.20273485735E+02  0.20273485735E+02  0.00000000000E+00 0.  1.
          1   -1    0    0  501    0  0.00000000000E+00 -0.00000000000E+00 -0.79301929473E+03  0.79301929473E+03  0.00000000000E+00 0. -1.
         23    2    1    2    0    0 -0.41576918014E+02 -0.61348726001E+02 -0.37552151102E+03  0.39892988193E+03  0.11241147258E+03 0.  0.
          5    1    3    3  502    0 -0.30019198483E+02 -0.41378068072E+02 -0.37163826793E+03  0.37516099395E+03  0.41800000000E+01 0. -1.
         -5    1    3    3    0  502 -0.11557719530E+02 -0.19970657929E+02 -0.38832430911E+01  0.23768887979E+02  0.41800000000E+01 0.  1.
        -11    1    1    2    0    0  0.59203302318E+02  0.67234306978E+02 -0.37420417807E+03  0.38477818276E+03  0.00000000000E+00 0. -1.
         11    1    1    2    0    0 -0.17626384304E+02 -0.58855809767E+01 -0.23020119904E+02  0.29584715775E+02  0.00000000000E+00 0.  1.
</event>
<event>
 7    1  0.4394360E-006  0.1045395E+03  0.7561462E-02  0.1271030E+00
          2   -1    0    0  501    0  0.00000000000E+00  0.00000000000E+00  0.32319158414E+03  0.32319158414E+03  0.00000000000E+00 0. -1.
         -2   -1    0    0    0  501 -0.00000000000E+00 -0.00000000000E+00 -0.47041676635E+02  0.47041676635E+02  0.00000000000E+00 0.  1.
         23    2    1    2    0    0 -0.34075008825E+02 -0.48086249529E+02  0.13976817335E+03  0.19661082298E+03  0.12508908750E+03 0.  0.
          5    1    3    3  502    0 -0.21977567884E+01 -0.87144786710E+02  0.81018566099E+02  0.11908200720E+03  0.41800000000E+01 0. -1.
         -5    1    3    3    0  502 -0.31877252037E+02  0.39058537181E+02  0.58749607253E+02  0.77528815782E+02  0.41800000000E+01 0. -1.
        -11    1    1    2    0    0 -0.69714897017E+01  0.20779852242E+02 -0.61836452952E+01  0.22773699678E+02  0.00000000000E+00 0.  1.
         11    1    1    2    0    0  0.41046498527E+02  0.27306397287E+02  0.14256537945E+03  0.15084873812E+03  0.00000000000E+00 0. -1.
</event>
<event>
 7    1  0.4394360E-006  0.1097254E+03  0.7561462E-02  0.1261079E+00
         -2   -1    0    0    0  501 -0.00000000000E+00  0.00000000000E+00  0.74470459082E+03  0.74470459082E+03  0.00000000000E+00 0. -1.
          2   -1    0    0  501    0  0.00000000000E+00 -0.00000000000E+00 -0.21183646925E+02  0.21183646925E+02  0.00000000000E+00 0.  1.
         23    2    1    2    0    0 -0.12678469674E+02 -0.27410369738E+02  0.57730966010E+03  0.59147737355E+03  0.12508784038E+03 0.  0.
          5    1    3    3  502    0 -0.98531276565E+01  0.48246727922E+02  0.16455412114E+03  0.17181490641E+03  0.41800000000E+01 0. -1.
         -5    1    3    3    0  502 -0.28253420173E+01 -0.75657097660E+02  0.41275553895E+03  0.41966246713E+03  0.41800000000E+01 0. -1.
        -11    1    1    2    0    0  0.16325841201E+02 -0.31342697068E+02  0.43713782245E+02  0.56212031707E+02  0.00000000000E+00 0.  1.
         11    1    1    2    0    0 -0.36473715276E+01  0.58753066806E+02  0.10249750155E+03  0.11819883249E+03  0.00000000000E+00 0. -1.
</event>
<event>
 7    1  0.4394360E-006  0.1312547E+03  0.7561462E-02  0.1225606E+00
         -3   -1    0    0    0  501 -0.00000000000E+00  0.00000000000E+00  0.17100564843E+03  0.17100564843E+03  0.00000000000E+00 0.  1.
          3   -1    0    0  501    0  0.00000000000E+00 -0.00000000000E+00 -0.16143874969E+03  0.16143874969E+03  0.00000000000E+00 0. -1.
         23    2    1    2    0    0  0.11798620928E+03  0.22671053346E+02  0.41184264604E+02  0.17826373571E+03  0.12508834310E+03 0.  0.
          5    1    3    3  502    0  0.47887722164E+02  0.20460513260E+02 -0.43675113833E+02  0.68094452823E+02  0.41800000000E+01 0.  1.
         -5    1    3    3    0  502  0.70098487113E+02  0.22105400866E+01  0.84859378437E+02  0.11016928289E+03  0.41800000000E+01 0.  1.
        -11    1    1    2    0    0 -0.80896006784E+02 -0.48949415803E+02 -0.47776858857E+02  0.10593789437E+03  0.00000000000E+00 0. -1.
         11    1    1    2    0    0 -0.37090202492E+02  0.26278362456E+02  0.16159492997E+02  0.48242768041E+02  0.00000000000E+00 0.  1.
</event>
<event>
 7    1  0.4394360E-006  0.1281903E+03  0.7561462E-02  0.1230166E+00
         -2   -1    0    0    0  501 -0.00000000000E+00  0.00000000000E+00  0.13318265744E+03  0.13318265744E+03  0.00000000000E+00 0.  1.
          2   -1    0    0  501    0  0.00000000000E+00 -0.00000000000E+00 -0.13288929967E+03  0.13288929967E+03  0.00000000000E+00 0. -1.
         23    2    1    2    0    0 -0.70306379686E+02 -0.28215402682E+02  0.40308248075E+01  0.14629802727E+03  0.12509104389E+03 0.  0.
          5    1    3    3  502    0 -0.46738918803E+02 -0.72607805033E+02 -0.22471870140E+02  0.89324561181E+02  0.41800000000E+01 0. -1.
         -5    1    3    3    0  502 -0.23567460884E+02  0.44392402351E+02  0.26502694948E+02  0.56973466092E+02  0.41800000000E+01 0. -1.
        -11    1    1    2    0    0  0.69711741167E+02  0.57401238984E+02 -0.59465756259E+01  0.90498568249E+02  0.00000000000E+00 0. -1.
         11    1    1    2    0    0  0.59463851935E+00 -0.29185836302E+02  0.22091085902E+01  0.29275361593E+02  0.00000000000E+00 0.  1.
</event>
<event>
 7    1  0.4394360E-006  0.9411067E+02  0.7561462E-02  0.1293192E+00
          2   -1    0    0  501    0  0.00000000000E+00  0.00000000000E+00  0.84820051702E+02  0.84820051702E+02  0.00000000000E+00 0.  1.
         -2   -1    0    0    0  501 -0.00000000000E+00 -0.00000000000E+00 -0.17225168559E+03  0.17225168559E+03  0.00000000000E+00 0. -1.
         23    2    1    2    0    0 -0.52703012064E+02 -0.10999274450E+02 -0.52893283621E+02  0.14609433701E+03  0.12508902563E+03 0.  0.
          5    1    3    3  502    0  0.29530448674E+02  0.88116343491E+01 -0.52947192663E+02  0.61404966490E+02  0.41800000000E+01 0. -1.
         -5    1    3    3    0  502 -0.82233460737E+02 -0.19810908799E+02  0.53909042418E-01  0.84689370517E+02  0.41800000000E+01 0. -1.
        -11    1    1    2    0    0  0.31324007716E+02  0.30336252077E+02  0.21003285913E+02  0.48400616408E+02  0.00000000000E+00 0.  1.
         11    1    1    2    0    0  0.21379004348E+02 -0.19336977627E+02 -0.55541636178E+02  0.62576783874E+02  0.00000000000E+00 0. -1.
</event>
<event>
 7    1  0.4394360E-006  0.1057662E+03  0.7561462E-02  0.1268617E+00
          3   -1    0    0  501    0  0.00000000000E+00  0.00000000000E+00  0.24083380198E+02  0.24083380198E+02  0.00000000000E+00 0. -1.
         -3   -1    0    0    0  501 -0.00000000000E+00 -0.00000000000E+00 -0.81382344629E+03  0.81382344629E+03  0.00000000000E+00 0.  1.
         23    2    1    2    0    0  0.86136317431E+02 -0.61949851392E+01 -0.50360767444E+03  0.52604662104E+03  0.12508602934E+03 0.  0.
          5    1    3    3  502    0  0.22858065994E+02 -0.15838914037E+02 -0.12512297895E+02  0.30779739724E+02  0.41800000000E+01 0.  1.
         -5    1    3    3    0  502  0.63278251437E+02  0.96439288982E+01 -0.49109537654E+03  0.49526688132E+03  0.41800000000E+01 0.  1.
        -11    1    1    2    0    0 -0.30763761311E+02  0.42930640786E+02 -0.17051581370E+03  0.17850795962E+03  0.00000000000E+00 0.  1.
         11    1    1    2    0    0 -0.55372556120E+02 -0.36735655647E+02 -0.11561657796E+03  0.13335224582E+03  0.00000000000E+00 0. -1.
</event>
<event>
 7    1  0.4394360E-006  0.1138899E+03  0.7561462E-02  0.1253531E+00
          4   -1    0    0  501    0  0.00000000000E+00  0.00000000000E+00  0.13300894852E+03  0.13300894852E+03  0.00000000000E+00 0. -1.
         -4   -1    0    0    0  501 -0.00000000000E+00 -0.00000000000E+00 -0.47004394975E+03  0.47004394975E+03  0.00000000000E+00 0.  1.
         23    2    1    2    0    0 -0.52717879715E+02 -0.45643149734E+02 -0.43378313329E+03  0.45381502161E+03  0.11365647873E+03 0.  0.
          5    1    3    3  502    0 -0.44021939789E+02  0.19495351065E+02 -0.76295061775E+02  0.90312838219E+02  0.41800000000E+01 0. -1.
         -5    1    3    3    0  502 -0.86959399259E+01 -0.65138500798E+02 -0.35748807151E+03  0.36350218339E+03  0.41800000000E+01 0.  1.
        -11    1    1    2    0    0  0.74872805437E+02  0.15944077216E+02  0.66679263721E+02  0.10151982468E+03  0.00000000000E+00 0.  1.
         11    1    1    2    0    0 -0.22154925722E+02  0.29699072518E+02  0.30068868335E+02  0.47718051983E+02  0.00000000000E+00 0. -1.
</event>
<event>
 7    1  0.4394360E-006  0.7997921E+02  0.7561462E-02  0.1329110E+00
          1   -1    0    0  501    0  0.00000000000E+00  0.00000000000E+00  0.21118116620E+03  0.21118116620E+03  0.00000000000E+00 0. -1.
         -1   -1    0    0    0  501 -0.00000000000E+00 -0.00000000000E+00 -0.61914119657E+02  0.61914119657E+02  0.00000000000E+00 0.  1.
         23    2    1    2    0    0  0.13386527238E+02  0.19002207923E+02  0.49174934876E+02  0.13637277125E+03  0.12505628933E+03 0.  0.
          5    1    3    3  502    0  0.21836465679E+02 -0.18019688143E+02  0.81468629442E+02  0.86349003337E+02  0.41800000000E+01 0.  1.
         -5    1    3    3    0  502 -0.84499384411E+01  0.37021896065E+02 -0.32293694566E+02  0.50023767918E+02  0.41800000000E+01 0.  1.
        -11    1    1    2    0    0  0.33327821114E+02 -0.30336319964E+02  0.48738875303E+02  0.66381578280E+02  0.00000000000E+00 0.  1.
         11    1    1    2    0    0 -0.46714348352E+02  0.11334112042E+02  0.51353236368E+02  0.70340936326E+02  0.00000000000E+00 0. -1.
</event>
<event>
 7    1  0.4394360E-006  0.1335762E+03  0.7561462E-02  0.1222244E+00
         -1   -1    0    0    0  501 -0.00000000000E+00  0.00000000000E+00  0.84130736906E+02  0.84130736906E+02  0.00000000000E+00 0.  1.
          1   -1    0    0  501    0  0.00000000000E+00 -0.00000000000E+00 -0.27554422643E+03  0.27554422643E+03  0.00000000000E+00 0. -1.
         23    2    1    2    0    0  0.32145158716E+02 -0.89953259297E+02 -0.51926294253E+02  0.16604673022E+03  0.12550010556E+03 0.  0.
          5    1    3    3  502    0 -0.10227824885E+02  0.25300670032E+02  0.88201208917E+01  0.28982740355E+02  0.41800000000E+01 0. -1.
         -5    1    3    3    0  502  0.42372983602E+02 -0.11525392933E+03 -0.60746415145E+02  0.13706398987E+03  0.41800000000E+01 0.  1.
        -11    1    1    2    0    0 -0.14615185662E+02 -0.83436513530E+01  0.53947429820E+01  0.17672674435E+02  0.00000000000E+00 0.  1.
         11    1    1    2    0    0 -0.17529973055E+02  0.98296910650E+02 -0.14488193826E+03  0.17595555868E+03  0.00000000000E+00 0. -1.
</event>
<event>
 7    1  0.4394360E-006  0.1105137E+03  0.7561462E-02  0.1259621E+00
          2   -1    0    0  501    0  0.00000000000E+00  0.00000000000E+00  0.60385461601E+03  0.60385461601E+03  0.00000000000E+00 0. -1.
         -2   -1    0    0    0  501 -0.00000000000E+00 -0.00000000000E+00 -0.37357545723E+02  0.37357545723E+02  0.00000000000E+00 0.  1.
         23    2    1    2    0    0 -0.83700310858E+02  0.44140168851E+02  0.21602322854E+03  0.26696005301E+03  0.12509011988E+03 0.  0.
          5    1    3    3  502    0 -0.82448824318E+01  0.48181591330E+02  0.13686747018E+02  0.50933714506E+02  0.41800000000E+01 0. -1.
         -5    1    3    3    0  502 -0.75455428426E+02 -0.40414224789E+01  0.20233648152E+03  0.21602633851E+03  0.41800000000E+01 0. -1.
        -11    1    1    2    0    0  0.25710847510E+02 -0.46465460193E+01  0.12301745630E+02  0.28878556320E+02  0.00000000000E+00 0.  1.
         11    1    1    2    0    0  0.57989463348E+02 -0.39493622832E+02  0.33817209611E+03  0.34537355239E+03  0.00000000000E+00 0. -1.
</event>
<event>
 7    1  0.4394360E-006  0.3788604E+03  0.7561462E-02  0.1051356E+00
          2   -1    0    0  501    0  0.00000000000E+00  0.00000000000E+00  0.68336362625E+03  0.68336362625E+03  0.00000000000E+00 0. -1.
         -2   -1    0    0    0  501 -0.00000000000E+00 -0.00000000000E+00 -0.22681928572E+03  0.22681928572E+03  0.00000000000E+00 0.  1.
         23    2    1    2    0    0 -0.11906530450E+03 -0.35239735856E+03  0.14935912241E+03  0.41990309134E+03  0.12510001444E+03 0.  0.
          5    1    3    3  502    0 -0.23277875471E+02 -0.13828037241E+02  0.45328025476E+02  0.52963915961E+02  0.41800000000E+01 0. -1.
         -5    1    3    3    0  502 -0.95787429025E+02 -0.33856932132E+03  0.10403109694E+03  0.36693917538E+03  0.41800000000E+01 0. -1.
        -11    1    1    2    0    0  0.98235611256E+02  0.34064124696E+03  0.30220585813E+03  0.46584876853E+03  0.00000000000E+00 0.  1.
         11    1    1    2    0    0  0.20829693240E+02  0.11756111603E+02  0.49793599837E+01  0.24431052093E+02  0.00000000000E+00 0. -1.
</event>
<event>
 6    1  0.4394360E-006  0.2187156E+03  0.7561462E-02  0.1134844E+00
         -1   -1    0    0    0  501 -0.00000000000E+00  0.00000000000E+00  0.23137805569E+03  0.23137805569E+03  0.00000000000E+00 0.  1.
          1   -1    0    0  501    0  0.00000000000E+00 -0.00000000000E+00 -0.24924898055E+03  0.24924898055E+03  0.00000000000E+00 0. -1.
          5    1    1    2  502    0  0.61597780620E+02  0.29706869240E+02  0.69842207935E+01  0.68869705948E+02  0.41800000000E+01 0. -1.
         -5    1    1    2    0  502  0.10142700606E+03 -0.13411796080E+03  0.63474863243E+02  0.17978207817E+03  0.41800000000E+01 0.  1.
        -11    1    1    2    0    0 -0.11254878243E+02  0.29271537042E+02 -0.48902468995E+02  0.58094290932E+02  0.00000000000E+00 0.  1.
         11    1    1    2    0    0 -0.15176990844E+03  0.75139554520E+02 -0.39427539906E+02  0.17388096119E+03  0.00000000000E+00 0. -1.
</event>
<event>
 6    1  0.4394360E-006  0.9258607E+02  0.7561462E-02  0.1296707E+00
         -2   -1    0    0    0  501 -0.00000000000E+00  0.00000000000E+00  0.19797434828E+02  0.19797434828E+02  0.00000000000E+00 0.  1.
          2   -1    0    0  501    0  0.00000000000E+00 -0.00000000000E+00 -0.79814346655E+03  0.79814346655E+03  0.00000000000E+00 0. -1.
          5    1    1    2  502    0 -0.21631511126E+02 -0.36285936481E+02 -0.33877188991E+03  0.34142123141E+03  0.41800000000E+01 0. -1.
         -5    1    1    2    0  502  0.44059167827E+02  0.16001142518E+02 -0.29805932858E+02  0.55705590967E+02  0.41800000000E+01 0.  1.
        -11    1    1    2    0    0 -0.39154059362E+02  0.48821873535E+02 -0.27805720279E+03  0.28501302378E+03  0.00000000000E+00 0. -1.
         11    1    1    2    0    0  0.16726402661E+02 -0.28537079571E+02 -0.13171100616E+03  0.13580105522E+03  0.00000000000E+00 0.  1.
</event>
<event>
 7    1  0.6695618E-006  0.1029145E+03  0.7561462E-02  0.1274284E+00
         -3   -1    0    0    0  501 -0.00000000000E+00  0.00000000000E+00  0.28312656917E+03  0.28312656917E+03  0.00000000000E+00 0.  1.
          3   -1    0    0  501    0  0.00000000000E+00 -0.00000000000E+00 -0.73137232635E+02  0.73137232635E+02  0.00000000000E+00 0. -1.
         23    2    1    2    0    0  0.54386534037E+02  0.66867296575E+02  0.16293111208E+03  0.22276229111E+03  0.12508941051E+03 0.  0.
          5    1    3    3  502    0  0.37058397101E+02  0.85506706003E+02  0.17179701189E+03  0.19549017178E+03  0.41800000000E+01 0. -1.
         -5    1    3    3    0  502  0.17328136936E+02 -0.18639409428E+02 -0.88658998077E+01  0.27272119333E+02  0.41800000000E+01 0. -1.
        -11    1    1    2    0    0 -0.18742771744E+02 -0.16017722213E+02  0.64457701505E+02  0.69011985922E+02  0.00000000000E+00 0.  1.
         11    1    1    2    0    0 -0.35643762293E+02 -0.50849574362E+02 -0.17399477056E+02  0.64489524770E+02  0.00000000000E+00 0. -1.
</event>
<event>
 7    1  0.4394360E-006  0.1190593E+03  0.7561462E-02  0.1244657E+00
          3   -1    0    0  501    0  0.00000000000E+00  0.00000000000E+00  0.17996420949E+03  0.17996420949E+03  0.00000000000E+00 0. -1.
         -3   -1    0    0    0  501 -0.00000000000E+00 -0.00000000000E+00 -0.89090450250E+02  0.89090450250E+02  0.00000000000E+00 0.  1.
         23    2    1    2    0    0  0.52585982016E+02 -0.33109955813E+02  0.39239187074E+02  0.14508375810E+03  0.12509207962E+03 0.  0.
          5    1    3    3  502    0 -0.29806197354E+02  0.21662039999E+02  0.25745661592E+02  0.45143824256E+02  0.41800000000E+01 0.  1.
         -5    1    3    3    0  502  0.82392179370E+02 -0.54771995812E+02  0.13493525482E+02  0.99939933843E+02  0.41800000000E+01 0.  1.
        -11    1    1    2    0    0  0.20163833829E+02  0.19399246550E+02  0.40324619590E+02  0.49081421195E+02  0.00000000000E+00 0. -1.
         11    1    1    2    0    0 -0.72749815845E+02  0.13710709263E+02  0.11309952573E+02  0.74889480444E+02  0.00000000000E+00 0.  1.
</event>
<event>
 7    1  0.4394360E-006  0.9467731E+02  0.7561462E-02  0.1291905E+00
          4   -1    0    0  501    0  0.00000000000E+00  0.00000000000E+00  0.22028741698E+02  0.22028741698E+02  0.00000000000E+00 0. -1.
         -4   -1    0    0    0  501 -0.00000000000E+00 -0.00000000000E+00 -0.55510746157E+03  0.55510746157E+03  0.00000000000E+00 0.  1.
         23    2    1    2    0    0  0.31740259035E+01 -0.45988815014E+02 -0.32837154606E+03  0.35440012428E+03  0.12508609148E+03 0.  0.
          5    1    3    3  502    0  0.33537112496E+02 -0.73936396220E+02 -0.14345097616E+03  0.16488475843E+03  0.41800000000E+01 0.  1.
         -5    1    3    3    0  502 -0.30363086592E+02  0.27947581206E+02 -0.18492056990E+03  0.18951536585E+03  0.41800000000E+01 0.  1.
        -11    1    1    2    0    0 -0.25031960491E+02  0.16928911019E+02 -0.24517405396E+02  0.38913882377E+02  0.00000000000E+00 0. -1.
         11    1    1    2    0    0  0.21857934588E+02  0.29059903995E+02 -0.18018976842E+03  0.18382219661E+03  0.00000000000E+00 0.  1.
</event>
<event>
 7    1  0.4394360E-006  0.1664105E+03  0.7561462E-02  0.1181644E+00
         -1   -1    0    0    0  501 -0.00000000000E+00  0.00000000000E+00  0.91564406758E+02  0.91564406758E+02  0.00000000000E+00 0.  1.
          1   -1    0    0  501    0  0.00000000000E+00 -0.00000000000E+00 -0.58832811815E+03  0.58832811815E+03  0.00000000000E+00 0. -1.
         23    2    1    2    0    0  0.84828952572E+02  0.99769489690E+02 -0.25573043157E+02  0.18289527201E+03  0.12508716050E+03 0.  0.
          5    1    3    3  502    0  0.30698223399E+02 -0.28321722708E+02 -0.57293869558E+01  0.42365070186E+02  0.41800000000E+01 0.  1.
         -5    1    3    3    0  502  0.54130729173E+02  0.12809121240E+03 -0.19843656201E+02  0.14053020183E+03  0.41800000000E+01 0.  1.
        -11    1    1    2    0    0 -0.74369125903E+02 -0.11274052763E+03 -0.45115829966E+03  0.47094055337E+03  0.00000000000E+00 0. -1.
         11    1    1    2    0    0 -0.10459826670E+02  0.12971037944E+02 -0.20032368578E+02  0.26056699525E+02  0.00000000000E+00 0.  1.
</event>
<event>
 7    1  0.4394360E-006  0.1421228E+03  0.7561462E-02  0.1210501E+00
          2   -1    0    0  501    0  0.00000000000E+00  0.00000000000E+00  0.36196892922E+03  0.36196892922E+03  0.00000000000E+00 0.  1.
         -2   -1    0    0    0  501 -0.00000000000E+00 -0.00000000000E+00 -0.70470134211E+02  0.70470134211E+02  0.00000000000E+00 0. -1.
         23    2    1    2    0    0  0.52242976774E+02 -0.10284143399E+03  0.14461340730E+03  0.22330766064E+03  0.12509030563E+03 0.  0.
          5    1    3    3  502    0 -0.40637183180E+02 -0.27996654529E+02  0.30409454874E+02  0.58115408175E+02  0.41800000000E+01 0. -1.
         -5    1    3    3    0  502  0.92880159955E+02 -0.74844779456E+02  0.11420395242E+03  0.16519225246E+03  0.41800000000E+01 0. -1.
        -11    1    1    2    0    0 -0.24428794583E+02  0.46076616331E+02  0.13511693237E+03  0.14483233752E+03  0.00000000000E+00 0.  1.
         11    1    1    2    0    0 -0.27814182191E+02  0.56764817654E+02  0.11768455343E+02  0.64299065277E+02  0.00000000000E+00 0. -1.
</event>
<event>
 6    1  0.4394360E-006  0.2167427E+03  0.7561462E-02  0.1136335E+00
         -2   -1    0    0    0  501 -0.00000000000E+00  0.00000000000E+00  0.10143759809E+03  0.10143759809E+03  0.00000000000E+00 0.  1.
          2   -1    0    0  501    0  0.00000000000E+00 -0.00000000000E+00 -0.86381443901E+03  0.86381443901E+03  0.00000000000E+00 0. -1.
          5    1    1    2  502    0 -0.17614312231E+02  0.30406300205E+02 -0.11773295981E+03  0.12293628152E+03  0.41800000000E+01 0. -1.
         -5    1    1    2    0  502  0.17307845954E+03 -0.10783827539E+03 -0.41781453544E+02  0.20820280751E+03  0.41800000000E+01 0.  1.
        -11    1    1    2    0    0 -0.28169273660E+02 -0.19389947348E+02 -0.14969805650E+03  0.15355450549E+03  0.00000000000E+00 0.  1.
         11    1    1    2    0    0 -0.12729487365E+03  0.96821922536E+02 -0.45316437106E+03  0.48055844259E+03  0.00000000000E+00 0. -1.
</event>
<event>
 7    1  0.4394360E-006  0.1018467E+03  0.7561462E-02  0.1276460E+00
         -1   -1    0    0    0  501 -0.00000000000E+00  0.00000000000E+00  0.18385966262E+02  0.18385966262E+02  0.00000000000E+00 0. -1.
          1   -1    0    0  501    0  0.00000000000E+00 -0.00000000000E+00 -0.81268560487E+03  0.81268560487E+03  0.00000000000E+00 0.  1.
         23    2    1    2    0    0 -0.18536555082E+02 -0.50418814941E+02 -0.36844233936E+03  0.39278991330E+03  0.12509395582E+03 0.  0.
          5    1    3    3  502    0 -0.52025237165E+02 -0.44503745595E+02 -0.34382586310E+03  0.35060077754E+03  0.41800000000E+01 0.  1.
         -5    1    3    3    0  502  0.33488682083E+02 -0.59150693465E+01 -0.24616476265E+02  0.42189135767E+02  0.41800000000E+01 0.  1.
        -11    1    1    2    0    0 -0.11157475039E+02 -0.20841502604E+02 -0.62677201936E+02  0.66987231042E+02  0.00000000000E+00 0.  1.
         11    1    1    2    0    0  0.29694030121E+02  0.71260317545E+02 -0.36318009731E+03  0.37129442679E+03  0.00000000000E+00 0. -1.
</event>
<event>
 7    1  0.4394360E-006  0.1711152E+03  0.7561462E-02  0.1176690E+00
          1   -1    0    0  501    0  0.00000000000E+00  0.00000000000E+00  0.19106764712E+03  0.19106764712E+03  0.00000000000E+00 0. -1.
         -1   -1    0    0    0  501 -0.00000000000E+00 -0.00000000000E+00 -0.19465213479E+03  0.19465213479E+03  0.00000000000E+00 0.  1.
         23    2    1    2    0    0 -0.27386864006E+02 -0.15215893962E+03 -0.40113553506E+02  0.20286983870E+03  0.12507873940E+03 0.  0.
          5    1    3    3  502    0 -0.10465587656E+02 -0.16528605175E+03 -0.10387800357E+02  0.16599513915E+03  0.41800000000E+01 0.  1.
         -5    1    3    3    0  502 -0.16921276350E+02  0.13127112124E+02 -0.29725753149E+02  0.36874699542E+02  0.41800000000E+01 0.  1.
        -11    1    1    2    0    0  0.51119716954E+01  0.45090561105E+02  0.55674554145E+02  0.71825809669E+02  0.00000000000E+00 0. -1.
         11    1    1    2    0    0  0.22274892310E+02  0.10706837852E+03 -0.19145488313E+02  0.11102413354E+03  0.00000000000E+00 0.  1.
</event>
<event>
 7    1  0.4394360E-006  0.1801080E+03  0.7561462E-02  0.1167699E+00
          2   -1    0    0  501    0  0.00000000000E+00  0.00000000000E+00  0.78926736135E+03  0.78926736135E+03  0.00000000000E+00 0. -1.
         -2   -1    0    0    0  501 -0.00000000000E+00 -0.00000000000E+00 -0.71592135584E+02  0.71592135584E+02  0.00000000000E+00 0.  1.
         23    2    1    2    0    0  0.16305005663E+03 -0.37102446229E+02  0.13557887665E+03  0.24898026202E+03  0.12509047365E+03 0.  0.
          5    1    3    3  502    0  0.26399218485E+02  0.80601501705E+01 -0.21988718346E+02  0.35536754099E+02  0.41800000000E+01 0. -1.
         -5    1    3    3    0  502  0.13665083815E+03 -0.45162596399E+02  0.15756759500E+03  0.21344350792E+03  0.41800000000E+01 0. -1.
        -11    1    1    2    0    0 -0.99096851554E+02  0.65034094548E+02  0.38156940966E+03  0.39955579564E+03  0.00000000000E+00 0.  1.
         11    1    1    2    0    0 -0.63953205079E+02 -0.27931648319E+02  0.20052693946E+03  0.21232343928E+03  0.00000000000E+00 0. -1.
</event>
<event>
 7    1  0.4394360E-006  0.3581380E+03  0.7561462E-02  0.1059324E+00
          1   -1    0    0  501    0  0.00000000000E+00  0.00000000000E+00  0.10685476129E+04  0.10685476129E+04  0.00000000000E+00 0. -1.
         -1   -1    0    0    0  501 -0.00000000000E+00 -0.00000000000E+00 -0.14956873402E+03  0.14956873402E+03  0.00000000000E+00 0.  1.
         23    2    1    2    0    0  0.31908899857E+03  0.14164137350E+03  0.22482802354E+03  0.43367637740E+03  0.12508993745E+03 0.  0.
          5    1    3    3  502    0  0.15156985519E+02  0.15397936447E+02  0.63350635617E+02  0.67064193799E+02  0.41800000000E+01 0. -1.
         -5    1    3    3    0  502  0.30393201305E+03  0.12624343705E+03  0.16147738793E+03  0.36661218360E+03  0.41800000000E+01 0. -1.
        -11    1    1    2    0    0 -0.10060460088E+03 -0.10165515781E+03  0.25803432662E+03  0.29501994939E+03  0.00000000000E+00 0. -1.
         11    1    1    2    0    0 -0.21848439768E+03 -0.39986215682E+02  0.43611652870E+03  0.48942002010E+03  0.00000000000E+00 0.  1.
</event>
<event>
 7    1  0.4394360E-006  0.3034786E+03  0.7561462E-02  0.1083515E+00
          2   -1    0    0  501    0  0.00000000000E+00  0.00000000000E+00  0.12179740349E+04  0.12179740349E+04  0.00000000000E+00 0. -1.
         -2   -1    0    0    0  501 -0.00000000000E+00 -0.00000000000E+00 -0.15138101479E+03  0.15138101479E+03  0.00000000000E+00 0.  1.
         23    2    1    2    0    0  0.88028719327E+02 -0.28649461260E+03  0.80467627981E+02  0.33459079048E+03  0.12509092473E+03 0.  0.
          5    1    3    3  502    0  0.65299339546E+02 -0.13180362769E+03  0.98605626126E+02  0.17713481284E+03  0.41800000000E+01 0.  1.
         -5    1    3    3    0  502  0.22729379781E+02 -0.15469098492E+03 -0.18137998146E+02  0.15745597764E+03  0.41800000000E+01 0.  1.
        -11    1    1    2    0    0 -0.68359826900E+02  0.14230644183E+03  0.38156207712E+03  0.41293317621E+03  0.00000000000E+00 0.  1.
         11    1    1    2    0    0 -0.19668892427E+02  0.14418817078E+03  0.60456331502E+03  0.62183108300E+03  0.00000000000E+00 0. -1.
</event>
<event>
 7    1  0.4394360E-006  0.1150075E+03  0.7561462E-02  0.1251568E+00
          2   -1    0    0  501    0  0.00000000000E+00  0.00000000000E+00  0.48419060717E+02  0.48419060717E+02  0.00000000000E+00 0. -1.
         -2   -1    0    0    0  501 -0.00000000000E+00 -0.00000000000E+00 -0.60948255122E+03  0.60948255122E+03  0.00000000000E+00 0.  1.
         23    2    1    2    0    0 -0.74942753127E+02 -0.45408591538E+02 -0.49110432716E+03  0.51430492068E+03  0.12509090636E+03 0.  0.
          5    1    3    3  502    0 -0.88684668914E+02 -0.46767422700E+02 -0.20910225417E+03  0.23193401524E+03  0.41800000000E+01 0. -1.
         -5    1    3    3    0  502  0.13741915787E+02  0.13588311617E+01 -0.28200207299E+03  0.28237090544E+03  0.41800000000E+01 0. -1.
        -11    1    1    2    0    0  0.10238440245E+02 -0.20477560524E+02  0.63979769400E+01  0.23771627050E+02  0.00000000000E+00 0. -1.
         11    1    1    2    0    0  0.64704312883E+02  0.65886152062E+02 -0.76357140288E+02  0.11982506421E+03  0.00000000000E+00 0.  1.
</event>
<event>
 7    1  0.4394360E-006  0.1124058E+03  0.7561462E-02  0.1256179E+00
         -2   -1    0    0    0  501 -0.00000000000E+00  0.00000000000E+00  0.17365032285E+03  0.17365032285E+03  0.00000000000E+00 0.  1.
          2   -1    0    0  501    0  0.00000000000E+00 -0.00000000000E+00 -0.10663497400E+03  0.10663497400E+03  0.00000000000E+00 0. -1.
         23    2    1    2    0    0  0.52246951671E+02  0.46753548584E+02  0.79922938692E+02  0.16482265312E+03  0.12594916669E+03 0.  0.
          5    1    3    3  502    0  0.14252626128E+02 -0.33174990110E+02 -0.10895793596E+02  0.37946120203E+02  0.41800000000E+01 0. -1.
         -5    1    3    3    0  502  0.37994325543E+02  0.79928538694E+02  0.90818732288E+02  0.12687653292E+03  0.41800000000E+01 0.  1.
        -11    1    1    2    0    0 -0.26088827922E+02  0.16874292877E+02  0.22239402265E+02  0.38209419199E+02  0.00000000000E+00 0.  1.
         11    1    1    2    0    0 -0.26158123749E+02 -0.63627841461E+02 -0.35146992102E+02  0.77253224534E+02  0.00000000000E+00 0. -1.
</event>
<event>
 7    1  0.4394360E-006  0.8485671E+02  0.7561462E-02  0.1315808E+00
          2   -1    0    0  501    0  0.00000000000E+00  0.00000000000E+00  0.11933053127E+02  0.11933053127E+02  0.00000000000E+00 0. -1.
         -2   -1    0    0    0  501 -0.00000000000E+00 -0.00000000000E+00 -0.10685370638E+04  0.10685370638E+04  0.00000000000E+00 0.  1.
         23    2    1    2    0    0  0.61979807402E+01  0.28411392747E+02 -0.66836295208E+03  0.68058957850E+03  0.12509003332E+03 0.  0.
          5    1    3    3  502    0 -0.22463956734E+02 -0.12132025742E+02 -0.56750923905E+03  0.56809860430E+03  0.41800000000E+01 0. -1.
         -5    1    3    3    0  502  0.28661937474E+02  0.40543418490E+02 -0.10085371303E+03  0.11249097419E+03  0.41800000000E+01 0. -1.
        -11    1    1    2    0    0  0.22507812221E+02  0.24839612231E+02 -0.17708134445E+03  0.18022599840E+03  0.00000000000E+00 0.  1.
         11    1    1    2    0    0 -0.28705792961E+02 -0.53251004979E+02 -0.21115971411E+03  0.21965454001E+03  0.00000000000E+00 0. -1.
</event>
<event>
 7    1  0.4394360E-006  0.1082320E+03  0.7561462E-02  0.1263879E+00
         -2   -1    0    0    0  501 -0.00000000000E+00  0.00000000000E+00  0.12494898167E+02  0.12494898167E+02  0.00000000000E+00 0.  1.
          2   -1    0    0  501    0  0.00000000000E+00 -0.00000000000E+00 -0.96752351786E+03  0.96752351786E+03  0.00000000000E+00 0. -1.
         23    2    1    2    0    0  0.17611413813E+02 -0.12779360740E+02 -0.47393597655E+03  0.49064872649E+03  0.12508952387E+03 0.  0.
          5    1    3    3  502    0 -0.37713984508E+02 -0.47985236219E+02 -0.21966551705E+03  0.22802486554E+03  0.41800000000E+01 0.  1.
         -5    1    3    3    0  502  0.55325398321E+02  0.35205875480E+02 -0.25427045950E+03  0.26262386095E+03  0.41800000000E+01 0.  1.
        -11    1    1    2    0    0  0.35523184406E+02  0.55697494761E+01 -0.20083649949E+03  0.20402994454E+03  0.00000000000E+00 0.  1.
         11    1    1    2    0    0 -0.53134598219E+02  0.72096112635E+01 -0.28025614365E+03  0.28533974500E+03  0.00000000000E+00 0. -1.
</event>
<event>
 7    1  0.4394360E-006  0.2291911E+03  0.7561462E-02  0.1127210E+00
         -1   -1    0    0    0  501 -0.00000000000E+00  0.00000000000E+00  0.18219450550E+04  0.18219450550E+04  0.00000000000E+00 0.  1.
          1   -1    0    0  501    0  0.00000000000E+00 -0.00000000000E+00 -0.38615366489E+02  0.38615366489E+02  0.00000000000E+00 0. -1.
         23    2    1    2    0    0 -0.38647001601E+01  0.21889629340E+03  0.12754936805E+04  0.13001776738E+04  0.12508929317E+03 0.  0.
          5    1    3    3  502    0  0.37770338609E+02  0.11672648908E+03  0.91380093891E+03  0.92200938178E+03  0.41800000000E+01 0.  1.
         -5    1    3    3    0  502 -0.41635038769E+02  0.10216980432E+03  0.36169274157E+03  0.37816829200E+03  0.41800000000E+01 0.  1.
        -11    1    1    2    0    0  0.17682200460E+02 -0.20450654981E+03  0.38854049752E+03  0.43943066272E+03  0.00000000000E+00 0. -1.
         11    1    1    2    0    0 -0.13817500300E+02 -0.14389743589E+02  0.11929551048E+03  0.12095208496E+03  0.00000000000E+00 0.  1.
</event>
<event>
 7    1  0.4394360E-006  0.9097161E+02  0.7561462E-02  0.1300516E+00
          1   -1    0    0  501    0  0.00000000000E+00  0.00000000000E+00  0.33635888643E+02  0.33635888643E+02  0.00000000000E+00 0. -1.
         -1   -1    0    0    0  501 -0.00000000000E+00 -0.00000000000E+00 -0.40638853593E+03  0.40638853593E+03  0.00000000000E+00 0.  1.
         23    2    1    2    0    0  0.35699451012E+02  0.20412784433E+02 -0.23622566301E+03  0.27044558548E+03  0.12508844178E+03 0.  0.
          5    1    3    3  502    0 -0.17369750253E+02  0.23064028673E+02 -0.20818648097E+03  0.21022069570E+03  0.41800000000E+01 0.  1.
         -5    1    3    3    0  502  0.53069201265E+02 -0.26512442406E+01 -0.28039182041E+02  0.60224889776E+02  0.41800000000E+01 0.  1.
        -11    1    1    2    0    0 -0.44436071471E+02  0.26508183831E+02 -0.58374908132E+02  0.78005629010E+02  0.00000000000E+00 0.  1.
         11    1    1    2    0    0  0.87366204594E+01 -0.46920968263E+02 -0.78152076140E+02  0.91573210082E+02  0.00000000000E+00 0. -1.
</event>
<event>
 7    1  0.4394360E-006  0.1384683E+03  0.7561462E-02  0.1215405E+00
         -1   -1    0    0    0  501 -0.00000000000E+00  0.00000000000E+00  0.10095768147E+03  0.10095768147E+03  0.00000000000E+00 0.  1.
          1   -1    0    0  501    0  0.00000000000E+00 -0.00000000000E+00 -0.26610816816E+03  0.26610816816E+03  0.00000000000E+00 0. -1.
         23    2    1    2    0    0 -0.63612260925E+02  0.97357440152E+02 -0.54384960103E+02  0.17924982303E+03  0.12509110391E+03 0.  0.
          5    1    3    3  502    0  0.10849671020E+02 -0.18991207863E+02 -0.32397611493E+02  0.39312325902E+02  0.41800000000E+01 0. -1.
         -5    1    3    3    0  502 -0.74461931945E+02  0.11634864801E+03 -0.21987348609E+02  0.13993749713E+03  0.41800000000E+01 0. -1.
        -11    1    1    2    0    0  0.14851320237E+02 -0.27876178849E+02 -0.96759603600E+02  0.10178439934E+03  0.00000000000E+00 0. -1.
         11    1    1    2    0    0  0.48760940688E+02 -0.69481261303E+02 -0.14005922990E+02  0.86031627253E+02  0.00000000000E+00 0.  1.
</event>
<event>
 7    1  0.4394360E-006  0.8023190E+02  0.7561462E-02  0.1328395E+00
          2   -1    0    0  501    0  0.00000000000E+00  0.00000000000E+00  0.99023366980E+02  0.99023366980E+02  0.00000000000E+00 0. -1.
         -2   -1    0    0    0  501 -0.00000000000E+00 -0.00000000000E+00 -0.10382850884E+03  0.10382850884E+03  0.00000000000E+00 0.  1.
         23    2    1    2    0    0  0.28373382442E+02 -0.15004332081E+02 -0.15059368093E+02  0.13001712375E+03  0.12508992400E+03 0.  0.
          5    1    3    3  502    0  0.30853666526E+02 -0.50546955944E+02 -0.51711744568E+02  0.78730682834E+02  0.41800000000E+01 0. -1.
         -5    1    3    3    0  502 -0.24802840837E+01  0.35542623863E+02  0.36652376474E+02  0.51286440912E+02  0.41800000000E+01 0. -1.
        -11    1    1    2    0    0 -0.45897135151E+02  0.12049333407E+02 -0.71176512297E+01  0.47983272186E+02  0.00000000000E+00 0.  1.
         11    1    1    2    0    0  0.17523752709E+02  0.29549986735E+01  0.17371877462E+02  0.24851479890E+02  0.00000000000E+00 0. -1.
</event>
<event>
 7    1  0.4394360E-006  0.1061158E+03  0.7561462E-02  0.1267937E+00
         -2   -1    0    0    0  501 -0.00000000000E+00  0.00000000000E+00  0.11498991066E+03  0.11498991066E+03  0.00000000000E+00 0.  1.
          2   -1    0    0  501    0  0.00000000000E+00 -0.00000000000E+00 -0.12006192125E+03  0.12006192125E+03  0.00000000000E+00 0. -1.
         23    2    1    2    0    0 -0.16316049845E+02  0.82826616546E+01  0.42476721838E+02  0.13336622698E+03  0.12508981827E+03 0.  0.
          5    1    3    3  502    0  0.54502669031E+02  0.48689058158E+01  0.12557138478E+02  0.56297436017E+02  0.41800000000E+01 0.  1.
         -5    1    3    3    0  502 -0.70818718876E+02  0.34137558388E+01  0.29919583361E+02  0.77068790964E+02  0.41800000000E+01 0.  1.
        -11    1    1    2    0    0 -0.11475017313E+02 -0.41477728646E+02 -0.37867035755E+02  0.57323558794E+02  0.00000000000E+00 0.  1.
         11    1    1    2    0    0  0.27791067157E+02  0.33195066992E+02 -0.96816966706E+01  0.44362046129E+02  0.00000000000E+00 0. -1.
</event>
<event>
 7    1  0.4394360E-006  0.1638450E+03  0.7561462E-02  0.1184423E+00
          2   -1    0    0  501    0  0.00000000000E+00  0.00000000000E+00  0.87794743327E+03  0.87794743327E+03  0.00000000000E+00 0. -1.
         -2   -1    0    0    0  501 -0.00000000000E+00 -0.00000000000E+00 -0.36620532047E+02  0.36620532047E+02  0.00000000000E+00 0.  1.
         23    2    1    2    0    0 -0.17879765188E+02  0.13408814422E+03  0.32828263256E+03  0.37645098060E+03  0.12508612045E+03 0.  0.
          5    1    3    3  502    0 -0.67983028868E+02  0.44037442233E+02  0.14398000402E+03  0.16525344925E+03  0.41800000000E+01 0.  1.
         -5    1    3    3    0  502  0.50103263680E+02  0.90050701984E+02  0.18430262855E+03  0.21119753135E+03  0.41800000000E+01 0.  1.
        -11    1    1    2    0    0 -0.15669029160E+02 -0.61761316277E+02  0.10879728925E+03  0.12608262692E+03  0.00000000000E+00 0.  1.
         11    1    1    2    0    0  0.33548794348E+02 -0.72326827941E+02  0.40424697941E+03  0.41203435780E+03  0.00000000000E+00 0. -1.
</event>
<event>
 7    1  0.4394360E-006  0.1057209E+03  0.7561462E-02  0.1268706E+00
          4   -1    0    0  501    0  0.00000000000E+00  0.00000000000E+00  0.13919262294E+03  0.13919262294E+03  0.00000000000E+00 0. -1.
         -4   -1    0    0    0  501 -0.00000000000E+00 -0.00000000000E+00 -0.93593259547E+02  0.93593259547E+02  0.00000000000E+00 0.  1.
         23    2    1    2    0    0 -0.28902389255E+02 -0.17541720095E+02  0.13883089198E+02  0.13030363116E+03  0.12507292304E+03 0.  0.
          5    1    3    3  502    0 -0.19889225695E+02 -0.67083659941E+02 -0.15590228603E+02  0.71807564767E+02  0.41800000000E+01 0. -1.
         -5    1    3    3    0  502 -0.90131635598E+01  0.49541939846E+02  0.29473317802E+02  0.58496066392E+02  0.41800000000E+01 0. -1.
        -11    1    1    2    0    0 -0.29373778557E+02  0.13712866411E+02 -0.59900683520E+01  0.32965777570E+02  0.00000000000E+00 0.  1.
         11    1    1    2    0    0  0.58276167812E+02  0.38288536836E+01  0.37706342542E+02  0.69516473755E+02  0.00000000000E+00 0. -1.
</event>
<event>
 7    1  0.4394360E-006  0.1569172E+03  0.7561462E-02  0.1192222E+00
          2   -1    0    0  501    0  0.00000000000E+00  0.00000000000E+00  0.10537182949E+03  0.10537182949E+03  0.00000000000E+00 0. -1.
         -2   -1    0    0    0  501 -0.00000000000E+00 -0.00000000000E+00 -0.27168242211E+03  0.27168242211E+03  0.00000000000E+00 0.  1.
         23    2    1    2    0    0 -0.82759799046E+02  0.92605493101E+02 -0.12913959336E+03  0.21851765271E+03  0.12509183939E+03 0.  0.
          5    1    3    3  502    0 -0.12722845836E+00 -0.21687328239E+02  0.62666736742E+01  0.22958658326E+02  0.41800000000E+01 0. -1.
         -5    1    3    3    0  502 -0.82632570588E+02  0.11429282134E+03 -0.13540626703E+03  0.19555899438E+03  0.41800000000E+01 0. -1.
        -11    1    1    2    0    0  0.89694035702E+02 -0.41069019841E+02 -0.40019602784E+02  0.10645775236E+03  0.00000000000E+00 0.  1.
         11    1    1    2    0    0 -0.69342366563E+01 -0.51536473260E+02  0.28486035233E+01  0.52078846532E+02  0.00000000000E+00 0. -1.
</event>
<event>
 7    1  0.4394360E-006  0.1069027E+03  0.7561462E-02  0.1266416E+00
          1   -1    0    0  501    0  0.00000000000E+00  0.00000000000E+00  0.36241194939E+03  0.36241194939E+03  0.00000000000E+00 0. -1.
         -1   -1    0    0    0  501 -0.00000000000E+00 -0.00000000000E+00 -0.38432763052E+02  0.38432763052E+02  0.00000000000E+00 0.  1.
         23    2    1    2    0    0 -0.77929448701E+01  0.38583680951E+02  0.14332761392E+03  0.19426611701E+03  0.12508832432E+03 0.  0.
          5    1    3    3  502    0  0.13164676301E+02 -0.37531186886E+02  0.13402250327E+02  0.42178091529E+02  0.41800000000E+01 0.  1.
         -5    1    3    3    0  502 -0.20957621171E+02  0.76114867838E+02  0.12992536359E+03  0.15208802549E+03  0.41800000000E+01 0.  1.
        -11    1    1    2    0    0  0.40162433449E+02 -0.46488464367E+02  0.82061077812E+02  0.10250960380E+03  0.00000000000E+00 0.  1.
         11    1    1    2    0    0 -0.32369488579E+02  0.79047834160E+01  0.98590494602E+02  0.10406899162E+03  0.00000000000E+00 0. -1.
</event>
<event>
 7    1  0.4394360E-006  0.1443328E+03  0.7561462E-02  0.1207615E+00
         -1   -1    0    0    0  501 -0.00000000000E+00  0.00000000000E+00  0.16219391265E+03  0.16219391265E+03  0.00000000000E+00 0.  1.
          1   -1    0    0  501    0  0.00000000000E+00 -0.00000000000E+00 -0.18989693136E+03  0.18989693136E+03  0.00000000000E+00 0. -1.
         23    2    1    2    0    0 -0.29446155315E+02  0.10396207599E+03  0.70655951494E+02  0.17976318198E+03  0.12508936328E+03 0.  0.
          5    1    3    3  502    0  0.15943412731E+02  0.10800912131E+03  0.76857271427E+02  0.13358396336E+03  0.41800000000E+01 0.  1.
         -5    1    3    3    0  502 -0.45389568046E+02 -0.40470453179E+01 -0.62013199328E+01  0.46179218617E+02  0.41800000000E+01 0.  1.
        -11    1    1    2    0    0 -0.20108556351E+02 -0.19114702134E+01 -0.39862717589E+02  0.44688298362E+02  0.00000000000E+00 0. -1.
         11    1    1    2    0    0  0.49554711666E+02 -0.10205060578E+03 -0.58496252614E+02  0.12763936367E+03  0.00000000000E+00 0.  1.
</event>
<event>
 7    1  0.4394360E-006  0.9743691E+02  0.7561462E-02  0.1285780E+00
          4   -1    0    0  501    0  0.00000000000E+00  0.00000000000E+00  0.10210498488E+03  0.10210498488E+03  0.00000000000E+00 0. -1.
         -4   -1    0    0    0  501 -0.00000000000E+00 -0.00000000000E+00 -0.19558590192E+03  0.19558590192E+03  0.00000000000E+00 0.  1.
         23    2    1    2    0    0 -0.65831494806E+02 -0.45250762391E+02 -0.96461024724E+02  0.17701782878E+03  0.12509662350E+03 0.  0.
          5    1    3    3  502    0 -0.97027540918E+01 -0.30045051268E+01  0.30190969900E+02  0.32126897633E+02  0.41800000000E+01 0. -1.
         -5    1    3    3    0  502 -0.56128740714E+02 -0.42246257265E+02 -0.12665199462E+03  0.14489093115E+03  0.41800000000E+01 0. -1.
        -11    1    1    2    0    0 -0.60345392330E+01 -0.17248580588E+02 -0.15131100189E+02  0.23725079325E+02  0.00000000000E+00 0. -1.
         11    1    1    2    0    0  0.71866034039E+02  0.62499342979E+02  0.18111207878E+02  0.96947978690E+02  0.00000000000E+00 0.  1.
</event>
<event>
 7    1  0.4394360E-006  0.8038071E+02  0.7561462E-02  0.1327974E+00
         -3   -1    0    0    0  501 -0.00000000000E+00  0.00000000000E+00  0.13210444768E+03  0.13210444768E+03  0.00000000000E+00 0.  1.
          3   -1    0    0  501    0  0.00000000000E+00 -0.00000000000E+00 -0.98663583735E+02  0.98663583735E+02  0.00000000000E+00 0. -1.
         23    2    1    2    0    0  0.48393531346E+01 -0.36311967562E+02  0.21043234361E+02  0.13203613095E+03  0.12509493929E+03 0.  0.
          5    1    3    3  502    0 -0.60539833212E+01 -0.59158255850E+02 -0.35894498794E+02  0.69586186797E+02  0.41800000000E+01 0.  1.
         -5    1    3    3    0  502  0.10893336456E+02  0.22846288288E+02  0.56937733155E+02  0.62449944151E+02  0.41800000000E+01 0.  1.
        -11    1    1    2    0    0  0.10418027038E+02 -0.17057133983E+02  0.33778838770E+02  0.39249089871E+02  0.00000000000E+00 0.  1.
         11    1    1    2    0    0 -0.15257380173E+02  0.53369101546E+02 -0.21381209189E+02  0.59482810592E+02  0.00000000000E+00 0. -1.
</event>
<event>
 7    1  0.4394360E-006  0.1415366E+03  0.7561462E-02  0.1211276E+00
          1   -1    0    0  501    0  0.00000000000E+00  0.00000000000E+00  0.13688860898E+04  0.13688860898E+04  0.00000000000E+00 0. -1.
         -1   -1    0    0    0  501 -0.00000000000E+00 -0.00000000000E+00 -0.20119650086E+02  0.20119650086E+02  0.00000000000E+00 0.  1.
         23    2    1    2    0    0 -0.11135617607E+03  0.46924461764E+02  0.58163485152E+03  0.60708207973E+03  0.12508975965E+03 0.  0.
          5    1    3    3  502    0 -0.42623445408E+02 -0.12995311953E+02  0.41220959149E+03  0.41463219357E+03  0.41800000000E+01 0.  1.
         -5    1    3    3    0  502 -0.68732730663E+02  0.59919773717E+02  0.16942526003E+03  0.19244988616E+03  0.41800000000E+01 0.  1.
        -11    1    1    2    0    0  0.11576748032E+02 -0.45811315527E+02  0.16713349222E+03  0.17368448966E+03  0.00000000000E+00 0.  1.
         11    1    1    2    0    0  0.99779428039E+02 -0.11131462370E+01  0.59999809593E+03  0.60823917045E+03  0.00000000000E+00 0. -1.
</event>
<event>
 7    1  0.4394360E-006  0.9486898E+02  0.7561462E-02  0.1291471E+00
          2   -1    0    0  501    0  0.00000000000E+00  0.00000000000E+00  0.40738772039E+03  0.40738772039E+03  0.00000000000E+00 0.  1.
         -2   -1    0    0    0  501 -0.00000000000E+00 -0.00000000000E+00 -0.31946649230E+02  0.31946649230E+02  0.00000000000E+00 0. -1.
         23    2    1    2    0    0  0.37488928363E+02  0.26617146622E+01  0.19723715077E+03  0.23656243224E+03  0.12508711457E+03 0.  0.
          5    1    3    3  502    0 -0.39354624508E+00  0.51468208391E+02  0.33620113739E+02  0.61619118798E+02  0.41800000000E+01 0.  1.
         -5    1    3    3    0  502  0.37882474609E+02 -0.48806493729E+02  0.16361703703E+03  0.17494331345E+03  0.41800000000E+01 0.  1.
        -11    1    1    2    0    0  0.17921070390E+02 -0.96022055875E+01  0.52102562130E+01  0.20988422663E+02  0.00000000000E+00 0. -1.
         11    1    1    2    0    0 -0.55409998754E+02  0.69404909254E+01  0.17299366418E+03  0.18178351472E+03  0.00000000000E+00 0.  1.
</event>
<event>
 7    1  0.4394360E-006  0.1110303E+03  0.7561462E-02  0.1258674E+00
         -1   -1    0    0    0  501 -0.00000000000E+00  0.00000000000E+00  0.71925970274E+02  0.71925970274E+02  0.00000000000E+00 0.  1.
          1   -1    0    0  501    0  0.00000000000E+00 -0.00000000000E+00 -0.21844704242E+03  0.21844704242E+03  0.00000000000E+00 0. -1.
         23    2    1    2    0    0  0.46696528514E+02 -0.35137548124E+02 -0.52262010634E+02  0.14763113261E+03  0.12509364691E+03 0.  0.
          5    1    3    3  502    0  0.44623147471E+02 -0.68466239918E+02  0.41577992080E+01  0.81936627908E+02  0.41800000000E+01 0. -1.
         -5    1    3    3    0  502  0.20733810431E+01  0.33328691794E+02 -0.56419809842E+02  0.65694504703E+02  0.41800000000E+01 0. -1.
        -11    1    1    2    0    0 -0.50450379075E+02 -0.17805152582E+02 -0.39663128627E+02  0.66599008850E+02  0.00000000000E+00 0.  1.
         11    1    1    2    0    0  0.37538505617E+01  0.52942700706E+02 -0.54595932889E+02  0.76142871237E+02  0.00000000000E+00 0. -1.
</event>
<event>
 7    1  0.4394360E-006  0.1374662E+03  0.7561462E-02  0.1216780E+00
         -3   -1    0    0    0  501 -0.00000000000E+00  0.00000000000E+00  0.35025008907E+02  0.35025008907E+02  0.00000000000E+00 0.  1.
          3   -1    0    0  501    0  0.00000000000E+00 -0.00000000000E+00 -0.58536092796E+03  0.58536092796E+03  0.00000000000E+00 0. -1.
         23    2    1    2    0    0  0.89801529160E+02  0.20821326828E+02 -0.30548282630E+03  0.34273137706E+03  0.12508875796E+03 0.  0.
          5    1    3    3  502    0 -0.22249963469E+02 -0.14951895772E+02 -0.12021852843E+03  0.12324198570E+03  0.41800000000E+01 0. -1.
         -5    1    3    3    0  502  0.11205149263E+03  0.35773222600E+02 -0.18526429787E+03  0.21948939136E+03  0.41800000000E+01 0. -1.
        -11    1    1    2    0    0 -0.10570208765E+03 -0.23457134379E+01 -0.21012881930E+03  0.23522872785E+03  0.00000000000E+00 0.  1.
         11    1    1    2    0    0  0.15900558487E+02 -0.18475613390E+02 -0.34724273456E+02  0.42425831959E+02  0.00000000000E+00 0. -1.
</event>
<event>
 7    1  0.4394360E-006  0.1045843E+03  0.7561462E-02  0.1270941E+00
         -2   -1    0    0    0  501 -0.00000000000E+00  0.00000000000E+00  0.15194278936E+03  0.15194278936E+03  0.00000000000E+00 0.  1.
          2   -1    0    0  501    0  0.00000000000E+00 -0.00000000000E+00 -0.10171662267E+03  0.10171662267E+03  0.00000000000E+00 0. -1.
         23    2    1    2    0    0  0.30084578327E+02 -0.96082743663E+00  0.81976995404E+02  0.15255449261E+03  0.12508653164E+03 0.  0.
          5    1    3    3  502    0 -0.73461618856E+01  0.49619580403E+02  0.15585448475E+01  0.50358418520E+02  0.41800000000E+01 0. -1.
         -5    1    3    3    0  502  0.37430740212E+02 -0.50580407840E+02  0.80418450556E+02  0.10219607409E+03  0.41800000000E+01 0. -1.
        -11    1    1    2    0    0  0.40618030702E+01  0.42106788732E+02 -0.10646848235E+02  0.43621500190E+02  0.00000000000E+00 0. -1.
         11    1    1    2    0    0 -0.34146381397E+02 -0.41145961295E+02 -0.21103980486E+02  0.57483419224E+02  0.00000000000E+00 0.  1.
</event>
<event>
 7    1  0.4394360E-006  0.9776093E+02  0.7561462E-02  0.1285076E+00
          2   -1    0    0  501    0  0.00000000000E+00  0.00000000000E+00  0.40700236009E+03  0.40700236009E+03  0.00000000000E+00 0. -1.
         -2   -1    0    0    0  501 -0.00000000000E+00 -0.00000000000E+00 -0.38451989450E+02  0.38451989450E+02  0.00000000000E+00 0.  1.
         23    2    1    2    0    0  0.58494459129E+02  0.20599603477E+02  0.20131622772E+03  0.24499427689E+03  0.12509207310E+03 0.  0.
          5    1    3    3  502    0 -0.19284620366E+02 -0.83654811647E+01 -0.54825965637E+01  0.22122593041E+02  0.41800000000E+01 0. -1.
         -5    1    3    3    0  502  0.77779079496E+02  0.28965084642E+02  0.20679882429E+03  0.22287168385E+03  0.41800000000E+01 0. -1.
        -11    1    1    2    0    0 -0.33537764371E+02  0.23057936855E+02  0.13433993242E+03  0.14036975292E+03  0.00000000000E+00 0. -1.
         11    1    1    2    0    0 -0.24956694758E+02 -0.43657540333E+02  0.32894210493E+02  0.60090319729E+02  0.00000000000E+00 0.  1.
</event>
<event>
 7    1  0.4394360E-006  0.1143043E+03  0.7561462E-02  0.1252800E+00
          1   -1    0    0  501    0  0.00000000000E+00  0.00000000000E+00  0.21190502381E+03  0.21190502381E+03  0.00000000000E+00 0. -1.
         -1   -1    0    0    0  501 -0.00000000000E+00 -0.00000000000E+00 -0.80839969524E+02  0.80839969524E+02  0.00000000000E+00 0.  1.
         23    2    1    2    0    0 -0.64458178523E+02 -0.37221457590E+02  0.65372810186E+02  0.15952864219E+03  0.12504195169E+03 0.  0.
          5    1    3    3  502    0 -0.92574134380E+02 -0.65496905176E+01  0.15070436101E+02  0.94114075708E+02  0.41800000000E+01 0.  1.
         -5    1    3    3    0  502  0.28115955857E+02 -0.30671767073E+02  0.50302374085E+02  0.65414566480E+02  0.41800000000E+01 0.  1.
        -11    1    1    2    0    0  0.35694908565E+02  0.50797690569E+02  0.77488977970E+02  0.99292867676E+02  0.00000000000E+00 0. -1.
         11    1    1    2    0    0  0.28763269958E+02 -0.13576232979E+02 -0.11796733872E+02  0.33923483469E+02  0.00000000000E+00 0.  1.
</event>
<event>
 7    1  0.4394360E-006  0.1102163E+03  0.7561462E-02  0.1260170E+00
          2   -1    0    0  501    0  0.00000000000E+00  0.00000000000E+00  0.40012410191E+03  0.40012410191E+03  0.00000000000E+00 0.  1.
         -2   -1    0    0    0  501 -0.00000000000E+00 -0.00000000000E+00 -0.41023349494E+02  0.41023349494E+02  0.00000000000E+00 0. -1.
         23    2    1    2    0    0  0.49181563409E+02 -0.41779814412E+02  0.16047613352E+03  0.21345809021E+03  0.12508951906E+03 0.  0.
          5    1    3    3  502    0 -0.39160603666E+02 -0.21253139961E+02  0.27775702167E+02  0.52670778128E+02  0.41800000000E+01 0.  1.
         -5    1    3    3    0  502  0.88342167075E+02 -0.20526674451E+02  0.13270043135E+03  0.16078731209E+03  0.41800000000E+01 0.  1.
        -11    1    1    2    0    0 -0.28293325069E+02 -0.92359186244E+01  0.15375892087E+03  0.15661296301E+03  0.00000000000E+00 0.  1.
         11    1    1    2    0    0 -0.20888238339E+02  0.51015733037E+02  0.44865698030E+02  0.71076398178E+02  0.00000000000E+00 0. -1.
</event>
<event>
 7    1  0.4394360E-006  0.1300784E+03  0.7561462E-02  0.1227339E+00
          1   -1    0    0  501    0  0.00000000000E+00  0.00000000000E+00  0.28321309894E+03  0.28321309894E+03  0.00000000000E+00 0. -1.
         -1   -1    0    0    0  501 -0.00000000000E+00 -0.00000000000E+00 -0.77145819684E+02  0.77145819684E+02  0.00000000000E+00 0.  1.
         23    2    1    2    0    0 -0.59033481227E+02 -0.65688052440E+02  0.50143079170E+02  0.16111832528E+03  0.12507963149E+03 0.  0.
          5    1    3    3  502    0 -0.54040135380E+02  0.18899986470E+02  0.50235563860E+02  0.76279944919E+02  0.41800000000E+01 0.  1.
         -5    1    3    3    0  502 -0.49933458473E+01 -0.84588038910E+02 -0.92484690638E-01  0.84838380364E+02  0.41800000000E+01 0.  1.
        -11    1    1    2    0    0  0.29774297825E+02  0.79987817116E+02  0.81539455191E+02  0.11803915643E+03  0.00000000000E+00 0.  1.
         11    1    1    2    0    0  0.29259183402E+02 -0.14299764677E+02  0.74384744899E+02  0.81201436914E+02  0.00000000000E+00 0. -1.
</event>
<event>
 7    1  0.4394360E-006  0.1423852E+03  0.7561462E-02  0.1210155E+00
          1   -1    0    0  501    0  0.00000000000E+00  0.00000000000E+00  0.61900226820E+03  0.61900226820E+03  0.00000000000E+00 0. -1.
         -1   -1    0    0    0  501 -0.00000000000E+00 -0.00000000000E+00 -0.44229229957E+02  0.44229229957E+02  0.00000000000E+00 0.  1.
         23    2    1    2    0    0 -0.23766016093E+02 -0.11403837818E+03  0.21815336211E+03  0.27714652131E+03  0.12509887951E+03 0.  0.
          5    1    3    3  502    0  0.47647504793E+02 -0.65014708229E+02  0.77435585774E+02  0.11185231041E+03  0.41800000000E+01 0.  1.
         -5    1    3    3    0  502 -0.71413520886E+02 -0.49023669949E+02  0.14071777634E+03  0.16529421090E+03  0.41800000000E+01 0.  1.
        -11    1    1    2    0    0  0.10295266426E+02  0.81065692850E+02  0.33409192538E+03  0.34394047984E+03  0.00000000000E+00 0.  1.
         11    1    1    2    0    0  0.13470749667E+02  0.32972685328E+02  0.22527750753E+02  0.42144497011E+02  0.00000000000E+00 0. -1.
</event>
<event>
 7    1  0.4394360E-006  0.1076935E+03  0.7561462E-02  0.1264902E+00
          2   -1    0    0  501    0  0.00000000000E+00  0.00000000000E+00  0.46880271498E+03  0.46880271498E+03  0.00000000000E+00 0. -1.
         -2   -1    0    0    0  501 -0.00000000000E+00 -0.00000000000E+00 -0.47792999514E+02  0.47792999514E+02  0.00000000000E+00 0.  1.
         23    2    1    2    0    0 -0.54231061046E+02 -0.24661581792E+02  0.83326975050E+02  0.16168035322E+03  0.12509176730E+03 0.  0.
          5    1    3    3  502    0  0.12784850457E+02 -0.40949902190E+02  0.81926023298E+02  0.92572634099E+02  0.41800000000E+01 0.  1.
         -5    1    3    3    0  502 -0.67015911503E+02  0.16288320398E+02  0.14009517518E+01  0.69107719118E+02  0.41800000000E+01 0.  1.
        -11    1    1    2    0    0  0.41309607969E+02 -0.27386419413E+02  0.10467737800E+03  0.11581819004E+03  0.00000000000E+00 0.  1.
         11    1    1    2    0    0  0.12921453077E+02  0.52048001205E+02  0.23300536242E+03  0.23909717124E+03  0.00000000000E+00 0. -1.
</event>
<event>
 7    1  0.4394360E-006  0.1186030E+03  0.7561462E-02  0.1245420E+00
          1   -1    0    0  501    0  0.00000000000E+00  0.00000000000E+00  0.59529872600E+02  0.59529872600E+02  0.00000000000E+00 0. -1.
         -1   -1    0    0    0  501 -0.00000000000E+00 -0.00000000000E+00 -0.26589722731E+03  0.26589722731E+03  0.00000000000E+00 0.  1.
         23    2    1    2    0    0 -0.32481281642E+02  0.34263665411E+02 -0.16102914736E+03  0.20930246272E+03  0.12509237457E+03 0.  0.
          5    1    3    3  502    0 -0.78800260742E+02  0.16430100453E+02 -0.12106329274E+03  0.14544147463E+03  0.41800000000E+01 0.  1.
         -5    1    3    3    0  502  0.46318979100E+02  0.17833564958E+02 -0.39965854615E+02  0.63860988084E+02  0.41800000000E+01 0.  1.
        -11    1    1    2    0    0  0.63240424580E+02 -0.40916969938E+02 -0.34411213269E+02  0.82811118388E+02  0.00000000000E+00 0. -1.
         11    1    1    2    0    0 -0.30759142938E+02  0.66533045270E+01 -0.10926994081E+02  0.33313518803E+02  0.00000000000E+00 0.  1.
</event>
<event>
 7    1  0.4394360E-006  0.1212775E+03  0.7561462E-02  0.1241004E+00
          2   -1    0    0  501    0  0.00000000000E+00  0.00000000000E+00  0.61109454026E+03  0.61109454026E+03  0.00000000000E+00 0. -1.
         -2   -1    0    0    0  501 -0.00000000000E+00 -0.00000000000E+00 -0.63740494523E+02  0.63740494523E+02  0.00000000000E+00 0.  1.
         23    2    1    2    0    0 -0.10401613280E+02 -0.82085502792E+02  0.43795201969E+02  0.15627242822E+03  0.12512725034E+03 0.  0.
          5    1    3    3  502    0 -0.44951241078E+02 -0.12493251547E+02  0.60675978752E+02  0.76653390050E+02  0.41800000000E+01 0.  1.
         -5    1    3    3    0  502  0.34549627798E+02 -0.69592251245E+02 -0.16880776783E+02  0.79619038170E+02  0.41800000000E+01 0.  1.
        -11    1    1    2    0    0  0.41899871070E+02  0.16285271372E+02  0.12034363766E+03  0.12846556109E+03  0.00000000000E+00 0.  1.
         11    1    1    2    0    0 -0.31498257790E+02  0.65800231420E+02  0.38321520611E+03  0.39009704548E+03  0.00000000000E+00 0. -1.
</event>
<event>
 7    1  0.4394360E-006  0.1657997E+03  0.7561462E-02  0.1182300E+00
          2   -1    0    0  501    0  0.00000000000E+00  0.00000000000E+00  0.57791969170E+03  0.57791969170E+03  0.00000000000E+00 0. -1.
         -2   -1    0    0    0  501 -0.00000000000E+00 -0.00000000000E+00 -0.64254196072E+02  0.64254196072E+02  0.00000000000E+00 0.  1.
         23    2    1    2    0    0 -0.11023639496E+03  0.91125237337E+02  0.13127629273E+03  0.22398179133E+03  0.11170723415E+03 0.  0.
          5    1    3    3  502    0 -0.57945129430E+02 -0.22450909559E+01  0.94106924107E+02  0.11061764788E+03  0.41800000000E+01 0. -1.
         -5    1    3    3    0  502 -0.52291265533E+02  0.93370328293E+02  0.37169368626E+02  0.11336414345E+03  0.41800000000E+01 0.  1.
        -11    1    1    2    0    0  0.11300513669E+03 -0.10376773321E+03  0.32543351612E+03  0.35978448659E+03  0.00000000000E+00 0. -1.
         11    1    1    2    0    0 -0.27687417232E+01  0.12642495878E+02  0.56955686769E+02  0.58407609848E+02  0.00000000000E+00 0.  1.
</event>
<event>
 7    1  0.4394360E-006  0.1162673E+03  0.7561462E-02  0.1249385E+00
          1   -1    0    0  501    0  0.00000000000E+00  0.00000000000E+00  0.58207933284E+03  0.58207933284E+03  0.00000000000E+00 0. -1.
         -1   -1    0    0    0  501 -0.00000000000E+00 -0.00000000000E+00 -0.25999348820E+02  0.25999348820E+02  0.00000000000E+00 0.  1.
         23    2    1    2    0    0  0.18951902211E+01  0.32313660157E+02  0.21614820569E+03  0.25182408211E+03  0.12509019596E+03 0.  0.
          5    1    3    3  502    0 -0.49464377477E+02 -0.21747928502E+02  0.99847657131E+02  0.11360776412E+03  0.41800000000E+01 0. -1.
         -5    1    3    3    0  502  0.51359567698E+02  0.54061588659E+02  0.11630054856E+03  0.13821631799E+03  0.41800000000E+01 0. -1.
        -11    1    1    2    0    0 -0.48924117617E+02 -0.47796155703E+01  0.12014302462E+03  0.12981047868E+03  0.00000000000E+00 0. -1.
         11    1    1    2    0    0  0.47028927396E+02 -0.27534044587E+02  0.21978875370E+03  0.22644412087E+03  0.00000000000E+00 0.  1.
</event>
<event>
 7    1  0.4394360E-006  0.1647687E+03  0.7561462E-02  0.1183416E+00
         -2   -1    0    0    0  501 -0.00000000000E+00  0.00000000000E+00  0.50743070002E+02  0.50743070002E+02  0.00000000000E+00 0.  1.
          2   -1    0    0  501    0  0.00000000000E+00 -0.00000000000E+00 -0.66007489090E+03  0.66007489090E+03  0.00000000000E+00 0. -1.
         23    2    1    2    0    0  0.12554265959E+03  0.61053921283E+02 -0.23227753456E+03  0.29847910833E+03  0.12509350249E+03 0.  0.
          5    1    3    3  502    0  0.67824392860E+01 -0.33963283606E+02 -0.35920532876E+02  0.50072579304E+02  0.41800000000E+01 0.  1.
         -5    1    3    3    0  502  0.11876022031E+03  0.95017204889E+02 -0.19635700168E+03  0.24840652903E+03  0.41800000000E+01 0.  1.
        -11    1    1    2    0    0 -0.74966339446E+02 -0.20622800106E+02 -0.94077436846E+02  0.12204841686E+03  0.00000000000E+00 0.  1.
         11    1    1    2    0    0 -0.50576320146E+02 -0.40431121177E+02 -0.28297684950E+03  0.29029043572E+03  0.00000000000E+00 0. -1.
</event>
<event>
 7    1  0.4394360E-006  0.1898855E+03  0.7561462E-02  0.1158565E+00
         -1   -1    0    0    0  501 -0.00000000000E+00  0.00000000000E+00  0.21350009937E+03  0.21350009937E+03  0.00000000000E+00 0.  1.
          1   -1    0    0  501    0  0.00000000000E+00 -0.00000000000E+00 -0.20597493559E+03  0.20597493559E+03  0.00000000000E+00 0. -1.
         23    2    1    2    0    0 -0.13531085463E+03  0.11236234696E+03  0.21973237989E+02  0.21694454040E+03  0.12509111090E+03 0.  0.
          5    1    3    3  502    0 -0.10994853778E+03  0.10203107266E+03  0.66797027382E+02  0.16425083261E+03  0.41800000000E+01 0. -1.
         -5    1    3    3    0  502 -0.25362316848E+02  0.10331274299E+02 -0.44823789393E+02  0.52693707784E+02  0.41800000000E+01 0. -1.
        -11    1    1    2    0    0 -0.14888468595E+02 -0.79230287483E+00 -0.86390833639E+00  0.14934543132E+02  0.00000000000E+00 0. -1.
         11    1    1    2    0    0  0.15019932322E+03 -0.11157004408E+03 -0.13584165875E+02  0.18759595144E+03  0.00000000000E+00 0.  1.
</event>
<event>
 7    1  0.4394360E-006  0.1291917E+03  0.7561462E-02  0.1228660E+00
         -2   -1    0    0    0  501 -0.00000000000E+00  0.00000000000E+00  0.25847499480E+03  0.25847499480E+03  0.00000000000E+00 0. -1.
          2   -1    0    0  501    0  0.00000000000E+00 -0.00000000000E+00 -0.90164639659E+02  0.90164639659E+02  0.00000000000E+00 0.  1.
         23    2    1    2    0    0  0.90564532907E+02  0.11445971598E+02  0.15534982460E+03  0.21936109847E+03  0.12511106519E+03 0.  0.
          5    1    3    3  502    0 -0.26004343073E+02  0.25318026972E+02  0.27393117390E+02  0.45662715959E+02  0.41800000000E+01 0.  1.
         -5    1    3    3    0  502  0.11656887598E+03 -0.13872055374E+02  0.12795670721E+03  0.17369838251E+03  0.41800000000E+01 0.  1.
        -11    1    1    2    0    0 -0.80410994885E+02  0.96341204552E+01 -0.24938326060E+02  0.84738801514E+02  0.00000000000E+00 0.  1.
         11    1    1    2    0    0 -0.10153538022E+02 -0.21080092053E+02  0.37898856597E+02  0.44539734470E+02  0.00000000000E+00 0. -1.
</event>
<event>
 7    1  0.4394360E-006  0.9070758E+02  0.7561462E-02  0.1301147E+00
         -1   -1    0    0    0  501 -0.00000000000E+00  0.00000000000E+00  0.13460958717E+03  0.13460958717E+03  0.00000000000E+00 0.  1.
          1   -1    0    0  501    0  0.00000000000E+00 -0.00000000000E+00 -0.75869607883E+02  0.75869607883E+02  0.00000000000E+00 0. -1.
         23    2    1    2    0    0  0.21455662278E+02  0.52708437428E+02  0.63817123994E+02  0.15152124169E+03  0.12509011372E+03 0.  0.
          5    1    3    3  502    0  0.63147023079E+02  0.50272809458E+02  0.73393243229E+01  0.81155652767E+02  0.41800000000E+01 0. -1.
         -5    1    3    3    0  502 -0.41691360802E+02  0.24356279703E+01  0.56477799671E+02  0.70365588925E+02  0.41800000000E+01 0. -1.
        -11    1    1    2    0    0 -0.21536605539E+02 -0.36269260182E+02 -0.53275344899E+01  0.42516670096E+02  0.00000000000E+00 0.  1.
         11    1    1    2    0    0  0.80943261726E-01 -0.16439177246E+02  0.25038978327E+00  0.16441283264E+02  0.00000000000E+00 0. -1.
</event>
<event>
 7    1  0.4394360E-006  0.2164225E+03  0.7561462E-02  0.1136579E+00
         -2   -1    0    0    0  501 -0.00000000000E+00  0.00000000000E+00  0.10625660361E+03  0.10625660361E+03  0.00000000000E+00 0. -1.
          2   -1    0    0  501    0  0.00000000000E+00 -0.00000000000E+00 -0.48737281128E+03  0.48737281128E+03  0.00000000000E+00 0.  1.
         23    2    1    2    0    0  0.53267221634E+02  0.19235016110E+03 -0.20521308148E+03  0.31240381858E+03  0.12509098958E+03 0.  0.
          5    1    3    3  502    0  0.82671365744E+02  0.75028089873E+02 -0.12262819979E+03  0.16588826592E+03  0.41800000000E+01 0.  1.
         -5    1    3    3    0  502 -0.29404144110E+02  0.11732207123E+03 -0.82584881689E+02  0.14651555266E+03  0.41800000000E+01 0.  1.
        -11    1    1    2    0    0 -0.43988303903E+02 -0.13443270117E+03 -0.17164305639E+03  0.22241506430E+03  0.00000000000E+00 0.  1.
         11    1    1    2    0    0 -0.92789177310E+01 -0.57917459935E+02 -0.42600698006E+01  0.58810532001E+02  0.00000000000E+00 0. -1.
</event>
<event>
 7    1  0.4394360E-006  0.1673814E+03  0.7561462E-02  0.1180606E+00
          1   -1    0    0  501    0  0.00000000000E+00  0.00000000000E+00  0.18579283111E+02  0.18579283111E+02  0.00000000000E+00 0. -1.
         -1   -1    0    0    0  501 -0.00000000000E+00 -0.00000000000E+00 -0.16790928428E+04  0.16790928428E+04  0.00000000000E+00 0.  1.
         23    2    1    2    0    0  0.52808126549E+02 -0.11855704349E+03 -0.11161462037E+04  0.11306074992E+04  0.12508596462E+03 0.  0.
          5    1    3    3  502    0 -0.14382860445E+02 -0.11149678600E+03 -0.68215105832E+03  0.69136527157E+03  0.41800000000E+01 0. -1.
         -5    1    3    3    0  502  0.67190986994E+02 -0.70602574868E+01 -0.43399514537E+03  0.43924222767E+03  0.41800000000E+01 0. -1.
        -11    1    1    2    0    0 -0.67681778384E+02  0.49288165628E+02 -0.22869555741E+03  0.24354014941E+03  0.00000000000E+00 0. -1.
         11    1    1    2    0    0  0.14873651834E+02  0.69268877862E+02 -0.31567179855E+03  0.32352447721E+03  0.00000000000E+00 0.  1.
</event>
<event>
 6    1  0.4394360E-006  0.1228103E+03  0.7561462E-02  0.1238532E+00
         -1   -1    0    0    0  501 -0.00000000000E+00  0.00000000000E+00  0.19018856995E+03  0.19018856995E+03  0.00000000000E+00 0.  1.
          1   -1    0    0  501    0  0.00000000000E+00 -0.00000000000E+00 -0.10150539477E+03  0.10150539477E+03  0.00000000000E+00 0. -1.
          5    1    1    2  502    0 -0.51337616301E+02  0.16425618009E+02  0.30207914205E+02  0.61930140119E+02  0.41800000000E+01 0. -1.
         -5    1    1    2    0  502  0.95336148896E+02  0.78248431314E+01  0.79238652296E+02  0.12428373133E+03  0.41800000000E+01 0.  1.
        -11    1    1    2    0    0 -0.24222494748E+02 -0.54516421347E+02  0.67660988432E+01  0.60037900879E+02  0.00000000000E+00 0.  1.
         11    1    1    2    0    0 -0.19776037846E+02  0.30265960207E+02 -0.27529490172E+02  0.45442192391E+02  0.00000000000E+00 0. -1.
</event>
<event>
 7    1  0.4394360E-006  0.1100216E+03  0.7561462E-02  0.1260530E+00
          1   -1    0    0  501    0  0.00000000000E+00  0.00000000000E+00  0.22508007825E+03  0.22508007825E+03  0.00000000000E+00 0. -1.
         -1   -1    0    0    0  501 -0.00000000000E+00 -0.00000000000E+00 -0.61517752287E+02  0.61517752287E+02  0.00000000000E+00 0.  1.
         23    2    1    2    0    0 -0.42306444269E+02  0.59511379727E+01  0.70514997020E+02  0.14981625390E+03  0.12508914364E+03 0.  0.
          5    1    3    3  502    0 -0.35503613829E+02 -0.56122169050E+02  0.20275384853E+02  0.69561254191E+02  0.41800000000E+01 0.  1.
         -5    1    3    3    0  502 -0.68028304403E+01  0.62073307022E+02  0.50239612168E+02  0.80254999704E+02  0.41800000000E+01 0.  1.
        -11    1    1    2    0    0  0.42019594942E+02  0.32092326964E+02  0.24257139850E+02  0.58171923148E+02  0.00000000000E+00 0. -1.
         11    1    1    2    0    0  0.28684932747E+00 -0.38043464937E+02  0.68790189088E+02  0.78609653489E+02  0.00000000000E+00 0.  1.
</event>
<event>
 7    1  0.4394360E-006  0.1452195E+03  0.7561462E-02  0.1206473E+00
          2   -1    0    0  501    0  0.00000000000E+00  0.00000000000E+00  0.11108539055E+03  0.11108539055E+03  0.00000000000E+00 0. -1.
         -2   -1    0    0    0  501 -0.00000000000E+00 -0.00000000000E+00 -0.20676066002E+03  0.20676066002E+03  0.00000000000E+00 0.  1.
         23    2    1    2    0    0  0.89187405953E+02 -0.44701875696E+02 -0.86689296635E+02  0.18197545832E+03  0.12508949679E+03 0.  0.
          5    1    3    3  502    0 -0.16732192617E+01 -0.63587255469E+02 -0.53843769281E+02  0.83443169949E+02  0.41800000000E+01 0. -1.
         -5    1    3    3    0  502  0.90860625214E+02  0.18885379773E+02 -0.32845527354E+02  0.98532288366E+02  0.41800000000E+01 0. -1.
        -11    1    1    2    0    0 -0.47469448401E+02 -0.24174383955E+02  0.71386525256E+01  0.53746718327E+02  0.00000000000E+00 0. -1.
         11    1    1    2    0    0 -0.41717957552E+02  0.68876259651E+02 -0.16124625357E+02  0.82123873927E+02  0.00000000000E+00 0.  1.
</event>
<event>
 7    1  0.4394360E-006  0.1014410E+03  0.7561462E-02  0.1277295E+00
          1   -1    0    0  501    0  0.00000000000E+00  0.00000000000E+00  0.70819881870E+02  0.70819881870E+02  0.00000000000E+00 0. -1.
         -1   -1    0    0    0  501 -0.00000000000E+00 -0.00000000000E+00 -0.17856731665E+03  0.17856731665E+03  0.00000000000E+00 0.  1.
         23    2    1    2    0    0 -0.16732539258E+02  0.13969372438E+02 -0.95448362539E+02  0.14861393508E+03  0.11180603988E+03 0.  0.
          5    1    3    3  502    0  0.21755447910E+02 -0.35713062080E+02 -0.11327266620E+02  0.43525873753E+02  0.41800000000E+01 0. -1.
         -5    1    3    3    0  502 -0.38487987168E+02  0.49682434518E+02 -0.84121095919E+02  0.10508806133E+03  0.41800000000E+01 0.  1.
        -11    1    1    2    0    0 -0.33279548212E+02  0.18661521407E+02 -0.14997631189E+02  0.40996459014E+02  0.00000000000E+00 0.  1.
         11    1    1    2    0    0  0.50012087469E+02 -0.32630893845E+02  0.26985589489E+01  0.59776804420E+02  0.00000000000E+00 0. -1.
</event>
<event>
 7    1  0.4394360E-006  0.1600159E+03  0.7561462E-02  0.1188679E+00
          2   -1    0    0  501    0  0.00000000000E+00  0.00000000000E+00  0.10284702669E+04  0.10284702669E+04  0.00000000000E+00 0. -1.
         -2   -1    0    0    0  501 -0.00000000000E+00 -0.00000000000E+00 -0.30875452928E+02  0.30875452928E+02  0.00000000000E+00 0.  1.
         23    2    1    2    0    0  0.12810945844E+03  0.50922853358E+02  0.44247434846E+03  0.48003755080E+03  0.12508929130E+03 0.  0.
          5    1    3    3  502    0  0.18680149319E+02  0.63771996824E+02  0.24478051018E+03  0.25367456735E+03  0.41800000000E+01 0.  1.
         -5    1    3    3    0  502  0.10942930912E+03 -0.12849143466E+02  0.19769383828E+03  0.22636298345E+03  0.41800000000E+01 0.  1.
        -11    1    1    2    0    0 -0.28686531412E+02  0.49971317467E+01  0.29492625092E+02  0.41445184822E+02  0.00000000000E+00 0.  1.
         11    1    1    2    0    0 -0.99422927024E+02 -0.55919985105E+02  0.52562784038E+03  0.53786298417E+03  0.00000000000E+00 0. -1.
</event>
<event>
 7    1  0.4394360E-006  0.8789051E+02  0.7561462E-02  0.1308042E+00
          1   -1    0    0  501    0  0.00000000000E+00  0.00000000000E+00  0.36430050991E+03  0.36430050991E+03  0.00000000000E+00 0. -1.
         -1   -1    0    0    0  501 -0.00000000000E+00 -0.00000000000E+00 -0.52964697850E+02  0.52964697850E+02  0.00000000000E+00 0.  1.
         23    2    1    2    0    0 -0.76232214816E+02  0.34910054104E+02  0.14028069380E+03  0.20582577261E+03  0.12512199313E+03 0.  0.
          5    1    3    3  502    0 -0.67701256147E+02  0.19201205052E+02  0.65035484535E+01  0.70794879065E+02  0.41800000000E+01 0.  1.
         -5    1    3    3    0  502 -0.85309586691E+01  0.15708849052E+02  0.13377714535E+03  0.13503089354E+03  0.41800000000E+01 0.  1.
        -11    1    1    2    0    0  0.35996723027E+02 -0.40575530928E+01  0.35144890694E+01  0.36394772141E+02  0.00000000000E+00 0.  1.
         11    1    1    2    0    0  0.40235491789E+02 -0.30852501011E+02  0.16754062919E+03  0.17504466301E+03  0.00000000000E+00 0. -1.
</event>
<event>
 7    1  0.4394360E-006  0.2343369E+03  0.7561462E-02  0.1123624E+00
          1   -1    0    0  501    0  0.00000000000E+00  0.00000000000E+00  0.13213009641E+04  0.13213009641E+04  0.00000000000E+00 0. -1.
         -1   -1    0    0    0  501 -0.00000000000E+00 -0.00000000000E+00 -0.43126148257E+02  0.43126148257E+02  0.00000000000E+00 0.  1.
         23    2    1    2    0    0 -0.87271966775E+02  0.19178691427E+03  0.73328693237E+03  0.77314729613E+03  0.12509356359E+03 0.  0.
          5    1    3    3  502    0  0.22326321598E+02  0.97506949370E+02  0.28141767284E+03  0.29869624839E+03  0.41800000000E+01 0. -1.
         -5    1    3    3    0  502 -0.10959828837E+03  0.94279964897E+02  0.45186925953E+03  0.47445104774E+03  0.41800000000E+01 0. -1.
        -11    1    1    2    0    0  0.10089538537E+03 -0.17758634474E+03  0.44727221977E+03  0.49170034289E+03  0.00000000000E+00 0.  1.
         11    1    1    2    0    0 -0.13623418599E+02 -0.14200569523E+02  0.97615663725E+02  0.99579473355E+02  0.00000000000E+00 0. -1.
</event>
<event>
 7    1  0.4394360E-006  0.1706686E+03  0.7561462E-02  0.1177152E+00
          2   -1    0    0  501    0  0.00000000000E+00  0.00000000000E+00  0.83401850757E+03  0.83401850757E+03  0.00000000000E+00 0. -1.
         -2   -1    0    0    0  501 -0.00000000000E+00 -0.00000000000E+00 -0.97541764842E+02  0.97541764842E+02  0.00000000000E+00 0.  1.
         23    2    1    2    0    0  0.10395216178E+03  0.85659272739E+02  0.67053695557E+01  0.18394503520E+03  0.12508897254E+03 0.  0.
          5    1    3    3  502    0 -0.22720363611E+02  0.38031072354E+02  0.18171817398E+02  0.48065213352E+02  0.41800000000E+01 0. -1.
         -5    1    3    3    0  502  0.12667252539E+03  0.47628200385E+02 -0.11466447842E+02  0.13587982185E+03  0.41800000000E+01 0. -1.
        -11    1    1    2    0    0  0.75016646094E+00 -0.51217103773E+02  0.19602046414E+03  0.20260250944E+03  0.00000000000E+00 0.  1.
         11    1    1    2    0    0 -0.10470232824E+03 -0.34442168966E+02  0.53375090904E+03  0.54501272778E+03  0.00000000000E+00 0. -1.
</event>
<event>
 7    1  0.4394360E-006  0.1200336E+03  0.7561462E-02  0.1243042E+00
         -1   -1    0    0    0  501 -0.00000000000E+00  0.00000000000E+00  0.92791875601E+02  0.92791875601E+02  0.00000000000E+00 0.  1.
          1   -1    0    0  501    0  0.00000000000E+00 -0.00000000000E+00 -0.23605650571E+03  0.23605650571E+03  0.00000000000E+00 0. -1.
         23    2    1    2    0    0  0.67209109666E+02  0.15435586031E+02  0.45302988428E+01  0.14290988664E+03  0.12508952935E+03 0.  0.
          5    1    3    3  502    0  0.95038513326E+02  0.37896271547E+02 -0.12351030383E+02  0.10314294335E+03  0.41800000000E+01 0.  1.
         -5    1    3    3    0  502 -0.27829403660E+02 -0.22460685517E+02  0.16881329226E+02  0.39766943287E+02  0.41800000000E+01 0.  1.
        -11    1    1    2    0    0 -0.21701106273E+02  0.30215597680E+02 -0.96941662417E+02  0.10383451386E+03  0.00000000000E+00 0. -1.
         11    1    1    2    0    0 -0.45508003393E+02 -0.45651183711E+02 -0.50853266532E+02  0.82103980805E+02  0.00000000000E+00 0.  1.
</event>
<event>
 6    1  0.4394360E-006  0.1086542E+03  0.7561462E-02  0.1263083E+00
          3   -1    0    0  501    0  0.00000000000E+00  0.00000000000E+00  0.34465102761E+03  0.34465102761E+03  0.00000000000E+00 0. -1.
         -3   -1    0    0    0  501 -0.00000000000E+00 -0.00000000000E+00 -0.99335073480E+02  0.99335073480E+02  0.00000000000E+00 0.  1.
          5    1    1    2  502    0  0.31444831025E+02 -0.67929311474E+02  0.85689535938E+02  0.11385665428E+03  0.41800000000E+01 0. -1.
         -5    1    1    2    0  502 -0.71794034836E+02  0.45756850915E+02 -0.48189258946E+02  0.97917056336E+02  0.41800000000E+01 0.  1.
        -11    1    1    2    0    0  0.41150426750E+02  0.68029297945E+01  0.21215970821E+03  0.21622067261E+03  0.00000000000E+00 0. -1.
         11    1    1    2    0    0 -0.80122293934E+00  0.15369530764E+02 -0.43440310738E+01  0.15991717859E+02  0.00000000000E+00 0.  1.
</event>
<event>
 7    1  0.4394360E-006  0.1038650E+03  0.7561462E-02  0.1272372E+00
         -2   -1    0    0    0  501 -0.00000000000E+00  0.00000000000E+00  0.35866099660E+03  0.35866099660E+03  0.00000000000E+00 0.  1.
          2   -1    0    0  501    0  0.00000000000E+00 -0.00000000000E+00 -0.40329470534E+02  0.40329470534E+02  0.00000000000E+00 0. -1.
         23    2    1    2    0    0 -0.13960885274E+02  0.17780528042E+02  0.12774888803E+03  0.18021725904E+03  0.12508968209E+03 0.  0.
          5    1    3    3  502    0  0.10686930305E+02 -0.45345800453E+02  0.15956928448E+02  0.49422141431E+02  0.41800000000E+01 0. -1.
         -5    1    3    3    0  502 -0.24647815580E+02  0.63126328496E+02  0.11179195958E+03  0.13079511761E+03  0.41800000000E+01 0. -1.
        -11    1    1    2    0    0  0.75906636805E+01 -0.54886853604E+02  0.16283366166E+03  0.17200286696E+03  0.00000000000E+00 0.  1.
         11    1    1    2    0    0  0.63702215939E+01  0.37106325561E+02  0.27748976368E+02  0.46770341129E+02  0.00000000000E+00 0. -1.
</event>
<event>
 7    1  0.4394360E-006  0.1062371E+03  0.7561462E-02  0.1267701E+00
         -2   -1    0    0    0  501 -0.00000000000E+00  0.00000000000E+00  0.35428901916E+02  0.35428901916E+02  0.00000000000E+00 0.  1.
          2   -1    0    0  501    0  0.00000000000E+00 -0.00000000000E+00 -0.77854497982E+03  0.77854497982E+03  0.00000000000E+00 0. -1.
         23    2    1    2    0    0  0.59896209191E+02 -0.25811373890E+02 -0.13256447489E+03  0.19358392907E+03  0.12509042607E+03 0.  0.
          5    1    3    3  502    0  0.59834471992E+02  0.14721351514E+02 -0.76996427876E+01  0.62238566243E+02  0.41800000000E+01 0.  1.
         -5    1    3    3    0  502  0.61737198965E-01 -0.40532725404E+02 -0.12486483210E+03  0.13134536283E+03  0.41800000000E+01 0.  1.
        -11    1    1    2    0    0 -0.21865295675E+02 -0.33204731024E+02 -0.20939821084E+03  0.21313905325E+03  0.00000000000E+00 0.  1.
         11    1    1    2    0    0 -0.38030913517E+02  0.59016104914E+02 -0.40115339218E+03  0.40725089942E+03  0.00000000000E+00 0. -1.
</event>
<event>
 7    1  0.4394360E-006  0.1004364E+03  0.7561462E-02  0.1279381E+00
          2   -1    0    0  501    0  0.00000000000E+00  0.00000000000E+00  0.55145729714E+03  0.55145729714E+03  0.00000000000E+00 0. -1.
         -2   -1    0    0    0  501 -0.00000000000E+00 -0.00000000000E+00 -0.22340130709E+02  0.22340130709E+02  0.00000000000E+00 0.  1.
         23    2    1    2    0    0  0.26650016961E+02 -0.38891862569E+01  0.20205297715E+03  0.23283193891E+03  0.11251647447E+03 0.  0.
          5    1    3    3  502    0 -0.98679805522E+01 -0.48359611965E+02  0.50812755912E+02  0.70960817871E+02  0.41800000000E+01 0. -1.
         -5    1    3    3    0  502  0.36517997513E+02  0.44470425709E+02  0.15124022124E+03  0.16187112103E+03  0.41800000000E+01 0.  1.
        -11    1    1    2    0    0  0.33210129845E+02 -0.32144491524E+01  0.80523051872E+02  0.87161960111E+02  0.00000000000E+00 0.  1.
         11    1    1    2    0    0 -0.59860146806E+02  0.71036354093E+01  0.24654113741E+03  0.25380352883E+03  0.00000000000E+00 0. -1.
</event>
<event>
 7    1  0.4394360E-006  0.1772444E+03  0.7561462E-02  0.1170497E+00
         -1   -1    0    0    0  501 -0.00000000000E+00  0.00000000000E+00  0.34153182668E+03  0.34153182668E+03  0.00000000000E+00 0.  1.
          1   -1    0    0  501    0  0.00000000000E+00 -0.00000000000E+00 -0.11364329291E+03  0.11364329291E+03  0.00000000000E+00 0. -1.
         23    2    1    2    0    0  0.34125652391E+02 -0.14547666090E+03  0.19493267843E+03  0.27563508337E+03  0.12509169056E+03 0.  0.
          5    1    3    3  502    0  0.23462271631E+01 -0.15616414082E+03  0.13341911604E+03  0.20545285733E+03  0.41800000000E+01 0. -1.
         -5    1    3    3    0  502  0.31779425228E+02  0.10687479915E+02  0.61513562385E+02  0.70182226040E+02  0.41800000000E+01 0. -1.
        -11    1    1    2    0    0 -0.51672392112E+02  0.70190653738E+02  0.49855164319E+02  0.10041066372E+03  0.00000000000E+00 0.  1.
         11    1    1    2    0    0  0.17546739722E+02  0.75286007163E+02 -0.16899308982E+02  0.79129372508E+02  0.00000000000E+00 0. -1.
</event>
<event>
 7    1  0.4394360E-006  0.1044859E+03  0.7561462E-02  0.1271136E+00
          1   -1    0    0  501    0  0.00000000000E+00  0.00000000000E+00  0.16889057506E+03  0.16889057506E+03  0.00000000000E+00 0. -1.
         -1   -1    0    0    0  501 -0.00000000000E+00 -0.00000000000E+00 -0.10523445628E+03  0.10523445628E+03  0.00000000000E+00 0.  1.
         23    2    1    2    0    0 -0.72624423347E+02  0.22744183310E+02  0.19846466983E+02  0.14775814987E+03  0.12508790453E+03 0.  0.
          5    1    3    3  502    0 -0.84571773041E+02  0.22075260618E+02  0.59704664634E+02  0.10593309825E+03  0.41800000000E+01 0. -1.
         -5    1    3    3    0  502  0.11947349694E+02  0.66892269166E+00 -0.39858197652E+02  0.41825051612E+02  0.41800000000E+01 0. -1.
        -11    1    1    2    0    0 -0.81784279852E+01  0.16909173587E+02 -0.10223895363E+02  0.21385389220E+02  0.00000000000E+00 0.  1.
         11    1    1    2    0    0  0.80802851332E+02 -0.39653356897E+02  0.54033547164E+02  0.10498149225E+03  0.00000000000E+00 0. -1.
</event>
<event>
 7    1  0.4394360E-006  0.1259162E+03  0.7561462E-02  0.1233644E+00
          3   -1    0    0  501    0  0.00000000000E+00  0.00000000000E+00  0.11268268504E+02  0.11268268504E+02  0.00000000000E+00 0. -1.
         -3   -1    0    0    0  501 -0.00000000000E+00 -0.00000000000E+00 -0.21578030125E+04  0.21578030125E+04  0.00000000000E+00 0.  1.
         23    2    1    2    0    0 -0.82627276975E+02  0.36882381881E+02 -0.16473320487E+04  0.16540450864E+04  0.11821460172E+03 0.  0.
          5    1    3    3  502    0 -0.33299628380E+02 -0.27882186333E+02 -0.21431853507E+03  0.21871485647E+03  0.41800000000E+01 0. -1.
         -5    1    3    3    0  502 -0.49327648594E+02  0.64764568213E+02 -0.14330135136E+04  0.14353302299E+04  0.41800000000E+01 0.  1.
        -11    1    1    2    0    0 -0.17843710857E+02 -0.16209207715E+02 -0.95654914982E+02  0.98645827039E+02  0.00000000000E+00 0.  1.
         11    1    1    2    0    0  0.10047098783E+03 -0.20673174166E+02 -0.40354778031E+03  0.41638036759E+03  0.00000000000E+00 0. -1.
</event>
<event>
 7    1  0.4394360E-006  0.1224857E+03  0.7561462E-02  0.1239052E+00
         -2   -1    0    0    0  501 -0.00000000000E+00  0.00000000000E+00  0.22218508154E+02  0.22218508154E+02  0.00000000000E+00 0.  1.
          2   -1    0    0  501    0  0.00000000000E+00 -0.00000000000E+00 -0.71977594393E+03  0.71977594393E+03  0.00000000000E+00 0. -1.
         23    2    1    2    0    0  0.38140185469E+02 -0.48344334848E+02 -0.43298551219E+03  0.45488019580E+03  0.12509072830E+03 0.  0.
          5    1    3    3  502    0  0.31995336727E+02 -0.88441823907E+02 -0.24371873956E+03  0.26126988766E+03  0.41800000000E+01 0.  1.
         -5    1    3    3    0  502  0.61448487414E+01  0.40097489059E+02 -0.18926677263E+03  0.19361030814E+03  0.41800000000E+01 0.  1.
        -11    1    1    2    0    0 -0.10502666064E+02 -0.27439467527E+02 -0.51614003173E+02  0.59390535409E+02  0.00000000000E+00 0.  1.
         11    1    1    2    0    0 -0.27637519405E+02  0.75783802375E+02 -0.21295792042E+03  0.22772372088E+03  0.00000000000E+00 0. -1.
</event>
<event>
 7    1  0.4394360E-006  0.1403326E+03  0.7561462E-02  0.1212882E+00
          3   -1    0    0  501    0  0.00000000000E+00  0.00000000000E+00  0.17161315526E+03  0.17161315526E+03  0.00000000000E+00 0. -1.
         -3   -1    0    0    0  501 -0.00000000000E+00 -0.00000000000E+00 -0.14625442484E+03  0.14625442484E+03  0.00000000000E+00 0.  1.
         23    2    1    2    0    0 -0.26192019380E+02 -0.10114688508E+03 -0.35433051892E+02  0.16679429995E+03  0.12509245816E+03 0.  0.
          5    1    3    3  502    0  0.14479473124E+02  0.24727703191E+02  0.26404197552E+01  0.29078491425E+02  0.41800000000E+01 0. -1.
         -5    1    3    3    0  502 -0.40671492504E+02 -0.12587458827E+03 -0.38073471647E+02  0.13771580852E+03  0.41800000000E+01 0. -1.
        -11    1    1    2    0    0  0.44174576430E+02  0.60493669973E+02 -0.10492319382E+01  0.74913137681E+02  0.00000000000E+00 0.  1.
         11    1    1    2    0    0 -0.17982557050E+02  0.40653215104E+02  0.61841014252E+02  0.76160142464E+02  0.00000000000E+00 0. -1.
</event>
<event>
 7    1  0.4394360E-006  0.1143235E+03  0.7561462E-02  0.1252767E+00
         -1   -1    0    0    0  501 -0.00000000000E+00  0.00000000000E+00  0.12074571871E+03  0.12074571871E+03  0.00000000000E+00 0.  1.
          1   -1    0    0  501    0  0.00000000000E+00 -0.00000000000E+00 -0.11703534889E+03  0.11703534889E+03  0.00000000000E+00 0. -1.
         23    2    1    2    0    0  0.37623671456E+02  0.30794953143E+02  0.96019575383E+01  0.13455305573E+03  0.12509379451E+03 0.  0.
          5    1    3    3  502    0 -0.34836527606E+02  0.39881509112E+02  0.26674236954E+02  0.59439933898E+02  0.41800000000E+01 0. -1.
         -5    1    3    3    0  502  0.72460199062E+02 -0.90865559689E+01 -0.17072279416E+02  0.75113121836E+02  0.41800000000E+01 0. -1.
        -11    1    1    2    0    0 -0.67016772431E+02 -0.13780957270E+02 -0.94969279726E+01  0.69074989767E+02  0.00000000000E+00 0.  1.
         11    1    1    2    0    0  0.29393100975E+02 -0.17013995873E+02  0.36053402562E+01  0.34153022104E+02  0.00000000000E+00 0. -1.
</event>
<event>
 7    1  0.4394360E-006  0.9764710E+02  0.7561462E-02  0.1285323E+00
          1   -1    0    0  501    0  0.00000000000E+00  0.00000000000E+00  0.39108404391E+02  0.39108404391E+02  0.00000000000E+00 0. -1.
         -1   -1    0    0    0  501 -0.00000000000E+00 -0.00000000000E+00 -0.31247189703E+03  0.31247189703E+03  0.00000000000E+00 0.  1.
         23    2    1    2    0    0 -0.39011036740E+02 -0.36779931940E+02 -0.20580396586E+03  0.24673587347E+03  0.12509474214E+03 0.  0.
          5    1    3    3  502    0 -0.73566845015E+02 -0.18488578443E+02 -0.63234148061E+02  0.98842997219E+02  0.41800000000E+01 0. -1.
         -5    1    3    3    0  502  0.34555808275E+02 -0.18291353498E+02 -0.14256981780E+03  0.14789287625E+03  0.41800000000E+01 0. -1.
        -11    1    1    2    0    0  0.33076649727E+02  0.53143931192E+02 -0.55611179518E+02  0.83731388780E+02  0.00000000000E+00 0.  1.
         11    1    1    2    0    0  0.59343870130E+01 -0.16363999251E+02 -0.11948347258E+02  0.21113039168E+02  0.00000000000E+00 0. -1.
</event>
<event>
 7    1  0.4394360E-006  0.1106527E+03  0.7561462E-02  0.1259366E+00
         -2   -1    0    0    0  501 -0.00000000000E+00  0.00000000000E+00  0.11171468489E+03  0.11171468489E+03  0.00000000000E+00 0. -1.
          2   -1    0    0  501    0  0.00000000000E+00 -0.00000000000E+00 -0.14200017936E+03  0.14200017936E+03  0.00000000000E+00 0.  1.
         23    2    1    2    0    0 -0.13028408286E+02  0.58720307296E+02  0.54280217709E+01  0.13890328977E+03  0.12508735579E+03 0.  0.
          5    1    3    3  502    0 -0.30614193451E+02 -0.18955974249E+02  0.38217027485E+02  0.52674200423E+02  0.41800000000E+01 0. -1.
         -5    1    3    3    0  502  0.17585785165E+02  0.77676281544E+02 -0.32789005714E+02  0.86229089350E+02  0.41800000000E+01 0. -1.
        -11    1    1    2    0    0  0.18717421604E+02  0.19411400631E+02  0.35256723931E+01  0.27195122941E+02  0.00000000000E+00 0. -1.
         11    1    1    2    0    0 -0.56890133176E+01 -0.78131707927E+02 -0.39239188626E+02  0.87616451538E+02  0.00000000000E+00 0.  1.
</event>
<event>
 7    1  0.4394360E-006  0.1784396E+03  0.7561462E-02  0.1169322E+00
          1   -1    0    0  501    0  0.00000000000E+00  0.00000000000E+00  0.66687304249E+03  0.66687304249E+03  0.00000000000E+00 0. -1.
         -1   -1    0    0    0  501 -0.00000000000E+00 -0.00000000000E+00 -0.60818999394E+02  0.60818999394E+02  0.00000000000E+00 0.  1.
         23    2    1    2    0    0 -0.11675654117E+03  0.12193046694E+03  0.29968871273E+03  0.36600613183E+03  0.12509210735E+03 0.  0.
          5    1    3    3  502    0 -0.48517231782E+02  0.18758382135E+02  0.20113067169E+03  0.20779032262E+03  0.41800000000E+01 0. -1.
         -5    1    3    3    0  502 -0.68239309385E+02  0.10317208481E+03  0.98558041042E+02  0.15821580921E+03  0.41800000000E+01 0. -1.
        -11    1    1    2    0    0  0.80576814073E+02 -0.12019491031E+03  0.18406979181E+03  0.23413912037E+03  0.00000000000E+00 0.  1.
         11    1    1    2    0    0  0.36179727094E+02 -0.17355566274E+01  0.12229553856E+03  0.12754678969E+03  0.00000000000E+00 0. -1.
</event>
<event>
 7    1  0.4394360E-006  0.1567244E+03  0.7561462E-02  0.1192445E+00
         -1   -1    0    0    0  501 -0.00000000000E+00  0.00000000000E+00  0.37665541084E+02  0.37665541084E+02  0.00000000000E+00 0.  1.
          1   -1    0    0  501    0  0.00000000000E+00 -0.00000000000E+00 -0.87809154530E+03  0.87809154530E+03  0.00000000000E+00 0. -1.
         23    2    1    2    0    0 -0.54079671682E+02  0.10330572238E+03 -0.22478621961E+03  0.28244517723E+03  0.12509896262E+03 0.  0.
          5    1    3    3  502    0  0.13123458436E+02  0.99196483059E+02 -0.10590719928E+03  0.14575998995E+03  0.41800000000E+01 0.  1.
         -5    1    3    3    0  502 -0.67203130118E+02  0.41092393203E+01 -0.11887902034E+03  0.13668518728E+03  0.41800000000E+01 0.  1.
        -11    1    1    2    0    0  0.66424995586E+02 -0.32465284232E+02 -0.25159918436E+03  0.26223734343E+03  0.00000000000E+00 0.  1.
         11    1    1    2    0    0 -0.12345323904E+02 -0.70840438147E+02 -0.36404060025E+03  0.37107456573E+03  0.00000000000E+00 0. -1.
</event>
<event>
 7    1  0.4394360E-006  0.9827780E+02  0.7561462E-02  0.1283960E+00
          1   -1    0    0  501    0  0.00000000000E+00  0.00000000000E+00  0.19752736972E+03  0.19752736972E+03  0.00000000000E+00 0. -1.
         -1   -1    0    0    0  501 -0.00000000000E+00 -0.00000000000E+00 -0.93932686434E+02  0.93932686434E+02  0.00000000000E+00 0.  1.
         23    2    1    2    0    0 -0.47457302509E+02  0.32601420313E+02 -0.53252117169E+01  0.13780735348E+03  0.12508981024E+03 0.  0.
          5    1    3    3  502    0  0.28814917595E+02  0.34115700446E+02 -0.33916118903E+02  0.56231272566E+02  0.41800000000E+01 0. -1.
         -5    1    3    3    0  502 -0.76272220103E+02 -0.15142801328E+01  0.28590907186E+02  0.81576080916E+02  0.41800000000E+01 0. -1.
        -11    1    1    2    0    0  0.21362480729E+02  0.11348306913E+02 -0.84605693667E+01  0.25626566034E+02  0.00000000000E+00 0.  1.
         11    1    1    2    0    0  0.26094821780E+02 -0.43949727226E+02  0.11738046437E+03  0.12802613664E+03  0.00000000000E+00 0. -1.
</event>
<event>
 7    1  0.4394360E-006  0.1152302E+03  0.7561462E-02  0.1251180E+00
          2   -1    0    0  501    0  0.00000000000E+00  0.00000000000E+00  0.38899976948E+03  0.38899976948E+03  0.00000000000E+00 0. -1.
         -2   -1    0    0    0  501 -0.00000000000E+00 -0.00000000000E+00 -0.46128524850E+02  0.46128524850E+02  0.00000000000E+00 0.  1.
         23    2    1    2    0    0 -0.11961552916E+02 -0.75461583236E+02  0.21772638110E+03  0.26246527992E+03  0.12508283991E+03 0.  0.
          5    1    3    3  502    0  0.56620686611E+02 -0.30573098902E+02  0.97690468764E+02  0.11705347759E+03  0.41800000000E+01 0.  1.
         -5    1    3    3    0  502 -0.68582239526E+02 -0.44888484334E+02  0.12003591234E+03  0.14541180233E+03  0.41800000000E+01 0.  1.
        -11    1    1    2    0    0  0.23185647033E+02  0.35536660395E+02  0.17305516417E+01  0.42466731324E+02  0.00000000000E+00 0.  1.
         11    1    1    2    0    0 -0.11224094117E+02  0.39924922841E+02  0.12341431189E+03  0.13019628309E+03  0.00000000000E+00 0. -1.
</event>
<event>
 7    1  0.4394360E-006  0.4468620E+03  0.7561462E-02  0.1028662E+00
         -2   -1    0    0    0  501 -0.00000000000E+00  0.00000000000E+00  0.21403817569E+03  0.21403817569E+03  0.00000000000E+00 0.  1.
          2   -1    0    0  501    0  0.00000000000E+00 -0.00000000000E+00 -0.99222424039E+03  0.99222424039E+03  0.00000000000E+00 0. -1.
         23    2    1    2    0    0 -0.42627910712E+03 -0.10407721747E+03 -0.27658482806E+03  0.53356586389E+03  0.12508964639E+03 0.  0.
          5    1    3    3  502    0 -0.23565562428E+03 -0.10612714071E+03 -0.20493919710E+03  0.32986980789E+03  0.41800000000E+01 0.  1.
         -5    1    3    3    0  502 -0.19062348283E+03  0.20499232382E+01 -0.71645630957E+02  0.20369605599E+03  0.41800000000E+01 0.  1.
        -11    1    1    2    0    0  0.99456333926E+02 -0.61578378862E+01 -0.78703388822E+02  0.12697915080E+03  0.00000000000E+00 0.  1.
         11    1    1    2    0    0  0.32682277319E+03  0.11023505535E+03 -0.42289784782E+03  0.54571740141E+03  0.00000000000E+00 0. -1.
</event>
<event>
 6    1  0.4394360E-006  0.1251457E+03  0.7561462E-02  0.1234842E+00
          1   -1    0    0  501    0  0.00000000000E+00  0.00000000000E+00  0.21908764401E+03  0.21908764401E+03  0.00000000000E+00 0. -1.
         -1   -1    0    0    0  501 -0.00000000000E+00 -0.00000000000E+00 -0.83433457821E+02  0.83433457821E+02  0.00000000000E+00 0.  1.
          5    1    1    2  502    0 -0.81252841587E+02  0.53538208894E+02  0.41067567692E+01  0.97481803064E+02  0.41800000000E+01 0. -1.
         -5    1    1    2    0  502  0.47185537961E+02 -0.26982631866E+01  0.31981302685E+02  0.57219155344E+02  0.41800000000E+01 0.  1.
        -11    1    1    2    0    0  0.48717766394E+02 -0.67512124746E+02  0.60591656839E+02  0.10296920233E+03  0.00000000000E+00 0.  1.
         11    1    1    2    0    0 -0.14650462768E+02  0.16672179039E+02  0.38974469896E+02  0.44850941092E+02  0.00000000000E+00 0. -1.
</event>
<event>
 6    1  0.4394360E-006  0.1391629E+03  0.7561462E-02  0.1214460E+00
         -2   -1    0    0    0  501 -0.00000000000E+00  0.00000000000E+00  0.39582494173E+02  0.39582494173E+02  0.00000000000E+00 0.  1.
          2   -1    0    0  501    0  0.00000000000E+00 -0.00000000000E+00 -0.71227253636E+03  0.71227253636E+03  0.00000000000E+00 0. -1.
          5    1    1    2  502    0  0.63548028337E+02  0.80567120679E+02 -0.27889891933E+03  0.29720614470E+03  0.41800000000E+01 0. -1.
         -5    1    1    2    0  502 -0.62441140019E+02 -0.66432580722E+02 -0.65275970058E+02  0.11220788036E+03  0.41800000000E+01 0.  1.
        -11    1    1    2    0    0  0.22654885412E+02  0.27982168392E+02 -0.63033101142E+02  0.72590752996E+02  0.00000000000E+00 0.  1.
         11    1    1    2    0    0 -0.23761773730E+02 -0.42116708348E+02 -0.26548205166E+03  0.26985025248E+03  0.00000000000E+00 0. -1.
</event>
<event>
 7    1  0.4394360E-006  0.1010218E+03  0.7561462E-02  0.1278162E+00
          1   -1    0    0  501    0  0.00000000000E+00  0.00000000000E+00  0.42209320891E+02  0.42209320891E+02  0.00000000000E+00 0. -1.
         -1   -1    0    0    0  501 -0.00000000000E+00 -0.00000000000E+00 -0.28853057828E+03  0.28853057828E+03  0.00000000000E+00 0.  1.
         23    2    1    2    0    0 -0.84420172720E+01  0.26295102934E+02 -0.14416802903E+03  0.19287288448E+03  0.12511126600E+03 0.  0.
          5    1    3    3  502    0  0.48076409716E+02  0.47204947705E+02 -0.81575498043E+02  0.10588523287E+03  0.41800000000E+01 0. -1.
         -5    1    3    3    0  502 -0.56518426988E+02 -0.20909844771E+02 -0.62592530987E+02  0.86987651611E+02  0.41800000000E+01 0. -1.
        -11    1    1    2    0    0  0.24751621398E+02 -0.43734231252E+02 -0.10231422744E+03  0.11398915247E+03  0.00000000000E+00 0. -1.
         11    1    1    2    0    0 -0.16309604126E+02  0.17439128318E+02  0.16099908171E+00  0.23877862214E+02  0.00000000000E+00 0.  1.
</event>
<event>
 7    1  0.4394360E-006  0.1830389E+03  0.7561462E-02  0.1164894E+00
         -2   -1    0    0    0  501 -0.00000000000E+00  0.00000000000E+00  0.74682711505E+02  0.74682711505E+02  0.00000000000E+00 0.  1.
          2   -1    0    0  501    0  0.00000000000E+00 -0.00000000000E+00 -0.49184776528E+03  0.49184776528E+03  0.00000000000E+00 0. -1.
         23    2    1    2    0    0 -0.15164021165E+03  0.21393351084E+02 -0.18294892585E+03  0.26939086187E+03  0.12509475500E+03 0.  0.
          5    1    3    3  502    0 -0.14622439184E+03  0.54121896554E+02 -0.17613160619E+03  0.23526701331E+03  0.41800000000E+01 0.  1.
         -5    1    3    3    0  502 -0.54158198143E+01 -0.32728545469E+02 -0.68173196626E+01  0.34123848555E+02  0.41800000000E+01 0.  1.
        -11    1    1    2    0    0  0.11501201783E+03 -0.54520562034E+02 -0.19997166811E+03  0.23704202998E+03  0.00000000000E+00 0. -1.
         11    1    1    2    0    0  0.36628193816E+02  0.33127210949E+02 -0.34244459812E+02  0.60097584938E+02  0.00000000000E+00 0.  1.
</event>
<event>
 7    1  0.4394360E-006  0.1572243E+03  0.7561462E-02  0.1191867E+00
         -3   -1    0    0    0  501 -0.00000000000E+00  0.00000000000E+00  0.14648142171E+03  0.14648142171E+03  0.00000000000E+00 0.  1.
          3   -1    0    0  501    0  0.00000000000E+00 -0.00000000000E+00 -0.19771819666E+03  0.19771819666E+03  0.00000000000E+00 0. -1.
         23    2    1    2    0    0  0.75906858383E+02 -0.97859527003E+02 -0.33949498162E+02  0.17927338580E+03  0.12509212707E+03 0.  0.
          5    1    3    3  502    0  0.99555562579E+02 -0.52378062043E+02  0.80679549868E+01  0.11285980561E+03  0.41800000000E+01 0.  1.
         -5    1    3    3    0  502 -0.23648704196E+02 -0.45481464960E+02 -0.42017453149E+02  0.66413580194E+02  0.41800000000E+01 0.  1.
        -11    1    1    2    0    0 -0.18717658594E+02 -0.14958105763E+02  0.21950598608E+02  0.32494991160E+02  0.00000000000E+00 0.  1.
         11    1    1    2    0    0 -0.57189199789E+02  0.11281763277E+03 -0.39237875399E+02  0.13243124141E+03  0.00000000000E+00 0. -1.
</event>
<event>
 7    1  0.1018460E-005  0.2182640E+03  0.7561462E-02  0.1135184E+00
          3   -1    0    0  501    0  0.00000000000E+00  0.00000000000E+00  0.37294338334E+03  0.37294338334E+03  0.00000000000E+00 0. -1.
         -3   -1    0    0    0  501 -0.00000000000E+00 -0.00000000000E+00 -0.14946610056E+03  0.14946610056E+03  0.00000000000E+00 0.  1.
         23    2    1    2    0    0  0.13974642200E+03  0.15475028332E+03  0.97248912763E+02  0.26188034993E+03  0.12508898432E+03 0.  0.
          5    1    3    3  502    0  0.29023207355E+02  0.81839439075E+02  0.95620289097E+02  0.12923139108E+03  0.41800000000E+01 0.  1.
         -5    1    3    3    0  502  0.11072321464E+03  0.72910844248E+02  0.16286236662E+01  0.13264895885E+03  0.41800000000E+01 0.  1.
        -11    1    1    2    0    0 -0.13371060944E+03 -0.11385683019E+03  0.66277768777E+02  0.18770894355E+03  0.00000000000E+00 0. -1.
         11    1    1    2    0    0 -0.60358125609E+01 -0.40893453137E+02  0.59950601238E+02  0.72820190412E+02  0.00000000000E+00 0.  1.
</event>
<event>
 7    1  0.4394360E-006  0.1608432E+03  0.7561462E-02  0.1187748E+00
         -1   -1    0    0    0  501 -0.00000000000E+00  0.00000000000E+00  0.42405115491E+03  0.42405115491E+03  0.00000000000E+00 0.  1.
          1   -1    0    0  501    0  0.00000000000E+00 -0.00000000000E+00 -0.72253475284E+02  0.72253475284E+02  0.00000000000E+00 0. -1.
         23    2    1    2    0    0 -0.13018478521E+03 -0.61539724409E+00  0.24631665089E+03  0.30540263618E+03  0.12510164135E+03 0.  0.
          5    1    3    3  502    0 -0.15012785435E+03  0.15063216462E+01  0.17215444126E+03  0.22846283221E+03  0.41800000000E+01 0.  1.
         -5    1    3    3    0  502  0.19943069143E+02 -0.21217188903E+01  0.74162209631E+02  0.76939803972E+02  0.41800000000E+01 0.  1.
        -11    1    1    2    0    0  0.19755130754E+02 -0.30443857940E+02  0.54244602927E+02  0.65265386110E+02  0.00000000000E+00 0.  1.
         11    1    1    2    0    0  0.11042965446E+03  0.31059255184E+02  0.51236425814E+02  0.12563660790E+03  0.00000000000E+00 0. -1.
</event>
<event>
 6    1  0.4394360E-006  0.1562801E+03  0.7561462E-02  0.1192962E+00
         -2   -1    0    0    0  501 -0.00000000000E+00  0.00000000000E+00  0.14606197069E+03  0.14606197069E+03  0.00000000000E+00 0.  1.
          2   -1    0    0  501    0  0.00000000000E+00 -0.00000000000E+00 -0.32818620810E+03  0.32818620810E+03  0.00000000000E+00 0. -1.
          5    1    1    2  502    0  0.46021192442E+02  0.63254666188E+02 -0.47165253608E+02  0.91439250305E+02  0.41800000000E+01 0. -1.
         -5    1    1    2    0  502  0.12792386890E+02  0.65572241024E+02  0.83584587905E+02  0.10708510490E+03  0.41800000000E+01 0.  1.
        -11    1    1    2    0    0 -0.71063704425E+02 -0.48517236025E+02 -0.98711847715E+02  0.13095037670E+03  0.00000000000E+00 0.  1.
         11    1    1    2    0    0  0.12250125093E+02 -0.80309671187E+02 -0.11983172399E+03  0.14477344689E+03  0.00000000000E+00 0. -1.
</event>
<event>
 7    1  0.4394360E-006  0.7981417E+02  0.7561462E-02  0.1329580E+00
         -2   -1    0    0    0  501 -0.00000000000E+00  0.00000000000E+00  0.31543645002E+02  0.31543645002E+02  0.00000000000E+00 0. -1.
          2   -1    0    0  501    0  0.00000000000E+00 -0.00000000000E+00 -0.44298170877E+03  0.44298170877E+03  0.00000000000E+00 0.  1.
         23    2    1    2    0    0 -0.29163662897E+02 -0.67083823774E+02 -0.22141550149E+03  0.26461816933E+03  0.12508873887E+03 0.  0.
          5    1    3    3  502    0 -0.34922857675E+02 -0.70347659063E+02 -0.50377524207E+02  0.93401105288E+02  0.41800000000E+01 0. -1.
         -5    1    3    3    0  502  0.57591947781E+01  0.32638352890E+01 -0.17103797728E+03  0.17121706404E+03  0.41800000000E+01 0. -1.
        -11    1    1    2    0    0  0.15124993400E+02  0.34616906473E+02 -0.37104118661E+02  0.52951027004E+02  0.00000000000E+00 0. -1.
         11    1    1    2    0    0  0.14038669497E+02  0.32466917301E+02 -0.15291844362E+03  0.15695615744E+03  0.00000000000E+00 0.  1.
</event>
<event>
 7    1  0.4394360E-006  0.9988846E+02  0.7561462E-02  0.1280531E+00
          1   -1    0    0  501    0  0.00000000000E+00  0.00000000000E+00  0.34358727516E+03  0.34358727516E+03  0.00000000000E+00 0. -1.
         -1   -1    0    0    0  501 -0.00000000000E+00 -0.00000000000E+00 -0.45293274713E+02  0.45293274713E+02  0.00000000000E+00 0.  1.
         23    2    1    2    0    0 -0.15446171276E+02  0.43598298830E+02  0.97614501005E+02  0.16527566936E+03  0.12509220682E+03 0.  0.
          5    1    3    3  502    0  0.37112967235E+02  0.34342216019E+02  0.99523591966E+02  0.11171024078E+03  0.41800000000E+01 0. -1.
         -5    1    3    3    0  502 -0.52559138512E+02  0.92560828112E+01 -0.19090909614E+01  0.53565428575E+02  0.41800000000E+01 0. -1.
        -11    1    1    2    0    0  0.21198768432E+02 -0.67590259046E+02  0.12118344721E+03  0.14036829691E+03  0.00000000000E+00 0. -1.
         11    1    1    2    0    0 -0.57525971552E+01  0.23991960216E+02  0.79496052236E+02  0.83236583605E+02  0.00000000000E+00 0.  1.
</event>
<event>
 7    1  0.4394360E-006  0.1139438E+03  0.7561462E-02  0.1253436E+00
         -3   -1    0    0    0  501 -0.00000000000E+00  0.00000000000E+00  0.17378018742E+02  0.17378018742E+02  0.00000000000E+00 0.  1.
          3   -1    0    0  501    0  0.00000000000E+00 -0.00000000000E+00 -0.76150059390E+03  0.76150059390E+03  0.00000000000E+00 0. -1.
         23    2    1    2    0    0  0.17217989925E+02  0.31625152535E+02 -0.37818767291E+03  0.39996274971E+03  0.12509067020E+03 0.  0.
          5    1    3    3  502    0 -0.47257035796E+02 -0.15280078935E+02 -0.16250458736E+03  0.16997623822E+03  0.41800000000E+01 0.  1.
         -5    1    3    3    0  502  0.64475025721E+02  0.46905231469E+02 -0.21568308554E+03  0.22998651150E+03  0.41800000000E+01 0.  1.
        -11    1    1    2    0    0 -0.33060310435E+02 -0.58391785426E+02 -0.25877220990E+03  0.26733058438E+03  0.00000000000E+00 0.  1.
         11    1    1    2    0    0  0.15842320510E+02  0.26766632892E+02 -0.10716269235E+03  0.11158527854E+03  0.00000000000E+00 0. -1.
</event>
<event>
 7    1  0.4394360E-006  0.1011783E+03  0.7561462E-02  0.1277838E+00
         -2   -1    0    0    0  501 -0.00000000000E+00  0.00000000000E+00  0.38544506854E+03  0.38544506854E+03  0.00000000000E+00 0.  1.
          2   -1    0    0  501    0  0.00000000000E+00 -0.00000000000E+00 -0.40463847677E+02  0.40463847677E+02  0.00000000000E+00 0. -1.
         23    2    1    2    0    0 -0.19342892747E+02  0.12553428193E+02  0.24407706744E+03  0.27523172475E+03  0.12508857420E+03 0.  0.
          5    1    3    3  502    0 -0.21722948368E+02 -0.43313722821E+02  0.38168370346E+02  0.61824444723E+02  0.41800000000E+01 0. -1.
         -5    1    3    3    0  502  0.23800556216E+01  0.55867151014E+02  0.20590869710E+03  0.21340728002E+03  0.41800000000E+01 0. -1.
        -11    1    1    2    0    0  0.53726372580E+02 -0.27264579332E+02  0.95462774211E+02  0.11288499305E+03  0.00000000000E+00 0.  1.
         11    1    1    2    0    0 -0.34383479833E+02  0.14711151139E+02  0.54413792079E+01  0.37792198414E+02  0.00000000000E+00 0. -1.
</event>
<event>
 7    1  0.4394360E-006  0.1280030E+03  0.7561462E-02  0.1230449E+00
          1   -1    0    0  501    0  0.00000000000E+00  0.00000000000E+00  0.41163855543E+03  0.41163855543E+03  0.00000000000E+00 0. -1.
         -1   -1    0    0    0  501 -0.00000000000E+00 -0.00000000000E+00 -0.59762191302E+02  0.59762191302E+02  0.00000000000E+00 0.  1.
         23    2    1    2    0    0  0.92567475688E+02 -0.63076159102E+02  0.17963149754E+03  0.24589212921E+03  0.12509246539E+03 0.  0.
          5    1    3    3  502    0  0.84856326868E+02 -0.84323644734E+02  0.18675739291E+03  0.22182621459E+03  0.41800000000E+01 0. -1.
         -5    1    3    3    0  502  0.77111488199E+01  0.21247485632E+02 -0.71258953732E+01  0.24065914623E+02  0.41800000000E+01 0. -1.
        -11    1    1    2    0    0 -0.47721631202E+02  0.42791492343E+02  0.16337078001E+03  0.17549495053E+03  0.00000000000E+00 0. -1.
         11    1    1    2    0    0 -0.44845844486E+02  0.20284666759E+02  0.88740865808E+01  0.50013666990E+02  0.00000000000E+00 0.  1.
</event>
<event>
 7    1  0.4394360E-006  0.9920984E+02  0.7561462E-02  0.1281966E+00
         -1   -1    0    0    0  501 -0.00000000000E+00  0.00000000000E+00  0.18502073355E+03  0.18502073355E+03  0.00000000000E+00 0.  1.
          1   -1    0    0  501    0  0.00000000000E+00 -0.00000000000E+00 -0.87097926407E+02  0.87097926407E+02  0.00000000000E+00 0. -1.
         23    2    1    2    0    0 -0.31012643998E+02 -0.33776976080E+02  0.10683626696E+03  0.17077853470E+03  0.12509457134E+03 0.  0.
          5    1    3    3  502    0 -0.77092714555E+01  0.46997387738E+02  0.50215143363E+02  0.69334121063E+02  0.41800000000E+01 0. -1.
         -5    1    3    3    0  502 -0.23303372543E+02 -0.80774363818E+02  0.56621123593E+02  0.10144441364E+03  0.41800000000E+01 0. -1.
        -11    1    1    2    0    0  0.24137363661E+02  0.46265027352E+02  0.29795065505E+02  0.60090024204E+02  0.00000000000E+00 0. -1.
         11    1    1    2    0    0  0.68752803376E+01 -0.12488051272E+02 -0.38708525319E+02  0.41250101050E+02  0.00000000000E+00 0.  1.
</event>
<event>
 7    1  0.4394360E-006  0.1330538E+03  0.7561462E-02  0.1222994E+00
         -3   -1    0    0    0  501 -0.00000000000E+00  0.00000000000E+00  0.29543357742E+03  0.29543357742E+03  0.00000000000E+00 0.  1.
          3   -1    0    0  501    0  0.00000000000E+00 -0.00000000000E+00 -0.74819855635E+02  0.74819855635E+02  0.00000000000E+00 0. -1.
         23    2    1    2    0    0 -0.89013369784E+02 -0.48166028133E+02  0.13053051769E+03  0.20719318762E+03  0.12508978647E+03 0.  0.
          5    1    3    3  502    0 -0.80219033485E+02  0.26495421492E+02  0.57338959598E+02  0.10218771639E+03  0.41800000000E+01 0. -1.
         -5    1    3    3    0  502 -0.87943362984E+01 -0.74661449626E+02  0.73191558092E+02  0.10500547122E+03  0.41800000000E+01 0. -1.
        -11    1    1    2    0    0  0.76385575605E+02  0.25946513083E+02  0.12825671464E+02  0.81685222349E+02  0.00000000000E+00 0. -1.
         11    1    1    2    0    0  0.12627794179E+02  0.22219515051E+02  0.77257532633E+02  0.81375023093E+02  0.00000000000E+00 0.  1.
</event>
<event>
 7    1  0.4394360E-006  0.1101220E+03  0.7561462E-02  0.1260344E+00
          1   -1    0    0  501    0  0.00000000000E+00  0.00000000000E+00  0.21985881538E+03  0.21985881538E+03  0.00000000000E+00 0. -1.
         -1   -1    0    0    0  501 -0.00000000000E+00 -0.00000000000E+00 -0.56347043037E+02  0.56347043037E+02  0.00000000000E+00 0.  1.
         23    2    1    2    0    0  0.21336974447E+02  0.18592366069E+02  0.89694737496E+02  0.15650261628E+03  0.12508789075E+03 0.  0.
          5    1    3    3  502    0 -0.52584781990E+02  0.81134204743E+01  0.34309485120E+02  0.63447616645E+02  0.41800000000E+01 0. -1.
         -5    1    3    3    0  502  0.73921756437E+02  0.10478945594E+02  0.55385252377E+02  0.93054999631E+02  0.41800000000E+01 0. -1.
        -11    1    1    2    0    0 -0.36969951939E+02  0.25765956867E+02  0.48828703281E+02  0.66444745043E+02  0.00000000000E+00 0. -1.
         11    1    1    2    0    0  0.15632977493E+02 -0.44358322936E+02  0.24988331567E+02  0.53258497101E+02  0.00000000000E+00 0.  1.
</event>
<event>
 7    1  0.4394360E-006  0.1346560E+03  0.7561462E-02  0.1220706E+00
          2   -1    0    0  501    0  0.00000000000E+00  0.00000000000E+00  0.80941810661E+03  0.80941810661E+03  0.00000000000E+00 0. -1.
         -2   -1    0    0    0  501 -0.00000000000E+00 -0.00000000000E+00 -0.30263181298E+02  0.30263181298E+02  0.00000000000E+00 0.  1.
         23    2    1    2    0    0 -0.87615059536E+02 -0.71486830367E+02  0.39820939684E+03  0.43244110808E+03  0.12509125730E+03 0.  0.
          5    1    3    3  502    0  0.34635736156E+01 -0.59462908986E+02  0.25758842767E+03  0.26441842666E+03  0.41800000000E+01 0.  1.
         -5    1    3    3    0  502 -0.91078633152E+02 -0.12023921381E+02  0.14062096917E+03  0.16802268142E+03  0.41800000000E+01 0.  1.
        -11    1    1    2    0    0  0.41717877739E+02  0.13844878750E+02  0.43489694940E+02  0.61833773592E+02  0.00000000000E+00 0.  1.
         11    1    1    2    0    0  0.45897181797E+02  0.57641951617E+02  0.33745583353E+03  0.34540640623E+03  0.00000000000E+00 0. -1.
</event>
<event>
 7    1  0.4394360E-006  0.1105865E+03  0.7561462E-02  0.1259488E+00
          1   -1    0    0  501    0  0.00000000000E+00  0.00000000000E+00  0.41237626803E+02  0.41237626803E+02  0.00000000000E+00 0. -1.
         -1   -1    0    0    0  501 -0.00000000000E+00 -0.00000000000E+00 -0.36317699366E+03  0.36317699366E+03  0.00000000000E+00 0.  1.
         23    2    1    2    0    0 -0.14750856921E+02 -0.48334794947E+02 -0.21978580854E+03  0.25788805995E+03  0.12508640873E+03 0.  0.
          5    1    3    3  502    0 -0.62010538691E+02 -0.53776727487E+02 -0.10339016390E+03  0.13207665092E+03  0.41800000000E+01 0. -1.
         -5    1    3    3    0  502  0.47259681771E+02  0.54419325407E+01 -0.11639564464E+03  0.12581140903E+03  0.41800000000E+01 0. -1.
        -11    1    1    2    0    0  0.17229964131E+02  0.68642689021E+02 -0.40442195264E+02  0.81512340034E+02  0.00000000000E+00 0. -1.
         11    1    1    2    0    0 -0.24791072100E+01 -0.20307894074E+02 -0.61711363055E+02  0.65014220478E+02  0.00000000000E+00 0.  1.
</event>
<event>
 7    1  0.4394360E-006  0.1254319E+03  0.7561462E-02  0.1234396E+00
         -2   -1    0    0    0  501 -0.00000000000E+00  0.00000000000E+00  0.19981710618E+03  0.19981710618E+03  0.00000000000E+00 0.  1.
          2   -1    0    0  501    0  0.00000000000E+00 -0.00000000000E+00 -0.11939706741E+03  0.11939706741E+03  0.00000000000E+00 0. -1.
         23    2    1    2    0    0  0.56709385325E+02 -0.75275841736E+02  0.10005494428E+03  0.18584881045E+03  0.12508549772E+03 0.  0.
          5    1    3    3  502    0  0.78336353752E+02 -0.97610828177E+02  0.81181557702E+02  0.14923932393E+03  0.41800000000E+01 0.  1.
         -5    1    3    3    0  502 -0.21626968427E+02  0.22334986441E+02  0.18873386574E+02  0.36609486522E+02  0.41800000000E+01 0.  1.
        -11    1    1    2    0    0 -0.22148211752E+02  0.27828185823E+02  0.37335544178E+02  0.51564465178E+02  0.00000000000E+00 0.  1.
         11    1    1    2    0    0 -0.34561173573E+02  0.47447655912E+02 -0.56970449677E+02  0.81800897958E+02  0.00000000000E+00 0. -1.
</event>
<event>
 6    1  0.4394360E-006  0.4333599E+03  0.7561462E-02  0.1032804E+00
         -2   -1    0    0    0  501 -0.00000000000E+00  0.00000000000E+00  0.14138293904E+03  0.14138293904E+03  0.00000000000E+00 0.  1.
          2   -1    0    0  501    0  0.00000000000E+00 -0.00000000000E+00 -0.21102487458E+04  0.21102487458E+04  0.00000000000E+00 0. -1.
          5    1    1    2  502    0  0.27627628757E+02 -0.60366332279E+01 -0.16415466529E+03  0.16662518821E+03  0.41800000000E+01 0. -1.
         -5    1    1    2    0  502 -0.73608785984E+02 -0.40743563794E+03 -0.27533213187E+03  0.49723968836E+03  0.41800000000E+01 0.  1.
        -11    1    1    2    0    0  0.47517677103E+02  0.10115784034E+03 -0.33102929544E+03  0.34938693842E+03  0.00000000000E+00 0.  1.
         11    1    1    2    0    0 -0.15365198762E+01  0.31231443083E+03 -0.11983497141E+04  0.12383798698E+04  0.00000000000E+00 0. -1.
</event>
<event>
 7    1  0.4394360E-006  0.1114409E+03  0.7561462E-02  0.1257925E+00
         -1   -1    0    0    0  501 -0.00000000000E+00  0.00000000000E+00  0.82343784653E+02  0.82343784653E+02  0.00000000000E+00 0.  1.
          1   -1    0    0  501    0  0.00000000000E+00 -0.00000000000E+00 -0.29684427171E+03  0.29684427171E+03  0.00000000000E+00 0. -1.
         23    2    1    2    0    0  0.92087283845E+02 -0.15314291162E+02 -0.38820832721E+02  0.16083590112E+03  0.12508610905E+03 0.  0.
          5    1    3    3  502    0  0.50821432380E+02 -0.35786056549E+02 -0.78275753651E+02  0.10004012116E+03  0.41800000000E+01 0. -1.
         -5    1    3    3    0  502  0.41265851466E+02  0.20471765387E+02  0.39454920931E+02  0.60795779960E+02  0.41800000000E+01 0. -1.
        -11    1    1    2    0    0 -0.83596394393E+02  0.36717633723E+02 -0.84830757484E+02  0.12463065111E+03  0.00000000000E+00 0.  1.
         11    1    1    2    0    0 -0.84908894521E+01 -0.21403342561E+02 -0.90848896850E+02  0.93721504124E+02  0.00000000000E+00 0. -1.
</event>
<event>
 7    1  0.4394360E-006  0.1051624E+03  0.7561462E-02  0.1269800E+00
          1   -1    0    0  501    0  0.00000000000E+00  0.00000000000E+00  0.32406410855E+03  0.32406410855E+03  0.00000000000E+00 0. -1.
         -1   -1    0    0    0  501 -0.00000000000E+00 -0.00000000000E+00 -0.40715613626E+02  0.40715613626E+02  0.00000000000E+00 0.  1.
         23    2    1    2    0    0 -0.11931715854E+02 -0.31517740976E+02  0.13797699590E+03  0.18925915760E+03  0.12508254673E+03 0.  0.
          5    1    3    3  502    0 -0.66657023758E+02 -0.21433661939E+01  0.63368781803E+02  0.92091409708E+02  0.41800000000E+01 0. -1.
         -5    1    3    3    0  502  0.54725307904E+02 -0.29374374782E+02  0.74608214096E+02  0.97167747888E+02  0.41800000000E+01 0. -1.
        -11    1    1    2    0    0  0.37232364300E+02  0.39923946577E+02  0.42312440045E+02  0.69068900702E+02  0.00000000000E+00 0.  1.
         11    1    1    2    0    0 -0.25300648446E+02 -0.84062056009E+01  0.10305905898E+03  0.10645166388E+03  0.00000000000E+00 0. -1.
</event>
<event>
 7    1  0.4394360E-006  0.1492000E+03  0.7561462E-02  0.1201459E+00
         -2   -1    0    0    0  501 -0.00000000000E+00  0.00000000000E+00  0.15029053025E+04  0.15029053025E+04  0.00000000000E+00 0.  1.
          2   -1    0    0  501    0  0.00000000000E+00 -0.00000000000E+00 -0.23289011597E+02  0.23289011597E+02  0.00000000000E+00 0. -1.
         23    2    1    2    0    0 -0.83987974348E+02 -0.82564854523E+02  0.11771816530E+04  0.11896532489E+04  0.12508906233E+03 0.  0.
          5    1    3    3  502    0 -0.22954466410E+02  0.28422641038E+02  0.45095660920E+03  0.45245341178E+03  0.41800000000E+01 0. -1.
         -5    1    3    3    0  502 -0.61033507938E+02 -0.11098749556E+03  0.72622504379E+03  0.73719983715E+03  0.41800000000E+01 0. -1.
        -11    1    1    2    0    0  0.34116975233E+02 -0.46472635717E+01  0.15054575192E+03  0.15443311976E+03  0.00000000000E+00 0.  1.
         11    1    1    2    0    0  0.49870999114E+02  0.87212118095E+02  0.15188888604E+03  0.18210794545E+03  0.00000000000E+00 0. -1.
</event>
<event>
 7    1  0.4635511E-006  0.1952124E+03  0.7561462E-02  0.1153842E+00
          1   -1    0    0  501    0  0.00000000000E+00  0.00000000000E+00  0.40527788610E+03  0.40527788610E+03  0.00000000000E+00 0. -1.
         -1   -1    0    0    0  501 -0.00000000000E+00 -0.00000000000E+00 -0.10668978861E+03  0.10668978861E+03  0.00000000000E+00 0.  1.
         23    2    1    2    0    0  0.12979540598E+03 -0.10110008760E+03  0.75904491026E+02  0.22017427202E+03  0.12508854135E+03 0.  0.
          5    1    3    3  502    0  0.49336310612E+02 -0.11398900834E+03  0.36253784156E+02  0.12945800413E+03  0.41800000000E+01 0.  1.
         -5    1    3    3    0  502  0.80459095365E+02  0.12888920746E+02  0.39650706870E+02  0.90716267892E+02  0.41800000000E+01 0.  1.
        -11    1    1    2    0    0  0.69453374189E+00  0.40799880355E+02  0.26782843734E+02  0.48810176526E+02  0.00000000000E+00 0.  1.
         11    1    1    2    0    0 -0.13048993972E+03  0.60300207242E+02  0.19590076272E+03  0.24298322616E+03  0.00000000000E+00 0. -1.
</event>
<event>
 7    1  0.4394360E-006  0.9625658E+02  0.7561462E-02  0.1288371E+00
         -3   -1    0    0    0  501 -0.00000000000E+00  0.00000000000E+00  0.69613898273E+03  0.69613898273E+03  0.00000000000E+00 0.  1.
          3   -1    0    0  501    0  0.00000000000E+00 -0.00000000000E+00 -0.17069848950E+02  0.17069848950E+02  0.00000000000E+00 0. -1.
         23    2    1    2    0    0 -0.24515518695E+02 -0.44903074595E+01  0.45924553660E+03  0.47662923766E+03  0.12509114191E+03 0.  0.
          5    1    3    3  502    0 -0.69088566768E+02 -0.81659635187E+01  0.16712066857E+03  0.18107098962E+03  0.41800000000E+01 0.  1.
         -5    1    3    3    0  502  0.44573048073E+02  0.36756560592E+01  0.29212486802E+03  0.29555824803E+03  0.41800000000E+01 0.  1.
        -11    1    1    2    0    0  0.36850671740E+02 -0.25939065356E+02  0.17683025217E+03  0.18248217776E+03  0.00000000000E+00 0.  1.
         11    1    1    2    0    0 -0.12335153045E+02  0.30429372816E+02  0.42993345011E+02  0.54097416259E+02  0.00000000000E+00 0. -1.
</event>
<event>
 7    1  0.4394360E-006  0.1198441E+03  0.7561462E-02  0.1243355E+00
         -2   -1    0    0    0  501 -0.00000000000E+00  0.00000000000E+00  0.17012554452E+02  0.17012554452E+02  0.00000000000E+00 0.  1.
          2   -1    0    0  501    0  0.00000000000E+00 -0.00000000000E+00 -0.97690740917E+03  0.97690740917E+03  0.00000000000E+00 0. -1.
         23    2    1    2    0    0  0.68944279970E+02 -0.16766738320E+02 -0.50524053392E+03  0.52531030069E+03  0.12509387533E+03 0.  0.
          5    1    3    3  502    0 -0.29804828542E+02  0.21469099834E+02 -0.10682095251E+03  0.11303733166E+03  0.41800000000E+01 0. -1.
         -5    1    3    3    0  502  0.98749108513E+02 -0.38235838154E+02 -0.39841958140E+03  0.41227296903E+03  0.41800000000E+01 0. -1.
        -11    1    1    2    0    0 -0.79999861007E+02  0.24011225752E+02 -0.44355197780E+03  0.45134784118E+03  0.00000000000E+00 0. -1.
         11    1    1    2    0    0  0.11055581037E+02 -0.72444874325E+01 -0.11102343003E+02  0.17261821757E+02  0.00000000000E+00 0.  1.
</event>
<event>
 6    1  0.4394360E-006  0.1817497E+03  0.7561462E-02  0.1166120E+00
          2   -1    0    0  501    0  0.00000000000E+00  0.00000000000E+00  0.11042951510E+04  0.11042951510E+04  0.00000000000E+00 0. -1.
         -2   -1    0    0    0  501 -0.00000000000E+00 -0.00000000000E+00 -0.48474010825E+02  0.48474010825E+02  0.00000000000E+00 0.  1.
          5    1    1    2  502    0 -0.51368920835E+01 -0.71126905452E+02  0.30272037076E+03  0.31103459552E+03  0.41800000000E+01 0. -1.
         -5    1    1    2    0  502  0.12544479208E+03  0.56485307810E+02  0.10683162644E+03  0.17423390791E+03  0.41800000000E+01 0.  1.
        -11    1    1    2    0    0  0.87099894238E+01  0.23541791660E+02  0.37359206413E+02  0.45008778856E+02  0.00000000000E+00 0.  1.
         11    1    1    2    0    0 -0.12901788942E+03 -0.89001940181E+01  0.60890993654E+03  0.62249187951E+03  0.00000000000E+00 0. -1.
</event>
<event>
 7    1  0.4394360E-006  0.8639618E+02  0.7561462E-02  0.1311821E+00
          2   -1    0    0  501    0  0.00000000000E+00  0.00000000000E+00  0.23302796361E+02  0.23302796361E+02  0.00000000000E+00 0. -1.
         -2   -1    0    0    0  501 -0.00000000000E+00 -0.00000000000E+00 -0.44776985818E+03  0.44776985818E+03  0.00000000000E+00 0.  1.
         23    2    1    2    0    0 -0.70014059107E+01 -0.11817491607E+02 -0.25118860060E+03  0.27512417063E+03  0.11139534730E+03 0.  0.
          5    1    3    3  502    0  0.36378595747E+02 -0.37192297551E+02 -0.18310080517E+03  0.19039444971E+03  0.41800000000E+01 0. -1.
         -5    1    3    3    0  502 -0.43380001657E+02  0.25374805945E+02 -0.68087795431E+02  0.84729720920E+02  0.41800000000E+01 0.  1.
        -11    1    1    2    0    0  0.32589626987E+02 -0.12465952692E+02 -0.23491301703E+02  0.42063345319E+02  0.00000000000E+00 0. -1.
         11    1    1    2    0    0 -0.25588221076E+02  0.24283444299E+02 -0.14978715952E+03  0.15388513860E+03  0.00000000000E+00 0.  1.
</event>
<event>
 7    1  0.4394360E-006  0.2148349E+03  0.7561462E-02  0.1137793E+00
         -2   -1    0    0    0  501 -0.00000000000E+00  0.00000000000E+00  0.96792711498E+02  0.96792711498E+02  0.00000000000E+00 0.  1.
          2   -1    0    0  501    0  0.00000000000E+00 -0.00000000000E+00 -0.85094091582E+03  0.85094091582E+03  0.00000000000E+00 0. -1.
         23    2    1    2    0    0  0.65686974904E+02 -0.18293837113E+03 -0.87029050548E+02  0.24698730554E+03  0.12508975640E+03 0.  0.
          5    1    3    3  502    0  0.10375637229E+02 -0.15795010790E+03 -0.96475083944E+02  0.18542061551E+03  0.41800000000E+01 0. -1.
         -5    1    3    3    0  502  0.55311337676E+02 -0.24988263224E+02  0.94460333960E+01  0.61566690031E+02  0.41800000000E+01 0. -1.
        -11    1    1    2    0    0 -0.64786688071E+02  0.62418667864E+02 -0.35344512212E+03  0.36471476444E+03  0.00000000000E+00 0.  1.
         11    1    1    2    0    0 -0.90028683338E+00  0.12051970327E+03 -0.31367403165E+03  0.33603155733E+03  0.00000000000E+00 0. -1.
</event>
<event>
 7    1  0.4394360E-006  0.1030956E+03  0.7561462E-02  0.1273918E+00
          4   -1    0    0  501    0  0.00000000000E+00  0.00000000000E+00  0.15486161564E+03  0.15486161564E+03  0.00000000000E+00 0. -1.
         -4   -1    0    0    0  501 -0.00000000000E+00 -0.00000000000E+00 -0.13466987879E+03  0.13466987879E+03  0.00000000000E+00 0.  1.
         23    2    1    2    0    0 -0.34429270668E+02  0.88099537875E+02  0.24399028966E+02  0.15871446429E+03  0.12509222720E+03 0.  0.
          5    1    3    3  502    0 -0.36801324928E+02  0.80990875167E+02 -0.37203995013E+02  0.96516677427E+02  0.41800000000E+01 0. -1.
         -5    1    3    3    0  502  0.23720542593E+01  0.71086627081E+01  0.61603023979E+02  0.62197786860E+02  0.41800000000E+01 0. -1.
        -11    1    1    2    0    0  0.19592011634E+02 -0.38935259071E+00  0.29729799510E+02  0.35607014677E+02  0.00000000000E+00 0. -1.
         11    1    1    2    0    0  0.14837259034E+02 -0.87710185284E+02 -0.33937091628E+02  0.95210015473E+02  0.00000000000E+00 0.  1.
</event>
<event>
 7    1  0.4394360E-006  0.1247482E+03  0.7561462E-02  0.1235463E+00
         -1   -1    0    0    0  501 -0.00000000000E+00  0.00000000000E+00  0.15642063377E+03  0.15642063377E+03  0.00000000000E+00 0.  1.
          1   -1    0    0  501    0  0.00000000000E+00 -0.00000000000E+00 -0.19438868545E+03  0.19438868545E+03  0.00000000000E+00 0. -1.
         23    2    1    2    0    0 -0.70485325157E+02 -0.99059507600E+02  0.42310263880E+02  0.17949195591E+03  0.12508491796E+03 0.  0.
          5    1    3    3  502    0  0.13274935564E+01 -0.10037150262E+02 -0.38082101495E+02  0.39626070696E+02  0.41800000000E+01 0. -1.
         -5    1    3    3    0  502 -0.71812818713E+02 -0.89022357337E+02  0.80392365375E+02  0.13986588522E+03  0.41800000000E+01 0. -1.
        -11    1    1    2    0    0  0.55992489775E+02  0.92622468116E+02 -0.21382000523E+02  0.11032348099E+03  0.00000000000E+00 0.  1.
         11    1    1    2    0    0  0.14492835382E+02  0.64370394833E+01 -0.58896315041E+02  0.60993882317E+02  0.00000000000E+00 0. -1.
</event>
<event>
 7    1  0.4394360E-006  0.8107512E+02  0.7561462E-02  0.1326028E+00
          4   -1    0    0  501    0  0.00000000000E+00  0.00000000000E+00  0.44251967618E+03  0.44251967618E+03  0.00000000000E+00 0.  1.
         -4   -1    0    0    0  501 -0.00000000000E+00 -0.00000000000E+00 -0.42712090219E+02  0.42712090219E+02  0.00000000000E+00 0. -1.
         23    2    1    2    0    0 -0.99154525928E+01 -0.54467199966E+02  0.10922745685E+03  0.17505113179E+03  0.12508904564E+03 0.  0.
          5    1    3    3  502    0  0.17370876564E+02 -0.44461507713E+02 -0.12754158678E+02  0.49585421086E+02  0.41800000000E+01 0.  1.
         -5    1    3    3    0  502 -0.27286329156E+02 -0.10005692253E+02  0.12198161553E+03  0.12546571071E+03  0.41800000000E+01 0.  1.
        -11    1    1    2    0    0  0.37006612597E+02  0.24031757939E+02  0.52234896878E+02  0.68377622198E+02  0.00000000000E+00 0. -1.
         11    1    1    2    0    0 -0.27091160004E+02  0.30435442027E+02  0.23834523223E+03  0.24180301240E+03  0.00000000000E+00 0.  1.
</event>
<event>
 6    1  0.4394360E-006  0.1259098E+03  0.7561462E-02  0.1233654E+00
          1   -1    0    0  501    0  0.00000000000E+00  0.00000000000E+00  0.11060914119E+03  0.11060914119E+03  0.00000000000E+00 0. -1.
         -1   -1    0    0    0  501 -0.00000000000E+00 -0.00000000000E+00 -0.34400325090E+03  0.34400325090E+03  0.00000000000E+00 0.  1.
          5    1    1    2  502    0 -0.36949359629E+02 -0.27070170538E+01 -0.17475869397E+02  0.41175982435E+02  0.41800000000E+01 0. -1.
         -5    1    1    2    0  502  0.10450789965E+03  0.52020046894E+01 -0.26713304920E+03  0.28692594918E+03  0.41800000000E+01 0.  1.
        -11    1    1    2    0    0 -0.22353467390E+02  0.41245120574E+02  0.41942190471E+02  0.62928410254E+02  0.00000000000E+00 0. -1.
         11    1    1    2    0    0 -0.45205072630E+02 -0.43740108210E+02  0.92726184061E+01  0.63582050217E+02  0.00000000000E+00 0.  1.
</event>
<event>
 7    1  0.4394360E-006  0.1184277E+03  0.7561462E-02  0.1245714E+00
          1   -1    0    0  501    0  0.00000000000E+00  0.00000000000E+00  0.44873793922E+03  0.44873793922E+03  0.00000000000E+00 0. -1.
         -1   -1    0    0    0  501 -0.00000000000E+00 -0.00000000000E+00 -0.50282053196E+02  0.50282053196E+02  0.00000000000E+00 0.  1.
         23    2    1    2    0    0  0.89973305586E+02 -0.34461911120E+02  0.15359546707E+03  0.22027731477E+03  0.12509080247E+03 0.  0.
          5    1    3    3  502    0  0.25479343202E+01 -0.35279358965E+02  0.12220504214E+03  0.12728970840E+03  0.41800000000E+01 0.  1.
         -5    1    3    3    0  502  0.87425371266E+02  0.81744784541E+00  0.31390424924E+02  0.92987606372E+02  0.41800000000E+01 0.  1.
        -11    1    1    2    0    0 -0.57493342137E+02 -0.10295797403E+02  0.52309197482E+02  0.78407524993E+02  0.00000000000E+00 0.  1.
         11    1    1    2    0    0 -0.32479963449E+02  0.44757708523E+02  0.19255122147E+03  0.20033515266E+03  0.00000000000E+00 0. -1.
</event>
<event>
 7    1  0.4394360E-006  0.2440787E+03  0.7561462E-02  0.1117105E+00
         -1   -1    0    0    0  501 -0.00000000000E+00  0.00000000000E+00  0.10872033697E+03  0.10872033697E+03  0.00000000000E+00 0.  1.
          1   -1    0    0  501    0  0.00000000000E+00 -0.00000000000E+00 -0.59328635460E+03  0.59328635460E+03  0.00000000000E+00 0. -1.
         23    2    1    2    0    0  0.16769325177E+03 -0.15338102827E+03 -0.24044099993E+03  0.35370300363E+03  0.12508866378E+03 0.  0.
          5    1    3    3  502    0 -0.65696751557E+01 -0.26221505918E+02  0.40143518062E+01  0.27646255165E+02  0.41800000000E+01 0. -1.
         -5    1    3    3    0  502  0.17426292692E+03 -0.12715952236E+03 -0.24445535173E+03  0.32605674846E+03  0.41800000000E+01 0. -1.
        -11    1    1    2    0    0 -0.23480904157E+02  0.79714640168E+02 -0.11105750851E+03  0.13870669383E+03  0.00000000000E+00 0.  1.
         11    1    1    2    0    0 -0.14421234761E+03  0.73666388107E+02 -0.13306750920E+03  0.20959699412E+03  0.00000000000E+00 0. -1.
</event>
<event>
 7    1  0.4394360E-006  0.1058042E+03  0.7561462E-02  0.1268543E+00
          2   -1    0    0  501    0  0.00000000000E+00  0.00000000000E+00  0.37870606872E+03  0.37870606872E+03  0.00000000000E+00 0. -1.
         -2   -1    0    0    0  501 -0.00000000000E+00 -0.00000000000E+00 -0.36844976832E+02  0.36844976832E+02  0.00000000000E+00 0.  1.
         23    2    1    2    0    0  0.77442946395E+01  0.37337830957E+02  0.14788653898E+03  0.19741336138E+03  0.12509004405E+03 0.  0.
          5    1    3    3  502    0  0.62112489453E+02  0.10754392581E+02  0.10699823576E+03  0.12425664232E+03  0.41800000000E+01 0.  1.
         -5    1    3    3    0  502 -0.54368194813E+02  0.26583438376E+02  0.40888303223E+02  0.73156719059E+02  0.41800000000E+01 0.  1.
        -11    1    1    2    0    0  0.10395379114E+02  0.22745265072E+02  0.11275166427E+03  0.11549176934E+03  0.00000000000E+00 0. -1.
         11    1    1    2    0    0 -0.18139673753E+02 -0.60083096029E+02  0.81222888635E+02  0.10264591483E+03  0.00000000000E+00 0.  1.
</event>
<event>
 7    1  0.4394360E-006  0.2725822E+03  0.7561462E-02  0.1099811E+00
          2   -1    0    0  501    0  0.00000000000E+00  0.00000000000E+00  0.38926800041E+03  0.38926800041E+03  0.00000000000E+00 0. -1.
         -2   -1    0    0    0  501 -0.00000000000E+00 -0.00000000000E+00 -0.23498535733E+03  0.23498535733E+03  0.00000000000E+00 0.  1.
         23    2    1    2    0    0  0.21386591436E+03 -0.13910129463E+03 -0.44471060453E+02  0.28757629133E+03  0.12503858854E+03 0.  0.
          5    1    3    3  502    0  0.41850203978E+02  0.14017994999E+02  0.19640916911E+02  0.48488986109E+02  0.41800000000E+01 0. -1.
         -5    1    3    3    0  502  0.17201571038E+03 -0.15311928963E+03 -0.64111977364E+02  0.23908730522E+03  0.41800000000E+01 0. -1.
        -11    1    1    2    0    0 -0.14868501088E+03  0.14152830440E+03  0.13653255841E+03  0.24653322882E+03  0.00000000000E+00 0. -1.
         11    1    1    2    0    0 -0.65180903476E+02 -0.24270097658E+01  0.62221145132E+02  0.90143837593E+02  0.00000000000E+00 0.  1.
</event>
<event>
 7    1  0.4394360E-006  0.1053069E+03  0.7561462E-02  0.1269516E+00
         -1   -1    0    0    0  501 -0.00000000000E+00  0.00000000000E+00  0.15223314534E+03  0.15223314534E+03  0.00000000000E+00 0. -1.
          1   -1    0    0  501    0  0.00000000000E+00 -0.00000000000E+00 -0.93526130880E+02  0.93526130880E+02  0.00000000000E+00 0.  1.
         23    2    1    2    0    0  0.15708879848E+02 -0.38633679190E+02  0.70117145159E+02  0.14934288632E+03  0.12509018177E+03 0.  0.
          5    1    3    3  502    0  0.64578310229E+02 -0.11593289377E+02  0.66042312477E+02  0.93187026715E+02  0.41800000000E+01 0. -1.
         -5    1    3    3    0  502 -0.48869430381E+02 -0.27040389814E+02  0.40748326816E+01  0.56155859609E+02  0.41800000000E+01 0. -1.
        -11    1    1    2    0    0  0.22201266359E+02  0.45227686033E+02 -0.24164802297E+02  0.55878238000E+02  0.00000000000E+00 0.  1.
         11    1    1    2    0    0 -0.37910146207E+02 -0.65940068430E+01  0.12754671599E+02  0.40538151898E+02  0.00000000000E+00 0. -1.
</event>
<event>
 7    1  0.4394360E-006  0.1061471E+03  0.7561462E-02  0.1267876E+00
         -1   -1    0    0    0  501 -0.00000000000E+00  0.00000000000E+00  0.16185459633E+03  0.16185459633E+03  0.00000000000E+00 0.  1.
          1   -1    0    0  501    0  0.00000000000E+00 -0.00000000000E+00 -0.86273181770E+02  0.86273181770E+02  0.00000000000E+00 0. -1.
         23    2    1    2    0    0 -0.36043905436E+02 -0.30816007416E+02  0.42331578282E+02  0.14031505919E+03  0.12509022298E+03 0.  0.
          5    1    3    3  502    0  0.65178087923E+01 -0.58605398529E+02 -0.17542920119E+02  0.61662800897E+02  0.41800000000E+01 0. -1.
         -5    1    3    3    0  502 -0.42561714228E+02  0.27789391113E+02  0.59874498401E+02  0.78652258297E+02  0.41800000000E+01 0. -1.
        -11    1    1    2    0    0 -0.84399760771E+01 -0.27537558460E+02  0.52502093232E+01  0.29276526775E+02  0.00000000000E+00 0.  1.
         11    1    1    2    0    0  0.44483881513E+02  0.58353565876E+02  0.27999626956E+02  0.78536192132E+02  0.00000000000E+00 0. -1.
</event>
<event>
 7    1  0.4394360E-006  0.1025861E+03  0.7561462E-02  0.1274950E+00
         -2   -1    0    0    0  501 -0.00000000000E+00  0.00000000000E+00  0.15383193776E+03  0.15383193776E+03  0.00000000000E+00 0.  1.
          2   -1    0    0  501    0  0.00000000000E+00 -0.00000000000E+00 -0.10712395239E+03  0.10712395239E+03  0.00000000000E+00 0. -1.
         23    2    1    2    0    0  0.55903254242E+02  0.35827705647E+02  0.40597064129E+02  0.14732382372E+03  0.12508952432E+03 0.  0.
          5    1    3    3  502    0 -0.19917742709E+02 -0.25668425965E+02 -0.13734671092E+02  0.35520390710E+02  0.41800000000E+01 0.  1.
         -5    1    3    3    0  502  0.75820996951E+02  0.61496131612E+02  0.54331735221E+02  0.11180343302E+03  0.41800000000E+01 0.  1.
        -11    1    1    2    0    0 -0.11659660087E+02 -0.27240745287E+02  0.45150667840E+02  0.54005450499E+02  0.00000000000E+00 0.  1.
         11    1    1    2    0    0 -0.44243594155E+02 -0.85869603599E+01 -0.39039746604E+02  0.59626615927E+02  0.00000000000E+00 0. -1.
</event>
<event>
 7    1  0.4394360E-006  0.7005359E+02  0.7561462E-02  0.1359911E+00
         -2   -1    0    0    0  501 -0.00000000000E+00  0.00000000000E+00  0.48956791295E+02  0.48956791295E+02  0.00000000000E+00 0.  1.
          2   -1    0    0  501    0  0.00000000000E+00 -0.00000000000E+00 -0.24035844008E+03  0.24035844008E+03  0.00000000000E+00 0. -1.
         23    2    1    2    0    0  0.63062650890E+01  0.27889076179E+01 -0.99757975189E+02  0.16014862287E+03  0.12509348828E+03 0.  0.
          5    1    3    3  502    0 -0.25810906005E+01  0.26432414712E+02  0.22611503505E+02  0.35129575388E+02  0.41800000000E+01 0. -1.
         -5    1    3    3    0  502  0.88873556895E+01 -0.23643507094E+02 -0.12236947869E+03  0.12501904749E+03  0.41800000000E+01 0. -1.
        -11    1    1    2    0    0  0.40255724083E+02 -0.70307946128E+01 -0.60429090996E+02  0.72949506050E+02  0.00000000000E+00 0. -1.
         11    1    1    2    0    0 -0.46561989172E+02  0.42418869949E+01 -0.31214582597E+02  0.56217102448E+02  0.00000000000E+00 0.  1.
</event>
<event>
 7    1  0.4394360E-006  0.9527101E+02  0.7561462E-02  0.1290567E+00
          2   -1    0    0  501    0  0.00000000000E+00  0.00000000000E+00  0.47477071031E+02  0.47477071031E+02  0.00000000000E+00 0. -1.
         -2   -1    0    0    0  501 -0.00000000000E+00 -0.00000000000E+00 -0.25826332913E+03  0.25826332913E+03  0.00000000000E+00 0.  1.
         23    2    1    2    0    0 -0.92235208898E+01  0.18339505920E+02 -0.12001052458E+03  0.17455339463E+03  0.12507977755E+03 0.  0.
          5    1    3    3  502    0 -0.46222643252E+02  0.38950206627E+02 -0.16743706954E+02  0.62860762547E+02  0.41800000000E+01 0. -1.
         -5    1    3    3    0  502  0.36999122362E+02 -0.20610700707E+02 -0.10326681763E+03  0.11169263209E+03  0.41800000000E+01 0. -1.
        -11    1    1    2    0    0  0.47128793592E+02 -0.58840057469E+01 -0.73943022038E+02  0.87882394239E+02  0.00000000000E+00 0.  1.
         11    1    1    2    0    0 -0.37905272702E+02 -0.12455500173E+02 -0.16832711480E+02  0.43304611290E+02  0.00000000000E+00 0. -1.
</event>
<event>
 7    1  0.4394360E-006  0.1379431E+03  0.7561462E-02  0.1216124E+00
         -2   -1    0    0    0  501 -0.00000000000E+00  0.00000000000E+00  0.13367971847E+03  0.13367971847E+03  0.00000000000E+00 0.  1.
          2   -1    0    0  501    0  0.00000000000E+00 -0.00000000000E+00 -0.20780621621E+03  0.20780621621E+03  0.00000000000E+00 0. -1.
         23    2    1    2    0    0  0.34625902155E+02  0.11627383191E+03 -0.10675790706E+01  0.17426484134E+03  0.12509411703E+03 0.  0.
          5    1    3    3  502    0  0.52878155080E+02  0.11301380191E+03 -0.39872427475E+02  0.13105533785E+03  0.41800000000E+01 0. -1.
         -5    1    3    3    0  502 -0.18252252925E+02  0.32600300020E+01  0.38804848405E+02  0.43209503493E+02  0.41800000000E+01 0. -1.
        -11    1    1    2    0    0 -0.32595102792E+02 -0.25878630646E+02  0.11757942630E+02  0.43248045794E+02  0.00000000000E+00 0.  1.
         11    1    1    2    0    0 -0.20307993630E+01 -0.90395201262E+02 -0.84816861295E+02  0.12397304754E+03  0.00000000000E+00 0. -1.
</event>
<event>
 7    1  0.4394360E-006  0.1121769E+03  0.7561462E-02  0.1256591E+00
          2   -1    0    0  501    0  0.00000000000E+00  0.00000000000E+00  0.69943072473E+03  0.69943072473E+03  0.00000000000E+00 0. -1.
         -2   -1    0    0    0  501 -0.00000000000E+00 -0.00000000000E+00 -0.34470113389E+02  0.34470113389E+02  0.00000000000E+00 0.  1.
         23    2    1    2    0    0  0.97319138439E+02  0.40685288851E+02  0.28682313547E+03  0.33021362255E+03  0.12508884060E+03 0.  0.
          5    1    3    3  502    0  0.79717055321E+02  0.53673360790E+02  0.29192554723E+03  0.30736563909E+03  0.41800000000E+01 0. -1.
         -5    1    3    3    0  502  0.17602083118E+02 -0.12988071939E+02 -0.51024117532E+01  0.22847983467E+02  0.41800000000E+01 0. -1.
        -11    1    1    2    0    0 -0.16218473250E+02 -0.10666552575E+02  0.41744314218E+01  0.19855480254E+02  0.00000000000E+00 0.  1.
         11    1    1    2    0    0 -0.81100665189E+02 -0.30018736276E+02  0.37396304445E+03  0.38383173531E+03  0.00000000000E+00 0. -1.
</event>
<event>
 7    1  0.4394360E-006  0.6421972E+02  0.7561462E-02  0.1380931E+00
         -3   -1    0    0    0  501 -0.00000000000E+00  0.00000000000E+00  0.45939581525E+03  0.45939581525E+03  0.00000000000E+00 0.  1.
          3   -1    0    0  501    0  0.00000000000E+00 -0.00000000000E+00 -0.28223036749E+02  0.28223036749E+02  0.00000000000E+00 0. -1.
         23    2    1    2    0    0  0.13989916172E+01  0.15957834968E+02  0.30689695282E+03  0.33179502531E+03  0.12508233086E+03 0.  0.
          5    1    3    3  502    0  0.19501497421E+02 -0.70056658916E+01  0.30091595767E+03  0.30165754381E+03  0.41800000000E+01 0. -1.
         -5    1    3    3    0  502 -0.18102505804E+02  0.22963500860E+02  0.59809951527E+01  0.30137481500E+02  0.41800000000E+01 0. -1.
        -11    1    1    2    0    0 -0.37772669686E+01  0.30756462057E+02  0.10351273403E+02  0.32670729485E+02  0.00000000000E+00 0. -1.
         11    1    1    2    0    0  0.23782753514E+01 -0.46714297025E+02  0.11392455227E+03  0.12315309720E+03  0.00000000000E+00 0.  1.
</event>
<event>
 7    1  0.4394360E-006  0.2698768E+03  0.7561462E-02  0.1101350E+00
          3   -1    0    0  501    0  0.00000000000E+00  0.00000000000E+00  0.17295661809E+03  0.17295661809E+03  0.00000000000E+00 0. -1.
         -3   -1    0    0    0  501 -0.00000000000E+00 -0.00000000000E+00 -0.51865510474E+03  0.51865510474E+03  0.00000000000E+00 0.  1.
         23    2    1    2    0    0 -0.95388267319E+02 -0.24076810207E+03 -0.29543759695E+03  0.41231016009E+03  0.12509234152E+03 0.  0.
          5    1    3    3  502    0 -0.73888905084E+02 -0.82540944315E+02 -0.55273198861E+02  0.12387565013E+03  0.41800000000E+01 0.  1.
         -5    1    3    3    0  502 -0.21499362235E+02 -0.15822715776E+03 -0.24016439809E+03  0.28843450996E+03  0.41800000000E+01 0.  1.
        -11    1    1    2    0    0  0.36782377492E+02  0.18373510035E+03 -0.87314809535E+01  0.18758403224E+03  0.00000000000E+00 0. -1.
         11    1    1    2    0    0  0.58605889827E+02  0.57033001725E+02 -0.41529408756E+02  0.91717530494E+02  0.00000000000E+00 0.  1.
</event>
<event>
 7    1  0.4394360E-006  0.1146699E+03  0.7561462E-02  0.1252158E+00
          1   -1    0    0  501    0  0.00000000000E+00  0.00000000000E+00  0.83505520387E+02  0.83505520387E+02  0.00000000000E+00 0. -1.
         -1   -1    0    0    0  501 -0.00000000000E+00 -0.00000000000E+00 -0.20814834302E+03  0.20814834302E+03  0.00000000000E+00 0.  1.
         23    2    1    2    0    0  0.70820580290E+02  0.92585478556E+01 -0.91010183215E+02  0.17039232793E+03  0.12509762854E+03 0.  0.
          5    1    3    3  502    0  0.79637774442E+02 -0.41437105886E+02 -0.72771977899E+02  0.11563927546E+03  0.41800000000E+01 0. -1.
         -5    1    3    3    0  502 -0.88171941516E+01  0.50695653741E+02 -0.18238205316E+02  0.54753052464E+02  0.41800000000E+01 0. -1.
        -11    1    1    2    0    0 -0.24601695371E+02 -0.28613204193E+02  0.24132338376E+02  0.44792059841E+02  0.00000000000E+00 0. -1.
         11    1    1    2    0    0 -0.46218884919E+02  0.19354656337E+02 -0.57764977793E+02  0.76469475639E+02  0.00000000000E+00 0.  1.
</event>
<event>
 7    1  0.4394360E-006  0.1172268E+03  0.7561462E-02  0.1247743E+00
          1   -1    0    0  501    0  0.00000000000E+00  0.00000000000E+00  0.60828227775E+03  0.60828227775E+03  0.00000000000E+00 0. -1.
         -1   -1    0    0    0  501 -0.00000000000E+00 -0.00000000000E+00 -0.46807123163E+02  0.46807123163E+02  0.00000000000E+00 0.  1.
         23    2    1    2    0    0  0.91653076109E+02 -0.29994890000E+02  0.13439818718E+03  0.20738881992E+03  0.12508904878E+03 0.  0.
          5    1    3    3  502    0  0.14005263706E+02  0.19775550251E+02  0.10885267123E+03  0.11159568197E+03  0.41800000000E+01 0. -1.
         -5    1    3    3    0  502  0.77647812403E+02 -0.49770440251E+02  0.25545515944E+02  0.95793137952E+02  0.41800000000E+01 0. -1.
        -11    1    1    2    0    0 -0.72954488998E+02  0.51304995636E+02  0.39476330621E+03  0.40471301928E+03  0.00000000000E+00 0.  1.
         11    1    1    2    0    0 -0.18698587112E+02 -0.21310105637E+02  0.32313661197E+02  0.42987561715E+02  0.00000000000E+00 0. -1.
</event>
<event>
 7    1  0.4394360E-006  0.1506947E+03  0.7561462E-02  0.1199622E+00
          2   -1    0    0  501    0  0.00000000000E+00  0.00000000000E+00  0.73993141600E+03  0.73993141600E+03  0.00000000000E+00 0. -1.
         -2   -1    0    0    0  501 -0.00000000000E+00 -0.00000000000E+00 -0.36093137429E+02  0.36093137429E+02  0.00000000000E+00 0.  1.
         23    2    1    2    0    0 -0.11843488218E+03  0.16768932149E+02  0.35604489744E+03  0.39592025002E+03  0.12520725611E+03 0.  0.
          5    1    3    3  502    0 -0.90001622525E+02  0.67471176237E+02  0.20241752406E+03  0.23160953807E+03  0.41800000000E+01 0.  1.
         -5    1    3    3    0  502 -0.28433259655E+02 -0.50702244087E+02  0.15362737338E+03  0.16431071195E+03  0.41800000000E+01 0.  1.
        -11    1    1    2    0    0  0.82762506594E+02  0.13384628086E+02  0.11297018630E+03  0.14068064458E+03  0.00000000000E+00 0.  1.
         11    1    1    2    0    0  0.35672375586E+02 -0.30153560235E+02  0.23482319483E+03  0.23942365883E+03  0.00000000000E+00 0. -1.
</event>
<event>
 7    1  0.4394360E-006  0.1460902E+03  0.7561462E-02  0.1205361E+00
         -1   -1    0    0    0  501 -0.00000000000E+00  0.00000000000E+00  0.26320823547E+03  0.26320823547E+03  0.00000000000E+00 0.  1.
          1   -1    0    0  501    0  0.00000000000E+00 -0.00000000000E+00 -0.21952645948E+03  0.21952645948E+03  0.00000000000E+00 0. -1.
         23    2    1    2    0    0  0.39251180618E+02  0.11546524983E+03  0.19779267863E+03  0.26389674755E+03  0.12508665217E+03 0.  0.
          5    1    3    3  502    0  0.16818483096E+02 -0.21233361896E+02  0.70809836992E+02  0.75929061932E+02  0.41800000000E+01 0.  1.
         -5    1    3    3    0  502  0.22432697522E+02  0.13669861173E+03  0.12698284164E+03  0.18796768562E+03  0.41800000000E+01 0.  1.
        -11    1    1    2    0    0 -0.15400110780E+02 -0.89936887905E+02 -0.15923702704E+03  0.18352721324E+03  0.00000000000E+00 0. -1.
         11    1    1    2    0    0 -0.23851069838E+02 -0.25528361927E+02  0.51261244069E+01  0.35310734154E+02  0.00000000000E+00 0.  1.
</event>
<event>
 7    1  0.4394360E-006  0.9236542E+02  0.7561462E-02  0.1297223E+00
         -1   -1    0    0    0  501 -0.00000000000E+00  0.00000000000E+00  0.38679851524E+02  0.38679851524E+02  0.00000000000E+00 0.  1.
          1   -1    0    0  501    0  0.00000000000E+00 -0.00000000000E+00 -0.36466852420E+03  0.36466852420E+03  0.00000000000E+00 0. -1.
         23    2    1    2    0    0 -0.35544841164E+02  0.25177947501E+02 -0.20521937345E+03  0.24425344736E+03  0.12508953008E+03 0.  0.
          5    1    3    3  502    0  0.17291848677E+02 -0.42724869510E+02 -0.68999739892E+02  0.83083446068E+02  0.41800000000E+01 0.  1.
         -5    1    3    3    0  502 -0.52836689840E+02  0.67902817011E+02 -0.13621963356E+03  0.16117000130E+03  0.41800000000E+01 0.  1.
        -11    1    1    2    0    0  0.13029347903E+02 -0.26735729916E+02 -0.13098652214E+03  0.13432063186E+03  0.00000000000E+00 0. -1.
         11    1    1    2    0    0  0.22515493261E+02  0.15577824143E+01  0.10217222915E+02  0.24774296497E+02  0.00000000000E+00 0.  1.
</event>
<event>
 7    1  0.4394360E-006  0.2055864E+03  0.7561462E-02  0.1145110E+00
          2   -1    0    0  501    0  0.00000000000E+00  0.00000000000E+00  0.71130997783E+03  0.71130997783E+03  0.00000000000E+00 0. -1.
         -2   -1    0    0    0  501 -0.00000000000E+00 -0.00000000000E+00 -0.67991518194E+02  0.67991518194E+02  0.00000000000E+00 0.  1.
         23    2    1    2    0    0 -0.17278282160E+03 -0.68862969890E+02  0.26067602518E+03  0.34379574934E+03  0.12509002798E+03 0.  0.
          5    1    3    3  502    0 -0.64615696988E+02  0.35041158943E+02  0.75417729354E+02  0.10539628750E+03  0.41800000000E+01 0.  1.
         -5    1    3    3    0  502 -0.10816712462E+03 -0.10390412883E+03  0.18525829583E+03  0.23839946185E+03  0.41800000000E+01 0.  1.
        -11    1    1    2    0    0  0.10644836660E+03  0.54672644667E+02  0.14309295873E+03  0.18653671935E+03  0.00000000000E+00 0.  1.
         11    1    1    2    0    0  0.66334455000E+02  0.14190325222E+02  0.23954947572E+03  0.24896902733E+03  0.00000000000E+00 0. -1.
</event>
<event>
 7    1  0.4394360E-006  0.9509093E+02  0.7561462E-02  0.1290971E+00
         -4   -1    0    0    0  501 -0.00000000000E+00  0.00000000000E+00  0.59905614238E+03  0.59905614238E+03  0.00000000000E+00 0.  1.
          4   -1    0    0  501    0  0.00000000000E+00 -0.00000000000E+00 -0.22350367441E+02  0.22350367441E+02  0.00000000000E+00 0. -1.
         23    2    1    2    0    0 -0.12664827985E+02  0.23890225955E+02  0.40822902413E+03  0.42781999777E+03  0.12509146087E+03 0.  0.
          5    1    3    3  502    0 -0.53890335549E+02 -0.14925460145E+01  0.83526298201E+02  0.99501310797E+02  0.41800000000E+01 0. -1.
         -5    1    3    3    0  502  0.41225507563E+02  0.25382771970E+02  0.32470272593E+03  0.32831868697E+03  0.41800000000E+01 0. -1.
        -11    1    1    2    0    0 -0.35515025961E+02 -0.54650675038E+01  0.33649746791E+02  0.49228949724E+02  0.00000000000E+00 0. -1.
         11    1    1    2    0    0  0.48179853946E+02 -0.18425158451E+02  0.13482700402E+03  0.14435756233E+03  0.00000000000E+00 0.  1.
</event>
<event>
 7    1  0.4394360E-006  0.1547599E+03  0.7561462E-02  0.1194743E+00
         -1   -1    0    0    0  501 -0.00000000000E+00  0.00000000000E+00  0.32868233698E+03  0.32868233698E+03  0.00000000000E+00 0.  1.
          1   -1    0    0  501    0  0.00000000000E+00 -0.00000000000E+00 -0.17738116325E+03  0.17738116325E+03  0.00000000000E+00 0. -1.
         23    2    1    2    0    0 -0.89293629726E+02 -0.71305866016E+02  0.27099016519E+03  0.31959538269E+03  0.12509060783E+03 0.  0.
          5    1    3    3  502    0 -0.11176598441E+03 -0.84613809394E+02  0.20385463011E+03  0.24743749640E+03  0.41800000000E+01 0. -1.
         -5    1    3    3    0  502  0.22472354681E+02  0.13307943378E+02  0.67135535089E+02  0.72157886288E+02  0.41800000000E+01 0. -1.
        -11    1    1    2    0    0  0.16864086788E+02  0.68280939750E+02 -0.63354916174E+02  0.94660073736E+02  0.00000000000E+00 0.  1.
         11    1    1    2    0    0  0.72429542938E+02  0.30249262653E+01 -0.56334075288E+02  0.91808043807E+02  0.00000000000E+00 0. -1.
</event>
<event>
 7    1  0.4394360E-006  0.1107309E+03  0.7561462E-02  0.1259222E+00
          1   -1    0    0  501    0  0.00000000000E+00  0.00000000000E+00  0.67787346106E+03  0.67787346106E+03  0.00000000000E+00 0. -1.
         -1   -1    0    0    0  501 -0.00000000000E+00 -0.00000000000E+00 -0.21154862055E+02  0.21154862055E+02  0.00000000000E+00 0.  1.
         23    2    1    2    0    0 -0.24830133923E+01  0.28920301175E+02  0.24987347757E+03  0.28093850023E+03  0.12508851645E+03 0.  0.
          5    1    3    3  502    0  0.18931583793E+02 -0.44963180750E+02  0.12456432741E+03  0.13384258123E+03  0.41800000000E+01 0. -1.
         -5    1    3    3    0  502 -0.21414597186E+02  0.73883481925E+02  0.12530915016E+03  0.14709591900E+03  0.41800000000E+01 0. -1.
        -11    1    1    2    0    0  0.82434265997E+01  0.32622186350E+02  0.11790758192E+03  0.12261467693E+03  0.00000000000E+00 0.  1.
         11    1    1    2    0    0 -0.57604132075E+01 -0.61542487525E+02  0.28893753952E+03  0.29547514595E+03  0.00000000000E+00 0. -1.
</event>
<event>
 7    1  0.4394360E-006  0.1099106E+03  0.7561462E-02  0.1260736E+00
         -1   -1    0    0    0  501 -0.00000000000E+00  0.00000000000E+00  0.62133417268E+03  0.62133417268E+03  0.00000000000E+00 0.  1.
          1   -1    0    0  501    0  0.00000000000E+00 -0.00000000000E+00 -0.24416533668E+02  0.24416533668E+02  0.00000000000E+00 0. -1.
         23    2    1    2    0    0 -0.41585360284E+02 -0.18749649011E+01  0.44447698413E+03  0.46361597988E+03  0.12508848747E+03 0.  0.
          5    1    3    3  502    0 -0.71016722854E+01  0.57841385968E+02  0.26354516204E+03  0.26994366915E+03  0.41800000000E+01 0. -1.
         -5    1    3    3    0  502 -0.34483687999E+02 -0.59716350869E+02  0.18093182209E+03  0.19367231073E+03  0.41800000000E+01 0. -1.
        -11    1    1    2    0    0 -0.21076428587E+02 -0.16770463458E+02  0.17302318253E+02  0.32013036462E+02  0.00000000000E+00 0.  1.
         11    1    1    2    0    0  0.62661788871E+02  0.18645428359E+02  0.13513833663E+03  0.15012169001E+03  0.00000000000E+00 0. -1.
</event>
<event>
 7    1  0.4394360E-006  0.9373493E+02  0.7561462E-02  0.1294051E+00
          1   -1    0    0  501    0  0.00000000000E+00  0.00000000000E+00  0.16883420022E+03  0.16883420022E+03  0.00000000000E+00 0. -1.
         -1   -1    0    0    0  501 -0.00000000000E+00 -0.00000000000E+00 -0.99847054828E+02  0.99847054828E+02  0.00000000000E+00 0.  1.
         23    2    1    2    0    0 -0.66379623920E+02 -0.37703865523E+00  0.36466610492E+02  0.14623081994E+03  0.12508893792E+03 0.  0.
          5    1    3    3  502    0 -0.69433783973E+02 -0.26425038731E+02 -0.25624728100E+02  0.78698361603E+02  0.41800000000E+01 0.  1.
         -5    1    3    3    0  502  0.30541600536E+01  0.26048000075E+02  0.62091338591E+02  0.67532458341E+02  0.41800000000E+01 0.  1.
        -11    1    1    2    0    0  0.43614250432E+02 -0.26691591977E+02  0.59142181343E+02  0.78182104967E+02  0.00000000000E+00 0. -1.
         11    1    1    2    0    0  0.22765373488E+02  0.27068630633E+02 -0.26621646438E+02  0.44268330141E+02  0.00000000000E+00 0.  1.
</event>
<event>
 7    1  0.4394360E-006  0.7113049E+02  0.7561462E-02  0.1356290E+00
         -4   -1    0    0    0  501 -0.00000000000E+00  0.00000000000E+00  0.18213438654E+03  0.18213438654E+03  0.00000000000E+00 0. -1.
          4   -1    0    0  501    0  0.00000000000E+00 -0.00000000000E+00 -0.67237379904E+02  0.67237379904E+02  0.00000000000E+00 0.  1.
         23    2    1    2    0    0 -0.17566719657E+02 -0.13362883593E+02  0.72694781102E+02  0.14636068983E+03  0.12509901690E+03 0.  0.
          5    1    3    3  502    0  0.25142530292E+02  0.13335134856E+02  0.88778795980E+02  0.93322664271E+02  0.41800000000E+01 0. -1.
         -5    1    3    3    0  502 -0.42709249949E+02 -0.26698018449E+02 -0.16084014878E+02  0.53038025556E+02  0.41800000000E+01 0. -1.
        -11    1    1    2    0    0  0.39537307846E+02  0.79749505844E+01  0.61318173205E+02  0.73394256681E+02  0.00000000000E+00 0. -1.
         11    1    1    2    0    0 -0.21970588189E+02  0.53879330084E+01 -0.19115947673E+02  0.29616819933E+02  0.00000000000E+00 0.  1.
</event>
<event>
 7    1  0.4394360E-006  0.9583826E+02  0.7561462E-02  0.1289299E+00
         -1   -1    0    0    0  501 -0.00000000000E+00  0.00000000000E+00  0.28160570340E+03  0.28160570340E+03  0.00000000000E+00 0.  1.
          1   -1    0    0  501    0  0.00000000000E+00 -0.00000000000E+00 -0.54752246735E+02  0.54752246735E+02  0.00000000000E+00 0. -1.
         23    2    1    2    0    0 -0.87642063936E+01  0.44125045741E+02  0.18386265957E+03  0.22688545355E+03  0.12509076893E+03 0.  0.
          5    1    3    3  502    0 -0.37683278009E+02 -0.26352795869E+02  0.29767207468E+02  0.54936857683E+02  0.41800000000E+01 0. -1.
         -5    1    3    3    0  502  0.28919071616E+02  0.70477841610E+02  0.15409545210E+03  0.17194859586E+03  0.41800000000E+01 0. -1.
        -11    1    1    2    0    0 -0.85325180913E+00  0.12118470451E+02  0.50481810225E+02  0.51923005772E+02  0.00000000000E+00 0.  1.
         11    1    1    2    0    0  0.96174582027E+01 -0.56243516192E+02 -0.74910131257E+01  0.57549490820E+02  0.00000000000E+00 0. -1.
</event>
<event>
 7    1  0.4394360E-006  0.9149094E+02  0.7561462E-02  0.1299281E+00
          2   -1    0    0  501    0  0.00000000000E+00  0.00000000000E+00  0.38391216973E+02  0.38391216973E+02  0.00000000000E+00 0. -1.
         -2   -1    0    0    0  501 -0.00000000000E+00 -0.00000000000E+00 -0.47172060964E+03  0.47172060964E+03  0.00000000000E+00 0.  1.
         23    2    1    2    0    0 -0.17832642509E+01  0.52868087192E+01 -0.39885703460E+03  0.41804932645E+03  0.12508866823E+03 0.  0.
          5    1    3    3  502    0 -0.58044766236E+02  0.24752109643E+02 -0.16519572835E+03  0.17688686465E+03  0.41800000000E+01 0. -1.
         -5    1    3    3    0  502  0.56261501985E+02 -0.19465300923E+02 -0.23366130625E+03  0.24116246180E+03  0.41800000000E+01 0. -1.
        -11    1    1    2    0    0 -0.25983241662E+01  0.27178160402E+02 -0.49104346438E+02  0.56183988203E+02  0.00000000000E+00 0.  1.
         11    1    1    2    0    0  0.43815884171E+01 -0.32464969121E+02  0.14631988366E+02  0.35878511963E+02  0.00000000000E+00 0. -1.
</event>
<event>
 7    1  0.4394360E-006  0.8201626E+02  0.7561462E-02  0.1323425E+00
          1   -1    0    0  501    0  0.00000000000E+00  0.00000000000E+00  0.41903718268E+03  0.41903718268E+03  0.00000000000E+00 0. -1.
         -1   -1    0    0    0  501 -0.00000000000E+00 -0.00000000000E+00 -0.32542864370E+02  0.32542864370E+02  0.00000000000E+00 0.  1.
         23    2    1    2    0    0 -0.50903163963E+01  0.43173199645E+02  0.20347050687E+03  0.24276875657E+03  0.12508631224E+03 0.  0.
          5    1    3    3  502    0 -0.25588685536E+02  0.26879889470E+02 -0.23213466871E+00  0.37347497532E+02  0.41800000000E+01 0. -1.
         -5    1    3    3    0  502  0.20498369140E+02  0.16293310175E+02  0.20370264154E+03  0.20542125904E+03  0.41800000000E+01 0. -1.
        -11    1    1    2    0    0 -0.11808539002E+02  0.26215540179E+02  0.44906418893E+02  0.53322439911E+02  0.00000000000E+00 0. -1.
         11    1    1    2    0    0  0.16898855398E+02 -0.69388739824E+02  0.13811739254E+03  0.15548885057E+03  0.00000000000E+00 0.  1.
</event>
<event>
 7    1  0.4394360E-006  0.1028352E+03  0.7561462E-02  0.1274444E+00
         -1   -1    0    0    0  501 -0.00000000000E+00  0.00000000000E+00  0.40434089955E+02  0.40434089955E+02  0.00000000000E+00 0.  1.
          1   -1    0    0  501    0  0.00000000000E+00 -0.00000000000E+00 -0.36733081999E+03  0.36733081999E+03  0.00000000000E+00 0. -1.
         23    2    1    2    0    0  0.50874591227E+02  0.19296317248E+02 -0.20136689581E+03  0.24321571799E+03  0.12507872264E+03 0.  0.
          5    1    3    3  502    0  0.44669985482E+02  0.58528435135E+02 -0.18658309516E+03  0.20062828595E+03  0.41800000000E+01 0.  1.
         -5    1    3    3    0  502  0.62046057443E+01 -0.39232117888E+02 -0.14783800649E+02  0.42587432043E+02  0.41800000000E+01 0.  1.
        -11    1    1    2    0    0 -0.70174539708E+02 -0.11228547871E+02 -0.51887480312E+02  0.87993505009E+02  0.00000000000E+00 0.  1.
         11    1    1    2    0    0  0.19299948482E+02 -0.80677693766E+01 -0.73642353911E+02  0.76555686945E+02  0.00000000000E+00 0. -1.
</event>
<event>
 7    1  0.4394360E-006  0.1092067E+03  0.7561462E-02  0.1262046E+00
          2   -1    0    0  501    0  0.00000000000E+00  0.00000000000E+00  0.57910348153E+03  0.57910348153E+03  0.00000000000E+00 0. -1.
         -2   -1    0    0    0  501 -0.00000000000E+00 -0.00000000000E+00 -0.33294225057E+02  0.33294225057E+02  0.00000000000E+00 0.  1.
         23    2    1    2    0    0  0.63017337251E+02 -0.59130676088E+02  0.32318449808E+03  0.35715902906E+03  0.12508689218E+03 0.  0.
          5    1    3    3  502    0  0.27920394913E+02  0.24752080551E+02  0.24305663580E+02  0.44726408594E+02  0.41800000000E+01 0.  1.
         -5    1    3    3    0  502  0.35096942338E+02 -0.83882756639E+02  0.29887883450E+03  0.31243262047E+03  0.41800000000E+01 0.  1.
        -11    1    1    2    0    0 -0.52499935681E+02  0.33863778204E+02  0.21887265371E+03  0.22761422904E+03  0.00000000000E+00 0. -1.
         11    1    1    2    0    0 -0.10517401570E+02  0.25266897884E+02  0.37521046898E+01  0.27624448484E+02  0.00000000000E+00 0.  1.
</event>
<event>
 7    1  0.4394360E-006  0.1283266E+03  0.7561462E-02  0.1229960E+00
          1   -1    0    0  501    0  0.00000000000E+00  0.00000000000E+00  0.35129455077E+03  0.35129455077E+03  0.00000000000E+00 0. -1.
         -1   -1    0    0    0  501 -0.00000000000E+00 -0.00000000000E+00 -0.50398185025E+02  0.50398185025E+02  0.00000000000E+00 0.  1.
         23    2    1    2    0    0  0.78135468999E+02  0.13143202404E+01  0.13988323453E+03  0.20327743036E+03  0.12509002933E+03 0.  0.
          5    1    3    3  502    0 -0.79474587983E+01  0.47143529444E+02  0.61989941531E+02  0.78395788922E+02  0.41800000000E+01 0. -1.
         -5    1    3    3    0  502  0.86082927798E+02 -0.45829209204E+02  0.77893292999E+02  0.12488164144E+03  0.41800000000E+01 0. -1.
        -11    1    1    2    0    0 -0.14406840315E+02  0.34895865903E+02  0.84017837031E+02  0.92110126720E+02  0.00000000000E+00 0.  1.
         11    1    1    2    0    0 -0.63728628685E+02 -0.36210186143E+02  0.76995294181E+02  0.10630517871E+03  0.00000000000E+00 0. -1.
</event>
<event>
 7    1  0.4394360E-006  0.1273451E+03  0.7561462E-02  0.1231449E+00
         -2   -1    0    0    0  501 -0.00000000000E+00  0.00000000000E+00  0.33258619455E+02  0.33258619455E+02  0.00000000000E+00 0.  1.
          2   -1    0    0  501    0  0.00000000000E+00 -0.00000000000E+00 -0.61380305769E+03  0.61380305769E+03  0.00000000000E+00 0. -1.
         23    2    1    2    0    0  0.63593102692E+02 -0.51213357067E+02 -0.21374235455E+03  0.26076929028E+03  0.12509171825E+03 0.  0.
          5    1    3    3  502    0  0.23004010571E+02 -0.82149838178E+02 -0.77918620039E+02  0.11561385801E+03  0.41800000000E+01 0. -1.
         -5    1    3    3    0  502  0.40589092121E+02  0.30936481112E+02 -0.13582373451E+03  0.14515543227E+03  0.41800000000E+01 0. -1.
        -11    1    1    2    0    0 -0.46653014772E+02 -0.15563285874E+02 -0.11161857817E+03  0.12197305705E+03  0.00000000000E+00 0.  1.
         11    1    1    2    0    0 -0.16940087920E+02  0.66776642940E+02 -0.25518350552E+03  0.26431932981E+03  0.00000000000E+00 0. -1.
</event>
<event>
 7    1  0.4394360E-006  0.1399159E+03  0.7561462E-02  0.1213442E+00
         -1   -1    0    0    0  501 -0.00000000000E+00  0.00000000000E+00  0.62408538615E+02  0.62408538615E+02  0.00000000000E+00 0.  1.
          1   -1    0    0  501    0  0.00000000000E+00 -0.00000000000E+00 -0.64374435791E+03  0.64374435791E+03  0.00000000000E+00 0. -1.
         23    2    1    2    0    0  0.67837892739E+02 -0.88736709022E+02 -0.82721748574E+02  0.18699296318E+03  0.12508915769E+03 0.  0.
          5    1    3    3  502    0 -0.24893019904E+02 -0.67664558918E+02 -0.30220330368E+02  0.78287264233E+02  0.41800000000E+01 0. -1.
         -5    1    3    3    0  502  0.92730912643E+02 -0.21072150103E+02 -0.52501418206E+02  0.10870569895E+03  0.41800000000E+01 0. -1.
        -11    1    1    2    0    0 -0.63880110792E+02  0.77049142399E+02 -0.49668717868E+03  0.50667089157E+03  0.00000000000E+00 0. -1.
         11    1    1    2    0    0 -0.39577819470E+01  0.11687566623E+02 -0.19268920377E+01  0.12489041774E+02  0.00000000000E+00 0.  1.
</event>
<event>
 7    1  0.4394360E-006  0.8014772E+02  0.7561462E-02  0.1328633E+00
         -3   -1    0    0    0  501 -0.00000000000E+00  0.00000000000E+00  0.16580486223E+03  0.16580486223E+03  0.00000000000E+00 0.  1.
          3   -1    0    0  501    0  0.00000000000E+00 -0.00000000000E+00 -0.10712055617E+03  0.10712055617E+03  0.00000000000E+00 0. -1.
         23    2    1    2    0    0  0.18393041754E+02  0.25730868928E+02  0.10409462717E+03  0.16577900257E+03  0.12508638890E+03 0.  0.
          5    1    3    3  502    0 -0.48856366005E+02  0.35487592802E+02  0.55618257555E+02  0.82202048123E+02  0.41800000000E+01 0. -1.
         -5    1    3    3    0  502  0.67249407759E+02 -0.97567238742E+01  0.48476369612E+02  0.83576954452E+02  0.41800000000E+01 0. -1.
        -11    1    1    2    0    0 -0.84521839639E+01 -0.10233940520E+02  0.28253876783E+02  0.31216253868E+02  0.00000000000E+00 0.  1.
         11    1    1    2    0    0 -0.99408577897E+01 -0.15496928408E+02 -0.73664197889E+02  0.75930161953E+02  0.00000000000E+00 0. -1.
</event>
<event>
 7    1  0.4394360E-006  0.1284676E+03  0.7561462E-02  0.1229747E+00
         -4   -1    0    0    0  501 -0.00000000000E+00  0.00000000000E+00  0.97913910667E+02  0.97913910667E+02  0.00000000000E+00 0.  1.
          4   -1    0    0  501    0  0.00000000000E+00 -0.00000000000E+00 -0.23077659525E+03  0.23077659525E+03  0.00000000000E+00 0. -1.
         23    2    1    2    0    0 -0.63011622682E+02  0.73755850136E+02 -0.33832699668E+02  0.16187425638E+03  0.12509289864E+03 0.  0.
          5    1    3    3  502    0  0.11275053534E+02 -0.67691514228E+01  0.31400093380E+02  0.34298491329E+02  0.41800000000E+01 0.  1.
         -5    1    3    3    0  502 -0.74286676216E+02  0.80525001558E+02 -0.65232793047E+02  0.12757576505E+03  0.41800000000E+01 0.  1.
        -11    1    1    2    0    0  0.70363680798E+02 -0.12087976497E+02 -0.44184574509E+02  0.83960963404E+02  0.00000000000E+00 0. -1.
         11    1    1    2    0    0 -0.73520581155E+01 -0.61667873639E+02 -0.54845410405E+02  0.82855286132E+02  0.00000000000E+00 0.  1.
</event>
<event>
 7    1  0.4394360E-006  0.7394782E+02  0.7561462E-02  0.1347161E+00
         -1   -1    0    0    0  501 -0.00000000000E+00  0.00000000000E+00  0.43547455617E+02  0.43547455617E+02  0.00000000000E+00 0.  1.
          1   -1    0    0  501    0  0.00000000000E+00 -0.00000000000E+00 -0.33019256274E+03  0.33019256274E+03  0.00000000000E+00 0. -1.
         23    2    1    2    0    0  0.20538948355E+02 -0.34236858201E+01 -0.90251005239E+02  0.15564391662E+03  0.12508483045E+03 0.  0.
          5    1    3    3  502    0  0.91726277438E+01 -0.27626062110E+02 -0.11516419061E+03  0.11885957936E+03  0.41800000000E+01 0. -1.
         -5    1    3    3    0  502  0.11366320611E+02  0.24202376290E+02  0.24913185369E+02  0.36784337259E+02  0.41800000000E+01 0. -1.
        -11    1    1    2    0    0  0.34878044435E+02  0.81146143831E+01 -0.50055982091E+02  0.61546131424E+02  0.00000000000E+00 0.  1.
         11    1    1    2    0    0 -0.55416992790E+02 -0.46909285630E+01 -0.14633811979E+03  0.15654997031E+03  0.00000000000E+00 0. -1.
</event>
<event>
 7    1  0.4394360E-006  0.1163007E+03  0.7561462E-02  0.1249328E+00
         -2   -1    0    0    0  501 -0.00000000000E+00  0.00000000000E+00  0.15732487835E+03  0.15732487835E+03  0.00000000000E+00 0.  1.
          2   -1    0    0  501    0  0.00000000000E+00 -0.00000000000E+00 -0.16783451597E+03  0.16783451597E+03  0.00000000000E+00 0. -1.
         23    2    1    2    0    0  0.65273154097E+02 -0.51599237388E+02  0.82141115528E+02  0.17122958782E+03  0.12509733387E+03 0.  0.
          5    1    3    3  502    0  0.27825413519E+01  0.37584772031E+02  0.62515009002E+01  0.38430603541E+02  0.41800000000E+01 0. -1.
         -5    1    3    3    0  502  0.62490612745E+02 -0.89184009419E+02  0.75889614628E+02  0.13279898428E+03  0.41800000000E+01 0. -1.
        -11    1    1    2    0    0 -0.30520014897E+02  0.37118569821E+02 -0.10403473152E+03  0.11459705448E+03  0.00000000000E+00 0. -1.
         11    1    1    2    0    0 -0.34753139199E+02  0.14480667568E+02  0.11383978372E+02  0.39332752014E+02  0.00000000000E+00 0.  1.
</event>
<event>
 7    1  0.4394360E-006  0.9884203E+02  0.7561462E-02  0.1282750E+00
         -1   -1    0    0    0  501 -0.00000000000E+00  0.00000000000E+00  0.52125901273E+02  0.52125901273E+02  0.00000000000E+00 0.  1.
          1   -1    0    0  501    0  0.00000000000E+00 -0.00000000000E+00 -0.23968239572E+03  0.23968239572E+03  0.00000000000E+00 0. -1.
         23    2    1    2    0    0 -0.10804131067E+02 -0.11018696060E+02 -0.81800543530E+02  0.15025796025E+03  0.12509190535E+03 0.  0.
          5    1    3    3  502    0  0.45735380640E+02 -0.15073013274E+02  0.27094940377E+01  0.48412132048E+02  0.41800000000E+01 0. -1.
         -5    1    3    3    0  502 -0.56539511707E+02  0.40543172138E+01 -0.84510037568E+02  0.10184582820E+03  0.41800000000E+01 0. -1.
        -11    1    1    2    0    0  0.30191289019E+02 -0.32808171852E+02 -0.38138570904E+02  0.58672315989E+02  0.00000000000E+00 0.  1.
         11    1    1    2    0    0 -0.19387157952E+02  0.43826867912E+02 -0.67617380014E+02  0.82878020756E+02  0.00000000000E+00 0. -1.
</event>
<event>
 7    1  0.4394360E-006  0.8244249E+02  0.7561462E-02  0.1322260E+00
          1   -1    0    0  501    0  0.00000000000E+00  0.00000000000E+00  0.57852598726E+03  0.57852598726E+03  0.00000000000E+00 0. -1.
         -1   -1    0    0    0  501 -0.00000000000E+00 -0.00000000000E+00 -0.47468120738E+02  0.47468120738E+02  0.00000000000E+00 0.  1.
         23    2    1    2    0    0  0.26812516682E+02  0.27482824151E+02  0.56631738413E+02  0.14137621524E+03  0.12371686936E+03 0.  0.
          5    1    3    3  502    0  0.24367527413E+02 -0.11221184131E+02  0.87511614452E+02  0.91626668768E+02  0.41800000000E+01 0. -1.
         -5    1    3    3    0  502  0.24449892689E+01  0.38704008282E+02 -0.30879876039E+02  0.49749546468E+02  0.41800000000E+01 0.  1.
        -11    1    1    2    0    0  0.29848732332E+02 -0.29587426669E+02  0.18945295360E+03  0.19405871346E+03  0.00000000000E+00 0.  1.
         11    1    1    2    0    0 -0.56661249014E+02  0.21046025183E+01  0.28497317450E+03  0.29055917930E+03  0.00000000000E+00 0. -1.
</event>
<event>
 7    1  0.4394360E-006  0.8335710E+02  0.7561462E-02  0.1319786E+00
          1   -1    0    0  501    0  0.00000000000E+00  0.00000000000E+00  0.18780599522E+03  0.18780599522E+03  0.00000000000E+00 0. -1.
         -1   -1    0    0    0  501 -0.00000000000E+00 -0.00000000000E+00 -0.42450328993E+02  0.42450328993E+02  0.00000000000E+00 0.  1.
         23    2    1    2    0    0 -0.17158969252E+02  0.25679183377E+00  0.93677214407E+02  0.14972441464E+03  0.11553131035E+03 0.  0.
          5    1    3    3  502    0 -0.35137988272E+02  0.48250196126E+02  0.72782460588E+02  0.94220584880E+02  0.41800000000E+01 0. -1.
         -5    1    3    3    0  502  0.17979019019E+02 -0.47993404292E+02  0.20894753819E+02  0.55503829757E+02  0.41800000000E+01 0.  1.
        -11    1    1    2    0    0  0.11849922859E+02  0.26051454075E+02  0.44224631495E+02  0.52677480597E+02  0.00000000000E+00 0. -1.
         11    1    1    2    0    0  0.53090463933E+01 -0.26308245908E+02  0.74538203255E+01  0.27854428980E+02  0.00000000000E+00 0.  1.
</event>
<event>
 6    1  0.4394360E-006  0.1082076E+03  0.7561462E-02  0.1263926E+00
          1   -1    0    0  501    0  0.00000000000E+00  0.00000000000E+00  0.56055710919E+02  0.56055710919E+02  0.00000000000E+00 0. -1.
         -1   -1    0    0    0  501 -0.00000000000E+00 -0.00000000000E+00 -0.30049491643E+03  0.30049491643E+03  0.00000000000E+00 0.  1.
          5    1    1    2  502    0 -0.69281774645E+02 -0.84765318420E+01 -0.19068239592E+02  0.72476796640E+02  0.41800000000E+01 0. -1.
         -5    1    1    2    0  502  0.91377362848E+02 -0.85632201806E+01 -0.18458532253E+03  0.20618526833E+03  0.41800000000E+01 0.  1.
        -11    1    1    2    0    0  0.12960092216E+02  0.14534938276E+02 -0.37918483295E+02  0.42626749774E+02  0.00000000000E+00 0. -1.
         11    1    1    2    0    0 -0.35055680419E+02  0.25048137462E+01 -0.28671600946E+01  0.35261812610E+02  0.00000000000E+00 0.  1.
</event>
<event>
 7    1  0.4394360E-006  0.1302355E+03  0.7561462E-02  0.1227107E+00
         -2   -1    0    0    0  501 -0.00000000000E+00  0.00000000000E+00  0.66131968523E+02  0.66131968523E+02  0.00000000000E+00 0.  1.
          2   -1    0    0  501    0  0.00000000000E+00 -0.00000000000E+00 -0.33709895733E+03  0.33709895733E+03  0.00000000000E+00 0. -1.
         23    2    1    2    0    0 -0.22169208164E+02  0.99930478314E+02 -0.15968644397E+03  0.22721201794E+03  0.12509183195E+03 0.  0.
          5    1    3    3  502    0 -0.11335048919E+02 -0.87757729558E+01  0.14981282207E+02  0.21152038709E+02  0.41800000000E+01 0.  1.
         -5    1    3    3    0  502 -0.10834159246E+02  0.10870625127E+03 -0.17466772618E+03  0.20605997923E+03  0.41800000000E+01 0.  1.
        -11    1    1    2    0    0  0.55061594254E+02 -0.81944456865E+02 -0.76723338693E+02  0.12503257125E+03  0.00000000000E+00 0.  1.
         11    1    1    2    0    0 -0.32892386090E+02 -0.17986021449E+02 -0.34557206139E+02  0.50986336664E+02  0.00000000000E+00 0. -1.
</event>
<event>
 7    1  0.4394360E-006  0.9333457E+02  0.7561462E-02  0.1294972E+00
         -3   -1    0    0    0  501 -0.00000000000E+00  0.00000000000E+00  0.79024172220E+02  0.79024172220E+02  0.00000000000E+00 0.  1.
          3   -1    0    0  501    0  0.00000000000E+00 -0.00000000000E+00 -0.18360449044E+03  0.18360449044E+03  0.00000000000E+00 0. -1.
         23    2    1    2    0    0  0.47759125421E+02 -0.90520833744E+01 -0.31348368529E+02  0.13778692979E+03  0.12505856043E+03 0.  0.
          5    1    3    3  502    0  0.66837023573E+02 -0.29827216968E+02  0.22644427748E+02  0.76727394718E+02  0.41800000000E+01 0.  1.
         -5    1    3    3    0  502 -0.19077898151E+02  0.20775133594E+02 -0.53992796277E+02  0.61059535075E+02  0.41800000000E+01 0.  1.
        -11    1    1    2    0    0  0.23513855518E+00  0.31752550436E+02  0.30532294442E+01  0.31899873971E+02  0.00000000000E+00 0.  1.
         11    1    1    2    0    0 -0.47994263977E+02 -0.22700467061E+02 -0.76285179136E+02  0.92941858897E+02  0.00000000000E+00 0. -1.
</event>
<event>
 7    1  0.4394360E-006  0.1837676E+03  0.7561462E-02  0.1164206E+00
         -2   -1    0    0    0  501 -0.00000000000E+00  0.00000000000E+00  0.40810834203E+02  0.40810834203E+02  0.00000000000E+00 0.  1.
          2   -1    0    0  501    0  0.00000000000E+00 -0.00000000000E+00 -0.91056172973E+03  0.91056172973E+03  0.00000000000E+00 0. -1.
         23    2    1    2    0    0  0.13623327078E+03 -0.79851149410E+02 -0.40913763476E+03  0.45604434115E+03  0.12508847585E+03 0.  0.
          5    1    3    3  502    0 -0.12805015252E+02 -0.26455944494E+02 -0.19680279484E+02  0.35618411184E+02  0.41800000000E+01 0.  1.
         -5    1    3    3    0  502  0.14903828604E+03 -0.53395204916E+02 -0.38945735527E+03  0.42042592997E+03  0.41800000000E+01 0.  1.
        -11    1    1    2    0    0 -0.82209092983E+02  0.92746035431E+02 -0.35480534373E+03  0.37582841031E+03  0.00000000000E+00 0.  1.
         11    1    1    2    0    0 -0.54024177800E+02 -0.12894886021E+02 -0.10580791704E+03  0.11949981247E+03  0.00000000000E+00 0. -1.
</event>
<event>
 7    1  0.4394360E-006  0.1077923E+03  0.7561462E-02  0.1264714E+00
          2   -1    0    0  501    0  0.00000000000E+00  0.00000000000E+00  0.13472931717E+04  0.13472931717E+04  0.00000000000E+00 0. -1.
         -2   -1    0    0    0  501 -0.00000000000E+00 -0.00000000000E+00 -0.10160347399E+02  0.10160347399E+02  0.00000000000E+00 0.  1.
         23    2    1    2    0    0 -0.14040378485E+02 -0.27432537733E+02  0.87985867818E+03  0.88924052268E+03  0.12509091598E+03 0.  0.
          5    1    3    3  502    0  0.50384233015E+02 -0.36401114009E+01  0.21801023815E+03  0.22382528384E+03  0.41800000000E+01 0. -1.
         -5    1    3    3    0  502 -0.64424611500E+02 -0.23792426332E+02  0.66184844003E+03  0.66541523885E+03  0.41800000000E+01 0. -1.
        -11    1    1    2    0    0  0.60515221937E+01  0.61145957798E+02  0.35370303389E+03  0.35900039729E+03  0.00000000000E+00 0. -1.
         11    1    1    2    0    0  0.79888562909E+01 -0.33713420065E+02  0.10357111223E+03  0.10921259912E+03  0.00000000000E+00 0.  1.
</event>
<event>
 7    1  0.4394360E-006  0.1518966E+03  0.7561462E-02  0.1198162E+00
          1   -1    0    0  501    0  0.00000000000E+00  0.00000000000E+00  0.13661071804E+03  0.13661071804E+03  0.00000000000E+00 0. -1.
         -1   -1    0    0    0  501 -0.00000000000E+00 -0.00000000000E+00 -0.72659838316E+03  0.72659838316E+03  0.00000000000E+00 0.  1.
         23    2    1    2    0    0  0.12106796593E+03  0.62660983640E+02 -0.66118441809E+03  0.68437880501E+03  0.11236397455E+03 0.  0.
          5    1    3    3  502    0  0.35908520926E+02  0.63783608587E+02 -0.16007038487E+03  0.17606183889E+03  0.41800000000E+01 0. -1.
         -5    1    3    3    0  502  0.85159445001E+02 -0.11226249466E+01 -0.50111403322E+03  0.50831696612E+03  0.41800000000E+01 0.  1.
        -11    1    1    2    0    0 -0.89120782231E+02 -0.19028002321E+02  0.83243659130E+02  0.12342643754E+03  0.00000000000E+00 0. -1.
         11    1    1    2    0    0 -0.31947183696E+02 -0.43632981319E+02 -0.12046906157E+02  0.55403858646E+02  0.00000000000E+00 0.  1.
</event>
<event>
 7    1  0.4394360E-006  0.1228884E+03  0.7561462E-02  0.1238407E+00
          3   -1    0    0  501    0  0.00000000000E+00  0.00000000000E+00  0.48894531683E+03  0.48894531683E+03  0.00000000000E+00 0. -1.
         -3   -1    0    0    0  501 -0.00000000000E+00 -0.00000000000E+00 -0.34141743177E+02  0.34141743177E+02  0.00000000000E+00 0.  1.
         23    2    1    2    0    0 -0.57974473161E+02 -0.28649790921E+02  0.20365807504E+03  0.24759961522E+03  0.12508840021E+03 0.  0.
          5    1    3    3  502    0 -0.42465667479E+02 -0.77783725942E+02  0.13756118687E+03  0.16368931996E+03  0.41800000000E+01 0.  1.
         -5    1    3    3    0  502 -0.15508805682E+02  0.49133935020E+02  0.66096888174E+02  0.83910295260E+02  0.41800000000E+01 0.  1.
        -11    1    1    2    0    0  0.79328715480E+02  0.17344954623E+02  0.14089241571E+03  0.16261785067E+03  0.00000000000E+00 0.  1.
         11    1    1    2    0    0 -0.21354242319E+02  0.11304836298E+02  0.11025308290E+03  0.11286959412E+03  0.00000000000E+00 0. -1.
</event>
<event>
 7    1  0.4394360E-006  0.7570360E+02  0.7561462E-02  0.1341706E+00
          1   -1    0    0  501    0  0.00000000000E+00  0.00000000000E+00  0.17880357382E+03  0.17880357382E+03  0.00000000000E+00 0. -1.
         -1   -1    0    0    0  501 -0.00000000000E+00 -0.00000000000E+00 -0.73479619720E+02  0.73479619720E+02  0.00000000000E+00 0.  1.
         23    2    1    2    0    0 -0.25443887998E+02  0.10879910608E+02  0.31552578233E+02  0.13194291286E+03  0.12509038000E+03 0.  0.
          5    1    3    3  502    0 -0.11502064669E+01 -0.35845149349E+02 -0.32733007786E+02  0.48735201913E+02  0.41800000000E+01 0.  1.
         -5    1    3    3    0  502 -0.24293681531E+02  0.46725059958E+02  0.64285586019E+02  0.83207710942E+02  0.41800000000E+01 0.  1.
        -11    1    1    2    0    0 -0.16289663176E+02 -0.12765766010E+02  0.75741113478E+02  0.78517731622E+02  0.00000000000E+00 0. -1.
         11    1    1    2    0    0  0.41733551174E+02  0.18858554016E+01 -0.19697376061E+01  0.41822549067E+02  0.00000000000E+00 0.  1.
</event>
<event>
 6    1  0.4394360E-006  0.5223043E+03  0.7561462E-02  0.1008116E+00
          2   -1    0    0  501    0  0.00000000000E+00  0.00000000000E+00  0.55410574977E+03  0.55410574977E+03  0.00000000000E+00 0. -1.
         -2   -1    0    0    0  501 -0.00000000000E+00 -0.00000000000E+00 -0.65289520865E+03  0.65289520865E+03  0.00000000000E+00 0.  1.
          5    1    1    2  502    0  0.38613234296E+03  0.16052146371E+03  0.19914538491E+03  0.46318644553E+03  0.41800000000E+01 0. -1.
         -5    1    1    2    0  502 -0.25919358696E+03  0.13647147312E+03 -0.28527089347E+03  0.40890430856E+03  0.41800000000E+01 0.  1.
        -11    1    1    2    0    0 -0.43646108087E+02 -0.27966959365E+02 -0.12335265687E+02  0.53285010527E+02  0.00000000000E+00 0. -1.
         11    1    1    2    0    0 -0.83292647909E+02 -0.26902597747E+03 -0.32868463181E+00  0.28162519380E+03  0.00000000000E+00 0.  1.
</event>
<event>
 7    1  0.4394360E-006  0.8009341E+02  0.7561462E-02  0.1328787E+00
         -2   -1    0    0    0  501 -0.00000000000E+00  0.00000000000E+00  0.14054386171E+02  0.14054386171E+02  0.00000000000E+00 0.  1.
          2   -1    0    0  501    0  0.00000000000E+00 -0.00000000000E+00 -0.98942199453E+03  0.98942199453E+03  0.00000000000E+00 0. -1.
         23    2    1    2    0    0 -0.27201307296E+02  0.83837173009E+01 -0.45593762875E+03  0.47364227225E+03  0.12509069879E+03 0.  0.
          5    1    3    3  502    0 -0.37516899969E+02 -0.54581238425E+01 -0.45419671562E+03  0.45579539026E+03  0.41800000000E+01 0.  1.
         -5    1    3    3    0  502  0.10315592673E+02  0.13841841143E+02 -0.17409131254E+01  0.17846881995E+02  0.41800000000E+01 0.  1.
        -11    1    1    2    0    0  0.44247094267E+02  0.35806115112E+02 -0.26713187622E+03  0.27312876547E+03  0.00000000000E+00 0. -1.
         11    1    1    2    0    0 -0.17045786971E+02 -0.44189832413E+02 -0.25229810339E+03  0.25670534298E+03  0.00000000000E+00 0.  1.
</event>
<event>
 7    1  0.4394360E-006  0.1154800E+03  0.7561462E-02  0.1250746E+00
          1   -1    0    0  501    0  0.00000000000E+00  0.00000000000E+00  0.24546778709E+03  0.24546778709E+03  0.00000000000E+00 0. -1.
         -1   -1    0    0    0  501 -0.00000000000E+00 -0.00000000000E+00 -0.11136962502E+03  0.11136962502E+03  0.00000000000E+00 0.  1.
         23    2    1    2    0    0  0.61144832425E+02  0.50734443693E+02 -0.32048968378E+02  0.15161693225E+03  0.12509150035E+03 0.  0.
          5    1    3    3  502    0 -0.29957382230E+02  0.43331236676E+02 -0.28523839035E+02  0.60051000119E+02  0.41800000000E+01 0.  1.
         -5    1    3    3    0  502  0.91102214656E+02  0.74032070168E+01 -0.35251293430E+01  0.91565932126E+02  0.41800000000E+01 0.  1.
        -11    1    1    2    0    0 -0.36168753873E+01 -0.22032235762E+02 -0.45778201821E+01  0.22791613323E+02  0.00000000000E+00 0.  1.
         11    1    1    2    0    0 -0.57527957038E+02 -0.28702207930E+02  0.17072495063E+03  0.18242886655E+03  0.00000000000E+00 0. -1.
</event>
<event>
 7    1  0.4394360E-006  0.6348595E+02  0.7561462E-02  0.1383759E+00
          2   -1    0    0  501    0  0.00000000000E+00  0.00000000000E+00  0.59802082547E+03  0.59802082547E+03  0.00000000000E+00 0. -1.
         -2   -1    0    0    0  501 -0.00000000000E+00 -0.00000000000E+00 -0.24707165430E+02  0.24707165430E+02  0.00000000000E+00 0.  1.
         23    2    1    2    0    0 -0.33398593131E+02 -0.36620965441E+02  0.26034427079E+03  0.29305795176E+03  0.12508901881E+03 0.  0.
          5    1    3    3  502    0 -0.23791916563E+02 -0.15670520830E+02  0.26712492071E+03  0.26867232121E+03  0.41800000000E+01 0.  1.
         -5    1    3    3    0  502 -0.96066765682E+01 -0.20950444610E+02 -0.67806499271E+01  0.24385630554E+02  0.41800000000E+01 0.  1.
        -11    1    1    2    0    0  0.47258710704E+02  0.38250023568E+02  0.30932925497E+03  0.31524758210E+03  0.00000000000E+00 0. -1.
         11    1    1    2    0    0 -0.13860117573E+02 -0.16290581268E+01  0.36401342899E+01  0.14422457043E+02  0.00000000000E+00 0.  1.
</event>
<event>
 7    1  0.4394360E-006  0.1062999E+03  0.7561462E-02  0.1267579E+00
          2   -1    0    0  501    0  0.00000000000E+00  0.00000000000E+00  0.66280764102E+02  0.66280764102E+02  0.00000000000E+00 0.  1.
         -2   -1    0    0    0  501 -0.00000000000E+00 -0.00000000000E+00 -0.25337555692E+03  0.25337555692E+03  0.00000000000E+00 0. -1.
         23    2    1    2    0    0 -0.68894466630E+01 -0.47538000324E+02 -0.16780879784E+03  0.21473970895E+03  0.12508406781E+03 0.  0.
          5    1    3    3  502    0  0.10182109523E+02 -0.78759503765E+02 -0.55822391310E+02  0.97161445848E+02  0.41800000000E+01 0. -1.
         -5    1    3    3    0  502 -0.17071556186E+02  0.31221503441E+02 -0.11198640653E+03  0.11757826310E+03  0.41800000000E+01 0. -1.
        -11    1    1    2    0    0 -0.31202054853E+02  0.50151098940E+02 -0.28586324476E+02  0.65619196117E+02  0.00000000000E+00 0. -1.
         11    1    1    2    0    0  0.38091501516E+02 -0.26130986163E+01  0.93003294917E+01  0.39297415956E+02  0.00000000000E+00 0.  1.
</event>
<event>
 7    1  0.4394360E-006  0.1549067E+03  0.7561462E-02  0.1194570E+00
         -2   -1    0    0    0  501 -0.00000000000E+00  0.00000000000E+00  0.31444907226E+02  0.31444907226E+02  0.00000000000E+00 0. -1.
          2   -1    0    0  501    0  0.00000000000E+00 -0.00000000000E+00 -0.85849962968E+03  0.85849962968E+03  0.00000000000E+00 0.  1.
         23    2    1    2    0    0 -0.96502630850E+02  0.72086054626E+02 -0.36655062385E+03  0.40560390901E+03  0.12508402825E+03 0.  0.
          5    1    3    3  502    0 -0.84274155170E+02  0.10337710149E+03 -0.23999088074E+03  0.27459434368E+03  0.41800000000E+01 0. -1.
         -5    1    3    3    0  502 -0.12228475680E+02 -0.31291046863E+02 -0.12655974311E+03  0.13100956533E+03  0.41800000000E+01 0. -1.
        -11    1    1    2    0    0  0.65570881523E+02 -0.16525381241E+01 -0.13808585192E+03  0.15287241048E+03  0.00000000000E+00 0.  1.
         11    1    1    2    0    0  0.30931749328E+02 -0.70433516502E+02 -0.32241824669E+03  0.33146821742E+03  0.00000000000E+00 0. -1.
</event>
<event>
 7    1  0.4394360E-006  0.1472429E+03  0.7561462E-02  0.1203902E+00
          2   -1    0    0  501    0  0.00000000000E+00  0.00000000000E+00  0.47615026832E+03  0.47615026832E+03  0.00000000000E+00 0.  1.
         -2   -1    0    0    0  501 -0.00000000000E+00 -0.00000000000E+00 -0.61163335510E+02  0.61163335510E+02  0.00000000000E+00 0. -1.
         23    2    1    2    0    0 -0.82514038302E+02  0.10266160409E+03  0.21992543550E+03  0.28524104676E+03  0.12508911266E+03 0.  0.
          5    1    3    3  502    0 -0.54803953519E+02  0.23001922932E+02  0.11940662111E+02  0.60766879067E+02  0.41800000000E+01 0.  1.
         -5    1    3    3    0  502 -0.27710084783E+02  0.79659681159E+02  0.20798477339E+03  0.22447416769E+03  0.41800000000E+01 0.  1.
        -11    1    1    2    0    0 -0.10341576538E+02 -0.32415833106E+02  0.13973130762E+02  0.36782914846E+02  0.00000000000E+00 0.  1.
         11    1    1    2    0    0  0.92855614840E+02 -0.70245770984E+02  0.18108836655E+03  0.21528964222E+03  0.00000000000E+00 0. -1.
</event>
<event>
 7    1  0.4394360E-006  0.2631481E+03  0.7561462E-02  0.1105266E+00
         -2   -1    0    0    0  501 -0.00000000000E+00  0.00000000000E+00  0.13466101428E+03  0.13466101428E+03  0.00000000000E+00 0.  1.
          2   -1    0    0  501    0  0.00000000000E+00 -0.00000000000E+00 -0.54093563870E+03  0.54093563870E+03  0.00000000000E+00 0. -1.
         23    2    1    2    0    0  0.95594204577E+02 -0.22311194296E+03 -0.15232538058E+03  0.31268014735E+03  0.12509461195E+03 0.  0.
          5    1    3    3  502    0  0.11933610439E+03 -0.20394504785E+03 -0.11089166927E+03  0.26105387005E+03  0.41800000000E+01 0. -1.
         -5    1    3    3    0  502 -0.23741899815E+02 -0.19166895106E+02 -0.41433711309E+02  0.51626277298E+02  0.41800000000E+01 0. -1.
        -11    1    1    2    0    0 -0.84891542103E+02  0.83260077857E+02 -0.12147012636E+03  0.16998178162E+03  0.00000000000E+00 0. -1.
         11    1    1    2    0    0 -0.10702662474E+02  0.13985186510E+03 -0.13247911748E+03  0.19293472400E+03  0.00000000000E+00 0.  1.
</event>
<event>
 7    1  0.4394360E-006  0.1052139E+03  0.7561462E-02  0.1269699E+00
          2   -1    0    0  501    0  0.00000000000E+00  0.00000000000E+00  0.63011749318E+02  0.63011749318E+02  0.00000000000E+00 0. -1.
         -2   -1    0    0    0  501 -0.00000000000E+00 -0.00000000000E+00 -0.22592063008E+03  0.22592063008E+03  0.00000000000E+00 0.  1.
         23    2    1    2    0    0  0.29281433445E+02  0.35934548205E+02 -0.10046369233E+03  0.16700017503E+03  0.12508961142E+03 0.  0.
          5    1    3    3  502    0 -0.25856912023E+02 -0.17095106312E+02  0.97597870240E+01  0.32765048481E+02  0.41800000000E+01 0.  1.
         -5    1    3    3    0  502  0.55138345468E+02  0.53029654517E+02 -0.11022347936E+03  0.13423512655E+03  0.41800000000E+01 0.  1.
        -11    1    1    2    0    0 -0.41819053272E+02  0.19183510898E+02 -0.40502035415E+02  0.61296453239E+02  0.00000000000E+00 0.  1.
         11    1    1    2    0    0  0.12537619827E+02 -0.55118059102E+02 -0.21943153012E+02  0.60635751123E+02  0.00000000000E+00 0. -1.
</event>
<event>
 7    1  0.4394360E-006  0.1004244E+03  0.7561462E-02  0.1279406E+00
          1   -1    0    0  501    0  0.00000000000E+00  0.00000000000E+00  0.35026188572E+03  0.35026188572E+03  0.00000000000E+00 0. -1.
         -1   -1    0    0    0  501 -0.00000000000E+00 -0.00000000000E+00 -0.56084512049E+02  0.56084512049E+02  0.00000000000E+00 0.  1.
         23    2    1    2    0    0 -0.55999688943E+02  0.61778148061E+02  0.17124206733E+03  0.22797029485E+03  0.12527611493E+03 0.  0.
          5    1    3    3  502    0 -0.30275909018E+02  0.59106240874E+02  0.13282932930E+02  0.67853423527E+02  0.41800000000E+01 0.  1.
         -5    1    3    3    0  502 -0.25723779926E+02  0.26719071865E+01  0.15795913440E+03  0.16011687132E+03  0.41800000000E+01 0.  1.
        -11    1    1    2    0    0  0.98008572811E+01 -0.61126338105E+02  0.11623001159E+03  0.13168865406E+03  0.00000000000E+00 0. -1.
         11    1    1    2    0    0  0.46198831662E+02 -0.65180995584E+00  0.67052947477E+01  0.46687448858E+02  0.00000000000E+00 0.  1.
</event>
<event>
 7    1  0.4394360E-006  0.1204538E+03  0.7561462E-02  0.1242350E+00
          2   -1    0    0  501    0  0.00000000000E+00  0.00000000000E+00  0.41214249785E+03  0.41214249785E+03  0.00000000000E+00 0. -1.
         -2   -1    0    0    0  501 -0.00000000000E+00 -0.00000000000E+00 -0.44711423345E+02  0.44711423345E+02  0.00000000000E+00 0.  1.
         23    2    1    2    0    0  0.65294177721E+02 -0.10237832714E+01  0.12057448480E+03  0.18560704111E+03  0.12508952613E+03 0.  0.
          5    1    3    3  502    0 -0.90864920794E+01 -0.46953417737E+02  0.19260521786E+02  0.51726471704E+02  0.41800000000E+01 0. -1.
         -5    1    3    3    0  502  0.74380669801E+02  0.45929634465E+02  0.10131396301E+03  0.13388056940E+03  0.41800000000E+01 0. -1.
        -11    1    1    2    0    0 -0.19972767098E+02 -0.39707209326E+02  0.15315847653E+03  0.15947756216E+03  0.00000000000E+00 0. -1.
         11    1    1    2    0    0 -0.45321410623E+02  0.40730992597E+02  0.93698113177E+02  0.11176931794E+03  0.00000000000E+00 0.  1.
</event>
<event>
 7    1  0.4394360E-006  0.1486204E+03  0.7561462E-02  0.1202179E+00
         -1   -1    0    0    0  501 -0.00000000000E+00  0.00000000000E+00  0.24837663033E+02  0.24837663033E+02  0.00000000000E+00 0.  1.
          1   -1    0    0  501    0  0.00000000000E+00 -0.00000000000E+00 -0.99763172314E+03  0.99763172314E+03  0.00000000000E+00 0. -1.
         23    2    1    2    0    0 -0.10848523646E+03 -0.12857667979E+01 -0.39778008691E+03  0.43087022254E+03  0.12509776738E+03 0.  0.
          5    1    3    3  502    0 -0.13479709936E+03 -0.14205919892E+02 -0.33701904682E+03  0.36327864852E+03  0.41800000000E+01 0. -1.
         -5    1    3    3    0  502  0.26311862896E+02  0.12920153094E+02 -0.60761040096E+02  0.67591574021E+02  0.41800000000E+01 0. -1.
        -11    1    1    2    0    0  0.66170677224E+02 -0.36258823040E+02 -0.41683166220E+03  0.42360582549E+03  0.00000000000E+00 0. -1.
         11    1    1    2    0    0  0.42314559237E+02  0.37544589838E+02 -0.15818231099E+03  0.16799333814E+03  0.00000000000E+00 0.  1.
</event>
<event>
 7    1  0.4394360E-006  0.9053128E+02  0.7561462E-02  0.1301570E+00
          2   -1    0    0  501    0  0.00000000000E+00  0.00000000000E+00  0.20108285914E+03  0.20108285914E+03  0.00000000000E+00 0. -1.
         -2   -1    0    0    0  501 -0.00000000000E+00 -0.00000000000E+00 -0.58851437279E+02  0.58851437279E+02  0.00000000000E+00 0.  1.
         23    2    1    2    0    0  0.14307284399E+02  0.80527123814E+01  0.60593181111E+02  0.13996148354E+03  0.12509252062E+03 0.  0.
          5    1    3    3  502    0  0.51986768533E+02 -0.82814469326E+01  0.78789023803E+02  0.94849296980E+02  0.41800000000E+01 0. -1.
         -5    1    3    3    0  502 -0.37679484134E+02  0.16334159314E+02 -0.18195842692E+02  0.45112186561E+02  0.41800000000E+01 0. -1.
        -11    1    1    2    0    0  0.36066149123E+02 -0.74296369993E+00  0.42622480095E+02  0.55839008919E+02  0.00000000000E+00 0. -1.
         11    1    1    2    0    0 -0.50373433522E+02 -0.73097486815E+01  0.39015760652E+02  0.64133803956E+02  0.00000000000E+00 0.  1.
</event>
<event>
 7    1  0.4394360E-006  0.1096745E+03  0.7561462E-02  0.1261174E+00
         -2   -1    0    0    0  501 -0.00000000000E+00  0.00000000000E+00  0.14243082319E+03  0.14243082319E+03  0.00000000000E+00 0.  1.
          2   -1    0    0  501    0  0.00000000000E+00 -0.00000000000E+00 -0.98046639310E+02  0.98046639310E+02  0.00000000000E+00 0. -1.
         23    2    1    2    0    0 -0.10877112287E+02  0.45643149099E+02  0.29421053394E+02  0.13680207978E+03  0.12509037540E+03 0.  0.
          5    1    3    3  502    0 -0.62040150152E+02  0.23381881891E+01 -0.28525624286E+01  0.62290102482E+02  0.41800000000E+01 0.  1.
         -5    1    3    3    0  502  0.51163037865E+02  0.43304960910E+02  0.32273615823E+02  0.74511977300E+02  0.41800000000E+01 0.  1.
        -11    1    1    2    0    0  0.26929524136E+02  0.12468743330E+02 -0.18255139903E+02  0.34841339861E+02  0.00000000000E+00 0. -1.
         11    1    1    2    0    0 -0.16052411849E+02 -0.58111892429E+02  0.33218270385E+02  0.68834042851E+02  0.00000000000E+00 0.  1.
</event>
<event>
 7    1  0.4394360E-006  0.2083618E+03  0.7561462E-02  0.1142870E+00
         -1   -1    0    0    0  501 -0.00000000000E+00  0.00000000000E+00  0.90711702998E+02  0.90711702998E+02  0.00000000000E+00 0.  1.
          1   -1    0    0  501    0  0.00000000000E+00 -0.00000000000E+00 -0.52088695027E+03  0.52088695027E+03  0.00000000000E+00 0. -1.
         23    2    1    2    0    0  0.79080997080E+01  0.18032304020E+03 -0.14936138419E+03  0.26558508429E+03  0.12509067529E+03 0.  0.
          5    1    3    3  502    0  0.58603861782E+02  0.53686852473E+02 -0.32688549946E+02  0.86038970483E+02  0.41800000000E+01 0. -1.
         -5    1    3    3    0  502 -0.50695762074E+02  0.12663618773E+03 -0.11667283424E+03  0.17954611381E+03  0.41800000000E+01 0. -1.
        -11    1    1    2    0    0 -0.47136267032E+02 -0.11748276222E+03 -0.19688762465E+03  0.23406999771E+03  0.00000000000E+00 0.  1.
         11    1    1    2    0    0  0.39228167324E+02 -0.62840277985E+02 -0.83926238431E+02  0.11194357126E+03  0.00000000000E+00 0. -1.
</event>
<event>
 7    1  0.4394360E-006  0.9443295E+02  0.7561462E-02  0.1292458E+00
          1   -1    0    0  501    0  0.00000000000E+00  0.00000000000E+00  0.16235798826E+03  0.16235798826E+03  0.00000000000E+00 0. -1.
         -1   -1    0    0    0  501 -0.00000000000E+00 -0.00000000000E+00 -0.15219488716E+03  0.15219488716E+03  0.00000000000E+00 0.  1.
         23    2    1    2    0    0  0.27266333579E+02  0.70089486528E+02 -0.80088937564E+02  0.16649005260E+03  0.12509480655E+03 0.  0.
          5    1    3    3  502    0 -0.29753996826E+01  0.51628305345E+02  0.23480012382E+02  0.56948382747E+02  0.41800000000E+01 0.  1.
         -5    1    3    3    0  502  0.30241733261E+02  0.18461181183E+02 -0.10356894995E+03  0.10954166985E+03  0.41800000000E+01 0.  1.
        -11    1    1    2    0    0 -0.41394053113E+01 -0.77044910710E+02  0.29354515553E+02  0.82551441696E+02  0.00000000000E+00 0.  1.
         11    1    1    2    0    0 -0.23126928267E+02  0.69554241824E+01  0.60897523109E+02  0.65511381129E+02  0.00000000000E+00 0. -1.
</event>
<event>
 7    1  0.4394360E-006  0.1751012E+03  0.7561462E-02  0.1172630E+00
          2   -1    0    0  501    0  0.00000000000E+00  0.00000000000E+00  0.15437172760E+04  0.15437172760E+04  0.00000000000E+00 0.  1.
         -2   -1    0    0    0  501 -0.00000000000E+00 -0.00000000000E+00 -0.20298960409E+02  0.20298960409E+02  0.00000000000E+00 0. -1.
         23    2    1    2    0    0  0.12816584372E+03 -0.56094353382E+02  0.82326701388E+03  0.84438754906E+03  0.12509475164E+03 0.  0.
          5    1    3    3  502    0  0.11234883103E+02 -0.67764921497E+02  0.25801680956E+03  0.26703642748E+03  0.41800000000E+01 0.  1.
         -5    1    3    3    0  502  0.11693096061E+03  0.11670568115E+02  0.56525020431E+03  0.57735112158E+03  0.41800000000E+01 0.  1.
        -11    1    1    2    0    0 -0.33672268152E+02 -0.22829105749E+02  0.23306060504E+03  0.23658452048E+03  0.00000000000E+00 0.  1.
         11    1    1    2    0    0 -0.94493575564E+02  0.78923459131E+02  0.46709069664E+03  0.48304416683E+03  0.00000000000E+00 0. -1.
</event>
<event>
 7    1  0.4394360E-006  0.1641530E+03  0.7561462E-02  0.1184086E+00
         -2   -1    0    0    0  501 -0.00000000000E+00  0.00000000000E+00  0.54472864758E+02  0.54472864758E+02  0.00000000000E+00 0.  1.
          2   -1    0    0  501    0  0.00000000000E+00 -0.00000000000E+00 -0.82010903964E+03  0.82010903964E+03  0.00000000000E+00 0. -1.
         23    2    1    2    0    0  0.96151818350E+02  0.12188090121E+03 -0.20548271940E+03  0.28630487879E+03  0.12508880603E+03 0.  0.
          5    1    3    3  502    0  0.32531392868E+02  0.77363352791E+02 -0.18896884279E+03  0.20680927402E+03  0.41800000000E+01 0.  1.
         -5    1    3    3    0  502  0.63620425482E+02  0.44517548422E+02 -0.16513876609E+02  0.79495604763E+02  0.41800000000E+01 0.  1.
        -11    1    1    2    0    0 -0.76718843973E+02 -0.48867635165E+02 -0.41256287561E+03  0.42247124532E+03  0.00000000000E+00 0. -1.
         11    1    1    2    0    0 -0.19432974377E+02 -0.73013266049E+02 -0.14759057987E+03  0.16580578030E+03  0.00000000000E+00 0.  1.
</event>
<event>
 7    1  0.4394360E-006  0.6956679E+02  0.7561462E-02  0.1361572E+00
         -2   -1    0    0    0  501 -0.00000000000E+00  0.00000000000E+00  0.22996963168E+03  0.22996963168E+03  0.00000000000E+00 0.  1.
          2   -1    0    0  501    0  0.00000000000E+00 -0.00000000000E+00 -0.81722348161E+02  0.81722348161E+02  0.00000000000E+00 0. -1.
         23    2    1    2    0    0 -0.14164909585E+02  0.17984374259E+01  0.19301738477E+03  0.23045017453E+03  0.12509073937E+03 0.  0.
          5    1    3    3  502    0  0.27671284654E+02 -0.10150906558E+02 -0.27185845282E+01  0.29893209934E+02  0.41800000000E+01 0. -1.
         -5    1    3    3    0  502 -0.41836194239E+02  0.11949343984E+02  0.19573596930E+03  0.20055696460E+03  0.41800000000E+01 0. -1.
        -11    1    1    2    0    0  0.38121817601E+02  0.93183149709E+01 -0.16550642330E+02  0.42591404445E+02  0.00000000000E+00 0.  1.
         11    1    1    2    0    0 -0.23956908016E+02 -0.11116752397E+02 -0.28219458920E+02  0.38650400868E+02  0.00000000000E+00 0. -1.
</event>
<event>
 7    1  0.4394360E-006  0.1187707E+03  0.7561462E-02  0.1245139E+00
         -2   -1    0    0    0  501 -0.00000000000E+00  0.00000000000E+00  0.25080199956E+02  0.25080199956E+02  0.00000000000E+00 0.  1.
          2   -1    0    0  501    0  0.00000000000E+00 -0.00000000000E+00 -0.75877885498E+03  0.75877885498E+03  0.00000000000E+00 0. -1.
         23    2    1    2    0    0  0.48750625737E+02  0.39992296456E+02 -0.23980525698E+03  0.27773097346E+03  0.12510765388E+03 0.  0.
          5    1    3    3  502    0  0.36189276797E+02 -0.35687889223E+02 -0.15559456031E+03  0.16373890433E+03  0.41800000000E+01 0.  1.
         -5    1    3    3    0  502  0.12561348940E+02  0.75680185680E+02 -0.84210696670E+02  0.11399206913E+03  0.41800000000E+01 0.  1.
        -11    1    1    2    0    0 -0.22655617921E+02  0.28506810628E+02 -0.13493303591E+03  0.13975993508E+03  0.00000000000E+00 0.  1.
         11    1    1    2    0    0 -0.26095007816E+02 -0.68499107084E+02 -0.35896036213E+03  0.36636814639E+03  0.00000000000E+00 0. -1.
</event>
<event>
 7    1  0.4394360E-006  0.1243175E+03  0.7561462E-02  0.1236140E+00
         -1   -1    0    0    0  501 -0.00000000000E+00  0.00000000000E+00  0.69113987671E+03  0.69113987671E+03  0.00000000000E+00 0.  1.
          1   -1    0    0  501    0  0.00000000000E+00 -0.00000000000E+00 -0.33780772508E+02  0.33780772508E+02  0.00000000000E+00 0. -1.
         23    2    1    2    0    0 -0.99868909665E+02  0.21569657459E+02  0.43249555872E+03  0.46167045315E+03  0.12509256478E+03 0.  0.
          5    1    3    3  502    0 -0.60214698111E+02 -0.20402773312E+02  0.37393351406E+03  0.37932285505E+03  0.41800000000E+01 0.  1.
         -5    1    3    3    0  502 -0.39654211554E+02  0.41972430772E+02  0.58562044661E+02  0.82347598105E+02  0.41800000000E+01 0.  1.
        -11    1    1    2    0    0  0.56923584247E+02  0.26309912946E+02  0.16024477594E+03  0.17207816299E+03  0.00000000000E+00 0.  1.
         11    1    1    2    0    0  0.42945325418E+02 -0.47879570405E+02  0.64618769548E+02  0.91172033076E+02  0.00000000000E+00 0. -1.
</event>
<event>
 7    1  0.4394360E-006  0.1310871E+03  0.7561462E-02  0.1225851E+00
          1   -1    0    0  501    0  0.00000000000E+00  0.00000000000E+00  0.79163910400E+03  0.79163910400E+03  0.00000000000E+00 0. -1.
         -1   -1    0    0    0  501 -0.00000000000E+00 -0.00000000000E+00 -0.29666450248E+02  0.29666450248E+02  0.00000000000E+00 0.  1.
         23    2    1    2    0    0  0.10089153490E+03 -0.11865437363E+02  0.30824983461E+03  0.34782926965E+03  0.12508936755E+03 0.  0.
          5    1    3    3  502    0  0.86761052643E+02 -0.62739121481E+02  0.18714317731E+03  0.21564720919E+03  0.41800000000E+01 0.  1.
         -5    1    3    3    0  502  0.14130482252E+02  0.50873684119E+02  0.12110665731E+03  0.13218206046E+03  0.41800000000E+01 0.  1.
        -11    1    1    2    0    0 -0.21854368039E+02 -0.14754655862E+01  0.12889697030E+02  0.25415245240E+02  0.00000000000E+00 0.  1.
         11    1    1    2    0    0 -0.79037166856E+02  0.13340902949E+02  0.44083312211E+03  0.44806103935E+03  0.00000000000E+00 0. -1.
</event>
<event>
 7    1  0.4394360E-006  0.1023049E+03  0.7561462E-02  0.1275522E+00
         -2   -1    0    0    0  501 -0.00000000000E+00  0.00000000000E+00  0.19387057817E+02  0.19387057817E+02  0.00000000000E+00 0.  1.
          2   -1    0    0  501    0  0.00000000000E+00 -0.00000000000E+00 -0.77885202663E+03  0.77885202663E+03  0.00000000000E+00 0. -1.
         23    2    1    2    0    0 -0.41522161705E+02  0.33921028323E+02 -0.43938694175E+03  0.45998341874E+03  0.12509650221E+03 0.  0.
          5    1    3    3  502    0 -0.15554444377E+02  0.65714791556E+02 -0.11850924026E+03  0.13646350060E+03  0.41800000000E+01 0.  1.
         -5    1    3    3    0  502 -0.25967717328E+02 -0.31793763234E+02 -0.32087770148E+03  0.32351991814E+03  0.41800000000E+01 0.  1.
        -11    1    1    2    0    0 -0.11198539778E+02 -0.40992053367E+02 -0.22792463351E+03  0.23185209573E+03  0.00000000000E+00 0. -1.
         11    1    1    2    0    0  0.52720701483E+02  0.70710250438E+01 -0.92153393553E+02  0.10640356997E+03  0.00000000000E+00 0.  1.
</event>
<event>
 7    1  0.4394360E-006  0.1277521E+03  0.7561462E-02  0.1230830E+00
          1   -1    0    0  501    0  0.00000000000E+00  0.00000000000E+00  0.11693119721E+03  0.11693119721E+03  0.00000000000E+00 0. -1.
         -1   -1    0    0    0  501 -0.00000000000E+00 -0.00000000000E+00 -0.20665526633E+03  0.20665526633E+03  0.00000000000E+00 0.  1.
         23    2    1    2    0    0 -0.10415882346E+03  0.45039337979E+01 -0.90056928304E+02  0.18608034122E+03  0.12508515950E+03 0.  0.
          5    1    3    3  502    0 -0.60604316569E+02  0.29603749980E+02 -0.11220966631E+03  0.13098758267E+03  0.41800000000E+01 0. -1.
         -5    1    3    3    0  502 -0.43554506895E+02 -0.25099816182E+02  0.22152738010E+02  0.55092758550E+02  0.41800000000E+01 0. -1.
        -11    1    1    2    0    0  0.42534019960E+02  0.42386402213E+02  0.13629247944E+01  0.60063362465E+02  0.00000000000E+00 0. -1.
         11    1    1    2    0    0  0.61624803504E+02 -0.46890336011E+02 -0.10300656140E+01  0.77442759851E+02  0.00000000000E+00 0.  1.
</event>
<event>
 7    1  0.4394360E-006  0.2041320E+03  0.7561462E-02  0.1146299E+00
          4   -1    0    0  501    0  0.00000000000E+00  0.00000000000E+00  0.85606151335E+03  0.85606151335E+03  0.00000000000E+00 0. -1.
         -4   -1    0    0    0  501 -0.00000000000E+00 -0.00000000000E+00 -0.59667244399E+02  0.59667244399E+02  0.00000000000E+00 0.  1.
         23    2    1    2    0    0 -0.19530199252E+03  0.21690307754E+02  0.30707534262E+03  0.38543195987E+03  0.12509673023E+03 0.  0.
          5    1    3    3  502    0 -0.13561014001E+03 -0.10974981211E+02  0.10424099434E+03  0.17144741931E+03  0.41800000000E+01 0. -1.
         -5    1    3    3    0  502 -0.59691852507E+02  0.32665288964E+02  0.20283434828E+03  0.21398454056E+03  0.41800000000E+01 0. -1.
        -11    1    1    2    0    0  0.15459829784E+03  0.60478041059E+01  0.35584915535E+03  0.38802813170E+03  0.00000000000E+00 0. -1.
         11    1    1    2    0    0  0.40703694679E+02 -0.27738111859E+02  0.13346977099E+03  0.14226866618E+03  0.00000000000E+00 0.  1.
</event>
<event>
 7    1  0.4394360E-006  0.1920997E+03  0.7561462E-02  0.1156581E+00
         -1   -1    0    0    0  501 -0.00000000000E+00  0.00000000000E+00  0.51307922299E+02  0.51307922299E+02  0.00000000000E+00 0.  1.
          1   -1    0    0  501    0  0.00000000000E+00 -0.00000000000E+00 -0.89741030322E+03  0.89741030322E+03  0.00000000000E+00 0. -1.
         23    2    1    2    0    0 -0.11314514524E+03  0.10736414978E+03 -0.31690648626E+03  0.37470828904E+03  0.12509075223E+03 0.  0.
          5    1    3    3  502    0 -0.10240795600E+02  0.94614255990E+02 -0.13392115658E+03  0.16434439422E+03  0.41800000000E+01 0.  1.
         -5    1    3    3    0  502 -0.10290434964E+03  0.12749893787E+02 -0.18298532968E+03  0.21036389482E+03  0.41800000000E+01 0.  1.
        -11    1    1    2    0    0  0.10465206347E+03 -0.32158497690E+02 -0.45513754930E+03  0.46812008304E+03  0.00000000000E+00 0. -1.
         11    1    1    2    0    0  0.84930817717E+01 -0.75205652086E+02 -0.74058345359E+02  0.10588985344E+03  0.00000000000E+00 0.  1.
</event>
<event>
 7    1  0.4394360E-006  0.1968491E+03  0.7561462E-02  0.1152425E+00
          4   -1    0    0  501    0  0.00000000000E+00  0.00000000000E+00  0.26740464381E+03  0.26740464381E+03  0.00000000000E+00 0. -1.
         -4   -1    0    0    0  501 -0.00000000000E+00 -0.00000000000E+00 -0.18211499777E+03  0.18211499777E+03  0.00000000000E+00 0.  1.
         23    2    1    2    0    0  0.11947752222E+03 -0.12915655065E+03 -0.43361928549E+02  0.21249014274E+03  0.11097527212E+03 0.  0.
          5    1    3    3  502    0 -0.43130892267E+01 -0.63762727945E+02  0.51771663373E+01  0.64253899998E+02  0.41800000000E+01 0. -1.
         -5    1    3    3    0  502  0.12379061144E+03 -0.65393822707E+02 -0.48539094886E+02  0.14823624274E+03  0.41800000000E+01 0.  1.
        -11    1    1    2    0    0 -0.50333196373E+02  0.10483524903E+03  0.42257807164E+02  0.12373189711E+03  0.00000000000E+00 0.  1.
         11    1    1    2    0    0 -0.69144325845E+02  0.24321301622E+02  0.86393767425E+02  0.11329760174E+03  0.00000000000E+00 0. -1.
</event>
<event>
 6    1  0.4394360E-006  0.2749978E+03  0.7561462E-02  0.1098453E+00
          2   -1    0    0  501    0  0.00000000000E+00  0.00000000000E+00  0.33075128696E+03  0.33075128696E+03  0.00000000000E+00 0. -1.
         -2   -1    0    0    0  501 -0.00000000000E+00 -0.00000000000E+00 -0.55731205755E+03  0.55731205755E+03  0.00000000000E+00 0.  1.
          5    1    1    2  502    0 -0.88710660713E+02 -0.41783545306E+02 -0.75310479822E+02  0.12371170823E+03  0.41800000000E+01 0. -1.
         -5    1    1    2    0  502 -0.18687876945E+02 -0.18563771745E+03 -0.37293216428E+03  0.41702094724E+03  0.41800000000E+01 0.  1.
        -11    1    1    2    0    0 -0.14411831899E+02  0.19458463013E+02  0.87985992937E+01  0.25763307843E+02  0.00000000000E+00 0.  1.
         11    1    1    2    0    0  0.12181036956E+03  0.20796279974E+03  0.21288327421E+03  0.32156738119E+03  0.00000000000E+00 0. -1.
</event>
<event>
 7    1  0.4394360E-006  0.1395116E+03  0.7561462E-02  0.1213988E+00
         -1   -1    0    0    0  501 -0.00000000000E+00  0.00000000000E+00  0.12446948261E+03  0.12446948261E+03  0.00000000000E+00 0.  1.
          1   -1    0    0  501    0  0.00000000000E+00 -0.00000000000E+00 -0.16972801032E+03  0.16972801032E+03  0.00000000000E+00 0. -1.
         23    2    1    2    0    0  0.95908790048E+02  0.32728323392E+02 -0.41634859794E+02  0.16411961058E+03  0.12219715982E+03 0.  0.
          5    1    3    3  502    0  0.12526842724E+02  0.60769159253E+02 -0.43731855284E+02  0.76024733288E+02  0.41800000000E+01 0. -1.
         -5    1    3    3    0  502  0.83381947325E+02 -0.28040835861E+02  0.20969954896E+01  0.88094877294E+02  0.41800000000E+01 0.  1.
        -11    1    1    2    0    0 -0.61472591090E+01 -0.38339444241E+02 -0.94170005408E+01  0.39954745381E+02  0.00000000000E+00 0.  1.
         11    1    1    2    0    0 -0.89761530939E+02  0.56111208491E+01  0.57933326201E+01  0.90123136966E+02  0.00000000000E+00 0. -1.
</event>
<event>
 7    1  0.4394360E-006  0.1178359E+03  0.7561462E-02  0.1246710E+00
          1   -1    0    0  501    0  0.00000000000E+00  0.00000000000E+00  0.29138937107E+03  0.29138937107E+03  0.00000000000E+00 0. -1.
         -1   -1    0    0    0  501 -0.00000000000E+00 -0.00000000000E+00 -0.11530321022E+03  0.11530321022E+03  0.00000000000E+00 0.  1.
         23    2    1    2    0    0  0.60064046838E+02 -0.24421091955E+02 -0.55186396948E+02  0.14979672375E+03  0.12324544853E+03 0.  0.
          5    1    3    3  502    0  0.85333297306E+01  0.40124354902E+02  0.12329622909E+02  0.43038047977E+02  0.41800000000E+01 0. -1.
         -5    1    3    3    0  502  0.51530717108E+02 -0.64545446858E+02 -0.67516019857E+02  0.10675867577E+03  0.41800000000E+01 0.  1.
        -11    1    1    2    0    0 -0.38322393292E+02 -0.32853332247E+02  0.99038357954E+02  0.11115999107E+03  0.00000000000E+00 0.  1.
         11    1    1    2    0    0 -0.21741653546E+02  0.57274424203E+02  0.13223419985E+03  0.14573586647E+03  0.00000000000E+00 0. -1.
</event>
<event>
 7    1  0.4394360E-006  0.1095366E+03  0.7561462E-02  0.1261430E+00
          2   -1    0    0  501    0  0.00000000000E+00  0.00000000000E+00  0.16572576004E+03  0.16572576004E+03  0.00000000000E+00 0. -1.
         -2   -1    0    0    0  501 -0.00000000000E+00 -0.00000000000E+00 -0.95894281289E+02  0.95894281289E+02  0.00000000000E+00 0.  1.
         23    2    1    2    0    0 -0.50131495671E+02  0.22345513471E+02  0.35561189322E+01  0.13664529940E+03  0.12508718174E+03 0.  0.
          5    1    3    3  502    0 -0.65545020995E+02  0.64010197423E+02  0.64003656624E+01  0.91934173364E+02  0.41800000000E+01 0. -1.
         -5    1    3    3    0  502  0.15413525324E+02 -0.41664683952E+02 -0.28442467302E+01  0.44711126034E+02  0.41800000000E+01 0. -1.
        -11    1    1    2    0    0 -0.59680215214E+01 -0.25852629352E+02  0.63358927420E+02  0.68690096878E+02  0.00000000000E+00 0. -1.
         11    1    1    2    0    0  0.56099517192E+02  0.35071158806E+01  0.29164323996E+01  0.56284645055E+02  0.00000000000E+00 0.  1.
</event>
<event>
 7    1  0.4394360E-006  0.1229938E+03  0.7561462E-02  0.1238238E+00
         -2   -1    0    0    0  501 -0.00000000000E+00  0.00000000000E+00  0.89940693274E+02  0.89940693274E+02  0.00000000000E+00 0.  1.
          2   -1    0    0  501    0  0.00000000000E+00 -0.00000000000E+00 -0.27127791404E+03  0.27127791404E+03  0.00000000000E+00 0. -1.
         23    2    1    2    0    0  0.24141097013E+02 -0.10669746820E+03 -0.67631789684E+02  0.17940585288E+03  0.12508100889E+03 0.  0.
          5    1    3    3  502    0  0.80509470373E+01  0.11589003959E+02 -0.57697029070E+02  0.59544456707E+02  0.41800000000E+01 0. -1.
         -5    1    3    3    0  502  0.16090149976E+02 -0.11828647216E+03 -0.99347606140E+01  0.11986139617E+03  0.41800000000E+01 0. -1.
        -11    1    1    2    0    0  0.16713816576E+01  0.43820640213E+02 -0.10436656277E+03  0.11320521830E+03  0.00000000000E+00 0. -1.
         11    1    1    2    0    0 -0.25812478671E+02  0.62876827990E+02 -0.93388683050E+01  0.68607536134E+02  0.00000000000E+00 0.  1.
</event>
<event>
 7    1  0.4394360E-006  0.1126982E+03  0.7561462E-02  0.1255653E+00
          1   -1    0    0  501    0  0.00000000000E+00  0.00000000000E+00  0.25474907725E+03  0.25474907725E+03  0.00000000000E+00 0. -1.
         -1   -1    0    0    0  501 -0.00000000000E+00 -0.00000000000E+00 -0.79114822712E+02  0.79114822712E+02  0.00000000000E+00 0.  1.
         23    2    1    2    0    0 -0.73954543082E+02  0.43907898606E+02  0.57481068349E+02  0.16232478787E+03  0.12509230806E+03 0.  0.
          5    1    3    3  502    0 -0.86294377390E+02  0.30338847918E+02  0.87659948310E+02  0.12676318156E+03  0.41800000000E+01 0. -1.
         -5    1    3    3    0  502  0.12339834308E+02  0.13569050688E+02 -0.30178879960E+02  0.35561606305E+02  0.41800000000E+01 0. -1.
        -11    1    1    2    0    0  0.84815532097E+02 -0.53706615077E+02  0.73136890041E+02  0.12420579565E+03  0.00000000000E+00 0.  1.
         11    1    1    2    0    0 -0.10860989015E+02  0.97987164715E+01  0.45016296148E+02  0.47333316446E+02  0.00000000000E+00 0. -1.
</event>
<event>
 7    1  0.4394360E-006  0.1665734E+03  0.7561462E-02  0.1181469E+00
          2   -1    0    0  501    0  0.00000000000E+00  0.00000000000E+00  0.12716974983E+03  0.12716974983E+03  0.00000000000E+00 0. -1.
         -2   -1    0    0    0  501 -0.00000000000E+00 -0.00000000000E+00 -0.31343636207E+03  0.31343636207E+03  0.00000000000E+00 0.  1.
         23    2    1    2    0    0 -0.13613161289E+03  0.65174254568E+02 -0.17404214703E+03  0.26214586510E+03  0.12510110375E+03 0.  0.
          5    1    3    3  502    0 -0.12674403611E+03  0.28863344938E+02 -0.62308345984E+02  0.14421146193E+03  0.41800000000E+01 0.  1.
         -5    1    3    3    0  502 -0.93875767736E+01  0.36310909630E+02 -0.11173380105E+03  0.11793440318E+03  0.41800000000E+01 0.  1.
        -11    1    1    2    0    0  0.11315384793E+03 -0.20330632088E+02  0.22656807763E+02  0.11717704059E+03  0.00000000000E+00 0.  1.
         11    1    1    2    0    0  0.22977764958E+02 -0.44843622480E+02 -0.34881272968E+02  0.61283206211E+02  0.00000000000E+00 0. -1.
</event>
<event>
 7    1  0.4394360E-006  0.8017987E+02  0.7561462E-02  0.1328542E+00
         -1   -1    0    0    0  501 -0.00000000000E+00  0.00000000000E+00  0.40903291332E+03  0.40903291332E+03  0.00000000000E+00 0.  1.
          1   -1    0    0  501    0  0.00000000000E+00 -0.00000000000E+00 -0.33752786637E+02  0.33752786637E+02  0.00000000000E+00 0. -1.
         23    2    1    2    0    0  0.16234147876E+02 -0.19131469105E+02  0.30447759721E+03  0.33012643826E+03  0.12508915769E+03 0.  0.
          5    1    3    3  502    0  0.76951239459E+01  0.32794187929E+02  0.25667681708E+03  0.25891144147E+03  0.41800000000E+01 0. -1.
         -5    1    3    3    0  502  0.85390239305E+01 -0.51925657034E+02  0.47800780123E+02  0.71214996795E+02  0.41800000000E+01 0. -1.
        -11    1    1    2    0    0 -0.42127651553E+02  0.22086091557E+02  0.13088786274E+02  0.49334073334E+02  0.00000000000E+00 0. -1.
         11    1    1    2    0    0  0.25893503676E+02 -0.29546224527E+01  0.57713743197E+02  0.63325188356E+02  0.00000000000E+00 0.  1.
</event>
<event>
 7    1  0.4394360E-006  0.1011692E+03  0.7561462E-02  0.1277856E+00
          2   -1    0    0  501    0  0.00000000000E+00  0.00000000000E+00  0.35650521489E+03  0.35650521489E+03  0.00000000000E+00 0. -1.
         -2   -1    0    0    0  501 -0.00000000000E+00 -0.00000000000E+00 -0.46398012117E+02  0.46398012117E+02  0.00000000000E+00 0.  1.
         23    2    1    2    0    0  0.16147885307E+02 -0.58643928971E+02  0.12913982967E+03  0.18980350400E+03  0.12509360463E+03 0.  0.
          5    1    3    3  502    0 -0.24020199006E+02 -0.86087182256E+02  0.73622598435E+02  0.11586946237E+03  0.41800000000E+01 0. -1.
         -5    1    3    3    0  502  0.40168084313E+02  0.27443253285E+02  0.55517231238E+02  0.73934041635E+02  0.41800000000E+01 0. -1.
        -11    1    1    2    0    0 -0.10723146271E+02  0.87217647881E+01 -0.90748046827E+01  0.16535027276E+02  0.00000000000E+00 0.  1.
         11    1    1    2    0    0 -0.54247390357E+01  0.49922164183E+02  0.19004217779E+03  0.19656469573E+03  0.00000000000E+00 0. -1.
</event>
<event>
 6    1  0.4394360E-006  0.1498162E+03  0.7561462E-02  0.1200699E+00
          2   -1    0    0  501    0  0.00000000000E+00  0.00000000000E+00  0.37592665742E+03  0.37592665742E+03  0.00000000000E+00 0. -1.
         -2   -1    0    0    0  501 -0.00000000000E+00 -0.00000000000E+00 -0.89862449338E+02  0.89862449338E+02  0.00000000000E+00 0.  1.
          5    1    1    2  502    0  0.81792951756E+02 -0.47599148844E+02  0.17471326598E+03  0.19874094605E+03  0.41800000000E+01 0. -1.
         -5    1    1    2    0  502 -0.35477191320E+02  0.87172438175E+02 -0.18444245401E+02  0.95996498216E+02  0.41800000000E+01 0.  1.
        -11    1    1    2    0    0  0.28083502397E+02 -0.44865776188E+01  0.42196276785E+02  0.50885540777E+02  0.00000000000E+00 0.  1.
         11    1    1    2    0    0 -0.74399262833E+02 -0.35086711711E+02  0.87598910710E+02  0.12016612171E+03  0.00000000000E+00 0. -1.
</event>
<event>
 7    1  0.4394360E-006  0.1099385E+03  0.7561462E-02  0.1260684E+00
         -1   -1    0    0    0  501 -0.00000000000E+00  0.00000000000E+00  0.36744560066E+03  0.36744560066E+03  0.00000000000E+00 0.  1.
          1   -1    0    0  501    0  0.00000000000E+00 -0.00000000000E+00 -0.67902987653E+02  0.67902987653E+02  0.00000000000E+00 0. -1.
         23    2    1    2    0    0  0.20270896377E+02  0.27145501213E+02  0.31241104958E+03  0.33748338826E+03  0.12307146697E+03 0.  0.
          5    1    3    3  502    0 -0.15453851270E+02  0.67892256366E+02  0.13533294598E+03  0.15225195782E+03  0.41800000000E+01 0. -1.
         -5    1    3    3    0  502  0.35724747647E+02 -0.40746755154E+02  0.17707810360E+03  0.18523143044E+03  0.41800000000E+01 0.  1.
        -11    1    1    2    0    0  0.35112146586E+02 -0.26455044818E+01  0.27639942641E+01  0.35319982957E+02  0.00000000000E+00 0.  1.
         11    1    1    2    0    0 -0.55383042962E+02 -0.24499996731E+02 -0.15632430831E+02  0.62545217093E+02  0.00000000000E+00 0. -1.
</event>
<event>
 6    1  0.4394360E-006  0.1375165E+03  0.7561462E-02  0.1216710E+00
         -1   -1    0    0    0  501 -0.00000000000E+00  0.00000000000E+00  0.44953634439E+02  0.44953634439E+02  0.00000000000E+00 0.  1.
          1   -1    0    0  501    0  0.00000000000E+00 -0.00000000000E+00 -0.53663842541E+03  0.53663842541E+03  0.00000000000E+00 0. -1.
          5    1    1    2  502    0 -0.26082090858E+02 -0.51114222033E+02 -0.10770497045E+03  0.12210967290E+03  0.41800000000E+01 0. -1.
         -5    1    1    2    0  502 -0.18946343743E+01  0.11545524697E+03 -0.98503460595E+02  0.15183513375E+03  0.41800000000E+01 0.  1.
        -11    1    1    2    0    0  0.18322964992E+02  0.13973393491E+02 -0.19416129562E+02  0.30132587989E+02  0.00000000000E+00 0.  1.
         11    1    1    2    0    0  0.96537602400E+01 -0.78314418428E+02 -0.26606023037E+03  0.27751466521E+03  0.00000000000E+00 0. -1.
</event>
<event>
 7    1  0.4394360E-006  0.1079294E+03  0.7561462E-02  0.1264453E+00
         -2   -1    0    0    0  501 -0.00000000000E+00  0.00000000000E+00  0.16631365666E+03  0.16631365666E+03  0.00000000000E+00 0.  1.
          2   -1    0    0  501    0  0.00000000000E+00 -0.00000000000E+00 -0.78462395179E+02  0.78462395179E+02  0.00000000000E+00 0. -1.
         23    2    1    2    0    0  0.27012665786E+02  0.18799667893E+02  0.37901207650E+02  0.13479445267E+03  0.12509968546E+03 0.  0.
          5    1    3    3  502    0  0.57793872914E+02 -0.32081255108E+02  0.43221826150E+01  0.66373882953E+02  0.41800000000E+01 0. -1.
         -5    1    3    3    0  502 -0.30781207128E+02  0.50880923001E+02  0.33579025035E+02  0.68420569714E+02  0.41800000000E+01 0. -1.
        -11    1    1    2    0    0  0.29696146726E+02  0.16160606099E+01 -0.28195009521E+01  0.29873439171E+02  0.00000000000E+00 0. -1.
         11    1    1    2    0    0 -0.56708812512E+02 -0.20415728503E+02  0.52769554782E+02  0.80108160001E+02  0.00000000000E+00 0.  1.
</event>
<event>
 7    1  0.4394360E-006  0.1120124E+03  0.7561462E-02  0.1256888E+00
         -2   -1    0    0    0  501 -0.00000000000E+00  0.00000000000E+00  0.63255016540E+03  0.63255016540E+03  0.00000000000E+00 0.  1.
          2   -1    0    0  501    0  0.00000000000E+00 -0.00000000000E+00 -0.35629443738E+02  0.35629443738E+02  0.00000000000E+00 0. -1.
         23    2    1    2    0    0 -0.95094940458E+02 -0.22242641644E+02  0.40445268721E+03  0.43447448993E+03  0.12509325882E+03 0.  0.
          5    1    3    3  502    0 -0.36095159158E+02  0.18903641740E+02  0.32357483089E+03  0.32615694347E+03  0.41800000000E+01 0.  1.
         -5    1    3    3    0  502 -0.58999781300E+02 -0.41146283384E+02  0.80877856320E+02  0.10831754647E+03  0.41800000000E+01 0.  1.
        -11    1    1    2    0    0  0.14268036906E+02 -0.16134572050E+02  0.10977966686E+03  0.11187259069E+03  0.00000000000E+00 0.  1.
         11    1    1    2    0    0  0.80826903552E+02  0.38377213694E+02  0.82688367593E+02  0.12183252851E+03  0.00000000000E+00 0. -1.
</event>
<event>
 7    1  0.4394360E-006  0.1174892E+03  0.7561462E-02  0.1247297E+00
          1   -1    0    0  501    0  0.00000000000E+00  0.00000000000E+00  0.47263478628E+03  0.47263478628E+03  0.00000000000E+00 0. -1.
         -1   -1    0    0    0  501 -0.00000000000E+00 -0.00000000000E+00 -0.45904905755E+02  0.45904905755E+02  0.00000000000E+00 0.  1.
         23    2    1    2    0    0 -0.79847409143E+02  0.59764031200E+02  0.24847830647E+03  0.29552675076E+03  0.12508894217E+03 0.  0.
          5    1    3    3  502    0 -0.44816126625E+02  0.25109468625E+02  0.10673425117E+02  0.52634257134E+02  0.41800000000E+01 0.  1.
         -5    1    3    3    0  502 -0.35031282518E+02  0.34654562575E+02  0.23780488136E+03  0.24289249362E+03  0.41800000000E+01 0.  1.
        -11    1    1    2    0    0 -0.15358373723E+02  0.78152527116E+01  0.24652843995E+02  0.30078572696E+02  0.00000000000E+00 0. -1.
         11    1    1    2    0    0  0.95205782866E+02 -0.67579283911E+02  0.15359873006E+03  0.19293436859E+03  0.00000000000E+00 0.  1.
</event>
<event>
 7    1  0.4394360E-006  0.1110087E+03  0.7561462E-02  0.1258713E+00
          1   -1    0    0  501    0  0.00000000000E+00  0.00000000000E+00  0.82981861420E+02  0.82981861420E+02  0.00000000000E+00 0. -1.
         -1   -1    0    0    0  501 -0.00000000000E+00 -0.00000000000E+00 -0.17274094765E+03  0.17274094765E+03  0.00000000000E+00 0.  1.
         23    2    1    2    0    0  0.31706434403E+02  0.83214744712E+01 -0.96004950447E+02  0.16105561973E+03  0.12508963673E+03 0.  0.
          5    1    3    3  502    0 -0.47459421606E+02  0.80483254390E+01 -0.49367976704E+02  0.69078518842E+02  0.41800000000E+01 0. -1.
         -5    1    3    3    0  502  0.79165856009E+02  0.27314903223E+00 -0.46636973743E+02  0.91977100889E+02  0.41800000000E+01 0. -1.
        -11    1    1    2    0    0 -0.62548992497E+02 -0.10824328184E+02  0.29327990527E+01  0.63546391348E+02  0.00000000000E+00 0.  1.
         11    1    1    2    0    0  0.30842558094E+02  0.25028537130E+01  0.33130651679E+01  0.31120797987E+02  0.00000000000E+00 0. -1.
</event>
<event>
 7    1  0.4394360E-006  0.1142345E+03  0.7561462E-02  0.1252923E+00
          2   -1    0    0  501    0  0.00000000000E+00  0.00000000000E+00  0.28534451926E+03  0.28534451926E+03  0.00000000000E+00 0. -1.
         -2   -1    0    0    0  501 -0.00000000000E+00 -0.00000000000E+00 -0.52976901589E+02  0.52976901589E+02  0.00000000000E+00 0.  1.
         23    2    1    2    0    0  0.69751933135E+00  0.39830268756E+02  0.72006140518E+02  0.14972912926E+03  0.12508793321E+03 0.  0.
          5    1    3    3  502    0  0.50116363146E+02  0.59259046651E+02  0.37803899978E+02  0.86428535326E+02  0.41800000000E+01 0. -1.
         -5    1    3    3    0  502 -0.49418843815E+02 -0.19428777895E+02  0.34202240540E+02  0.63300593934E+02  0.41800000000E+01 0. -1.
        -11    1    1    2    0    0 -0.22620332001E+02  0.22198191391E+02  0.36469611382E+02  0.48316370675E+02  0.00000000000E+00 0. -1.
         11    1    1    2    0    0  0.21922812670E+02 -0.62028460147E+02  0.12389186577E+03  0.14027592091E+03  0.00000000000E+00 0.  1.
</event>
<event>
 7    1  0.4394360E-006  0.1233594E+03  0.7561462E-02  0.1237656E+00
         -2   -1    0    0    0  501 -0.00000000000E+00  0.00000000000E+00  0.70618869684E+02  0.70618869684E+02  0.00000000000E+00 0.  1.
          2   -1    0    0  501    0  0.00000000000E+00 -0.00000000000E+00 -0.63247553965E+03  0.63247553965E+03  0.00000000000E+00 0. -1.
         23    2    1    2    0    0  0.10524508953E+03 -0.24219386553E+02 -0.51909458059E+02  0.17323747246E+03  0.12511403788E+03 0.  0.
          5    1    3    3  502    0  0.10216576499E+03  0.79054646617E+01  0.10257880334E+02  0.10306811542E+03  0.41800000000E+01 0.  1.
         -5    1    3    3    0  502  0.30793245398E+01 -0.32124851215E+02 -0.62167338393E+02  0.70169357045E+02  0.41800000000E+01 0.  1.
        -11    1    1    2    0    0 -0.94462567831E+01  0.11653519150E+02 -0.50958429605E+01  0.15843102325E+02  0.00000000000E+00 0.  1.
         11    1    1    2    0    0 -0.95798832743E+02  0.12565867403E+02 -0.50485136895E+03  0.51401383455E+03  0.00000000000E+00 0. -1.
</event>
<event>
 7    1  0.4394360E-006  0.7496876E+02  0.7561462E-02  0.1343968E+00
         -1   -1    0    0    0  501 -0.00000000000E+00  0.00000000000E+00  0.78631500119E+02  0.78631500119E+02  0.00000000000E+00 0.  1.
          1   -1    0    0  501    0  0.00000000000E+00 -0.00000000000E+00 -0.16591520710E+03  0.16591520710E+03  0.00000000000E+00 0. -1.
         23    2    1    2    0    0 -0.21366053909E+02 -0.47642420808E+01 -0.66391989422E+02  0.14540131804E+03  0.12749290477E+03 0.  0.
          5    1    3    3  502    0  0.35300873824E+02 -0.29290459795E+01 -0.79433591164E+02  0.87074099526E+02  0.41800000000E+01 0. -1.
         -5    1    3    3    0  502 -0.56666927733E+02 -0.18351961013E+01  0.13041601741E+02  0.58327218513E+02  0.41800000000E+01 0.  1.
        -11    1    1    2    0    0  0.10792368486E+02  0.29018363324E+02  0.29160012952E+02  0.42530541766E+02  0.00000000000E+00 0.  1.
         11    1    1    2    0    0  0.10573685423E+02 -0.24254121244E+02 -0.50051730512E+02  0.56614847416E+02  0.00000000000E+00 0. -1.
</event>
<event>
 7    1  0.4394360E-006  0.1346577E+03  0.7561462E-02  0.1220704E+00
          2   -1    0    0  501    0  0.00000000000E+00  0.00000000000E+00  0.18088397540E+04  0.18088397540E+04  0.00000000000E+00 0. -1.
         -2   -1    0    0    0  501 -0.00000000000E+00 -0.00000000000E+00 -0.10643743871E+02  0.10643743871E+02  0.00000000000E+00 0.  1.
         23    2    1    2    0    0 -0.33930929000E+02  0.71751518943E+02  0.11726542049E+04  0.11819796640E+04  0.12513374256E+03 0.  0.
          5    1    3    3  502    0 -0.56447064224E+02  0.97814843985E+02  0.85501205385E+03  0.86244831694E+03  0.41800000000E+01 0. -1.
         -5    1    3    3    0  502  0.22516135224E+02 -0.26063325042E+02  0.31764215102E+03  0.31953134707E+03  0.41800000000E+01 0. -1.
        -11    1    1    2    0    0  0.23535854549E+02  0.19010185779E+02  0.11871369397E+03  0.12250822318E+03  0.00000000000E+00 0. -1.
         11    1    1    2    0    0  0.10395074450E+02 -0.90761704722E+02  0.50682811132E+03  0.51499561070E+03  0.00000000000E+00 0.  1.
</event>
<event>
 7    1  0.4394360E-006  0.2951781E+03  0.7561462E-02  0.1087676E+00
         -2   -1    0    0    0  501 -0.00000000000E+00  0.00000000000E+00  0.54125492950E+03  0.54125492950E+03  0.00000000000E+00 0. -1.
          2   -1    0    0  501    0  0.00000000000E+00 -0.00000000000E+00 -0.19398073695E+03  0.19398073695E+03  0.00000000000E+00 0.  1.
         23    2    1    2    0    0 -0.25114641630E+03 -0.13502017475E+03  0.29919285064E+03  0.43181979938E+03  0.12508799802E+03 0.  0.
          5    1    3    3  502    0 -0.10572896296E+03 -0.21759803258E+02  0.43195238730E+02  0.11634175388E+03  0.41800000000E+01 0.  1.
         -5    1    3    3    0  502 -0.14541745334E+03 -0.11326037149E+03  0.25599761191E+03  0.31547804550E+03  0.41800000000E+01 0.  1.
        -11    1    1    2    0    0  0.20971837474E+03  0.70431908287E+02  0.49374209993E+02  0.22667214875E+03  0.00000000000E+00 0. -1.
         11    1    1    2    0    0  0.41428041560E+02  0.64588266464E+02 -0.12928680849E+01  0.76743718311E+02  0.00000000000E+00 0.  1.
</event>
<event>
 7    1  0.4394360E-006  0.1439657E+03  0.7561462E-02  0.1208090E+00
         -2   -1    0    0    0  501 -0.00000000000E+00  0.00000000000E+00  0.31815523206E+03  0.31815523206E+03  0.00000000000E+00 0. -1.
          2   -1    0    0  501    0  0.00000000000E+00 -0.00000000000E+00 -0.11018066276E+03  0.11018066276E+03  0.00000000000E+00 0.  1.
         23    2    1    2    0    0  0.19701888139E+02 -0.10803839768E+03  0.22632154729E+03  0.28094364772E+03  0.12508969044E+03 0.  0.
          5    1    3    3  502    0  0.48526552035E+02 -0.36759403339E+01  0.11810782327E+03  0.12780950319E+03  0.41800000000E+01 0.  1.
         -5    1    3    3    0  502 -0.28824663895E+02 -0.10436245735E+03  0.10821372402E+03  0.15313414453E+03  0.41800000000E+01 0.  1.
        -11    1    1    2    0    0 -0.39573109883E+02  0.28538153341E+02 -0.39482959995E+02  0.62764331845E+02  0.00000000000E+00 0. -1.
         11    1    1    2    0    0  0.19871221744E+02  0.79500244341E+02  0.21135982006E+02  0.84627915248E+02  0.00000000000E+00 0.  1.
</event>
<event>
 7    1  0.4394360E-006  0.8732877E+02  0.7561462E-02  0.1309453E+00
          2   -1    0    0  501    0  0.00000000000E+00  0.00000000000E+00  0.86684968014E+03  0.86684968014E+03  0.00000000000E+00 0. -1.
         -2   -1    0    0    0  501 -0.00000000000E+00 -0.00000000000E+00 -0.16429884512E+02  0.16429884512E+02  0.00000000000E+00 0.  1.
         23    2    1    2    0    0  0.32469775579E+01  0.44830917613E+02  0.54036915005E+03  0.55647281810E+03  0.12507127935E+03 0.  0.
          5    1    3    3  502    0  0.28816160601E+02  0.11869283559E+02  0.27147775394E+02  0.41541847730E+02  0.41800000000E+01 0.  1.
         -5    1    3    3    0  502 -0.25569183043E+02  0.32961634054E+02  0.51322137465E+03  0.51493097037E+03  0.41800000000E+01 0.  1.
        -11    1    1    2    0    0  0.42514048449E+02 -0.33549279554E+02  0.13333401940E+03  0.14391302653E+03  0.00000000000E+00 0. -1.
         11    1    1    2    0    0 -0.45761026007E+02 -0.11281638059E+02  0.17671662618E+03  0.18289372003E+03  0.00000000000E+00 0.  1.
</event>
<event>
 7    1  0.4394360E-006  0.1422404E+03  0.7561462E-02  0.1210346E+00
         -1   -1    0    0    0  501 -0.00000000000E+00  0.00000000000E+00  0.49993393372E+03  0.49993393372E+03  0.00000000000E+00 0.  1.
          1   -1    0    0  501    0  0.00000000000E+00 -0.00000000000E+00 -0.49690151276E+02  0.49690151276E+02  0.00000000000E+00 0. -1.
         23    2    1    2    0    0  0.80965659261E+02 -0.77944049624E+02  0.27730016608E+03  0.32430375804E+03  0.12508729959E+03 0.  0.
          5    1    3    3  502    0  0.20717187118E+02 -0.77914639748E+02  0.65193899052E+02  0.10376709403E+03  0.41800000000E+01 0.  1.
         -5    1    3    3    0  502  0.60248472144E+02 -0.29409876489E-01  0.21210626703E+03  0.22053666401E+03  0.41800000000E+01 0.  1.
        -11    1    1    2    0    0  0.88501846605E+01 -0.12877483558E+02  0.11213138630E+02  0.19232520096E+02  0.00000000000E+00 0. -1.
         11    1    1    2    0    0 -0.89815843922E+02  0.90821533182E+02  0.16173047773E+03  0.20608780686E+03  0.00000000000E+00 0.  1.
</event>
<event>
 7    1  0.4394360E-006  0.1939670E+03  0.7561462E-02  0.1154931E+00
         -1   -1    0    0    0  501 -0.00000000000E+00  0.00000000000E+00  0.12161581974E+03  0.12161581974E+03  0.00000000000E+00 0.  1.
          1   -1    0    0  501    0  0.00000000000E+00 -0.00000000000E+00 -0.34897410218E+03  0.34897410218E+03  0.00000000000E+00 0. -1.
         23    2    1    2    0    0 -0.15290945304E+03 -0.78347161548E+02 -0.15513861492E+03  0.26312035015E+03  0.12507897614E+03 0.  0.
          5    1    3    3  502    0 -0.11995306302E+03 -0.98825515408E+02 -0.16081663874E+03  0.22368433901E+03  0.41800000000E+01 0.  1.
         -5    1    3    3    0  502 -0.32956390024E+02  0.20478353860E+02  0.56780238198E+01  0.39436011141E+02  0.41800000000E+01 0.  1.
        -11    1    1    2    0    0 -0.26478264231E+01  0.30598144748E+02 -0.37888620483E+01  0.30945321495E+02  0.00000000000E+00 0. -1.
         11    1    1    2    0    0  0.15555727946E+03  0.47749016800E+02 -0.68430805466E+02  0.17652425028E+03  0.00000000000E+00 0.  1.
</event>
<event>
 7    1  0.4394360E-006  0.1488617E+03  0.7561462E-02  0.1201879E+00
          2   -1    0    0  501    0  0.00000000000E+00  0.00000000000E+00  0.23632166311E+03  0.23632166311E+03  0.00000000000E+00 0. -1.
         -2   -1    0    0    0  501 -0.00000000000E+00 -0.00000000000E+00 -0.11311849593E+03  0.11311849593E+03  0.00000000000E+00 0.  1.
         23    2    1    2    0    0 -0.60670022411E+02 -0.10172187245E+03  0.35445619839E+02  0.17587582846E+03  0.12509086344E+03 0.  0.
          5    1    3    3  502    0 -0.28145328484E+02  0.11702060038E+02 -0.28208686960E+02  0.41740868997E+02  0.41800000000E+01 0.  1.
         -5    1    3    3    0  502 -0.32524693927E+02 -0.11342393249E+03  0.63654306799E+02  0.13413495947E+03  0.41800000000E+01 0.  1.
        -11    1    1    2    0    0  0.57211733311E+02  0.11858981595E+03  0.83198832191E+02  0.15575227945E+03  0.00000000000E+00 0. -1.
         11    1    1    2    0    0  0.34582891005E+01 -0.16867943498E+02  0.45587151542E+01  0.17812051123E+02  0.00000000000E+00 0.  1.
</event>
<event>
 7    1  0.4394360E-006  0.9607898E+02  0.7561462E-02  0.1288764E+00
         -4   -1    0    0    0  501 -0.00000000000E+00  0.00000000000E+00  0.25069119507E+03  0.25069119507E+03  0.00000000000E+00 0.  1.
          4   -1    0    0  501    0  0.00000000000E+00 -0.00000000000E+00 -0.66249101135E+02  0.66249101135E+02  0.00000000000E+00 0. -1.
         23    2    1    2    0    0  0.29335672894E+02  0.57291437232E+02  0.14003321832E+03  0.19848904985E+03  0.12508281333E+03 0.  0.
          5    1    3    3  502    0 -0.27097624925E+02 -0.45991257941E+01  0.10322966140E+03  0.10690775756E+03  0.41800000000E+01 0.  1.
         -5    1    3    3    0  502  0.56433297819E+02  0.61890563026E+02  0.36803556926E+02  0.91581292287E+02  0.41800000000E+01 0.  1.
        -11    1    1    2    0    0  0.11374762866E+02 -0.28349244443E+02  0.58978956735E+02  0.66419742760E+02  0.00000000000E+00 0.  1.
         11    1    1    2    0    0 -0.40710435760E+02 -0.28942192788E+02 -0.14570081119E+02  0.52031503601E+02  0.00000000000E+00 0. -1.
</event>
<event>
 7    1  0.4394360E-006  0.1860210E+03  0.7561462E-02  0.1162100E+00
         -3   -1    0    0    0  501 -0.00000000000E+00  0.00000000000E+00  0.16699666906E+03  0.16699666906E+03  0.00000000000E+00 0.  1.
          3   -1    0    0  501    0  0.00000000000E+00 -0.00000000000E+00 -0.21797514685E+03  0.21797514685E+03  0.00000000000E+00 0. -1.
         23    2    1    2    0    0  0.15634272235E+03 -0.14757505834E+01 -0.29717755499E+02  0.20242387947E+03  0.12508819816E+03 0.  0.
          5    1    3    3  502    0 -0.16621608812E+02 -0.17596698320E+02 -0.13174148310E+02  0.27873863295E+02  0.41800000000E+01 0.  1.
         -5    1    3    3    0  502  0.17296433116E+03  0.16120947737E+02 -0.16543607189E+02  0.17455001618E+03  0.41800000000E+01 0.  1.
        -11    1    1    2    0    0 -0.88850052668E+02  0.38386083045E+02  0.14232555776E+02  0.97828364366E+02  0.00000000000E+00 0. -1.
         11    1    1    2    0    0 -0.67492669678E+02 -0.36910332462E+02 -0.35493278070E+02  0.84719572065E+02  0.00000000000E+00 0.  1.
</event>
<event>
 7    1  0.4394360E-006  0.1102989E+03  0.7561462E-02  0.1260017E+00
          2   -1    0    0  501    0  0.00000000000E+00  0.00000000000E+00  0.27886524232E+03  0.27886524232E+03  0.00000000000E+00 0. -1.
         -2   -1    0    0    0  501 -0.00000000000E+00 -0.00000000000E+00 -0.71830656282E+02  0.71830656282E+02  0.00000000000E+00 0.  1.
         23    2    1    2    0    0 -0.80704959617E+02  0.66229142275E+00  0.65170174080E+02  0.16250373704E+03  0.12508630551E+03 0.  0.
          5    1    3    3  502    0 -0.40399234053E+02  0.50723263067E+02  0.72875627056E+02  0.97638501356E+02  0.41800000000E+01 0.  1.
         -5    1    3    3    0  502 -0.40305725564E+02 -0.50060971644E+02 -0.77054529764E+01  0.64865235687E+02  0.41800000000E+01 0.  1.
        -11    1    1    2    0    0  0.17593548295E+02  0.18228163507E+02  0.11379959762E+03  0.11658536488E+03  0.00000000000E+00 0. -1.
         11    1    1    2    0    0  0.63111411322E+02 -0.18890454930E+02  0.28064814342E+02  0.71606796679E+02  0.00000000000E+00 0.  1.
</event>
<event>
 7    1  0.4394360E-006  0.1063905E+03  0.7561462E-02  0.1267404E+00
         -1   -1    0    0    0  501 -0.00000000000E+00  0.00000000000E+00  0.74159411545E+02  0.74159411545E+02  0.00000000000E+00 0.  1.
          1   -1    0    0  501    0  0.00000000000E+00 -0.00000000000E+00 -0.25239570509E+03  0.25239570509E+03  0.00000000000E+00 0. -1.
         23    2    1    2    0    0  0.79690846023E+02 -0.18080229989E+01 -0.12246728523E+03  0.19235242884E+03  0.12508925230E+03 0.  0.
          5    1    3    3  502    0  0.95665152048E+02  0.11724510489E+01 -0.13900138307E+03  0.16879589110E+03  0.41800000000E+01 0.  1.
         -5    1    3    3    0  502 -0.15974306025E+02 -0.29804740478E+01  0.16534097841E+02  0.23556537733E+02  0.41800000000E+01 0.  1.
        -11    1    1    2    0    0 -0.49689773256E+02  0.30846401658E+02  0.69077634805E+01  0.58892200314E+02  0.00000000000E+00 0.  1.
         11    1    1    2    0    0 -0.30001072767E+02 -0.29038378659E+02 -0.62676771797E+02  0.75310487485E+02  0.00000000000E+00 0. -1.
</event>
<event>
 7    1  0.4394360E-006  0.1107560E+03  0.7561462E-02  0.1259176E+00
         -1   -1    0    0    0  501 -0.00000000000E+00  0.00000000000E+00  0.20984487935E+02  0.20984487935E+02  0.00000000000E+00 0.  1.
          1   -1    0    0  501    0  0.00000000000E+00 -0.00000000000E+00 -0.62249747167E+03  0.62249747167E+03  0.00000000000E+00 0. -1.
         23    2    1    2    0    0 -0.33921817556E+02 -0.65971260058E+00 -0.30465019112E+03  0.33107519241E+03  0.12509164302E+03 0.  0.
          5    1    3    3  502    0  0.46262086333E+01  0.56247950449E+02 -0.96966109438E+02  0.11227258132E+03  0.41800000000E+01 0. -1.
         -5    1    3    3    0  502 -0.38548026190E+02 -0.56907663049E+02 -0.20768408168E+03  0.21880261109E+03  0.41800000000E+01 0. -1.
        -11    1    1    2    0    0  0.45020666212E+02  0.36865921422E+02 -0.20350835681E+03  0.21166390301E+03  0.00000000000E+00 0. -1.
         11    1    1    2    0    0 -0.11098848656E+02 -0.36206208822E+02 -0.93354435800E+02  0.10074286418E+03  0.00000000000E+00 0.  1.
</event>
<event>
 7    1  0.4394360E-006  0.1199857E+03  0.7561462E-02  0.1243121E+00
          1   -1    0    0  501    0  0.00000000000E+00  0.00000000000E+00  0.32019308045E+03  0.32019308045E+03  0.00000000000E+00 0. -1.
         -1   -1    0    0    0  501 -0.00000000000E+00 -0.00000000000E+00 -0.64336409715E+02  0.64336409715E+02  0.00000000000E+00 0.  1.
         23    2    1    2    0    0  0.55036960715E+02  0.40170735152E+02  0.55307691543E+02  0.15280905494E+03  0.12509560952E+03 0.  0.
          5    1    3    3  502    0  0.59091209403E+02  0.75971414396E+02  0.63811511173E+02  0.11555435168E+03  0.41800000000E+01 0.  1.
         -5    1    3    3    0  502 -0.40542486880E+01 -0.35800679243E+02 -0.85038196298E+01  0.37254703260E+02  0.41800000000E+01 0.  1.
        -11    1    1    2    0    0  0.69259028004E+01  0.19894375896E+02  0.84592306239E+02  0.87175756932E+02  0.00000000000E+00 0. -1.
         11    1    1    2    0    0 -0.61962863516E+02 -0.60065111048E+02  0.11595667296E+03  0.14454467829E+03  0.00000000000E+00 0.  1.
</event>
<event>
 7    1  0.4394360E-006  0.1068767E+03  0.7561462E-02  0.1266466E+00
         -2   -1    0    0    0  501 -0.00000000000E+00  0.00000000000E+00  0.22394897236E+02  0.22394897236E+02  0.00000000000E+00 0. -1.
          2   -1    0    0  501    0  0.00000000000E+00 -0.00000000000E+00 -0.58243958545E+03  0.58243958545E+03  0.00000000000E+00 0.  1.
         23    2    1    2    0    0  0.13771159666E+01  0.12202329489E+02 -0.24375368652E+03  0.27425269946E+03  0.12509152718E+03 0.  0.
          5    1    3    3  502    0  0.59963216729E+02  0.67224085613E+00 -0.81203357672E+02  0.10103215808E+03  0.41800000000E+01 0. -1.
         -5    1    3    3    0  502 -0.58586100763E+02  0.11530088633E+02 -0.16255032885E+03  0.17322054138E+03  0.41800000000E+01 0. -1.
        -11    1    1    2    0    0  0.41243590351E+02 -0.26273671391E+02 -0.20097680817E+03  0.20684055931E+03  0.00000000000E+00 0. -1.
         11    1    1    2    0    0 -0.42620706317E+02  0.14071341902E+02 -0.11531419352E+03  0.12374122392E+03  0.00000000000E+00 0.  1.
</event>
<event>
 7    1  0.4394360E-006  0.1163436E+03  0.7561462E-02  0.1249254E+00
         -1   -1    0    0    0  501 -0.00000000000E+00  0.00000000000E+00  0.19218702932E+03  0.19218702932E+03  0.00000000000E+00 0.  1.
          1   -1    0    0  501    0  0.00000000000E+00 -0.00000000000E+00 -0.80666971596E+02  0.80666971596E+02  0.00000000000E+00 0. -1.
         23    2    1    2    0    0 -0.47929686901E+02  0.23451141572E+02  0.96590374856E+02  0.16680664970E+03  0.12509015525E+03 0.  0.
          5    1    3    3  502    0  0.22206042190E+02 -0.32726257150E+02  0.80307177622E+01  0.40571924338E+02  0.41800000000E+01 0. -1.
         -5    1    3    3    0  502 -0.70135729091E+02  0.56177398721E+02  0.88559657093E+02  0.12623472536E+03  0.41800000000E+01 0. -1.
        -11    1    1    2    0    0  0.41523089109E+02  0.28662047414E+02  0.17698613723E+02  0.53468877105E+02  0.00000000000E+00 0.  1.
         11    1    1    2    0    0  0.64065977923E+01 -0.52113188985E+02 -0.27689308593E+01  0.52578474109E+02  0.00000000000E+00 0. -1.
</event>
<event>
 7    1  0.4394360E-006  0.1702696E+03  0.7561462E-02  0.1177567E+00
          1   -1    0    0  501    0  0.00000000000E+00  0.00000000000E+00  0.12912010220E+04  0.12912010220E+04  0.00000000000E+00 0. -1.
         -1   -1    0    0    0  501 -0.00000000000E+00 -0.00000000000E+00 -0.23595723555E+02  0.23595723555E+02  0.00000000000E+00 0.  1.
         23    2    1    2    0    0 -0.33209812343E+02  0.29800015415E+02  0.38695698162E+03  0.40911319888E+03  0.12508785439E+03 0.  0.
          5    1    3    3  502    0 -0.18189146202E+02 -0.48567285132E+02  0.17605620186E+03  0.18358345470E+03  0.41800000000E+01 0.  1.
         -5    1    3    3    0  502 -0.15020666141E+02  0.78367300547E+02  0.21090077976E+03  0.22552974418E+03  0.41800000000E+01 0.  1.
        -11    1    1    2    0    0 -0.89617022879E+01  0.85431493115E+02  0.29153803158E+03  0.30392972211E+03  0.00000000000E+00 0.  1.
         11    1    1    2    0    0  0.42171514631E+02 -0.11523150853E+03  0.58911028525E+03  0.60175382457E+03  0.00000000000E+00 0. -1.
</event>
<event>
 7    1  0.4394360E-006  0.1488067E+03  0.7561462E-02  0.1201947E+00
         -1   -1    0    0    0  501 -0.00000000000E+00  0.00000000000E+00  0.17222713202E+03  0.17222713202E+03  0.00000000000E+00 0.  1.
          1   -1    0    0  501    0  0.00000000000E+00 -0.00000000000E+00 -0.14674855114E+03  0.14674855114E+03  0.00000000000E+00 0. -1.
         23    2    1    2    0    0 -0.47756106415E+02  0.98508465393E+02  0.51831466628E+02  0.17412697257E+03  0.12509651549E+03 0.  0.
          5    1    3    3  502    0 -0.65802582695E+02  0.11964157230E+03  0.51587310768E+02  0.14602331576E+03  0.41800000000E+01 0.  1.
         -5    1    3    3    0  502  0.18046476280E+02 -0.21133106912E+02  0.24415586072E+00  0.28103656808E+02  0.41800000000E+01 0.  1.
        -11    1    1    2    0    0  0.31927805739E+02  0.11962220714E+01  0.15563583954E+02  0.35539286319E+02  0.00000000000E+00 0.  1.
         11    1    1    2    0    0  0.15828300675E+02 -0.99704687464E+02 -0.41916469700E+02  0.10930942428E+03  0.00000000000E+00 0. -1.
</event>
<event>
 7    1  0.4394360E-006  0.8421322E+02  0.7561462E-02  0.1317503E+00
         -1   -1    0    0    0  501 -0.00000000000E+00  0.00000000000E+00  0.42514933004E+03  0.42514933004E+03  0.00000000000E+00 0. -1.
          1   -1    0    0  501    0  0.00000000000E+00 -0.00000000000E+00 -0.32860730934E+02  0.32860730934E+02  0.00000000000E+00 0.  1.
         23    2    1    2    0    0 -0.32701738589E+02 -0.68482659395E+01  0.29896391293E+03  0.32580163914E+03  0.12510389435E+03 0.  0.
          5    1    3    3  502    0 -0.49596831492E+02  0.15645356093E+02  0.41216422180E+02  0.66489764014E+02  0.41800000000E+01 0.  1.
         -5    1    3    3    0  502  0.16895092902E+02 -0.22493622033E+02  0.25774749075E+03  0.25931187513E+03  0.41800000000E+01 0.  1.
        -11    1    1    2    0    0  0.27386999289E+02  0.43158597779E+02  0.30705147046E+02  0.59628167400E+02  0.00000000000E+00 0.  1.
         11    1    1    2    0    0  0.53147393002E+01 -0.36310331839E+02  0.62619539131E+02  0.72580254429E+02  0.00000000000E+00 0. -1.
</event>
<event>
 6    1  0.4394360E-006  0.1845779E+03  0.7561462E-02  0.1163445E+00
         -2   -1    0    0    0  501 -0.00000000000E+00  0.00000000000E+00  0.12151928558E+03  0.12151928558E+03  0.00000000000E+00 0.  1.
          2   -1    0    0  501    0  0.00000000000E+00 -0.00000000000E+00 -0.10433883380E+04  0.10433883380E+04  0.00000000000E+00 0. -1.
          5    1    1    2  502    0  0.98521405457E+02 -0.14102760909E+03 -0.78819801290E+03  0.80676442274E+03  0.41800000000E+01 0. -1.
         -5    1    1    2    0  502 -0.18875562299E+02  0.58173652967E+02  0.82344543532E+02  0.10265747416E+03  0.41800000000E+01 0.  1.
        -11    1    1    2    0    0  0.73763678692E+01  0.36371318575E+02 -0.70618214343E+02  0.79776035342E+02  0.00000000000E+00 0. -1.
         11    1    1    2    0    0 -0.87022211027E+02  0.46482637547E+02 -0.14539736870E+03  0.17570969134E+03  0.00000000000E+00 0.  1.
</event>
<event>
 6    1  0.4394360E-006  0.1426305E+03  0.7561462E-02  0.1209833E+00
         -2   -1    0    0    0  501 -0.00000000000E+00  0.00000000000E+00  0.58277768298E+02  0.58277768298E+02  0.00000000000E+00 0.  1.
          2   -1    0    0  501    0  0.00000000000E+00 -0.00000000000E+00 -0.38066840769E+03  0.38066840769E+03  0.00000000000E+00 0. -1.
          5    1    1    2  502    0  0.34980454826E+02 -0.44538523409E+02 -0.56249977270E+02  0.79930248531E+02  0.41800000000E+01 0. -1.
         -5    1    1    2    0  502 -0.12919398231E+02  0.11269121778E+03 -0.76556012096E+02  0.13691061611E+03  0.41800000000E+01 0.  1.
        -11    1    1    2    0    0  0.34947753730E+02 -0.19498061132E+02 -0.78321778069E+02  0.87953514987E+02  0.00000000000E+00 0.  1.
         11    1    1    2    0    0 -0.57008810325E+02 -0.48654633242E+02 -0.11126287196E+03  0.13415179636E+03  0.00000000000E+00 0. -1.
</event>
<event>
 7    1  0.4394360E-006  0.1123480E+03  0.7561462E-02  0.1256283E+00
          2   -1    0    0  501    0  0.00000000000E+00  0.00000000000E+00  0.37143261694E+03  0.37143261694E+03  0.00000000000E+00 0. -1.
         -2   -1    0    0    0  501 -0.00000000000E+00 -0.00000000000E+00 -0.64707021039E+02  0.64707021039E+02  0.00000000000E+00 0.  1.
         23    2    1    2    0    0  0.53814873654E+02  0.17779066585E+02  0.66428495745E+02  0.15255100875E+03  0.12508768680E+03 0.  0.
          5    1    3    3  502    0 -0.10271980048E+02  0.23322002271E+01 -0.32036737604E+02  0.33982020074E+02  0.41800000000E+01 0. -1.
         -5    1    3    3    0  502  0.64086853702E+02  0.15446866358E+02  0.98465233349E+02  0.11856898868E+03  0.41800000000E+01 0. -1.
        -11    1    1    2    0    0 -0.61481162821E+02 -0.70781637576E+02  0.12311700599E+03  0.15475067290E+03  0.00000000000E+00 0.  1.
         11    1    1    2    0    0  0.76662891671E+01  0.53002570991E+02  0.11718009417E+03  0.12883795632E+03  0.00000000000E+00 0. -1.
</event>
<event>
 7    1  0.4394360E-006  0.1229038E+03  0.7561462E-02  0.1238382E+00
         -2   -1    0    0    0  501 -0.00000000000E+00  0.00000000000E+00  0.10429953907E+03  0.10429953907E+03  0.00000000000E+00 0. -1.
          2   -1    0    0  501    0  0.00000000000E+00 -0.00000000000E+00 -0.21060751413E+03  0.21060751413E+03  0.00000000000E+00 0.  1.
         23    2    1    2    0    0 -0.15934862655E+02 -0.65711436393E+02  0.21966463464E+02  0.14388238412E+03  0.12509077593E+03 0.  0.
          5    1    3    3  502    0  0.28820143100E+02  0.21180693751E+02  0.28370388892E+02  0.45842925320E+02  0.41800000000E+01 0.  1.
         -5    1    3    3    0  502 -0.44755005754E+02 -0.86892130144E+02 -0.64039254273E+01  0.98039458800E+02  0.41800000000E+01 0.  1.
        -11    1    1    2    0    0  0.16769720768E+02 -0.20086111345E+02 -0.20342658864E+02  0.33143614366E+02  0.00000000000E+00 0. -1.
         11    1    1    2    0    0 -0.83485811343E+00  0.85797547738E+02 -0.10793177966E+03  0.13788105471E+03  0.00000000000E+00 0.  1.
</event>
<event>
 7    1  0.4394360E-006  0.1730524E+03  0.7561462E-02  0.1174702E+00
          2   -1    0    0  501    0  0.00000000000E+00  0.00000000000E+00  0.22089595265E+03  0.22089595265E+03  0.00000000000E+00 0. -1.
         -2   -1    0    0    0  501 -0.00000000000E+00 -0.00000000000E+00 -0.17097462612E+03  0.17097462612E+03  0.00000000000E+00 0.  1.
         23    2    1    2    0    0 -0.12735176721E+03 -0.10094989342E+03  0.19589961107E+02  0.20601266296E+03  0.12509235440E+03 0.  0.
          5    1    3    3  502    0 -0.72119873364E+02 -0.48928512558E+02 -0.52034367752E+02  0.10158899203E+03  0.41800000000E+01 0. -1.
         -5    1    3    3    0  502 -0.55231893849E+02 -0.52021380865E+02  0.71624328859E+02  0.10442367093E+03  0.41800000000E+01 0. -1.
        -11    1    1    2    0    0  0.29685577798E+02  0.76684478777E+02  0.68177388694E+01  0.82511965058E+02  0.00000000000E+00 0.  1.
         11    1    1    2    0    0  0.97666189414E+02  0.24265414646E+02  0.23513626560E+02  0.10334595075E+03  0.00000000000E+00 0. -1.
</event>
<event>
 6    1  0.4394360E-006  0.9281942E+02  0.7561462E-02  0.1296164E+00
          1   -1    0    0  501    0  0.00000000000E+00  0.00000000000E+00  0.92084457552E+02  0.92084457552E+02  0.00000000000E+00 0. -1.
         -1   -1    0    0    0  501 -0.00000000000E+00 -0.00000000000E+00 -0.36951212759E+03  0.36951212759E+03  0.00000000000E+00 0.  1.
          5    1    1    2  502    0 -0.29805113999E+02  0.32202317359E+02 -0.92695912203E+01  0.45041445194E+02  0.41800000000E+01 0. -1.
         -5    1    1    2    0  502  0.29599091662E+02 -0.49226659562E+02 -0.30904423823E+03  0.31436473057E+03  0.41800000000E+01 0.  1.
        -11    1    1    2    0    0  0.35350590957E+02  0.30142202039E+02 -0.33162191272E+00  0.46457793726E+02  0.00000000000E+00 0.  1.
         11    1    1    2    0    0 -0.35144568620E+02 -0.13117859836E+02  0.41217781329E+02  0.55732615655E+02  0.00000000000E+00 0. -1.
</event>
<event>
 7    1  0.4394360E-006  0.9635666E+02  0.7561462E-02  0.1288149E+00
         -2   -1    0    0    0  501 -0.00000000000E+00  0.00000000000E+00  0.31859182819E+02  0.31859182819E+02  0.00000000000E+00 0. -1.
          2   -1    0    0  501    0  0.00000000000E+00 -0.00000000000E+00 -0.43859005001E+03  0.43859005001E+03  0.00000000000E+00 0.  1.
         23    2    1    2    0    0  0.86390028358E+01 -0.41269396082E+02 -0.27051820034E+03  0.30101078659E+03  0.12509836730E+03 0.  0.
          5    1    3    3  502    0  0.35768677803E+02  0.24107910347E+02 -0.18456877124E+03  0.18958822055E+03  0.41800000000E+01 0.  1.
         -5    1    3    3    0  502 -0.27129674968E+02 -0.65377306429E+02 -0.85949429098E+02  0.11142256604E+03  0.41800000000E+01 0.  1.
        -11    1    1    2    0    0  0.15441641393E+02  0.50403454938E+02 -0.31077042421E+02  0.61194240940E+02  0.00000000000E+00 0. -1.
         11    1    1    2    0    0 -0.24080644229E+02 -0.91340588562E+01 -0.10513562443E+03  0.10824420531E+03  0.00000000000E+00 0.  1.
</event>
<event>
 7    1  0.4394360E-006  0.1323021E+03  0.7561462E-02  0.1224079E+00
          1   -1    0    0  501    0  0.00000000000E+00  0.00000000000E+00  0.70760409937E+02  0.70760409937E+02  0.00000000000E+00 0. -1.
         -1   -1    0    0    0  501 -0.00000000000E+00 -0.00000000000E+00 -0.37524769726E+03  0.37524769726E+03  0.00000000000E+00 0.  1.
         23    2    1    2    0    0 -0.14866483564E+02  0.12024861233E+03 -0.15748626734E+03  0.23479846071E+03  0.12509057379E+03 0.  0.
          5    1    3    3  502    0 -0.79827924379E+01  0.41641760812E+02  0.14923381413E+02  0.45143559135E+02  0.41800000000E+01 0. -1.
         -5    1    3    3    0  502 -0.68836911262E+01  0.78606851515E+02 -0.17240964875E+03  0.18965490157E+03  0.41800000000E+01 0. -1.
        -11    1    1    2    0    0 -0.29770343552E+02 -0.29829817275E+02 -0.14216159051E+02  0.44476853891E+02  0.00000000000E+00 0. -1.
         11    1    1    2    0    0  0.44636827116E+02 -0.90418795053E+02 -0.13278486093E+03  0.16673279259E+03  0.00000000000E+00 0.  1.
</event>
<event>
 7    1  0.4394360E-006  0.1353245E+03  0.7561462E-02  0.1219762E+00
         -2   -1    0    0    0  501 -0.00000000000E+00  0.00000000000E+00  0.60089397448E+02  0.60089397448E+02  0.00000000000E+00 0.  1.
          2   -1    0    0  501    0  0.00000000000E+00 -0.00000000000E+00 -0.39143851576E+03  0.39143851576E+03  0.00000000000E+00 0. -1.
         23    2    1    2    0    0 -0.98816190582E+02 -0.29442329904E+02 -0.22657325892E+03  0.27858021198E+03  0.12505999576E+03 0.  0.
          5    1    3    3  502    0  0.25880769721E+02  0.14257181814E+02 -0.39245039943E+02  0.49302403945E+02  0.41800000000E+01 0. -1.
         -5    1    3    3    0  502 -0.12469696030E+03 -0.43699511718E+02 -0.18732821898E+03  0.22927780804E+03  0.41800000000E+01 0. -1.
        -11    1    1    2    0    0  0.56114379088E+02 -0.10714678664E+01 -0.40750699058E+00  0.56126087035E+02  0.00000000000E+00 0.  1.
         11    1    1    2    0    0  0.42701811493E+02  0.30513797771E+02 -0.10436835240E+03  0.11682161419E+03  0.00000000000E+00 0. -1.
</event>
<event>
 7    1  0.4394360E-006  0.1098216E+03  0.7561462E-02  0.1260901E+00
         -1   -1    0    0    0  501 -0.00000000000E+00  0.00000000000E+00  0.37613461216E+03  0.37613461216E+03  0.00000000000E+00 0.  1.
          1   -1    0    0  501    0  0.00000000000E+00 -0.00000000000E+00 -0.39248126396E+02  0.39248126396E+02  0.00000000000E+00 0. -1.
         23    2    1    2    0    0  0.40752012861E+02  0.19456027754E+02  0.24841898656E+03  0.28177844547E+03  0.12509131017E+03 0.  0.
          5    1    3    3  502    0  0.22415794263E+02  0.72543937772E+02  0.12900682520E+03  0.14975087341E+03  0.41800000000E+01 0. -1.
         -5    1    3    3    0  502  0.18336218598E+02 -0.53087910018E+02  0.11941216136E+03  0.13202757205E+03  0.41800000000E+01 0. -1.
        -11    1    1    2    0    0  0.20815888906E+02  0.43567284591E+01 -0.22778319034E+01  0.21388567787E+02  0.00000000000E+00 0. -1.
         11    1    1    2    0    0 -0.61567901767E+02 -0.23812756213E+02  0.90745331114E+02  0.11221572530E+03  0.00000000000E+00 0.  1.
</event>
<event>
 7    1  0.4394360E-006  0.1116258E+03  0.7561462E-02  0.1257589E+00
          1   -1    0    0  501    0  0.00000000000E+00  0.00000000000E+00  0.86852915815E+02  0.86852915815E+02  0.00000000000E+00 0. -1.
         -1   -1    0    0    0  501 -0.00000000000E+00 -0.00000000000E+00 -0.16534284731E+03  0.16534284731E+03  0.00000000000E+00 0.  1.
         23    2    1    2    0    0 -0.49905638664E+02 -0.34442072010E+01 -0.55491877076E+02  0.14570761373E+03  0.12509566317E+03 0.  0.
          5    1    3    3  502    0  0.18681405882E+02 -0.46158498443E+02 -0.47312179279E+01  0.50194210098E+02  0.41800000000E+01 0.  1.
         -5    1    3    3    0  502 -0.68587044546E+02  0.42714291242E+02 -0.50760659148E+02  0.95513403630E+02  0.41800000000E+01 0.  1.
        -11    1    1    2    0    0  0.29468375978E+02  0.40481062950E+02  0.12111098734E+02  0.51514855652E+02  0.00000000000E+00 0. -1.
         11    1    1    2    0    0  0.20437262686E+02 -0.37036855749E+02 -0.35109153150E+02  0.54973293741E+02  0.00000000000E+00 0.  1.
</event>
<event>
 7    1  0.4394360E-006  0.1074561E+03  0.7561462E-02  0.1265355E+00
          1   -1    0    0  501    0  0.00000000000E+00  0.00000000000E+00  0.16546100438E+03  0.16546100438E+03  0.00000000000E+00 0. -1.
         -1   -1    0    0    0  501 -0.00000000000E+00 -0.00000000000E+00 -0.10697597172E+03  0.10697597172E+03  0.00000000000E+00 0.  1.
         23    2    1    2    0    0  0.36999192039E+02 -0.33944430032E+02 -0.27422747281E+02  0.13755276213E+03  0.12509033040E+03 0.  0.
          5    1    3    3  502    0  0.71074133484E+02 -0.18028899027E+02 -0.54130356071E+02  0.91236733277E+02  0.41800000000E+01 0.  1.
         -5    1    3    3    0  502 -0.34074941445E+02 -0.15915531005E+02  0.26707608789E+02  0.46316028855E+02  0.41800000000E+01 0.  1.
        -11    1    1    2    0    0  0.24265980701E+02 -0.11978923120E+02  0.27511847582E+02  0.38590596988E+02  0.00000000000E+00 0.  1.
         11    1    1    2    0    0 -0.61265172740E+02  0.45923353152E+02  0.58395932358E+02  0.96293616982E+02  0.00000000000E+00 0. -1.
</event>
<event>
 7    1  0.4394360E-006  0.7799865E+02  0.7561462E-02  0.1334829E+00
         -3   -1    0    0    0  501 -0.00000000000E+00  0.00000000000E+00  0.56972838835E+02  0.56972838835E+02  0.00000000000E+00 0.  1.
          3   -1    0    0  501    0  0.00000000000E+00 -0.00000000000E+00 -0.25513788322E+03  0.25513788322E+03  0.00000000000E+00 0. -1.
         23    2    1    2    0    0  0.31493758684E+02 -0.25544493297E+02 -0.72126565974E+02  0.14997984160E+03  0.12508930167E+03 0.  0.
          5    1    3    3  502    0 -0.90396427103E+01 -0.60446738884E+02 -0.14931086403E+01  0.61279891934E+02  0.41800000000E+01 0. -1.
         -5    1    3    3    0  502  0.40533401394E+02  0.34902245587E+02 -0.70633457334E+02  0.88699949665E+02  0.41800000000E+01 0. -1.
        -11    1    1    2    0    0 -0.13613412198E+02  0.69438946437E+01  0.13400322123E+02  0.20325139545E+02  0.00000000000E+00 0.  1.
         11    1    1    2    0    0 -0.17880346486E+02  0.18600598653E+02 -0.13943880053E+03  0.14180574091E+03  0.00000000000E+00 0. -1.
</event>
<event>
 7    1  0.4394360E-006  0.1048458E+03  0.7561462E-02  0.1270424E+00
         -1   -1    0    0    0  501 -0.00000000000E+00  0.00000000000E+00  0.35377985023E+02  0.35377985023E+02  0.00000000000E+00 0.  1.
          1   -1    0    0  501    0  0.00000000000E+00 -0.00000000000E+00 -0.34009291443E+03  0.34009291443E+03  0.00000000000E+00 0. -1.
         23    2    1    2    0    0  0.14100610399E+02  0.15889421993E+02 -0.14382980846E+03  0.19178767130E+03  0.12507676090E+03 0.  0.
          5    1    3    3  502    0  0.27326180724E+02  0.64687978200E+02 -0.54233722857E+02  0.88825805774E+02  0.41800000000E+01 0. -1.
         -5    1    3    3    0  502 -0.13225570324E+02 -0.48798556206E+02 -0.89596085599E+02  0.10296186553E+03  0.41800000000E+01 0. -1.
        -11    1    1    2    0    0 -0.44710475414E+02  0.12959421372E+02 -0.82644640342E+02  0.94853095845E+02  0.00000000000E+00 0. -1.
         11    1    1    2    0    0  0.30609865015E+02 -0.28848843366E+02 -0.78240480610E+02  0.88830132308E+02  0.00000000000E+00 0.  1.
</event>
<event>
 7    1  0.4394360E-006  0.1019003E+03  0.7561462E-02  0.1276350E+00
         -2   -1    0    0    0  501 -0.00000000000E+00  0.00000000000E+00  0.19227520090E+03  0.19227520090E+03  0.00000000000E+00 0.  1.
          2   -1    0    0  501    0  0.00000000000E+00 -0.00000000000E+00 -0.13780233042E+03  0.13780233042E+03  0.00000000000E+00 0. -1.
         23    2    1    2    0    0  0.56109424033E+02  0.36709038815E+02  0.13151974131E+03  0.19349453602E+03  0.12508745788E+03 0.  0.
          5    1    3    3  502    0 -0.19478539234E+02 -0.57410474664E+01 -0.13318588443E+02  0.24642043641E+02  0.41800000000E+01 0. -1.
         -5    1    3    3    0  502  0.75587963267E+02  0.42450086281E+02  0.14483832975E+03  0.16885249238E+03  0.41800000000E+01 0. -1.
        -11    1    1    2    0    0 -0.47436326548E+02 -0.57030476359E+02 -0.85258147916E+02  0.11301164584E+03  0.00000000000E+00 0. -1.
         11    1    1    2    0    0 -0.86730974855E+01  0.20321437545E+02  0.82112770953E+01  0.23571349461E+02  0.00000000000E+00 0.  1.
</event>
<event>
 7    1  0.4394360E-006  0.9720922E+02  0.7561462E-02  0.1286276E+00
         -1   -1    0    0    0  501 -0.00000000000E+00  0.00000000000E+00  0.35420103131E+03  0.35420103131E+03  0.00000000000E+00 0.  1.
          1   -1    0    0  501    0  0.00000000000E+00 -0.00000000000E+00 -0.12350643076E+03  0.12350643076E+03  0.00000000000E+00 0. -1.
         23    2    1    2    0    0  0.21010208445E+02  0.44265884720E+02  0.31628789345E+03  0.34363600732E+03  0.12508707599E+03 0.  0.
          5    1    3    3  502    0  0.13331169693E+02 -0.42802870353E+02  0.13547431935E+03  0.14276053166E+03  0.41800000000E+01 0. -1.
         -5    1    3    3    0  502  0.76790387527E+01  0.87068755073E+02  0.18081357410E+03  0.20087547567E+03  0.41800000000E+01 0. -1.
        -11    1    1    2    0    0 -0.12900560141E+02 -0.50204173235E+02 -0.10223780326E+03  0.11462744818E+03  0.00000000000E+00 0. -1.
         11    1    1    2    0    0 -0.81096483038E+01  0.59382885150E+01  0.16644510360E+02  0.19444006563E+02  0.00000000000E+00 0.  1.
</event>
<event>
 7    1  0.4394360E-006  0.1458715E+03  0.7561462E-02  0.1205640E+00
         -2   -1    0    0    0  501 -0.00000000000E+00  0.00000000000E+00  0.82288978497E+02  0.82288978497E+02  0.00000000000E+00 0.  1.
          2   -1    0    0  501    0  0.00000000000E+00 -0.00000000000E+00 -0.36908944459E+03  0.36908944459E+03  0.00000000000E+00 0. -1.
         23    2    1    2    0    0 -0.58218716999E+02 -0.10514015421E+03 -0.58602272707E+02  0.17806624561E+03  0.11759885383E+03 0.  0.
          5    1    3    3  502    0 -0.81625352484E+02 -0.41793383916E+02 -0.61244120712E+02  0.11035261587E+03  0.41800000000E+01 0. -1.
         -5    1    3    3    0  502  0.23406635485E+02 -0.63346770298E+02  0.26418480056E+01  0.67713629742E+02  0.41800000000E+01 0.  1.
        -11    1    1    2    0    0 -0.10404650581E+02  0.23038552364E+02 -0.11418963592E+03  0.11695428423E+03  0.00000000000E+00 0. -1.
         11    1    1    2    0    0  0.68623367580E+02  0.82101601850E+02 -0.11400855747E+03  0.15635789325E+03  0.00000000000E+00 0.  1.
</event>
<event>
 7    1  0.4394360E-006  0.1569425E+03  0.7561462E-02  0.1192193E+00
         -1   -1    0    0    0  501 -0.00000000000E+00  0.00000000000E+00  0.12197993241E+03  0.12197993241E+03  0.00000000000E+00 0.  1.
          1   -1    0    0  501    0  0.00000000000E+00 -0.00000000000E+00 -0.35763092320E+03  0.35763092320E+03  0.00000000000E+00 0. -1.
         23    2    1    2    0    0  0.12950972712E+03  0.57822014774E+02  0.96582105360E+00  0.18911575612E+03  0.12509069346E+03 0.  0.
          5    1    3    3  502    0  0.12141624293E+03  0.11925673713E+02 -0.38397941395E+02  0.12796874635E+03  0.41800000000E+01 0.  1.
         -5    1    3    3    0  502  0.80934841926E+01  0.45896341061E+02  0.39363762449E+02  0.61147009765E+02  0.41800000000E+01 0.  1.
        -11    1    1    2    0    0 -0.11270177407E+03 -0.37782723612E+02 -0.23610127949E+03  0.26433508708E+03  0.00000000000E+00 0. -1.
         11    1    1    2    0    0 -0.16807953050E+02 -0.20039291162E+02 -0.51553235612E+00  0.26160012416E+02  0.00000000000E+00 0.  1.
</event>
<event>
 7    1  0.4394360E-006  0.1551185E+03  0.7561462E-02  0.1194321E+00
         -1   -1    0    0    0  501 -0.00000000000E+00  0.00000000000E+00  0.14345877326E+03  0.14345877326E+03  0.00000000000E+00 0.  1.
          1   -1    0    0  501    0  0.00000000000E+00 -0.00000000000E+00 -0.20273791720E+03  0.20273791720E+03  0.00000000000E+00 0. -1.
         23    2    1    2    0    0  0.12573151009E+03 -0.35965064167E+01 -0.66133532621E+02  0.18932027817E+03  0.12508867296E+03 0.  0.
          5    1    3    3  502    0 -0.96346452493E+01  0.33387330077E+02 -0.22312962316E+01  0.35071231538E+02  0.41800000000E+01 0.  1.
         -5    1    3    3    0  502  0.13536615534E+03 -0.36983836493E+02 -0.63902236390E+02  0.15424904663E+03  0.41800000000E+01 0.  1.
        -11    1    1    2    0    0 -0.21854899925E+01 -0.10293285847E+02  0.28771107552E+02  0.30635024560E+02  0.00000000000E+00 0.  1.
         11    1    1    2    0    0 -0.12354602009E+03  0.13889792263E+02 -0.21916718876E+02  0.12624138773E+03  0.00000000000E+00 0. -1.
</event>
<event>
 7    1  0.4394360E-006  0.1560215E+03  0.7561462E-02  0.1193263E+00
          1   -1    0    0  501    0  0.00000000000E+00  0.00000000000E+00  0.94163386626E+02  0.94163386626E+02  0.00000000000E+00 0. -1.
         -1   -1    0    0    0  501 -0.00000000000E+00 -0.00000000000E+00 -0.30380783459E+03  0.30380783459E+03  0.00000000000E+00 0.  1.
         23    2    1    2    0    0 -0.10552901520E+03  0.43709240156E+02 -0.18224538931E+03  0.24881344502E+03  0.12509147762E+03 0.  0.
          5    1    3    3  502    0 -0.12802517982E+03  0.58300108019E+02 -0.16402168604E+03  0.21612481383E+03  0.41800000000E+01 0. -1.
         -5    1    3    3    0  502  0.22496164622E+02 -0.14590867864E+02 -0.18223703269E+02  0.32688631182E+02  0.41800000000E+01 0. -1.
        -11    1    1    2    0    0  0.97843953538E+01  0.24652847356E+02 -0.15966168204E+02  0.30958291334E+02  0.00000000000E+00 0.  1.
         11    1    1    2    0    0  0.95744619841E+02 -0.68362087512E+02 -0.11432890444E+02  0.11819948486E+03  0.00000000000E+00 0. -1.
</event>
<event>
 7    1  0.4394360E-006  0.1256040E+03  0.7561462E-02  0.1234128E+00
          2   -1    0    0  501    0  0.00000000000E+00  0.00000000000E+00  0.97225130736E+02  0.97225130736E+02  0.00000000000E+00 0. -1.
         -2   -1    0    0    0  501 -0.00000000000E+00 -0.00000000000E+00 -0.24941306262E+03  0.24941306262E+03  0.00000000000E+00 0.  1.
         23    2    1    2    0    0  0.48100730422E+02  0.95276399582E+02 -0.11841462134E+03  0.20263608791E+03  0.12509232188E+03 0.  0.
          5    1    3    3  502    0 -0.22601984710E+01  0.91368248454E+02 -0.12122207073E+03  0.15187339515E+03  0.41800000000E+01 0. -1.
         -5    1    3    3    0  502  0.50360928893E+02  0.39081511281E+01  0.28074493885E+01  0.50762692761E+02  0.41800000000E+01 0. -1.
        -11    1    1    2    0    0 -0.25791809431E+02 -0.73344257107E+02 -0.63849751877E+02  0.10060511070E+03  0.00000000000E+00 0.  1.
         11    1    1    2    0    0 -0.22308920991E+02 -0.21932142475E+02  0.30076441335E+02  0.43396994743E+02  0.00000000000E+00 0. -1.
</event>
<event>
 7    1  0.4394360E-006  0.1041653E+03  0.7561462E-02  0.1271773E+00
          2   -1    0    0  501    0  0.00000000000E+00  0.00000000000E+00  0.19593892066E+03  0.19593892066E+03  0.00000000000E+00 0. -1.
         -2   -1    0    0    0  501 -0.00000000000E+00 -0.00000000000E+00 -0.11284230236E+03  0.11284230236E+03  0.00000000000E+00 0.  1.
         23    2    1    2    0    0  0.53803238472E+02  0.20797587412E+02 -0.51822629814E+02  0.13522035648E+03  0.11077739721E+03 0.  0.
          5    1    3    3  502    0 -0.11684971336E+02 -0.20940379443E+02  0.18340287411E+02  0.30477476744E+02  0.41800000000E+01 0. -1.
         -5    1    3    3    0  502  0.65488209808E+02  0.41737966855E+02 -0.70162917225E+02  0.10474287973E+03  0.41800000000E+01 0.  1.
        -11    1    1    2    0    0 -0.42595081804E+02  0.31344831929E+02  0.47117097194E+02  0.70829798324E+02  0.00000000000E+00 0. -1.
         11    1    1    2    0    0 -0.11208156668E+02 -0.52142419341E+02  0.87802150920E+02  0.10273106822E+03  0.00000000000E+00 0.  1.
</event>
<event>
 7    1  0.4394360E-006  0.7182787E+02  0.7561462E-02  0.1353985E+00
         -1   -1    0    0    0  501 -0.00000000000E+00  0.00000000000E+00  0.22599000101E+02  0.22599000101E+02  0.00000000000E+00 0.  1.
          1   -1    0    0  501    0  0.00000000000E+00 -0.00000000000E+00 -0.52932730792E+03  0.52932730792E+03  0.00000000000E+00 0. -1.
         23    2    1    2    0    0 -0.54767619911E+00 -0.52152567304E+01 -0.32846027464E+03  0.35151813112E+03  0.12510533817E+03 0.  0.
          5    1    3    3  502    0  0.86747506980E+01  0.31713205423E+02 -0.30460702083E+03  0.30640477842E+03  0.41800000000E+01 0. -1.
         -5    1    3    3    0  502 -0.92224268971E+01 -0.36928462154E+02 -0.23853253806E+02  0.45113352702E+02  0.41800000000E+01 0. -1.
        -11    1    1    2    0    0  0.14605914715E+02  0.35743052598E+02 -0.31471038922E+02  0.49812898375E+02  0.00000000000E+00 0.  1.
         11    1    1    2    0    0 -0.14058238516E+02 -0.30527795868E+02 -0.14679699426E+03  0.15059527853E+03  0.00000000000E+00 0. -1.
</event>
<event>
 7    1  0.4394360E-006  0.1465927E+03  0.7561462E-02  0.1204724E+00
         -1   -1    0    0    0  501 -0.00000000000E+00  0.00000000000E+00  0.10979869258E+03  0.10979869258E+03  0.00000000000E+00 0.  1.
          1   -1    0    0  501    0  0.00000000000E+00 -0.00000000000E+00 -0.33056123169E+03  0.33056123169E+03  0.00000000000E+00 0. -1.
         23    2    1    2    0    0 -0.15543703733E+00 -0.11002791316E+03  0.83559681089E+01  0.16680371234E+03  0.12508992930E+03 0.  0.
          5    1    3    3  502    0  0.40366174464E+00 -0.12660879541E+03 -0.25179085608E+02  0.12915652818E+03  0.41800000000E+01 0. -1.
         -5    1    3    3    0  502 -0.55909878197E+00  0.16580882251E+02  0.33535053717E+02  0.37647184164E+02  0.41800000000E+01 0. -1.
        -11    1    1    2    0    0  0.50599130341E+02  0.53620007595E+02 -0.11693987619E+03  0.13824005154E+03  0.00000000000E+00 0.  1.
         11    1    1    2    0    0 -0.50443693304E+02  0.56407905568E+02 -0.11217863103E+03  0.13531616040E+03  0.00000000000E+00 0. -1.
</event>
<event>
 7    1  0.4394360E-006  0.1188938E+03  0.7561462E-02  0.1244933E+00
         -1   -1    0    0    0  501 -0.00000000000E+00  0.00000000000E+00  0.30651692664E+03  0.30651692664E+03  0.00000000000E+00 0.  1.
          1   -1    0    0  501    0  0.00000000000E+00 -0.00000000000E+00 -0.55685010985E+02  0.55685010985E+02  0.00000000000E+00 0. -1.
         23    2    1    2    0    0  0.24893335338E+02 -0.51241742738E+02  0.20215867510E+03  0.24442609416E+03  0.12502236299E+03 0.  0.
          5    1    3    3  502    0  0.65148719186E+02 -0.67202398205E+02  0.14398813284E+03  0.17178641604E+03  0.41800000000E+01 0. -1.
         -5    1    3    3    0  502 -0.40255383848E+02  0.15960655467E+02  0.58170542254E+02  0.72639678123E+02  0.41800000000E+01 0. -1.
        -11    1    1    2    0    0  0.22777697308E+02  0.47614916658E+02  0.45796156216E+02  0.69880553140E+02  0.00000000000E+00 0.  1.
         11    1    1    2    0    0 -0.47671032646E+02  0.36268260800E+01  0.28770843433E+01  0.47895290324E+02  0.00000000000E+00 0. -1.
</event>
<event>
 7    1  0.4394360E-006  0.2264706E+03  0.7561462E-02  0.1129149E+00
          2   -1    0    0  501    0  0.00000000000E+00  0.00000000000E+00  0.32927485692E+03  0.32927485692E+03  0.00000000000E+00 0. -1.
         -2   -1    0    0    0  501 -0.00000000000E+00 -0.00000000000E+00 -0.18568584823E+03  0.18568584823E+03  0.00000000000E+00 0.  1.
         23    2    1    2    0    0  0.21618082612E+03 -0.32707234162E+02  0.10927036422E+03  0.27457294000E+03  0.12508546733E+03 0.  0.
          5    1    3    3  502    0  0.47927921124E+02  0.11792943950E+02 -0.24274512469E+02  0.55162337749E+02  0.41800000000E+01 0. -1.
         -5    1    3    3    0  502  0.16825290499E+03 -0.44500178112E+02  0.13354487669E+03  0.21941060225E+03  0.41800000000E+01 0. -1.
        -11    1    1    2    0    0 -0.13990809266E+03 -0.12815518311E+02  0.52022053093E+02  0.14981590673E+03  0.00000000000E+00 0. -1.
         11    1    1    2    0    0 -0.76272733460E+02  0.45522752474E+02 -0.17703408629E+02  0.90571858429E+02  0.00000000000E+00 0.  1.
</event>
<event>
 7    1  0.4764133E-006  0.1217481E+03  0.7561462E-02  0.1240241E+00
         -1   -1    0    0    0  501 -0.00000000000E+00  0.00000000000E+00  0.81462900170E+02  0.81462900170E+02  0.00000000000E+00 0.  1.
          1   -1    0    0  501    0  0.00000000000E+00 -0.00000000000E+00 -0.22687305753E+03  0.22687305753E+03  0.00000000000E+00 0. -1.
         23    2    1    2    0    0  0.86128439020E+01 -0.73830757619E+02 -0.44067725095E+02  0.15203468119E+03  0.12508964001E+03 0.  0.
          5    1    3    3  502    0  0.36920393318E+02 -0.86815227076E+02 -0.64675736862E+02  0.11445707682E+03  0.41800000000E+01 0. -1.
         -5    1    3    3    0  502 -0.28307549416E+02  0.12984469457E+02  0.20608011767E+02  0.37577604368E+02  0.41800000000E+01 0. -1.
        -11    1    1    2    0    0  0.40731597883E+02  0.22902974714E+02 -0.28980792184E+02  0.54986322230E+02  0.00000000000E+00 0.  1.
         11    1    1    2    0    0 -0.49344441785E+02  0.50927782905E+02 -0.72361640085E+02  0.10131495429E+03  0.00000000000E+00 0. -1.
</event>
<event>
 7    1  0.4394360E-006  0.1064625E+03  0.7561462E-02  0.1267265E+00
          2   -1    0    0  501    0  0.00000000000E+00  0.00000000000E+00  0.45121786491E+03  0.45121786491E+03  0.00000000000E+00 0. -1.
         -2   -1    0    0    0  501 -0.00000000000E+00 -0.00000000000E+00 -0.33419120047E+02  0.33419120047E+02  0.00000000000E+00 0.  1.
         23    2    1    2    0    0 -0.33137706206E+02 -0.72615335277E-01  0.13772582050E+03  0.18871447100E+03  0.12468615435E+03 0.  0.
          5    1    3    3  502    0 -0.51841879706E+02  0.47921698312E+02  0.49009782258E+02  0.86043598353E+02  0.41800000000E+01 0. -1.
         -5    1    3    3    0  502  0.18704173500E+02 -0.47994313647E+02  0.88716038244E+02  0.10267087265E+03  0.41800000000E+01 0.  1.
        -11    1    1    2    0    0 -0.34502787778E+01 -0.37745939418E+02  0.16638013377E+03  0.17064292918E+03  0.00000000000E+00 0.  1.
         11    1    1    2    0    0  0.36587984983E+02  0.37818554754E+02  0.11369279059E+03  0.12527958477E+03  0.00000000000E+00 0. -1.
</event>
<event>
 7    1  0.4394360E-006  0.6803918E+02  0.7561462E-02  0.1366891E+00
          2   -1    0    0  501    0  0.00000000000E+00  0.00000000000E+00  0.23715986083E+03  0.23715986083E+03  0.00000000000E+00 0. -1.
         -2   -1    0    0    0  501 -0.00000000000E+00 -0.00000000000E+00 -0.12579306103E+03  0.12579306103E+03  0.00000000000E+00 0.  1.
         23    2    1    2    0    0 -0.19676728611E+02  0.32802257775E+01 -0.80024888971E+02  0.14982695605E+03  0.12508477275E+03 0.  0.
          5    1    3    3  502    0  0.55993728383E+01  0.21321953556E+02  0.28841096838E+02  0.36541208881E+02  0.41800000000E+01 0. -1.
         -5    1    3    3    0  502 -0.25276101450E+02 -0.18041727779E+02 -0.10886598581E+03  0.11328574717E+03  0.41800000000E+01 0. -1.
        -11    1    1    2    0    0  0.14345570791E-01  0.37254309816E+02  0.13958224667E+03  0.14446829199E+03  0.00000000000E+00 0. -1.
         11    1    1    2    0    0  0.19662383040E+02 -0.40534535593E+02  0.51809442105E+02  0.68657673816E+02  0.00000000000E+00 0.  1.
</event>
<event>
 7    1  0.4394360E-006  0.1061818E+03  0.7561462E-02  0.1267809E+00
         -2   -1    0    0    0  501 -0.00000000000E+00  0.00000000000E+00  0.10037002542E+03  0.10037002542E+03  0.00000000000E+00 0.  1.
          2   -1    0    0  501    0  0.00000000000E+00 -0.00000000000E+00 -0.20132961569E+03  0.20132961569E+03  0.00000000000E+00 0. -1.
         23    2    1    2    0    0  0.32376976605E+02  0.25891877237E+02  0.31684818246E+02  0.13553541629E+03  0.12508902206E+03 0.  0.
          5    1    3    3  502    0  0.61956135435E+02 -0.12844667209E+02 -0.17892524682E+02  0.65887502861E+02  0.41800000000E+01 0. -1.
         -5    1    3    3    0  502 -0.29579158830E+02  0.38736544446E+02  0.49577342928E+02  0.69647913426E+02  0.41800000000E+01 0. -1.
        -11    1    1    2    0    0 -0.24023965730E+02 -0.60151391069E+02 -0.88260774274E+02  0.10947741800E+03  0.00000000000E+00 0. -1.
         11    1    1    2    0    0 -0.83530108753E+01  0.34259513831E+02 -0.44383634245E+02  0.56686806820E+02  0.00000000000E+00 0.  1.
</event>
<event>
 7    1  0.4394360E-006  0.8536740E+02  0.7561462E-02  0.1314475E+00
         -1   -1    0    0    0  501 -0.00000000000E+00  0.00000000000E+00  0.83551499215E+03  0.83551499215E+03  0.00000000000E+00 0.  1.
          1   -1    0    0  501    0  0.00000000000E+00 -0.00000000000E+00 -0.20225163744E+02  0.20225163744E+02  0.00000000000E+00 0. -1.
         23    2    1    2    0    0  0.27982556445E+02 -0.11334423734E+02  0.66236917311E+03  0.67475063582E+03  0.12507600258E+03 0.  0.
          5    1    3    3  502    0  0.31466387217E+02 -0.58181736462E+02  0.21711915218E+03  0.22700979412E+03  0.41800000000E+01 0. -1.
         -5    1    3    3    0  502 -0.34838307720E+01  0.46847312728E+02  0.44525002093E+03  0.44774084170E+03  0.41800000000E+01 0. -1.
        -11    1    1    2    0    0 -0.22729312383E+02 -0.17059487613E+02  0.14919126986E+03  0.15187390415E+03  0.00000000000E+00 0.  1.
         11    1    1    2    0    0 -0.52532440629E+01  0.28393911347E+02  0.37293854290E+01  0.29115615921E+02  0.00000000000E+00 0. -1.
</event>
<event>
 7    1  0.4394360E-006  0.1733758E+03  0.7561462E-02  0.1174373E+00
          1   -1    0    0  501    0  0.00000000000E+00  0.00000000000E+00  0.54446712836E+02  0.54446712836E+02  0.00000000000E+00 0.  1.
         -1   -1    0    0    0  501 -0.00000000000E+00 -0.00000000000E+00 -0.10795434842E+04  0.10795434842E+04  0.00000000000E+00 0. -1.
         23    2    1    2    0    0  0.13935468765E+03  0.92867655172E+02 -0.84785302000E+03  0.87323909402E+03  0.12509053301E+03 0.  0.
          5    1    3    3  502    0  0.12260447379E+03  0.85397912059E+02 -0.83942075315E+03  0.85262496656E+03  0.41800000000E+01 0.  1.
         -5    1    3    3    0  502  0.16750213869E+02  0.74697431129E+01 -0.84322668522E+01  0.20614127464E+02  0.41800000000E+01 0.  1.
        -11    1    1    2    0    0 -0.54736761444E+02 -0.73533453217E+02 -0.43883817854E+02  0.10163203857E+03  0.00000000000E+00 0.  1.
         11    1    1    2    0    0 -0.84617926210E+02 -0.19334201955E+02 -0.13335993347E+03  0.15911906440E+03  0.00000000000E+00 0. -1.
</event>
<event>
 7    1  0.4394360E-006  0.3230055E+02  0.7561462E-02  0.1573968E+00
          3   -1    0    0  501    0  0.00000000000E+00  0.00000000000E+00  0.16444014579E+03  0.16444014579E+03  0.00000000000E+00 0. -1.
         -3   -1    0    0    0  501 -0.00000000000E+00 -0.00000000000E+00 -0.77752925653E+02  0.77752925653E+02  0.00000000000E+00 0.  1.
         23    2    1    2    0    0 -0.17141118603E+01 -0.53670414220E+01  0.14138496825E+02  0.12601296259E+03  0.12509047260E+03 0.  0.
          5    1    3    3  502    0  0.11866120788E+02 -0.14130365060E+02 -0.53289904358E+02  0.56548725413E+02  0.41800000000E+01 0.  1.
         -5    1    3    3    0  502 -0.13580232648E+02  0.87633236378E+01  0.67428401183E+02  0.69464237173E+02  0.41800000000E+01 0.  1.
        -11    1    1    2    0    0  0.14313933342E+02  0.75767050151E+01  0.91716675034E+02  0.93135619534E+02  0.00000000000E+00 0. -1.
         11    1    1    2    0    0 -0.12599821482E+02 -0.22096635931E+01 -0.19167951726E+02  0.23044489319E+02  0.00000000000E+00 0.  1.
</event>
<event>
 7    1  0.4394360E-006  0.1113115E+03  0.7561462E-02  0.1258160E+00
          2   -1    0    0  501    0  0.00000000000E+00  0.00000000000E+00  0.75924607016E+02  0.75924607016E+02  0.00000000000E+00 0. -1.
         -2   -1    0    0    0  501 -0.00000000000E+00 -0.00000000000E+00 -0.21937076166E+03  0.21937076166E+03  0.00000000000E+00 0.  1.
         23    2    1    2    0    0  0.68828079436E+02 -0.16120512124E+02 -0.98788423574E+02  0.17436550893E+03  0.12508797961E+03 0.  0.
          5    1    3    3  502    0  0.10383331726E+03 -0.83664878719E+01 -0.88711192484E+02  0.13688865536E+03  0.41800000000E+01 0.  1.
         -5    1    3    3    0  502 -0.35005237829E+02 -0.77540242518E+01 -0.10077231090E+02  0.37476853576E+02  0.41800000000E+01 0.  1.
        -11    1    1    2    0    0 -0.81965086460E+01 -0.12719367499E+02  0.21749577357E+02  0.26495455814E+02  0.00000000000E+00 0. -1.
         11    1    1    2    0    0 -0.60631570790E+02  0.28839879623E+02 -0.66407308426E+02  0.94434403929E+02  0.00000000000E+00 0.  1.
</event>
<event>
 7    1  0.4394360E-006  0.1962184E+03  0.7561462E-02  0.1152969E+00
          2   -1    0    0  501    0  0.00000000000E+00  0.00000000000E+00  0.15700220261E+04  0.15700220261E+04  0.00000000000E+00 0. -1.
         -2   -1    0    0    0  501 -0.00000000000E+00 -0.00000000000E+00 -0.30776453698E+02  0.30776453698E+02  0.00000000000E+00 0.  1.
         23    2    1    2    0    0 -0.17342244151E+03 -0.16603428340E+02  0.51306648724E+03  0.55608784925E+03  0.12508180803E+03 0.  0.
          5    1    3    3  502    0 -0.17129995788E+03 -0.38969884651E+02  0.49950592962E+03  0.52951484739E+03  0.41800000000E+01 0. -1.
         -5    1    3    3    0  502 -0.21224836314E+01  0.22366456312E+02  0.13560557614E+02  0.26573001854E+02  0.41800000000E+01 0. -1.
        -11    1    1    2    0    0  0.13161805398E+02  0.30277812463E+02  0.12477491546E+03  0.12906881334E+03  0.00000000000E+00 0.  1.
         11    1    1    2    0    0  0.16026063611E+03 -0.13674384123E+02  0.90140416969E+03  0.91564181720E+03  0.00000000000E+00 0. -1.
</event>
<event>
 7    1  0.4394360E-006  0.1614495E+03  0.7561462E-02  0.1187070E+00
         -1   -1    0    0    0  501 -0.00000000000E+00  0.00000000000E+00  0.30187016545E+02  0.30187016545E+02  0.00000000000E+00 0.  1.
          1   -1    0    0  501    0  0.00000000000E+00 -0.00000000000E+00 -0.89869111974E+03  0.89869111974E+03  0.00000000000E+00 0. -1.
         23    2    1    2    0    0  0.48720022714E+02  0.11141538815E+03 -0.40936220004E+03  0.44498540405E+03  0.12509024610E+03 0.  0.
          5    1    3    3  502    0 -0.52113056620E+01  0.11568573654E+03 -0.32119639061E+03  0.34146001389E+03  0.41800000000E+01 0.  1.
         -5    1    3    3    0  502  0.53931328376E+02 -0.42703483930E+01 -0.88165809424E+02  0.10352539016E+03  0.41800000000E+01 0.  1.
        -11    1    1    2    0    0  0.27769161396E+02 -0.34469502920E+02 -0.12968358305E+03  0.13702957589E+03  0.00000000000E+00 0.  1.
         11    1    1    2    0    0 -0.76489184110E+02 -0.76945885230E+02 -0.32945832011E+03  0.34686315634E+03  0.00000000000E+00 0. -1.
</event>
<event>
 7    1  0.4394360E-006  0.8525770E+02  0.7561462E-02  0.1314760E+00
          1   -1    0    0  501    0  0.00000000000E+00  0.00000000000E+00  0.24262448117E+03  0.24262448117E+03  0.00000000000E+00 0. -1.
         -1   -1    0    0    0  501 -0.00000000000E+00 -0.00000000000E+00 -0.97952051306E+02  0.97952051306E+02  0.00000000000E+00 0.  1.
         23    2    1    2    0    0 -0.97893075425E+01 -0.46682835795E+02 -0.43568132386E+02  0.12762273141E+03  0.11006480687E+03 0.  0.
          5    1    3    3  502    0 -0.31247365386E+02 -0.25760671868E+02  0.28341534903E+02  0.49605695836E+02  0.41800000000E+01 0. -1.
         -5    1    3    3    0  502  0.21458057844E+02 -0.20922163927E+02 -0.71909667289E+02  0.78017035572E+02  0.41800000000E+01 0.  1.
        -11    1    1    2    0    0  0.33129242191E+02  0.62921476239E+02  0.13680062950E+03  0.15417869856E+03  0.00000000000E+00 0. -1.
         11    1    1    2    0    0 -0.23339934648E+02 -0.16238640444E+02  0.51439932753E+02  0.58775102505E+02  0.00000000000E+00 0.  1.
</event>
<event>
 7    1  0.4394360E-006  0.1054386E+03  0.7561462E-02  0.1269258E+00
          4   -1    0    0  501    0  0.00000000000E+00  0.00000000000E+00  0.10347821887E+04  0.10347821887E+04  0.00000000000E+00 0. -1.
         -4   -1    0    0    0  501 -0.00000000000E+00 -0.00000000000E+00 -0.14104680184E+02  0.14104680184E+02  0.00000000000E+00 0.  1.
         23    2    1    2    0    0  0.23124765071E+02 -0.43126622307E+02  0.46021325386E+03  0.47941321646E+03  0.12508450255E+03 0.  0.
          5    1    3    3  502    0  0.78406683509E+01  0.32156352912E+02  0.29821695863E+03  0.30007721328E+03  0.41800000000E+01 0. -1.
         -5    1    3    3    0  502  0.15284096720E+02 -0.75282975219E+02  0.16199629523E+03  0.17933600319E+03  0.41800000000E+01 0. -1.
        -11    1    1    2    0    0 -0.49170092220E+02 -0.11848430464E+01  0.29649968834E+03  0.30055143821E+03  0.00000000000E+00 0.  1.
         11    1    1    2    0    0  0.26045327149E+02  0.44311465354E+02  0.26396456628E+03  0.26892221418E+03  0.00000000000E+00 0. -1.
</event>
<event>
 7    1  0.4394360E-006  0.7076975E+02  0.7561462E-02  0.1357495E+00
          2   -1    0    0  501    0  0.00000000000E+00  0.00000000000E+00  0.52362650413E+03  0.52362650413E+03  0.00000000000E+00 0. -1.
         -2   -1    0    0    0  501 -0.00000000000E+00 -0.00000000000E+00 -0.28655717284E+02  0.28655717284E+02  0.00000000000E+00 0.  1.
         23    2    1    2    0    0 -0.34408999674E+02 -0.38464653891E+02  0.21357282260E+03  0.25283208634E+03  0.12508878634E+03 0.  0.
          5    1    3    3  502    0 -0.28177681780E+02 -0.26857482520E+02  0.22888235828E+03  0.23220661586E+03  0.41800000000E+01 0. -1.
         -5    1    3    3    0  502 -0.62313178932E+01 -0.11607171372E+02 -0.15309535674E+02  0.20625470479E+02  0.41800000000E+01 0. -1.
        -11    1    1    2    0    0  0.10965730583E+01 -0.20668017317E+02  0.17938718482E+02  0.27389177298E+02  0.00000000000E+00 0.  1.
         11    1    1    2    0    0  0.33312426615E+02  0.59132671208E+02  0.26345924576E+03  0.27206095778E+03  0.00000000000E+00 0. -1.
</event>
<event>
 7    1  0.4394360E-006  0.1080048E+03  0.7561462E-02  0.1264310E+00
          1   -1    0    0  501    0  0.00000000000E+00  0.00000000000E+00  0.11595561391E+04  0.11595561391E+04  0.00000000000E+00 0. -1.
         -1   -1    0    0    0  501 -0.00000000000E+00 -0.00000000000E+00 -0.15389664975E+02  0.15389664975E+02  0.00000000000E+00 0.  1.
         23    2    1    2    0    0  0.64965736817E+02 -0.26964422993E+02  0.47257670471E+03  0.49388702920E+03  0.12509208092E+03 0.  0.
          5    1    3    3  502    0 -0.13451215052E+02  0.87350675444E+01  0.30464565000E+03  0.30509618328E+03  0.41800000000E+01 0.  1.
         -5    1    3    3    0  502  0.78416951870E+02 -0.35699490537E+02  0.16793105471E+03  0.18879084592E+03  0.41800000000E+01 0.  1.
        -11    1    1    2    0    0 -0.58157873474E+02 -0.23151866633E+02  0.37210606325E+03  0.37733442658E+03  0.00000000000E+00 0.  1.
         11    1    1    2    0    0 -0.68078633437E+01  0.50116289626E+02  0.29948370619E+03  0.30372434832E+03  0.00000000000E+00 0. -1.
</event>
<event>
 7    1  0.4394360E-006  0.9183162E+02  0.7561462E-02  0.1298476E+00
          1   -1    0    0  501    0  0.00000000000E+00  0.00000000000E+00  0.57759831691E+02  0.57759831691E+02  0.00000000000E+00 0. -1.
         -1   -1    0    0    0  501 -0.00000000000E+00 -0.00000000000E+00 -0.26957912134E+03  0.26957912134E+03  0.00000000000E+00 0.  1.
         23    2    1    2    0    0 -0.31455417541E+02  0.57040610874E+01 -0.18817711750E+03  0.22820871599E+03  0.12508641372E+03 0.  0.
          5    1    3    3  502    0 -0.20687620265E+02  0.43242498500E+02 -0.18224204634E+03  0.18848747216E+03  0.41800000000E+01 0.  1.
         -5    1    3    3    0  502 -0.10767797276E+02 -0.37538437412E+02 -0.59350711617E+01  0.39721243828E+02  0.41800000000E+01 0.  1.
        -11    1    1    2    0    0 -0.25685039443E+01  0.39560418202E+02 -0.97428275710E+01  0.40823358386E+02  0.00000000000E+00 0. -1.
         11    1    1    2    0    0  0.34023921485E+02 -0.45264479289E+02 -0.13899344575E+02  0.58306878652E+02  0.00000000000E+00 0.  1.
</event>
<event>
 7    1  0.4394360E-006  0.1105653E+03  0.7561462E-02  0.1259527E+00
          1   -1    0    0  501    0  0.00000000000E+00  0.00000000000E+00  0.72488420532E+03  0.72488420532E+03  0.00000000000E+00 0. -1.
         -1   -1    0    0    0  501 -0.00000000000E+00 -0.00000000000E+00 -0.23797610871E+02  0.23797610871E+02  0.00000000000E+00 0.  1.
         23    2    1    2    0    0  0.12216943157E+02 -0.70130609451E+02  0.41828956796E+03  0.44235889778E+03  0.12509066990E+03 0.  0.
          5    1    3    3  502    0  0.53856390666E+02 -0.35139891756E+02  0.34516500263E+03  0.35112914183E+03  0.41800000000E+01 0.  1.
         -5    1    3    3    0  502 -0.41639447509E+02 -0.34990717696E+02  0.73124565337E+02  0.91229755943E+02  0.41800000000E+01 0.  1.
        -11    1    1    2    0    0 -0.42921479566E+02  0.47335170770E+02  0.24246623447E+03  0.25074438510E+03  0.00000000000E+00 0. -1.
         11    1    1    2    0    0  0.30704536409E+02  0.22795438681E+02  0.40330792013E+02  0.55578533313E+02  0.00000000000E+00 0.  1.
</event>
<event>
 7    1  0.4394360E-006  0.1002886E+03  0.7561462E-02  0.1279690E+00
          3   -1    0    0  501    0  0.00000000000E+00  0.00000000000E+00  0.61927415102E+02  0.61927415102E+02  0.00000000000E+00 0. -1.
         -3   -1    0    0    0  501 -0.00000000000E+00 -0.00000000000E+00 -0.23693647635E+03  0.23693647635E+03  0.00000000000E+00 0.  1.
         23    2    1    2    0    0  0.51422351160E+02  0.12019922719E+02 -0.14451196244E+03  0.19103009680E+03  0.11322567664E+03 0.  0.
          5    1    3    3  502    0 -0.20059322420E+02  0.42387887057E+02 -0.51258924383E+02  0.69599275241E+02  0.41800000000E+01 0. -1.
         -5    1    3    3    0  502  0.71481673580E+02 -0.30367964338E+02 -0.93253038062E+02  0.12143082156E+03  0.41800000000E+01 0.  1.
        -11    1    1    2    0    0  0.11608888473E+02 -0.34320050447E+01  0.22161863771E+02  0.25252587115E+02  0.00000000000E+00 0.  1.
         11    1    1    2    0    0 -0.63031239632E+02 -0.85879176747E+01 -0.52658962572E+02  0.82581207540E+02  0.00000000000E+00 0. -1.
</event>
<event>
 7    1  0.4394360E-006  0.6770739E+02  0.7561462E-02  0.1368067E+00
          4   -1    0    0  501    0  0.00000000000E+00  0.00000000000E+00  0.22192077748E+03  0.22192077748E+03  0.00000000000E+00 0. -1.
         -4   -1    0    0    0  501 -0.00000000000E+00 -0.00000000000E+00 -0.59148896258E+02  0.59148896258E+02  0.00000000000E+00 0.  1.
         23    2    1    2    0    0  0.48879623089E+01  0.31011336647E+02  0.74770955260E+02  0.14908253580E+03  0.12509720842E+03 0.  0.
          5    1    3    3  502    0  0.15273816693E+02  0.18589800210E+02  0.10861836523E+03  0.11132965379E+03  0.41800000000E+01 0.  1.
         -5    1    3    3    0  502 -0.10385854384E+02  0.12421536436E+02 -0.33847409966E+02  0.37752882011E+02  0.41800000000E+01 0.  1.
        -11    1    1    2    0    0  0.35846890856E+02 -0.38772917667E+02  0.30139714027E+02  0.60800831327E+02  0.00000000000E+00 0.  1.
         11    1    1    2    0    0 -0.40734853165E+02  0.77615810204E+01  0.57861211932E+02  0.71186306608E+02  0.00000000000E+00 0. -1.
</event>
<event>
 7    1  0.4394360E-006  0.1123653E+03  0.7561462E-02  0.1256251E+00
          2   -1    0    0  501    0  0.00000000000E+00  0.00000000000E+00  0.37625783806E+03  0.37625783806E+03  0.00000000000E+00 0. -1.
         -2   -1    0    0    0  501 -0.00000000000E+00 -0.00000000000E+00 -0.36696251901E+02  0.36696251901E+02  0.00000000000E+00 0.  1.
         23    2    1    2    0    0 -0.77788624558E+01  0.39558054050E+02  0.18931625346E+03  0.23046782833E+03  0.12509766476E+03 0.  0.
          5    1    3    3  502    0 -0.28345275234E+02 -0.35735249631E+02  0.10978487934E+03  0.11895652494E+03  0.41800000000E+01 0.  1.
         -5    1    3    3    0  502  0.20566412778E+02  0.75293303681E+02  0.79531374127E+02  0.11151130339E+03  0.41800000000E+01 0.  1.
        -11    1    1    2    0    0 -0.29820362451E+02 -0.53017292088E+02  0.11054086788E+03  0.12617198876E+03  0.00000000000E+00 0.  1.
         11    1    1    2    0    0  0.37599224907E+02  0.13459238038E+02  0.39704464811E+02  0.56314272862E+02  0.00000000000E+00 0. -1.
</event>
<event>
 7    1  0.4394360E-006  0.1034933E+03  0.7561462E-02  0.1273117E+00
         -1   -1    0    0    0  501 -0.00000000000E+00  0.00000000000E+00  0.46474637144E+03  0.46474637144E+03  0.00000000000E+00 0.  1.
          1   -1    0    0  501    0  0.00000000000E+00 -0.00000000000E+00 -0.47270343208E+02  0.47270343208E+02  0.00000000000E+00 0. -1.
         23    2    1    2    0    0 -0.27089776384E+02 -0.79008571260E+02  0.32640483922E+03  0.35939894487E+03  0.12510504461E+03 0.  0.
          5    1    3    3  502    0 -0.11514697592E+02 -0.20808225759E+02 -0.31546619376E+01  0.24351484797E+02  0.41800000000E+01 0. -1.
         -5    1    3    3    0  502 -0.15575078792E+02 -0.58200345501E+02  0.32955950116E+03  0.33504746007E+03  0.41800000000E+01 0. -1.
        -11    1    1    2    0    0 -0.78888208946E+01  0.86347286639E+02  0.63223775031E+02  0.10730952024E+03  0.00000000000E+00 0.  1.
         11    1    1    2    0    0  0.34978597279E+02 -0.73387153786E+01  0.27847413980E+02  0.45308249540E+02  0.00000000000E+00 0. -1.
</event>
<event>
 7    1  0.4394360E-006  0.1079941E+03  0.7561462E-02  0.1264330E+00
         -4   -1    0    0    0  501 -0.00000000000E+00  0.00000000000E+00  0.33896064414E+03  0.33896064414E+03  0.00000000000E+00 0. -1.
          4   -1    0    0  501    0  0.00000000000E+00 -0.00000000000E+00 -0.55131873320E+02  0.55131873320E+02  0.00000000000E+00 0.  1.
         23    2    1    2    0    0 -0.36921841554E+02 -0.65919866116E+02  0.18243616298E+03  0.23374981275E+03  0.12508944906E+03 0.  0.
          5    1    3    3  502    0 -0.36983773068E+02 -0.78015113594E+02  0.48326023221E+02  0.99030471774E+02  0.41800000000E+01 0. -1.
         -5    1    3    3    0  502  0.61931514323E-01  0.12095247477E+02  0.13411013975E+03  0.13471934097E+03  0.41800000000E+01 0. -1.
        -11    1    1    2    0    0  0.22000976880E+02  0.87663107005E+02  0.51796306149E+02  0.10417159231E+03  0.00000000000E+00 0.  1.
         11    1    1    2    0    0  0.14920864674E+02 -0.21743240888E+02  0.49596301691E+02  0.56171112401E+02  0.00000000000E+00 0. -1.
</event>
<event>
 7    1  0.4394360E-006  0.1184959E+03  0.7561462E-02  0.1245599E+00
          1   -1    0    0  501    0  0.00000000000E+00  0.00000000000E+00  0.51859899264E+02  0.51859899264E+02  0.00000000000E+00 0. -1.
         -1   -1    0    0    0  501 -0.00000000000E+00 -0.00000000000E+00 -0.40546221981E+03  0.40546221981E+03  0.00000000000E+00 0.  1.
         23    2    1    2    0    0  0.11082676664E+02 -0.94952365353E+02 -0.19269433855E+03  0.24883822730E+03  0.12510226956E+03 0.  0.
          5    1    3    3  502    0  0.25331173205E+02 -0.76996834544E+02 -0.33267286360E+02  0.87717533067E+02  0.41800000000E+01 0.  1.
         -5    1    3    3    0  502 -0.14248496541E+02 -0.17955530810E+02 -0.15942705219E+03  0.16112069424E+03  0.41800000000E+01 0.  1.
        -11    1    1    2    0    0 -0.91585704779E+01 -0.17662595684E+02 -0.26026338180E+02  0.32759990515E+02  0.00000000000E+00 0.  1.
         11    1    1    2    0    0 -0.19241061857E+01  0.11261496104E+03 -0.13488164381E+03  0.17572390125E+03  0.00000000000E+00 0. -1.
</event>
<event>
 7    1  0.4394360E-006  0.8081713E+02  0.7561462E-02  0.1326748E+00
         -3   -1    0    0    0  501 -0.00000000000E+00  0.00000000000E+00  0.68859362342E+02  0.68859362342E+02  0.00000000000E+00 0.  1.
          3   -1    0    0  501    0  0.00000000000E+00 -0.00000000000E+00 -0.19611825484E+03  0.19611825484E+03  0.00000000000E+00 0. -1.
         23    2    1    2    0    0 -0.11393701931E+02  0.32914672027E+02 -0.52628724099E+02  0.14010449389E+03  0.12508514912E+03 0.  0.
          5    1    3    3  502    0 -0.66226369034E+02  0.95169139188E+01 -0.12696959581E+02  0.68228943921E+02  0.41800000000E+01 0.  1.
         -5    1    3    3    0  502  0.54832667103E+02  0.23397758108E+02 -0.39931764518E+02  0.71875549971E+02  0.41800000000E+01 0.  1.
        -11    1    1    2    0    0  0.71676304441E+01 -0.19939635569E+02 -0.96662293319E+02  0.98957379424E+02  0.00000000000E+00 0. -1.
         11    1    1    2    0    0  0.42260714871E+01 -0.12975036458E+02  0.22032124924E+02  0.25915743863E+02  0.00000000000E+00 0.  1.
</event>
<event>
 7    1  0.4394360E-006  0.9616456E+02  0.7561462E-02  0.1288575E+00
          1   -1    0    0  501    0  0.00000000000E+00  0.00000000000E+00  0.14384175911E+03  0.14384175911E+03  0.00000000000E+00 0.  1.
         -1   -1    0    0    0  501 -0.00000000000E+00 -0.00000000000E+00 -0.15878180937E+03  0.15878180937E+03  0.00000000000E+00 0. -1.
         23    2    1    2    0    0  0.83036722680E+00 -0.64686901323E+02 -0.91417886295E+02  0.16789177006E+03  0.12508130078E+03 0.  0.
          5    1    3    3  502    0  0.53025207157E+02 -0.36373443610E+02 -0.73106373150E+01  0.64850734861E+02  0.41800000000E+01 0.  1.
         -5    1    3    3    0  502 -0.52194839930E+02 -0.28313457713E+02 -0.84107248980E+02  0.10304103519E+03  0.41800000000E+01 0.  1.
        -11    1    1    2    0    0  0.94528599167E+01  0.46691681718E+02  0.95421704971E+02  0.10665257372E+03  0.00000000000E+00 0.  1.
         11    1    1    2    0    0 -0.10283227144E+02  0.17995219606E+02 -0.18943868936E+02  0.28079224694E+02  0.00000000000E+00 0. -1.
</event>
<event>
 7    1  0.4394360E-006  0.1125184E+03  0.7561462E-02  0.1255976E+00
         -2   -1    0    0    0  501 -0.00000000000E+00  0.00000000000E+00  0.14210283612E+03  0.14210283612E+03  0.00000000000E+00 0.  1.
          2   -1    0    0  501    0  0.00000000000E+00 -0.00000000000E+00 -0.14815496505E+03  0.14815496505E+03  0.00000000000E+00 0. -1.
         23    2    1    2    0    0  0.26349543834E+02  0.85253248587E+02  0.31808560353E+02  0.15691250644E+03  0.12508930933E+03 0.  0.
          5    1    3    3  502    0  0.73270451726E+01  0.80923776934E+02 -0.33974201775E+02  0.88170641658E+02  0.41800000000E+01 0. -1.
         -5    1    3    3    0  502  0.19022498661E+02  0.43294716526E+01  0.65782762127E+02  0.68741864778E+02  0.41800000000E+01 0. -1.
        -11    1    1    2    0    0 -0.46859837680E+02 -0.13021272315E+02 -0.31594844505E+02  0.57996828529E+02  0.00000000000E+00 0.  1.
         11    1    1    2    0    0  0.20510293846E+02 -0.72231976271E+02 -0.62658447751E+01  0.75348466211E+02  0.00000000000E+00 0. -1.
</event>
<event>
 6    1  0.4394360E-006  0.3204525E+03  0.7561462E-02  0.1075441E+00
          2   -1    0    0  501    0  0.00000000000E+00  0.00000000000E+00  0.12675710916E+04  0.12675710916E+04  0.00000000000E+00 0. -1.
         -2   -1    0    0    0  501 -0.00000000000E+00 -0.00000000000E+00 -0.10271033872E+03  0.10271033872E+03  0.00000000000E+00 0.  1.
          5    1    1    2  502    0 -0.30474818482E+02 -0.61637794037E+02  0.13236961354E+03  0.14922171157E+03  0.41800000000E+01 0. -1.
         -5    1    1    2    0  502  0.41546581464E+02 -0.24686163691E+03  0.17615200261E+03  0.30612707596E+03  0.41800000000E+01 0.  1.
        -11    1    1    2    0    0  0.26317550405E+02  0.27094667322E+02  0.85038623634E+02  0.93049997131E+02  0.00000000000E+00 0.  1.
         11    1    1    2    0    0 -0.37389313387E+02  0.28140476363E+03  0.77130051309E+03  0.82188264567E+03  0.00000000000E+00 0. -1.
</event>
<event>
 7    1  0.4394360E-006  0.1021892E+03  0.7561462E-02  0.1275759E+00
         -1   -1    0    0    0  501 -0.00000000000E+00  0.00000000000E+00  0.19051380173E+03  0.19051380173E+03  0.00000000000E+00 0.  1.
          1   -1    0    0  501    0  0.00000000000E+00 -0.00000000000E+00 -0.75787546434E+02  0.75787546434E+02  0.00000000000E+00 0. -1.
         23    2    1    2    0    0 -0.91488419494E+01 -0.51671532158E+02  0.53176131898E+02  0.14570115244E+03  0.12508987279E+03 0.  0.
          5    1    3    3  502    0  0.40165188031E+02 -0.16495764841E+02 -0.22172357674E+02  0.48932999419E+02  0.41800000000E+01 0. -1.
         -5    1    3    3    0  502 -0.49314029981E+02 -0.35175767316E+02  0.75348489571E+02  0.96768153025E+02  0.41800000000E+01 0. -1.
        -11    1    1    2    0    0  0.44678402882E+02  0.10958086104E+02  0.44331401426E+02  0.63886716049E+02  0.00000000000E+00 0.  1.
         11    1    1    2    0    0 -0.35529560933E+02  0.40713446054E+02  0.17218721969E+02  0.56713479667E+02  0.00000000000E+00 0. -1.
</event>
<event>
 7    1  0.4394360E-006  0.2253694E+03  0.7561462E-02  0.1129942E+00
          1   -1    0    0  501    0  0.00000000000E+00  0.00000000000E+00  0.23951897282E+03  0.23951897282E+03  0.00000000000E+00 0. -1.
         -1   -1    0    0    0  501 -0.00000000000E+00 -0.00000000000E+00 -0.23192598005E+03  0.23192598005E+03  0.00000000000E+00 0.  1.
         23    2    1    2    0    0  0.18078649961E+03  0.96468576368E+02 -0.39950666525E+02  0.24338195026E+03  0.12509505702E+03 0.  0.
          5    1    3    3  502    0  0.14754629216E+01 -0.16241744933E+02  0.17103426659E+02  0.23999393175E+02  0.41800000000E+01 0.  1.
         -5    1    3    3    0  502  0.17931103669E+03  0.11271032130E+03 -0.57054093183E+02  0.21938255709E+03  0.41800000000E+01 0.  1.
        -11    1    1    2    0    0 -0.12182237349E+03 -0.10703707292E+03  0.25118014976E+02  0.16409917836E+03  0.00000000000E+00 0. -1.
         11    1    1    2    0    0 -0.58964126122E+02  0.10568496551E+02  0.22425644317E+02  0.63963824243E+02  0.00000000000E+00 0.  1.
</event>
<event>
 7    1  0.4394360E-006  0.5964725E+02  0.7561462E-02  0.1399318E+00
         -2   -1    0    0    0  501 -0.00000000000E+00  0.00000000000E+00  0.32769760842E+02  0.32769760842E+02  0.00000000000E+00 0.  1.
          2   -1    0    0  501    0  0.00000000000E+00 -0.00000000000E+00 -0.43509188419E+03  0.43509188419E+03  0.00000000000E+00 0. -1.
         23    2    1    2    0    0  0.40128947911E+01 -0.46688139922E+02 -0.18990875518E+03  0.23218215921E+03  0.12508930420E+03 0.  0.
          5    1    3    3  502    0  0.54416980222E+01 -0.41437964313E+02 -0.20833137201E+03  0.21252329267E+03  0.41800000000E+01 0.  1.
         -5    1    3    3    0  502 -0.14288032311E+01 -0.52501756087E+01  0.18422616830E+02  0.19658866536E+02  0.41800000000E+01 0.  1.
        -11    1    1    2    0    0 -0.25377625170E+02  0.86642944910E+01 -0.99989590153E+01  0.28619452121E+02  0.00000000000E+00 0.  1.
         11    1    1    2    0    0  0.21364730379E+02  0.38023845431E+02 -0.20241440915E+03  0.20706003371E+03  0.00000000000E+00 0. -1.
</event>
<event>
 7    1  0.1142351E-005  0.1032128E+03  0.7561462E-02  0.1273681E+00
         -1   -1    0    0    0  501 -0.00000000000E+00  0.00000000000E+00  0.19553646884E+03  0.19553646884E+03  0.00000000000E+00 0.  1.
          1   -1    0    0  501    0  0.00000000000E+00 -0.00000000000E+00 -0.11821014892E+03  0.11821014892E+03  0.00000000000E+00 0. -1.
         23    2    1    2    0    0 -0.53857493655E+02  0.80755230630E+02  0.69353970813E+02  0.17285725150E+03  0.12509044420E+03 0.  0.
          5    1    3    3  502    0  0.47222949528E+01 -0.84096150501E+00  0.72008102192E+02  0.72288633042E+02  0.41800000000E+01 0.  1.
         -5    1    3    3    0  502 -0.58579788608E+02  0.81596192135E+02 -0.26541313785E+01  0.10056861845E+03  0.41800000000E+01 0.  1.
        -11    1    1    2    0    0  0.48899649030E+02 -0.56274770612E+02  0.51565344630E+02  0.90647726113E+02  0.00000000000E+00 0.  1.
         11    1    1    2    0    0  0.49578446244E+01 -0.24480460018E+02 -0.43592995528E+02  0.50241640151E+02  0.00000000000E+00 0. -1.
</event>
<event>
 7    1  0.4394360E-006  0.1039447E+03  0.7561462E-02  0.1272213E+00
          4   -1    0    0  501    0  0.00000000000E+00  0.00000000000E+00  0.24999897774E+03  0.24999897774E+03  0.00000000000E+00 0. -1.
         -4   -1    0    0    0  501 -0.00000000000E+00 -0.00000000000E+00 -0.68221821026E+02  0.68221821026E+02  0.00000000000E+00 0.  1.
         23    2    1    2    0    0 -0.19322082858E+02 -0.12315255097E+02  0.17878239432E+02  0.12842094155E+03  0.12508916176E+03 0.  0.
          5    1    3    3  502    0 -0.50046259375E+02  0.41017002348E+02  0.15577968173E+02  0.66687090591E+02  0.41800000000E+01 0. -1.
         -5    1    3    3    0  502  0.30724176518E+02 -0.53332257445E+02  0.23002712592E+01  0.61733850963E+02  0.41800000000E+01 0. -1.
        -11    1    1    2    0    0  0.48550947836E+02  0.17621131503E+02  0.14657963985E+03  0.15541328653E+03  0.00000000000E+00 0.  1.
         11    1    1    2    0    0 -0.29228864978E+02 -0.53058764057E+01  0.17319277426E+02  0.34386570677E+02  0.00000000000E+00 0. -1.
</event>
<event>
 7    1  0.4394360E-006  0.6778180E+02  0.7561462E-02  0.1367803E+00
         -2   -1    0    0    0  501 -0.00000000000E+00  0.00000000000E+00  0.37786437861E+02  0.37786437861E+02  0.00000000000E+00 0.  1.
          2   -1    0    0  501    0  0.00000000000E+00 -0.00000000000E+00 -0.34015293911E+03  0.34015293911E+03  0.00000000000E+00 0. -1.
         23    2    1    2    0    0 -0.29927473003E+02 -0.16729955343E+02 -0.17135314910E+03  0.21490626329E+03  0.12508898932E+03 0.  0.
          5    1    3    3  502    0 -0.41975597285E+02 -0.11006084230E+02 -0.61789635431E+00  0.43599757493E+02  0.41800000000E+01 0.  1.
         -5    1    3    3    0  502  0.12048124282E+02 -0.57238711129E+01 -0.17073525274E+03  0.17130650580E+03  0.41800000000E+01 0.  1.
        -11    1    1    2    0    0  0.38602214948E+02 -0.17712452389E+02 -0.11765479866E+03  0.12508602486E+03  0.00000000000E+00 0. -1.
         11    1    1    2    0    0 -0.86747419451E+01  0.34442407732E+02 -0.13358553489E+02  0.37947088815E+02  0.00000000000E+00 0.  1.
</event>
<event>
 7    1  0.4394360E-006  0.6185134E+02  0.7561462E-02  0.1390223E+00
          2   -1    0    0  501    0  0.00000000000E+00  0.00000000000E+00  0.58863028652E+02  0.58863028652E+02  0.00000000000E+00 0. -1.
         -2   -1    0    0    0  501 -0.00000000000E+00 -0.00000000000E+00 -0.17126473530E+03  0.17126473530E+03  0.00000000000E+00 0.  1.
         23    2    1    2    0    0  0.89783808300E+01 -0.33390352119E+02 -0.10108370214E+03  0.16450257630E+03  0.12509059051E+03 0.  0.
          5    1    3    3  502    0 -0.30919343489E+02 -0.16839989539E+02  0.16544115387E+02  0.39125071290E+02  0.41800000000E+01 0. -1.
         -5    1    3    3    0  502  0.39897724319E+02 -0.16550362580E+02 -0.11762781752E+03  0.12537750501E+03  0.41800000000E+01 0. -1.
        -11    1    1    2    0    0  0.10216379745E+02  0.77544878002E+01 -0.27055549508E+02  0.29941764399E+02  0.00000000000E+00 0.  1.
         11    1    1    2    0    0 -0.19194760575E+02  0.25635864319E+02  0.15737544992E+02  0.35683423256E+02  0.00000000000E+00 0. -1.
</event>
<event>
 7    1  0.4394360E-006  0.6638574E+02  0.7561462E-02  0.1372833E+00
          1   -1    0    0  501    0  0.00000000000E+00  0.00000000000E+00  0.14340723009E+03  0.14340723009E+03  0.00000000000E+00 0. -1.
         -1   -1    0    0    0  501 -0.00000000000E+00 -0.00000000000E+00 -0.10672678028E+03  0.10672678028E+03  0.00000000000E+00 0.  1.
         23    2    1    2    0    0 -0.88898606351E+01 -0.50668553445E+02 -0.10331237820E+02  0.13577230954E+03  0.12522401380E+03 0.  0.
          5    1    3    3  502    0 -0.26437978575E+02 -0.31313141170E+02  0.53005853998E+02  0.67131009818E+02  0.41800000000E+01 0. -1.
         -5    1    3    3    0  502  0.17548117940E+02 -0.19355412275E+02 -0.63337091818E+02  0.68641299722E+02  0.41800000000E+01 0. -1.
        -11    1    1    2    0    0  0.22651947262E+02  0.44713389356E+02  0.70495523020E+02  0.86498651251E+02  0.00000000000E+00 0. -1.
         11    1    1    2    0    0 -0.13762086627E+02  0.59551640893E+01 -0.23483835390E+02  0.27863049587E+02  0.00000000000E+00 0.  1.
</event>
<event>
 7    1  0.4394360E-006  0.1245022E+03  0.7561462E-02  0.1235849E+00
          2   -1    0    0  501    0  0.00000000000E+00  0.00000000000E+00  0.54599012072E+03  0.54599012072E+03  0.00000000000E+00 0. -1.
         -2   -1    0    0    0  501 -0.00000000000E+00 -0.00000000000E+00 -0.42241430075E+02  0.42241430075E+02  0.00000000000E+00 0.  1.
         23    2    1    2    0    0 -0.96448839090E+02 -0.38267150869E+02  0.22710530931E+03  0.27926923179E+03  0.12509088260E+03 0.  0.
          5    1    3    3  502    0  0.14956255145E+02 -0.27913467721E+02  0.75634535426E+01  0.32825744130E+02  0.41800000000E+01 0.  1.
         -5    1    3    3    0  502 -0.11140509423E+03 -0.10353683148E+02  0.21954185577E+03  0.24644348766E+03  0.41800000000E+01 0.  1.
        -11    1    1    2    0    0  0.38261145699E+02  0.65169272588E+01  0.19543784829E+02  0.43455093333E+02  0.00000000000E+00 0.  1.
         11    1    1    2    0    0  0.58187693391E+02  0.31750223610E+02  0.25709959650E+03  0.26550722567E+03  0.00000000000E+00 0. -1.
</event>
<event>
 7    1  0.4394360E-006  0.1860644E+03  0.7561462E-02  0.1162060E+00
         -2   -1    0    0    0  501 -0.00000000000E+00  0.00000000000E+00  0.77447130105E+02  0.77447130105E+02  0.00000000000E+00 0. -1.
          2   -1    0    0  501    0  0.00000000000E+00 -0.00000000000E+00 -0.54746833109E+03  0.54746833109E+03  0.00000000000E+00 0.  1.
         23    2    1    2    0    0  0.97913902339E+02 -0.11535094245E+03 -0.11283464215E+03  0.22643268496E+03  0.12508849728E+03 0.  0.
          5    1    3    3  502    0 -0.12822750162E+02  0.18257098499E+02 -0.11704396099E+02  0.25538399624E+02  0.41800000000E+01 0. -1.
         -5    1    3    3    0  502  0.11073665250E+03 -0.13360804095E+03 -0.10113024606E+03  0.20089428534E+03  0.41800000000E+01 0. -1.
        -11    1    1    2    0    0 -0.73127114991E+02  0.12845346685E+03 -0.28515592054E+03  0.32118805568E+03  0.00000000000E+00 0. -1.
         11    1    1    2    0    0 -0.24786787349E+02 -0.13102524401E+02 -0.72030638298E+02  0.77294720560E+02  0.00000000000E+00 0.  1.
</event>
<event>
 7    1  0.4394360E-006  0.1257229E+03  0.7561462E-02  0.1233944E+00
          1   -1    0    0  501    0  0.00000000000E+00  0.00000000000E+00  0.39206136851E+03  0.39206136851E+03  0.00000000000E+00 0. -1.
         -1   -1    0    0    0  501 -0.00000000000E+00 -0.00000000000E+00 -0.61413005298E+02  0.61413005298E+02  0.00000000000E+00 0.  1.
         23    2    1    2    0    0 -0.82273501710E+02  0.72786699764E+02  0.17583831032E+03  0.24214378048E+03  0.12509063234E+03 0.  0.
          5    1    3    3  502    0 -0.72340001002E+02  0.62571276574E+02  0.37197656999E+02  0.10271016738E+03  0.41800000000E+01 0.  1.
         -5    1    3    3    0  502 -0.99335007079E+01  0.10215423190E+02  0.13864065332E+03  0.13943361310E+03  0.41800000000E+01 0.  1.
        -11    1    1    2    0    0  0.90901900583E+02 -0.27808232790E+02  0.83200745380E+02  0.12632821289E+03  0.00000000000E+00 0.  1.
         11    1    1    2    0    0 -0.86283988735E+01 -0.44978466974E+02  0.71609307508E+02  0.85002380439E+02  0.00000000000E+00 0. -1.
</event>
<event>
 7    1  0.4394360E-006  0.1289461E+03  0.7561462E-02  0.1229028E+00
          4   -1    0    0  501    0  0.00000000000E+00  0.00000000000E+00  0.27620759688E+03  0.27620759688E+03  0.00000000000E+00 0.  1.
         -4   -1    0    0    0  501 -0.00000000000E+00 -0.00000000000E+00 -0.75140203238E+02  0.75140203238E+02  0.00000000000E+00 0. -1.
         23    2    1    2    0    0  0.30041241509E+02  0.72431433755E+02  0.45488348227E+02  0.15447807201E+03  0.12508195761E+03 0.  0.
          5    1    3    3  502    0  0.60640974348E+02  0.15156416787E+01  0.47414149467E+02  0.77105115973E+02  0.41800000000E+01 0.  1.
         -5    1    3    3    0  502 -0.30599732839E+02  0.70915792076E+02 -0.19258012398E+01  0.77372956038E+02  0.41800000000E+01 0.  1.
        -11    1    1    2    0    0 -0.62256623589E+02 -0.39837298756E+02  0.84119853436E+02  0.11197788753E+03  0.00000000000E+00 0. -1.
         11    1    1    2    0    0  0.32215382080E+02 -0.32594134999E+02  0.71459191981E+02  0.84891840582E+02  0.00000000000E+00 0.  1.
</event>
<event>
 7    1  0.4394360E-006  0.2039592E+03  0.7561462E-02  0.1146441E+00
          2   -1    0    0  501    0  0.00000000000E+00  0.00000000000E+00  0.27131015371E+02  0.27131015371E+02  0.00000000000E+00 0. -1.
         -2   -1    0    0    0  501 -0.00000000000E+00 -0.00000000000E+00 -0.21100074226E+04  0.21100074226E+04  0.00000000000E+00 0.  1.
         23    2    1    2    0    0 -0.19426670506E+03  0.23708707425E+02 -0.14569570752E+04  0.14753552551E+04  0.12509018453E+03 0.  0.
          5    1    3    3  502    0 -0.60116257232E+02  0.39840231682E+02 -0.87173522177E+03  0.87472337211E+03  0.41800000000E+01 0. -1.
         -5    1    3    3    0  502 -0.13415044783E+03 -0.16131524257E+02 -0.58522185342E+03  0.60063188298E+03  0.41800000000E+01 0. -1.
        -11    1    1    2    0    0  0.10849749549E+03  0.86137540036E+01 -0.21758430866E+03  0.24328755550E+03  0.00000000000E+00 0. -1.
         11    1    1    2    0    0  0.85769209572E+02 -0.32322461429E+02 -0.40833502339E+03  0.41849562740E+03  0.00000000000E+00 0.  1.
</event>
<event>
 7    1  0.4394360E-006  0.1282702E+03  0.7561462E-02  0.1230045E+00
          2   -1    0    0  501    0  0.00000000000E+00  0.00000000000E+00  0.71459784945E+03  0.71459784945E+03  0.00000000000E+00 0. -1.
         -2   -1    0    0    0  501 -0.00000000000E+00 -0.00000000000E+00 -0.25668560665E+02  0.25668560665E+02  0.00000000000E+00 0.  1.
         23    2    1    2    0    0 -0.77718286421E+02  0.60577882488E+01  0.32013819801E+03  0.35243632651E+03  0.12508424990E+03 0.  0.
          5    1    3    3  502    0 -0.70151224907E+02  0.54970712763E+02  0.14374945682E+03  0.16918732918E+03  0.41800000000E+01 0.  1.
         -5    1    3    3    0  502 -0.75670615147E+01 -0.48912924514E+02  0.17638874119E+03  0.18324899733E+03  0.41800000000E+01 0.  1.
        -11    1    1    2    0    0  0.17391932158E+02 -0.43361683366E+02  0.11034841480E+03  0.11983107918E+03  0.00000000000E+00 0.  1.
         11    1    1    2    0    0  0.60326354263E+02  0.37303895117E+02  0.25844267598E+03  0.26799900443E+03  0.00000000000E+00 0. -1.
</event>
<event>
 7    1  0.4394360E-006  0.1132109E+03  0.7561462E-02  0.1254737E+00
         -1   -1    0    0    0  501 -0.00000000000E+00  0.00000000000E+00  0.85247574242E+03  0.85247574242E+03  0.00000000000E+00 0.  1.
          1   -1    0    0  501    0  0.00000000000E+00 -0.00000000000E+00 -0.16023614701E+02  0.16023614701E+02  0.00000000000E+00 0. -1.
         23    2    1    2    0    0  0.38936399625E+02  0.11158810954E+02  0.55795467766E+03  0.57323778579E+03  0.12509026522E+03 0.  0.
          5    1    3    3  502    0  0.80860199356E+02 -0.97880253500E+01  0.40811158128E+03  0.41618110536E+03  0.41800000000E+01 0. -1.
         -5    1    3    3    0  502 -0.41923799731E+02  0.20946836304E+02  0.14984309638E+03  0.15705668043E+03  0.41800000000E+01 0. -1.
        -11    1    1    2    0    0  0.29070699468E+02 -0.53385106901E+01  0.94354015789E+02  0.98875100806E+02  0.00000000000E+00 0. -1.
         11    1    1    2    0    0 -0.68007099094E+02 -0.58203002637E+01  0.18414343427E+03  0.19638647053E+03  0.00000000000E+00 0.  1.
</event>
<event>
 7    1  0.4394360E-006  0.7102144E+02  0.7561462E-02  0.1356654E+00
         -1   -1    0    0    0  501 -0.00000000000E+00  0.00000000000E+00  0.17018461073E+03  0.17018461073E+03  0.00000000000E+00 0.  1.
          1   -1    0    0  501    0  0.00000000000E+00 -0.00000000000E+00 -0.89538492004E+02  0.89538492004E+02  0.00000000000E+00 0. -1.
         23    2    1    2    0    0 -0.20810605679E+02  0.36129531685E+02  0.90310931322E+02  0.15982013901E+03  0.12509191879E+03 0.  0.
          5    1    3    3  502    0 -0.58755974836E+01  0.18005012357E+02 -0.30791438243E+02  0.36390770600E+02  0.41800000000E+01 0. -1.
         -5    1    3    3    0  502 -0.14935008196E+02  0.18124519328E+02  0.12110236957E+03  0.12342936841E+03  0.41800000000E+01 0. -1.
        -11    1    1    2    0    0  0.54515499897E+02 -0.84231270820E+01 -0.11013586350E+02  0.56251114506E+02  0.00000000000E+00 0.  1.
         11    1    1    2    0    0 -0.33704894218E+02 -0.27706404603E+02  0.13487737576E+01  0.43651849227E+02  0.00000000000E+00 0. -1.
</event>
<event>
 7    1  0.4394360E-006  0.1248668E+03  0.7561462E-02  0.1235278E+00
          1   -1    0    0  501    0  0.00000000000E+00  0.00000000000E+00  0.48034169756E+03  0.48034169756E+03  0.00000000000E+00 0. -1.
         -1   -1    0    0    0  501 -0.00000000000E+00 -0.00000000000E+00 -0.43740375747E+02  0.43740375747E+02  0.00000000000E+00 0.  1.
         23    2    1    2    0    0 -0.34958074924E+02  0.60921621267E+02  0.12475205071E+03  0.19011528509E+03  0.12508891450E+03 0.  0.
          5    1    3    3  502    0 -0.80147660101E+02  0.20923362443E+02  0.73971924971E+02  0.11113393991E+03  0.41800000000E+01 0.  1.
         -5    1    3    3    0  502  0.45189585176E+02  0.39998258824E+02  0.50780125736E+02  0.78981345184E+02  0.41800000000E+01 0.  1.
        -11    1    1    2    0    0  0.12942201288E+02 -0.77605869630E+02  0.28417453533E+03  0.29486494893E+03  0.00000000000E+00 0. -1.
         11    1    1    2    0    0  0.22015873637E+02  0.16684248363E+02  0.27674735775E+02  0.39101839287E+02  0.00000000000E+00 0.  1.
</event>
<event>
 7    1  0.4394360E-006  0.1119729E+03  0.7561462E-02  0.1256959E+00
          1   -1    0    0  501    0  0.00000000000E+00  0.00000000000E+00  0.33322149062E+03  0.33322149062E+03  0.00000000000E+00 0. -1.
         -1   -1    0    0    0  501 -0.00000000000E+00 -0.00000000000E+00 -0.45132894041E+02  0.45132894041E+02  0.00000000000E+00 0.  1.
         23    2    1    2    0    0 -0.38916111848E+02  0.25312245632E+02  0.10989032011E+03  0.17285451644E+03  0.12509047869E+03 0.  0.
          5    1    3    3  502    0 -0.64146441866E+02  0.54418027651E+02  0.10373932717E+03  0.13362413008E+03  0.41800000000E+01 0.  1.
         -5    1    3    3    0  502  0.25230330018E+02 -0.29105782019E+02  0.61509929409E+01  0.39230386359E+02  0.41800000000E+01 0.  1.
        -11    1    1    2    0    0  0.68302789834E+02 -0.19366358615E+02  0.10895652722E+03  0.13004557574E+03  0.00000000000E+00 0.  1.
         11    1    1    2    0    0 -0.29386677986E+02 -0.59458870173E+01  0.69241749248E+02  0.75454292485E+02  0.00000000000E+00 0. -1.
</event>
<event>
 7    1  0.4394360E-006  0.1247221E+03  0.7561462E-02  0.1235504E+00
          2   -1    0    0  501    0  0.00000000000E+00  0.00000000000E+00  0.17028425041E+03  0.17028425041E+03  0.00000000000E+00 0. -1.
         -2   -1    0    0    0  501 -0.00000000000E+00 -0.00000000000E+00 -0.10522753289E+03  0.10522753289E+03  0.00000000000E+00 0.  1.
         23    2    1    2    0    0  0.51212051993E+02 -0.44023083243E+02 -0.66308637694E+01  0.14231370476E+03  0.12509402895E+03 0.  0.
          5    1    3    3  502    0 -0.28773976556E+02 -0.53303528126E+02  0.46570770869E+01  0.60896375955E+02  0.41800000000E+01 0. -1.
         -5    1    3    3    0  502  0.79986028549E+02  0.92804448826E+01 -0.11287940856E+02  0.81417328800E+02  0.41800000000E+01 0. -1.
        -11    1    1    2    0    0 -0.32654347446E+01 -0.24360046218E+02  0.24251019332E+01  0.24697288013E+02  0.00000000000E+00 0.  1.
         11    1    1    2    0    0 -0.47946617248E+02  0.68383129461E+02  0.69262479347E+02  0.10850079053E+03  0.00000000000E+00 0. -1.
</event>
<event>
 6    1  0.4394360E-006  0.1495002E+03  0.7561462E-02  0.1201088E+00
         -1   -1    0    0    0  501 -0.00000000000E+00  0.00000000000E+00  0.40905062605E+03  0.40905062605E+03  0.00000000000E+00 0.  1.
          1   -1    0    0  501    0  0.00000000000E+00 -0.00000000000E+00 -0.15640236443E+03  0.15640236443E+03  0.00000000000E+00 0. -1.
          5    1    1    2  502    0 -0.10842724147E+03 -0.33270374940E+02  0.20155497199E+03  0.23131204827E+03  0.41800000000E+01 0. -1.
         -5    1    1    2    0  502  0.61297096161E+02 -0.31567753520E+02  0.15870918683E+03  0.17308938571E+03  0.41800000000E+01 0.  1.
        -11    1    1    2    0    0 -0.24764941087E+02  0.15032136765E+02 -0.11692317047E+02  0.31240642130E+02  0.00000000000E+00 0.  1.
         11    1    1    2    0    0  0.71895086396E+02  0.49805991694E+02 -0.95923580160E+02  0.12981091436E+03  0.00000000000E+00 0. -1.
</event>
<event>
 7    1  0.4394360E-006  0.8369509E+02  0.7561462E-02  0.1318881E+00
          1   -1    0    0  501    0  0.00000000000E+00  0.00000000000E+00  0.10028572686E+03  0.10028572686E+03  0.00000000000E+00 0. -1.
         -1   -1    0    0    0  501 -0.00000000000E+00 -0.00000000000E+00 -0.13102107697E+03  0.13102107697E+03  0.00000000000E+00 0.  1.
         23    2    1    2    0    0 -0.29849076883E+02  0.19150367491E+02 -0.33041044668E+02  0.13414649434E+03  0.12508344153E+03 0.  0.
          5    1    3    3  502    0 -0.55637883501E+02  0.47546128960E+02 -0.53234893903E+02  0.90595997640E+02  0.41800000000E+01 0.  1.
         -5    1    3    3    0  502  0.25788806617E+02 -0.28395761469E+02  0.20193849235E+02  0.43550496703E+02  0.41800000000E+01 0.  1.
        -11    1    1    2    0    0  0.38682862155E+02 -0.23898830230E+02  0.38513834916E+02  0.59588869689E+02  0.00000000000E+00 0. -1.
         11    1    1    2    0    0 -0.88337852712E+01  0.47484627383E+01 -0.36208140352E+02  0.37571439796E+02  0.00000000000E+00 0.  1.
</event>
<event>
 7    1  0.4394360E-006  0.1000132E+03  0.7561462E-02  0.1280268E+00
         -1   -1    0    0    0  501 -0.00000000000E+00  0.00000000000E+00  0.26167026771E+02  0.26167026771E+02  0.00000000000E+00 0.  1.
          1   -1    0    0  501    0  0.00000000000E+00 -0.00000000000E+00 -0.53118983039E+03  0.53118983039E+03  0.00000000000E+00 0. -1.
         23    2    1    2    0    0  0.14260934165E+02 -0.34234821160E+02 -0.20670441706E+03  0.24443666251E+03  0.12508864347E+03 0.  0.
          5    1    3    3  502    0  0.56886593795E+02 -0.19752916277E+02 -0.41741036796E+02  0.73389705054E+02  0.41800000000E+01 0.  1.
         -5    1    3    3    0  502 -0.42625659631E+02 -0.14481904884E+02 -0.16496338026E+03  0.17104695746E+03  0.41800000000E+01 0.  1.
        -11    1    1    2    0    0  0.35212087594E+02  0.17289590586E+01 -0.10807689802E+03  0.11368155654E+03  0.00000000000E+00 0. -1.
         11    1    1    2    0    0 -0.49473021758E+02  0.32505862102E+02 -0.19024148854E+03  0.19923863810E+03  0.00000000000E+00 0.  1.
</event>
<event>
 7    1  0.4394360E-006  0.9107193E+02  0.7561462E-02  0.1300276E+00
         -1   -1    0    0    0  501 -0.00000000000E+00  0.00000000000E+00  0.87848304061E+02  0.87848304061E+02  0.00000000000E+00 0.  1.
          1   -1    0    0  501    0  0.00000000000E+00 -0.00000000000E+00 -0.14622325113E+03  0.14622325113E+03  0.00000000000E+00 0. -1.
         23    2    1    2    0    0 -0.23091959024E+01  0.30234191039E+02 -0.23173104365E+02  0.13078171368E+03  0.12508966853E+03 0.  0.
          5    1    3    3  502    0 -0.25027256079E+02  0.54406679436E+02  0.30661330358E+02  0.67409494089E+02  0.41800000000E+01 0.  1.
         -5    1    3    3    0  502  0.22718060176E+02 -0.24172488397E+02 -0.53834434723E+02  0.63372219587E+02  0.41800000000E+01 0.  1.
        -11    1    1    2    0    0 -0.29447646323E+02  0.15281768791E+02 -0.34389650120E+02  0.47784352739E+02  0.00000000000E+00 0. -1.
         11    1    1    2    0    0  0.31756842225E+02 -0.45515959830E+02 -0.81219258315E+00  0.55505488775E+02  0.00000000000E+00 0.  1.
</event>
<event>
 7    1  0.4394360E-006  0.1153602E+03  0.7561462E-02  0.1250954E+00
          3   -1    0    0  501    0  0.00000000000E+00  0.00000000000E+00  0.80364408735E+03  0.80364408735E+03  0.00000000000E+00 0. -1.
         -3   -1    0    0    0  501 -0.00000000000E+00 -0.00000000000E+00 -0.17529830419E+02  0.17529830419E+02  0.00000000000E+00 0.  1.
         23    2    1    2    0    0  0.23669697818E+02 -0.36164274893E+02  0.53514244171E+03  0.55126346813E+03  0.12508344819E+03 0.  0.
          5    1    3    3  502    0  0.85046792844E+01  0.46598378291E+02  0.21767487381E+03  0.22280835155E+03  0.41800000000E+01 0.  1.
         -5    1    3    3    0  502  0.15165018534E+02 -0.82762653183E+02  0.31746756789E+03  0.32845511659E+03  0.41800000000E+01 0.  1.
        -11    1    1    2    0    0  0.16881310002E+02 -0.22178752630E+02  0.82018407514E+02  0.86625024483E+02  0.00000000000E+00 0.  1.
         11    1    1    2    0    0 -0.40551007820E+02  0.58343027523E+02  0.16895340771E+03  0.18328542515E+03  0.00000000000E+00 0. -1.
</event>
<event>
 7    1  0.4394360E-006  0.1140226E+03  0.7561462E-02  0.1253297E+00
          2   -1    0    0  501    0  0.00000000000E+00  0.00000000000E+00  0.10034271385E+03  0.10034271385E+03  0.00000000000E+00 0. -1.
         -2   -1    0    0    0  501 -0.00000000000E+00 -0.00000000000E+00 -0.16638046406E+03  0.16638046406E+03  0.00000000000E+00 0.  1.
         23    2    1    2    0    0  0.40541534954E+02 -0.55751050438E+02 -0.68066335363E+02  0.15821743393E+03  0.12509170519E+03 0.  0.
          5    1    3    3  502    0 -0.29964640923E+02 -0.64468975809E+02 -0.27794646350E+02  0.76446996757E+02  0.41800000000E+01 0.  1.
         -5    1    3    3    0  502  0.70506175877E+02  0.87179253705E+01 -0.40271689013E+02  0.81770437173E+02  0.41800000000E+01 0.  1.
        -11    1    1    2    0    0 -0.26370981720E+02 -0.17631145536E+01 -0.30958467498E+02  0.40705822184E+02  0.00000000000E+00 0.  1.
         11    1    1    2    0    0 -0.14170553234E+02  0.57514164992E+02  0.32987052645E+02  0.67799921798E+02  0.00000000000E+00 0. -1.
</event>
<event>
 7    1  0.4394360E-006  0.1097663E+03  0.7561462E-02  0.1261003E+00
          1   -1    0    0  501    0  0.00000000000E+00  0.00000000000E+00  0.57000507778E+03  0.57000507778E+03  0.00000000000E+00 0. -1.
         -1   -1    0    0    0  501 -0.00000000000E+00 -0.00000000000E+00 -0.27779680180E+02  0.27779680180E+02  0.00000000000E+00 0.  1.
         23    2    1    2    0    0 -0.70038603989E+01 -0.47788931280E+02  0.20548522856E+03  0.24536570153E+03  0.12508921742E+03 0.  0.
          5    1    3    3  502    0 -0.55294981308E+02 -0.42532723044E+02  0.17352202667E+03  0.18706665558E+03  0.41800000000E+01 0.  1.
         -5    1    3    3    0  502  0.48291120909E+02 -0.52562082360E+01  0.31963201890E+02  0.58299045950E+02  0.41800000000E+01 0.  1.
        -11    1    1    2    0    0  0.40915995205E+02 -0.16380704434E+01  0.18021849726E+03  0.18481209022E+03  0.00000000000E+00 0. -1.
         11    1    1    2    0    0 -0.33912134806E+02  0.49427001723E+02  0.15652167177E+03  0.16760696621E+03  0.00000000000E+00 0.  1.
</event>
<event>
 7    1  0.4394360E-006  0.8883036E+02  0.7561462E-02  0.1305709E+00
          1   -1    0    0  501    0  0.00000000000E+00  0.00000000000E+00  0.13426747247E+02  0.13426747247E+02  0.00000000000E+00 0. -1.
         -1   -1    0    0    0  501 -0.00000000000E+00 -0.00000000000E+00 -0.91052532881E+03  0.91052532881E+03  0.00000000000E+00 0.  1.
         23    2    1    2    0    0  0.15471037839E+02  0.39133887222E+01 -0.56843458011E+03  0.58225540516E+03  0.12509523310E+03 0.  0.
          5    1    3    3  502    0 -0.20813689064E+02 -0.37964264319E+02 -0.83523312267E+02  0.94170648876E+02  0.41800000000E+01 0. -1.
         -5    1    3    3    0  502  0.36284726903E+02  0.41877653041E+02 -0.48491126785E+03  0.48808475628E+03  0.41800000000E+01 0. -1.
        -11    1    1    2    0    0 -0.46984808314E+02 -0.23524746432E+01 -0.27842382760E+03  0.28237020758E+03  0.00000000000E+00 0.  1.
         11    1    1    2    0    0  0.31513770475E+02 -0.15609140790E+01 -0.50240173848E+02  0.59326463324E+02  0.00000000000E+00 0. -1.
</event>
<event>
 7    1  0.4394360E-006  0.1477916E+03  0.7561462E-02  0.1203213E+00
          2   -1    0    0  501    0  0.00000000000E+00  0.00000000000E+00  0.11520665230E+04  0.11520665230E+04  0.00000000000E+00 0.  1.
         -2   -1    0    0    0  501 -0.00000000000E+00 -0.00000000000E+00 -0.29263781631E+02  0.29263781631E+02  0.00000000000E+00 0. -1.
         23    2    1    2    0    0 -0.15302613604E+02  0.13367641005E+03  0.38859266753E+03  0.42983307090E+03  0.12509458418E+03 0.  0.
          5    1    3    3  502    0 -0.16851432679E+02  0.11445769587E+03  0.14547678681E+03  0.18591800028E+03  0.41800000000E+01 0. -1.
         -5    1    3    3    0  502  0.15488190750E+01  0.19218714176E+02  0.24311588072E+03  0.24391507061E+03  0.41800000000E+01 0. -1.
        -11    1    1    2    0    0  0.50187875417E+02 -0.57624320430E+02  0.33301824668E+03  0.34167314464E+03  0.00000000000E+00 0. -1.
         11    1    1    2    0    0 -0.34885261813E+02 -0.76052089618E+02  0.40119182714E+03  0.40982408908E+03  0.00000000000E+00 0.  1.
</event>
<event>
 7    1  0.4394360E-006  0.1447267E+03  0.7561462E-02  0.1207107E+00
         -2   -1    0    0    0  501 -0.00000000000E+00  0.00000000000E+00  0.52437487571E+02  0.52437487571E+02  0.00000000000E+00 0.  1.
          2   -1    0    0  501    0  0.00000000000E+00 -0.00000000000E+00 -0.55253178995E+03  0.55253178995E+03  0.00000000000E+00 0. -1.
         23    2    1    2    0    0  0.92266526374E+02  0.78957107205E+02 -0.17798046761E+03  0.24914362366E+03  0.12509261247E+03 0.  0.
          5    1    3    3  502    0  0.10246586222E+02  0.84472332264E+02 -0.12494403313E+03  0.15122516743E+03  0.41800000000E+01 0. -1.
         -5    1    3    3    0  502  0.82019940151E+02 -0.55152250583E+01 -0.53036434478E+02  0.97918456238E+02  0.41800000000E+01 0. -1.
        -11    1    1    2    0    0 -0.58535834715E+02 -0.42899629652E+02 -0.28489749605E+03  0.29399558743E+03  0.00000000000E+00 0. -1.
         11    1    1    2    0    0 -0.33730691659E+02 -0.36057477553E+02 -0.37216338712E+02  0.61830066427E+02  0.00000000000E+00 0.  1.
</event>
<event>
 7    1  0.4394360E-006  0.2521183E+03  0.7561462E-02  0.1111973E+00
          2   -1    0    0  501    0  0.00000000000E+00  0.00000000000E+00  0.33271101887E+03  0.33271101887E+03  0.00000000000E+00 0. -1.
         -2   -1    0    0    0  501 -0.00000000000E+00 -0.00000000000E+00 -0.28125670944E+03  0.28125670944E+03  0.00000000000E+00 0.  1.
         23    2    1    2    0    0  0.43081432967E+02 -0.23741992958E+03 -0.12667711087E+03  0.29986429072E+03  0.12508904668E+03 0.  0.
          5    1    3    3  502    0  0.47507017994E+02 -0.13317939614E+03 -0.13444465581E+03  0.19515764446E+03  0.41800000000E+01 0.  1.
         -5    1    3    3    0  502 -0.44255850274E+01 -0.10424053345E+03  0.77675449436E+01  0.10470664626E+03  0.41800000000E+01 0.  1.
        -11    1    1    2    0    0 -0.56146960647E+02  0.66904170019E+02  0.68036305699E+02  0.11071399211E+03  0.00000000000E+00 0. -1.
         11    1    1    2    0    0  0.13065527680E+02  0.17051575957E+03  0.11009511460E+03  0.20338944548E+03  0.00000000000E+00 0.  1.
</event>
<event>
 7    1  0.4394360E-006  0.1308121E+03  0.7561462E-02  0.1226256E+00
         -1   -1    0    0    0  501 -0.00000000000E+00  0.00000000000E+00  0.22284207732E+02  0.22284207732E+02  0.00000000000E+00 0.  1.
          1   -1    0    0  501    0  0.00000000000E+00 -0.00000000000E+00 -0.10262165184E+04  0.10262165184E+04  0.00000000000E+00 0. -1.
         23    2    1    2    0    0  0.57957543517E+02 -0.84940980026E+02 -0.46274079851E+03  0.49019348044E+03  0.12484612419E+03 0.  0.
          5    1    3    3  502    0  0.68695368854E+02 -0.40548843554E+02 -0.11848807940E+03  0.14289912447E+03  0.41800000000E+01 0.  1.
         -5    1    3    3    0  502 -0.10737825337E+02 -0.44392136472E+02 -0.34425271911E+03  0.34729435597E+03  0.41800000000E+01 0.  1.
        -11    1    1    2    0    0  0.22992494227E+02  0.84115243926E+01 -0.13043633673E+03  0.13271415325E+03  0.00000000000E+00 0. -1.
         11    1    1    2    0    0 -0.80950037744E+02  0.76529455633E+02 -0.41075517543E+03  0.42559309244E+03  0.00000000000E+00 0.  1.
</event>
<event>
 7    1  0.4394360E-006  0.1123155E+03  0.7561462E-02  0.1256341E+00
          2   -1    0    0  501    0  0.00000000000E+00  0.00000000000E+00  0.52812814233E+03  0.52812814233E+03  0.00000000000E+00 0. -1.
         -2   -1    0    0    0  501 -0.00000000000E+00 -0.00000000000E+00 -0.56996372782E+02  0.56996372782E+02  0.00000000000E+00 0.  1.
         23    2    1    2    0    0 -0.23533377517E+02 -0.10746392419E+03  0.11846779525E+03  0.20441250039E+03  0.12509011528E+03 0.  0.
          5    1    3    3  502    0 -0.63918079241E+01 -0.52405541873E+02 -0.18215399048E+02  0.56004189040E+02  0.41800000000E+01 0. -1.
         -5    1    3    3    0  502 -0.17141569593E+02 -0.55058382319E+02  0.13668319430E+03  0.14840831135E+03  0.41800000000E+01 0. -1.
        -11    1    1    2    0    0  0.29493596058E+02  0.70601907750E+02  0.32592226394E+03  0.33478324886E+03  0.00000000000E+00 0. -1.
         11    1    1    2    0    0 -0.59602185408E+01  0.36862016442E+02  0.26741710356E+02  0.45928765866E+02  0.00000000000E+00 0.  1.
</event>
<event>
 7    1  0.4394360E-006  0.2149825E+03  0.7561462E-02  0.1137680E+00
          2   -1    0    0  501    0  0.00000000000E+00  0.00000000000E+00  0.74977244013E+03  0.74977244013E+03  0.00000000000E+00 0. -1.
         -2   -1    0    0    0  501 -0.00000000000E+00 -0.00000000000E+00 -0.84490035874E+02  0.84490035874E+02  0.00000000000E+00 0.  1.
         23    2    1    2    0    0 -0.79586902471E+02 -0.19424893407E+03  0.19841650371E+03  0.31477619580E+03  0.12509284977E+03 0.  0.
          5    1    3    3  502    0 -0.37529650013E+02 -0.16218729347E+03  0.20177853416E+03  0.26162041595E+03  0.41800000000E+01 0. -1.
         -5    1    3    3    0  502 -0.42057252458E+02 -0.32061640602E+02 -0.33620304512E+01  0.53155779847E+02  0.41800000000E+01 0. -1.
        -11    1    1    2    0    0  0.34689621528E+02  0.10318384941E+03  0.14077566574E+03  0.17795523225E+03  0.00000000000E+00 0.  1.
         11    1    1    2    0    0  0.44897280943E+02  0.91065084662E+02  0.32609023481E+03  0.34153104795E+03  0.00000000000E+00 0. -1.
</event>
<event>
 7    1  0.4394360E-006  0.1167386E+03  0.7561462E-02  0.1248576E+00
          2   -1    0    0  501    0  0.00000000000E+00  0.00000000000E+00  0.24356181527E+03  0.24356181527E+03  0.00000000000E+00 0. -1.
         -2   -1    0    0    0  501 -0.00000000000E+00 -0.00000000000E+00 -0.79741278659E+02  0.79741278659E+02  0.00000000000E+00 0.  1.
         23    2    1    2    0    0 -0.43530099631E+01  0.86613667461E+02  0.10062177441E+03  0.18246557882E+03  0.12509224549E+03 0.  0.
          5    1    3    3  502    0  0.52203077839E+02  0.66942818561E+02  0.85515247431E+02  0.12056878633E+03  0.41800000000E+01 0.  1.
         -5    1    3    3    0  502 -0.56556087802E+02  0.19670848900E+02  0.15106526975E+02  0.61896792495E+02  0.41800000000E+01 0.  1.
        -11    1    1    2    0    0 -0.65542088932E+01 -0.43250200388E+02 -0.18663852131E+02  0.47559193267E+02  0.00000000000E+00 0.  1.
         11    1    1    2    0    0  0.10907218856E+02 -0.43363467073E+02  0.81862614338E+02  0.93278321844E+02  0.00000000000E+00 0. -1.
</event>
<event>
 7    1  0.4394360E-006  0.9232858E+02  0.7561462E-02  0.1297309E+00
         -1   -1    0    0    0  501 -0.00000000000E+00  0.00000000000E+00  0.98065642461E+02  0.98065642461E+02  0.00000000000E+00 0.  1.
          1   -1    0    0  501    0  0.00000000000E+00 -0.00000000000E+00 -0.14242259557E+03  0.14242259557E+03  0.00000000000E+00 0. -1.
         23    2    1    2    0    0 -0.55547815901E+01  0.37937515308E+02 -0.42379619650E+01  0.13088962778E+03  0.12507607154E+03 0.  0.
          5    1    3    3  502    0 -0.13929216359E+02  0.82410470446E+02 -0.12757885697E+02  0.84650722117E+02  0.41800000000E+01 0. -1.
         -5    1    3    3    0  502  0.83744347693E+01 -0.44472955138E+02  0.85199237315E+01  0.46238905662E+02  0.41800000000E+01 0. -1.
        -11    1    1    2    0    0 -0.17333113375E+02 -0.12920942721E+02 -0.64375383296E+02  0.67908597059E+02  0.00000000000E+00 0. -1.
         11    1    1    2    0    0  0.22887894965E+02 -0.25016572587E+02  0.24256392152E+02  0.41690013194E+02  0.00000000000E+00 0.  1.
</event>
<event>
 7    1  0.4394360E-006  0.1576302E+03  0.7561462E-02  0.1191399E+00
          2   -1    0    0  501    0  0.00000000000E+00  0.00000000000E+00  0.29973297280E+03  0.29973297280E+03  0.00000000000E+00 0. -1.
         -2   -1    0    0    0  501 -0.00000000000E+00 -0.00000000000E+00 -0.85260676696E+02  0.85260676696E+02  0.00000000000E+00 0.  1.
         23    2    1    2    0    0  0.10269957090E+03 -0.49999284542E+02  0.99305659881E+02  0.19635522090E+03  0.12508648358E+03 0.  0.
          5    1    3    3  502    0 -0.28025071549E+02 -0.17274548118E+02  0.30121128604E+02  0.44817066352E+02  0.41800000000E+01 0. -1.
         -5    1    3    3    0  502  0.13072464245E+03 -0.32724736424E+02  0.69184531278E+02  0.15153815455E+03  0.41800000000E+01 0. -1.
        -11    1    1    2    0    0 -0.53534536684E+02  0.74959425943E+02  0.56177767442E+02  0.10789255633E+03  0.00000000000E+00 0. -1.
         11    1    1    2    0    0 -0.49165034214E+02 -0.24960141401E+02  0.58988868778E+02  0.80745872264E+02  0.00000000000E+00 0.  1.
</event>
<event>
 7    1  0.4394360E-006  0.1186875E+03  0.7561462E-02  0.1245278E+00
          2   -1    0    0  501    0  0.00000000000E+00  0.00000000000E+00  0.15463487086E+03  0.15463487086E+03  0.00000000000E+00 0. -1.
         -2   -1    0    0    0  501 -0.00000000000E+00 -0.00000000000E+00 -0.19397687614E+03  0.19397687614E+03  0.00000000000E+00 0.  1.
         23    2    1    2    0    0  0.37633775559E+02  0.59557087036E+02 -0.13656471318E+03  0.19814631723E+03  0.12509474196E+03 0.  0.
          5    1    3    3  502    0 -0.13173023010E+02  0.71152257059E+02 -0.28098245343E+02  0.77737738655E+02  0.41800000000E+01 0.  1.
         -5    1    3    3    0  502  0.50806798569E+02 -0.11595170023E+02 -0.10846646784E+03  0.12040857857E+03  0.41800000000E+01 0.  1.
        -11    1    1    2    0    0 -0.63622677588E+02 -0.22776947804E+02  0.72418781786E+02  0.99051069708E+02  0.00000000000E+00 0. -1.
         11    1    1    2    0    0  0.25988902030E+02 -0.36780139232E+02  0.24803926115E+02  0.51414360069E+02  0.00000000000E+00 0.  1.
</event>
<event>
 7    1  0.4394360E-006  0.1126610E+03  0.7561462E-02  0.1255720E+00
          2   -1    0    0  501    0  0.00000000000E+00  0.00000000000E+00  0.22198664583E+02  0.22198664583E+02  0.00000000000E+00 0. -1.
         -2   -1    0    0    0  501 -0.00000000000E+00 -0.00000000000E+00 -0.81551405931E+03  0.81551405931E+03  0.00000000000E+00 0.  1.
         23    2    1    2    0    0  0.21831788457E+02  0.74924594453E+02 -0.48861715393E+03  0.51037728181E+03  0.12509166570E+03 0.  0.
          5    1    3    3  502    0  0.17031771070E+02  0.10934623345E+03 -0.33531299555E+03  0.35312739540E+03  0.41800000000E+01 0. -1.
         -5    1    3    3    0  502  0.48000173871E+01 -0.34421639001E+02 -0.15330415838E+03  0.15724988640E+03  0.41800000000E+01 0. -1.
        -11    1    1    2    0    0  0.18737061459E+01 -0.15215310634E+02  0.60905776764E+00  0.15342340232E+02  0.00000000000E+00 0. -1.
         11    1    1    2    0    0 -0.23705494603E+02 -0.59709283819E+02 -0.30530729857E+03  0.31199310186E+03  0.00000000000E+00 0.  1.
</event>
<event>
 7    1  0.4394360E-006  0.7016195E+02  0.7561462E-02  0.1359543E+00
          1   -1    0    0  501    0  0.00000000000E+00  0.00000000000E+00  0.69622601530E+03  0.69622601530E+03  0.00000000000E+00 0. -1.
         -1   -1    0    0    0  501 -0.00000000000E+00 -0.00000000000E+00 -0.20141205893E+02  0.20141205893E+02  0.00000000000E+00 0.  1.
         23    2    1    2    0    0 -0.36538191914E+02 -0.13027629461E+02  0.30828697146E+03  0.33495312097E+03  0.12509187775E+03 0.  0.
          5    1    3    3  502    0 -0.71202700580E+01  0.45028744409E+01 -0.10619953748E+02  0.14185553973E+02  0.41800000000E+01 0. -1.
         -5    1    3    3    0  502 -0.29417921856E+02 -0.17530503902E+02  0.31890692521E+03  0.32076756700E+03  0.41800000000E+01 0. -1.
        -11    1    1    2    0    0  0.54776294381E+02  0.37144942242E+02  0.29945052675E+03  0.30667704043E+03  0.00000000000E+00 0. -1.
         11    1    1    2    0    0 -0.18238102467E+02 -0.24117312781E+02  0.68347311204E+02  0.74737059791E+02  0.00000000000E+00 0.  1.
</event>
<event>
 7    1  0.4394360E-006  0.1248452E+03  0.7561462E-02  0.1235311E+00
         -2   -1    0    0    0  501 -0.00000000000E+00  0.00000000000E+00  0.11886637245E+03  0.11886637245E+03  0.00000000000E+00 0.  1.
          2   -1    0    0  501    0  0.00000000000E+00 -0.00000000000E+00 -0.26461818481E+03  0.26461818481E+03  0.00000000000E+00 0. -1.
         23    2    1    2    0    0 -0.44786767150E+02  0.75868346362E+02  0.40485470722E+02  0.15826731913E+03  0.12509040920E+03 0.  0.
          5    1    3    3  502    0 -0.19012594211E+02 -0.25894725389E+02 -0.18979614901E+02  0.37546154575E+02  0.41800000000E+01 0. -1.
         -5    1    3    3    0  502 -0.25774172939E+02  0.10176307175E+03  0.59465085622E+02  0.12072116455E+03  0.41800000000E+01 0. -1.
        -11    1    1    2    0    0  0.24605965882E+02  0.80772889049E+01 -0.78931323693E+01  0.27073930110E+02  0.00000000000E+00 0.  1.
         11    1    1    2    0    0  0.20180801268E+02 -0.83945635266E+02 -0.17834415071E+03  0.19814330802E+03  0.00000000000E+00 0. -1.
</event>
<event>
 7    1  0.4394360E-006  0.1006335E+03  0.7561462E-02  0.1278969E+00
         -1   -1    0    0    0  501 -0.00000000000E+00  0.00000000000E+00  0.41812849236E+03  0.41812849236E+03  0.00000000000E+00 0.  1.
          1   -1    0    0  501    0  0.00000000000E+00 -0.00000000000E+00 -0.40978837876E+02  0.40978837876E+02  0.00000000000E+00 0. -1.
         23    2    1    2    0    0 -0.65165191859E+02  0.35946079613E+02  0.23423474775E+03  0.27577468870E+03  0.12508852466E+03 0.  0.
          5    1    3    3  502    0  0.52661318403E+01 -0.29588078782E+01  0.17650260505E+03  0.17665539527E+03  0.41800000000E+01 0.  1.
         -5    1    3    3    0  502 -0.70431323700E+02  0.38904887492E+02  0.57732142704E+02  0.99119293430E+02  0.41800000000E+01 0.  1.
        -11    1    1    2    0    0 -0.20622353591E+02 -0.13591316372E+02  0.44359019220E+02  0.50771329848E+02  0.00000000000E+00 0.  1.
         11    1    1    2    0    0  0.85787545451E+02 -0.22354763241E+02  0.98555887515E+02  0.13256131169E+03  0.00000000000E+00 0. -1.
</event>
<event>
 7    1  0.4394360E-006  0.1116439E+03  0.7561462E-02  0.1257556E+00
         -1   -1    0    0    0  501 -0.00000000000E+00  0.00000000000E+00  0.35487352175E+02  0.35487352175E+02  0.00000000000E+00 0.  1.
          1   -1    0    0  501    0  0.00000000000E+00 -0.00000000000E+00 -0.57400767112E+03  0.57400767112E+03  0.00000000000E+00 0. -1.
         23    2    1    2    0    0 -0.32725388526E+02  0.80421940864E+02 -0.22726412644E+03  0.27356014570E+03  0.12509008962E+03 0.  0.
          5    1    3    3  502    0  0.72274492005E+01  0.78906772028E+02 -0.54697794822E+02  0.96373418806E+02  0.41800000000E+01 0.  1.
         -5    1    3    3    0  502 -0.39952837726E+02  0.15151688357E+01 -0.17256633162E+03  0.17718672690E+03  0.41800000000E+01 0.  1.
        -11    1    1    2    0    0 -0.13541123545E+02 -0.35150347576E+01 -0.22640653608E+01  0.14171926057E+02  0.00000000000E+00 0.  1.
         11    1    1    2    0    0  0.46266512071E+02 -0.76906906106E+02 -0.30899212715E+03  0.32176295154E+03  0.00000000000E+00 0. -1.
</event>
<event>
 7    1  0.4394360E-006  0.7108096E+02  0.7561462E-02  0.1356455E+00
         -1   -1    0    0    0  501 -0.00000000000E+00  0.00000000000E+00  0.17216059166E+03  0.17216059166E+03  0.00000000000E+00 0.  1.
          1   -1    0    0  501    0  0.00000000000E+00 -0.00000000000E+00 -0.70025591092E+02  0.70025591092E+02  0.00000000000E+00 0. -1.
         23    2    1    2    0    0  0.58164043566E+01 -0.99919247137E+01  0.72570766493E+02  0.14507899919E+03  0.12509088991E+03 0.  0.
          5    1    3    3  502    0 -0.12298408076E+02  0.15311123548E+02  0.10084608629E+03  0.10282551661E+03  0.41800000000E+01 0.  1.
         -5    1    3    3    0  502  0.18114812432E+02 -0.25303048262E+02 -0.28275319800E+02  0.42253482585E+02  0.41800000000E+01 0.  1.
        -11    1    1    2    0    0  0.42154992841E+02  0.41413534680E+01  0.43019051676E+01  0.42575821989E+02  0.00000000000E+00 0.  1.
         11    1    1    2    0    0 -0.47971397197E+02  0.58505712457E+01  0.25262328912E+02  0.54531361573E+02  0.00000000000E+00 0. -1.
</event>
<event>
 7    1  0.4394360E-006  0.1019583E+03  0.7561462E-02  0.1276231E+00
         -2   -1    0    0    0  501 -0.00000000000E+00  0.00000000000E+00  0.99654023274E+02  0.99654023274E+02  0.00000000000E+00 0.  1.
          2   -1    0    0  501    0  0.00000000000E+00 -0.00000000000E+00 -0.21190122864E+03  0.21190122864E+03  0.00000000000E+00 0. -1.
         23    2    1    2    0    0  0.83611177794E+01 -0.44107569085E+02  0.30903903945E+02  0.13644883583E+03  0.12509135694E+03 0.  0.
          5    1    3    3  502    0 -0.42283276521E+02 -0.26569992594E+02  0.57665856892E+02  0.76398059078E+02  0.41800000000E+01 0. -1.
         -5    1    3    3    0  502  0.50644394301E+02 -0.17537576491E+02 -0.26761952947E+02  0.60050776754E+02  0.41800000000E+01 0. -1.
        -11    1    1    2    0    0  0.31495557190E+02  0.50661767370E+02 -0.74330149751E+02  0.95307690968E+02  0.00000000000E+00 0. -1.
         11    1    1    2    0    0 -0.39856674969E+02 -0.65541982854E+01 -0.68820959556E+02  0.79798725108E+02  0.00000000000E+00 0.  1.
</event>
<event>
 6    1  0.4394360E-006  0.1278500E+03  0.7561462E-02  0.1230681E+00
          1   -1    0    0  501    0  0.00000000000E+00  0.00000000000E+00  0.72205317058E+03  0.72205317058E+03  0.00000000000E+00 0. -1.
         -1   -1    0    0    0  501 -0.00000000000E+00 -0.00000000000E+00 -0.24980402540E+02  0.24980402540E+02  0.00000000000E+00 0.  1.
          5    1    1    2  502    0 -0.54827113779E+02  0.34863863645E+02  0.22799684232E+03  0.23711080511E+03  0.41800000000E+01 0. -1.
         -5    1    1    2    0  502  0.91514896239E+02 -0.28575025889E+02  0.17274118901E+03  0.19760693084E+03  0.41800000000E+01 0.  1.
        -11    1    1    2    0    0  0.54258074105E+01 -0.40196939918E+02  0.85113544544E+02  0.94284403957E+02  0.00000000000E+00 0.  1.
         11    1    1    2    0    0 -0.42113589870E+02  0.33908102162E+02  0.21122119217E+03  0.21803143320E+03  0.00000000000E+00 0. -1.
</event>
<event>
 7    1  0.4394360E-006  0.8273317E+02  0.7561462E-02  0.1321469E+00
         -1   -1    0    0    0  501 -0.00000000000E+00  0.00000000000E+00  0.36552383659E+02  0.36552383659E+02  0.00000000000E+00 0.  1.
          1   -1    0    0  501    0  0.00000000000E+00 -0.00000000000E+00 -0.29662627743E+03  0.29662627743E+03  0.00000000000E+00 0. -1.
         23    2    1    2    0    0  0.25049494938E+02 -0.27356605561E+01 -0.12258172387E+03  0.17694073539E+03  0.12508710477E+03 0.  0.
          5    1    3    3  502    0  0.70871279714E+02 -0.18748285551E+02 -0.97754898237E+02  0.12226090556E+03  0.41800000000E+01 0.  1.
         -5    1    3    3    0  502 -0.45821784777E+02  0.16012624995E+02 -0.24826825629E+02  0.54679829829E+02  0.41800000000E+01 0.  1.
        -11    1    1    2    0    0  0.20797118791E+01 -0.12182670731E+02  0.27145737802E+01  0.12653520397E+02  0.00000000000E+00 0.  1.
         11    1    1    2    0    0 -0.27129206817E+02  0.14918331287E+02 -0.14020674369E+03  0.14358440530E+03  0.00000000000E+00 0. -1.
</event>
<event>
 7    1  0.4394360E-006  0.8351663E+02  0.7561462E-02  0.1319358E+00
          1   -1    0    0  501    0  0.00000000000E+00  0.00000000000E+00  0.24545378217E+03  0.24545378217E+03  0.00000000000E+00 0. -1.
         -1   -1    0    0    0  501 -0.00000000000E+00 -0.00000000000E+00 -0.55928039016E+02  0.55928039016E+02  0.00000000000E+00 0.  1.
         23    2    1    2    0    0  0.16268245085E+02  0.99412221510E+01  0.54517571669E+02  0.13777228812E+03  0.12508218921E+03 0.  0.
          5    1    3    3  502    0  0.46348068809E+02  0.39255438767E+01 -0.24620656686E+02  0.52793962843E+02  0.41800000000E+01 0.  1.
         -5    1    3    3    0  502 -0.30079823724E+02  0.60156782743E+01  0.79138228355E+02  0.84978325281E+02  0.41800000000E+01 0.  1.
        -11    1    1    2    0    0 -0.43842251619E+02 -0.31820722795E+02  0.60527028673E+02  0.81229444331E+02  0.00000000000E+00 0. -1.
         11    1    1    2    0    0  0.27574006534E+02  0.21879500644E+02  0.74481142810E+02  0.82380088730E+02  0.00000000000E+00 0.  1.
</event>
<event>
 7    1  0.4394360E-006  0.1205034E+03  0.7561462E-02  0.1242269E+00
         -2   -1    0    0    0  501 -0.00000000000E+00  0.00000000000E+00  0.15471079427E+03  0.15471079427E+03  0.00000000000E+00 0. -1.
          2   -1    0    0  501    0  0.00000000000E+00 -0.00000000000E+00 -0.12579319480E+03  0.12579319480E+03  0.00000000000E+00 0.  1.
         23    2    1    2    0    0  0.58432560564E+02  0.47091562326E+02  0.59869134014E+02  0.15768413483E+03  0.12509194137E+03 0.  0.
          5    1    3    3  502    0  0.42697188050E+02 -0.32112071099E+02  0.54828811112E+02  0.76667502278E+02  0.41800000000E+01 0. -1.
         -5    1    3    3    0  502  0.15735372514E+02  0.79203633425E+02  0.50403229022E+01  0.81016632557E+02  0.41800000000E+01 0. -1.
        -11    1    1    2    0    0 -0.31938648528E+02 -0.66462684544E+02 -0.45792133721E+02  0.86800260468E+02  0.00000000000E+00 0.  1.
         11    1    1    2    0    0 -0.26493912037E+02  0.19371122218E+02  0.14840599179E+02  0.36019593765E+02  0.00000000000E+00 0. -1.
</event>
<event>
 7    1  0.4394360E-006  0.1111101E+03  0.7561462E-02  0.1258528E+00
         -1   -1    0    0    0  501 -0.00000000000E+00  0.00000000000E+00  0.26609243335E+02  0.26609243335E+02  0.00000000000E+00 0.  1.
          1   -1    0    0  501    0  0.00000000000E+00 -0.00000000000E+00 -0.47183682711E+03  0.47183682711E+03  0.00000000000E+00 0. -1.
         23    2    1    2    0    0  0.25897085896E+02  0.38479461862E+01 -0.23133278574E+03  0.26429070035E+03  0.12509696552E+03 0.  0.
          5    1    3    3  502    0 -0.47785042113E+02 -0.16907172845E+02 -0.10098621766E+03  0.11307055895E+03  0.41800000000E+01 0.  1.
         -5    1    3    3    0  502  0.73682128009E+02  0.20755119032E+02 -0.13034656808E+03  0.15122014140E+03  0.41800000000E+01 0.  1.
        -11    1    1    2    0    0 -0.43005697239E+02 -0.37426513753E+02 -0.14114378347E+03  0.15222286799E+03  0.00000000000E+00 0. -1.
         11    1    1    2    0    0  0.17108611342E+02  0.33578567567E+02 -0.72751014560E+02  0.81932502106E+02  0.00000000000E+00 0.  1.
</event>
<event>
 7    1  0.4394360E-006  0.1877275E+03  0.7561462E-02  0.1160527E+00
         -1   -1    0    0    0  501 -0.00000000000E+00  0.00000000000E+00  0.65858048285E+02  0.65858048285E+02  0.00000000000E+00 0.  1.
          1   -1    0    0  501    0  0.00000000000E+00 -0.00000000000E+00 -0.75999035142E+03  0.75999035142E+03  0.00000000000E+00 0. -1.
         23    2    1    2    0    0 -0.13092676081E+03  0.10804430859E+03 -0.17545827729E+03  0.27430471815E+03  0.12506830938E+03 0.  0.
          5    1    3    3  502    0  0.84990714999E+01  0.27264899207E+02  0.81389754258E+01  0.29988735654E+02  0.41800000000E+01 0.  1.
         -5    1    3    3    0  502 -0.13942583231E+03  0.80779409381E+02 -0.18359725272E+03  0.24431598250E+03  0.41800000000E+01 0.  1.
        -11    1    1    2    0    0  0.97926171735E+02 -0.32858246993E+02 -0.32971396902E+03  0.34551483452E+03  0.00000000000E+00 0. -1.
         11    1    1    2    0    0  0.33000589079E+02 -0.75186061595E+02 -0.18896005682E+03  0.20602884703E+03  0.00000000000E+00 0.  1.
</event>
<event>
 7    1  0.4394360E-006  0.9558717E+02  0.7561462E-02  0.1289859E+00
         -2   -1    0    0    0  501 -0.00000000000E+00  0.00000000000E+00  0.10566440388E+03  0.10566440388E+03  0.00000000000E+00 0.  1.
          2   -1    0    0  501    0  0.00000000000E+00 -0.00000000000E+00 -0.13432634348E+03  0.13432634348E+03  0.00000000000E+00 0. -1.
         23    2    1    2    0    0 -0.35471786979E+02  0.24033653486E+02  0.91230504653E+01  0.13253861603E+03  0.12508953001E+03 0.  0.
          5    1    3    3  502    0 -0.47103819517E+02 -0.40144580639E+02 -0.13301484585E+02  0.63440988800E+02  0.41800000000E+01 0.  1.
         -5    1    3    3    0  502  0.11632032538E+02  0.64178234124E+02  0.22424535050E+02  0.69097627227E+02  0.41800000000E+01 0.  1.
        -11    1    1    2    0    0 -0.11799981398E+02 -0.53403393494E+01  0.24103548189E+02  0.27363110581E+02  0.00000000000E+00 0.  1.
         11    1    1    2    0    0  0.47271768377E+02 -0.18693314136E+02 -0.61888538249E+02  0.80089020755E+02  0.00000000000E+00 0. -1.
</event>
<event>
 7    1  0.4394360E-006  0.9816165E+02  0.7561462E-02  0.1284210E+00
          2   -1    0    0  501    0  0.00000000000E+00  0.00000000000E+00  0.11813780050E+03  0.11813780050E+03  0.00000000000E+00 0. -1.
         -2   -1    0    0    0  501 -0.00000000000E+00 -0.00000000000E+00 -0.15708997173E+03  0.15708997173E+03  0.00000000000E+00 0.  1.
         23    2    1    2    0    0  0.21454466046E+02 -0.39968003376E+02 -0.90766258318E+02  0.16107200280E+03  0.12509173046E+03 0.  0.
          5    1    3    3  502    0  0.35188340985E+02 -0.78201035147E+02 -0.83166670293E+02  0.11953153846E+03  0.41800000000E+01 0. -1.
         -5    1    3    3    0  502 -0.13733874939E+02  0.38233031771E+02 -0.75995880251E+01  0.41540464338E+02  0.41800000000E+01 0. -1.
        -11    1    1    2    0    0  0.19188894809E+01  0.45556310758E+02 -0.10997081996E+02  0.46904108553E+02  0.00000000000E+00 0.  1.
         11    1    1    2    0    0 -0.23373355527E+02 -0.55883073827E+01  0.62811169090E+02  0.67251660875E+02  0.00000000000E+00 0. -1.
</event>
<event>
 7    1  0.4394360E-006  0.1387960E+03  0.7561462E-02  0.1214958E+00
          1   -1    0    0  501    0  0.00000000000E+00  0.00000000000E+00  0.50181214471E+03  0.50181214471E+03  0.00000000000E+00 0. -1.
         -1   -1    0    0    0  501 -0.00000000000E+00 -0.00000000000E+00 -0.40136859541E+02  0.40136859541E+02  0.00000000000E+00 0.  1.
         23    2    1    2    0    0 -0.67985232809E+02 -0.59598054595E+02  0.24340820900E+03  0.28821154734E+03  0.12507765517E+03 0.  0.
          5    1    3    3  502    0 -0.92015859264E+02 -0.86670128511E+01  0.11259330563E+03  0.14572837864E+03  0.41800000000E+01 0.  1.
         -5    1    3    3    0  502  0.24030626454E+02 -0.50931041744E+02  0.13081490336E+03  0.14248316870E+03  0.41800000000E+01 0.  1.
        -11    1    1    2    0    0  0.45408661886E+02  0.83920696509E+02  0.14904856514E+03  0.17697487010E+03  0.00000000000E+00 0.  1.
         11    1    1    2    0    0  0.22576570924E+02 -0.24322641914E+02  0.69218511028E+02  0.76762586807E+02  0.00000000000E+00 0. -1.
</event>
<event>
 7    1  0.4394360E-006  0.1229302E+03  0.7561462E-02  0.1238340E+00
         -2   -1    0    0    0  501 -0.00000000000E+00  0.00000000000E+00  0.67805632819E+03  0.67805632819E+03  0.00000000000E+00 0.  1.
          2   -1    0    0  501    0  0.00000000000E+00 -0.00000000000E+00 -0.29486042973E+02  0.29486042973E+02  0.00000000000E+00 0. -1.
         23    2    1    2    0    0  0.18468159445E+02 -0.58692306186E+02  0.45318229287E+03  0.47413916674E+03  0.12509156306E+03 0.  0.
          5    1    3    3  502    0 -0.50588113869E+02 -0.35594570656E+01  0.15907012220E+03  0.16701078760E+03  0.41800000000E+01 0. -1.
         -5    1    3    3    0  502  0.69056273314E+02 -0.55132849121E+02  0.29411217067E+03  0.30712837914E+03  0.41800000000E+01 0. -1.
        -11    1    1    2    0    0  0.32189174644E+02  0.42530293971E+02  0.16214775289E+03  0.17069523320E+03  0.00000000000E+00 0.  1.
         11    1    1    2    0    0 -0.50657334088E+02  0.16162012215E+02  0.33240239463E+02  0.62707971226E+02  0.00000000000E+00 0. -1.
</event>
<event>
 7    1  0.4394360E-006  0.1183839E+03  0.7561462E-02  0.1245787E+00
          1   -1    0    0  501    0  0.00000000000E+00  0.00000000000E+00  0.20998682814E+03  0.20998682814E+03  0.00000000000E+00 0. -1.
         -1   -1    0    0    0  501 -0.00000000000E+00 -0.00000000000E+00 -0.11117917863E+03  0.11117917863E+03  0.00000000000E+00 0.  1.
         23    2    1    2    0    0  0.90405932408E+02  0.55669404588E+02  0.34901005804E+02  0.16774659698E+03  0.12509406609E+03 0.  0.
          5    1    3    3  502    0  0.16895953663E+02  0.60135828677E+01 -0.44788490242E+02  0.48426415180E+02  0.41800000000E+01 0.  1.
         -5    1    3    3    0  502  0.73509978745E+02  0.49655821720E+02  0.79689496046E+02  0.11932018180E+03  0.41800000000E+01 0.  1.
        -11    1    1    2    0    0  0.12668822825E+02 -0.12491949098E+02  0.32968799295E+02  0.37463176467E+02  0.00000000000E+00 0. -1.
         11    1    1    2    0    0 -0.10307475523E+03 -0.43177455490E+02  0.30937844412E+02  0.11595623332E+03  0.00000000000E+00 0.  1.
</event>
<event>
 7    1  0.4394360E-006  0.1110243E+03  0.7561462E-02  0.1258685E+00
         -1   -1    0    0    0  501 -0.00000000000E+00  0.00000000000E+00  0.10761789895E+04  0.10761789895E+04  0.00000000000E+00 0.  1.
          1   -1    0    0  501    0  0.00000000000E+00 -0.00000000000E+00 -0.24035132802E+02  0.24035132802E+02  0.00000000000E+00 0. -1.
         23    2    1    2    0    0  0.21666259746E+02  0.29281028263E+02  0.94956295153E+03  0.95845910031E+03  0.12508893885E+03 0.  0.
          5    1    3    3  502    0 -0.48309447827E+02 -0.17356105411E-01  0.24066666946E+03  0.24550299640E+03  0.41800000000E+01 0. -1.
         -5    1    3    3    0  502  0.69975707573E+02  0.29298384368E+02  0.70889628206E+03  0.71295610391E+03  0.41800000000E+01 0. -1.
        -11    1    1    2    0    0  0.35709407193E+02 -0.11169754658E+02  0.34440814430E+02  0.50853661420E+02  0.00000000000E+00 0.  1.
         11    1    1    2    0    0 -0.57375666939E+02 -0.18111273605E+02  0.68140090744E+02  0.90901360578E+02  0.00000000000E+00 0. -1.
</event>
<event>
 7    1  0.4394360E-006  0.2025809E+03  0.7561462E-02  0.1147580E+00
          2   -1    0    0  501    0  0.00000000000E+00  0.00000000000E+00  0.96908698673E+03  0.96908698673E+03  0.00000000000E+00 0. -1.
         -2   -1    0    0    0  501 -0.00000000000E+00 -0.00000000000E+00 -0.44198276951E+02  0.44198276951E+02  0.00000000000E+00 0.  1.
         23    2    1    2    0    0  0.79802405994E+02 -0.15599852874E+03  0.51443621970E+03  0.55766583462E+03  0.12507035614E+03 0.  0.
          5    1    3    3  502    0 -0.25214861392E+02 -0.98410316653E+01  0.28832339358E+02  0.39766962822E+02  0.41800000000E+01 0.  1.
         -5    1    3    3    0  502  0.10501726739E+03 -0.14615749708E+03  0.48560388035E+03  0.51789887180E+03  0.41800000000E+01 0.  1.
        -11    1    1    2    0    0 -0.42314802872E+02  0.15454737475E+03  0.33570856559E+03  0.37198880977E+03  0.00000000000E+00 0. -1.
         11    1    1    2    0    0 -0.37487603122E+02  0.14511539909E+01  0.74743924479E+02  0.83630619286E+02  0.00000000000E+00 0.  1.
</event>
<event>
 7    1  0.4394360E-006  0.1333173E+03  0.7561462E-02  0.1222615E+00
          1   -1    0    0  501    0  0.00000000000E+00  0.00000000000E+00  0.74801178015E+02  0.74801178015E+02  0.00000000000E+00 0. -1.
         -1   -1    0    0    0  501 -0.00000000000E+00 -0.00000000000E+00 -0.46088784052E+03  0.46088784052E+03  0.00000000000E+00 0.  1.
         23    2    1    2    0    0 -0.11955200896E+02  0.11089492268E+03 -0.34608766142E+03  0.38453230639E+03  0.12509122498E+03 0.  0.
          5    1    3    3  502    0 -0.24568636047E+02  0.12419335117E+03 -0.19663923393E+03  0.23390610738E+03  0.41800000000E+01 0. -1.
         -5    1    3    3    0  502  0.12613435151E+02 -0.13298428491E+02 -0.14944842749E+03  0.15062619901E+03  0.41800000000E+01 0. -1.
        -11    1    1    2    0    0  0.30361701362E+02 -0.71748382009E+02 -0.64763821650E+02  0.10131147924E+03  0.00000000000E+00 0.  1.
         11    1    1    2    0    0 -0.18406500466E+02 -0.39146540673E+02  0.24764820564E+02  0.49845232908E+02  0.00000000000E+00 0. -1.
</event>
<event>
 7    1  0.4394360E-006  0.1040950E+03  0.7561462E-02  0.1271913E+00
         -1   -1    0    0    0  501 -0.00000000000E+00  0.00000000000E+00  0.50678878141E+03  0.50678878141E+03  0.00000000000E+00 0. -1.
          1   -1    0    0  501    0  0.00000000000E+00 -0.00000000000E+00 -0.28980923580E+02  0.28980923580E+02  0.00000000000E+00 0.  1.
         23    2    1    2    0    0 -0.46595218938E+01  0.11331478123E+01  0.40818418598E+03  0.42694943852E+03  0.12509395749E+03 0.  0.
          5    1    3    3  502    0  0.43905551584E+02  0.42147601785E+02  0.18109836322E+03  0.19109737663E+03  0.41800000000E+01 0.  1.
         -5    1    3    3    0  502 -0.48565073478E+02 -0.41014453972E+02  0.22708582276E+03  0.23585206189E+03  0.41800000000E+01 0.  1.
        -11    1    1    2    0    0  0.19227146065E+02 -0.38686478600E+02  0.32752728829E+02  0.54213171998E+02  0.00000000000E+00 0. -1.
         11    1    1    2    0    0 -0.14567624172E+02  0.37553330788E+02  0.36870943019E+02  0.54607094470E+02  0.00000000000E+00 0.  1.
</event>
<event>
 7    1  0.4394360E-006  0.1410730E+03  0.7561462E-02  0.1211892E+00
          1   -1    0    0  501    0  0.00000000000E+00  0.00000000000E+00  0.72129244998E+03  0.72129244998E+03  0.00000000000E+00 0. -1.
         -1   -1    0    0    0  501 -0.00000000000E+00 -0.00000000000E+00 -0.30750040145E+02  0.30750040145E+02  0.00000000000E+00 0.  1.
         23    2    1    2    0    0 -0.94872199152E+02 -0.41803454831E+02  0.39376013616E+03  0.42596060723E+03  0.12508849297E+03 0.  0.
          5    1    3    3  502    0  0.29644849934E+02 -0.12600416769E+02  0.10970650421E+03  0.11441405987E+03  0.41800000000E+01 0. -1.
         -5    1    3    3    0  502 -0.12451704909E+03 -0.29203038061E+02  0.28405363196E+03  0.31154654736E+03  0.41800000000E+01 0. -1.
        -11    1    1    2    0    0 -0.32041709664E+01  0.21254086021E+02  0.12982190920E+02  0.25110558840E+02  0.00000000000E+00 0.  1.
         11    1    1    2    0    0  0.98076370119E+02  0.20549368810E+02  0.28380008275E+03  0.30097132406E+03  0.00000000000E+00 0. -1.
</event>
<event>
 7    1  0.4394360E-006  0.1143990E+03  0.7561462E-02  0.1252634E+00
         -2   -1    0    0    0  501 -0.00000000000E+00  0.00000000000E+00  0.26277535526E+02  0.26277535526E+02  0.00000000000E+00 0.  1.
          2   -1    0    0  501    0  0.00000000000E+00 -0.00000000000E+00 -0.64894540097E+03  0.64894540097E+03  0.00000000000E+00 0. -1.
         23    2    1    2    0    0 -0.92217185417E+01 -0.65793722540E+02 -0.26163439901E+03  0.29751307868E+03  0.12509044418E+03 0.  0.
          5    1    3    3  502    0 -0.65418852091E+01  0.34675225280E+02 -0.36561073763E+02  0.50983840823E+02  0.41800000000E+01 0.  1.
         -5    1    3    3    0  502 -0.26798333327E+01 -0.10046894782E+03 -0.22507332524E+03  0.24652923786E+03  0.41800000000E+01 0.  1.
        -11    1    1    2    0    0 -0.26513058148E+02  0.14678800536E+02 -0.37474510376E+02  0.48194899787E+02  0.00000000000E+00 0.  1.
         11    1    1    2    0    0  0.35734776690E+02  0.51114922004E+02 -0.32355895606E+03  0.32951495803E+03  0.00000000000E+00 0. -1.
</event>
<event>
 7    1  0.4394360E-006  0.1294434E+03  0.7561462E-02  0.1228284E+00
         -2   -1    0    0    0  501 -0.00000000000E+00  0.00000000000E+00  0.23474658447E+02  0.23474658447E+02  0.00000000000E+00 0.  1.
          2   -1    0    0  501    0  0.00000000000E+00 -0.00000000000E+00 -0.96532377002E+03  0.96532377002E+03  0.00000000000E+00 0. -1.
         23    2    1    2    0    0  0.82837208325E+02  0.56867792593E+02 -0.56867620947E+03  0.59087621021E+03  0.12508443410E+03 0.  0.
          5    1    3    3  502    0  0.73217821044E+02 -0.19650837476E+02 -0.37013300427E+03  0.37783980465E+03  0.41800000000E+01 0. -1.
         -5    1    3    3    0  502  0.96193872804E+01  0.76518630069E+02 -0.19854320521E+03  0.21303640556E+03  0.41800000000E+01 0. -1.
        -11    1    1    2    0    0 -0.68038226530E+02 -0.28567347803E+02 -0.35189009361E+03  0.35954406073E+03  0.00000000000E+00 0. -1.
         11    1    1    2    0    0 -0.14798981795E+02 -0.28300444790E+02 -0.21282808487E+02  0.38378157519E+02  0.00000000000E+00 0.  1.
</event>
<event>
 7    1  0.4394360E-006  0.9684682E+02  0.7561462E-02  0.1287070E+00
          1   -1    0    0  501    0  0.00000000000E+00  0.00000000000E+00  0.30075328860E+02  0.30075328860E+02  0.00000000000E+00 0. -1.
         -1   -1    0    0    0  501 -0.00000000000E+00 -0.00000000000E+00 -0.52191615554E+03  0.52191615554E+03  0.00000000000E+00 0.  1.
         23    2    1    2    0    0  0.15643141614E+02  0.26040829113E+02 -0.39944099171E+03  0.41966902662E+03  0.12508458491E+03 0.  0.
          5    1    3    3  502    0 -0.35718066087E+02  0.31914554483E+02 -0.32733699304E+03  0.33084935914E+03  0.41800000000E+01 0. -1.
         -5    1    3    3    0  502  0.51361207700E+02 -0.58737253702E+01 -0.72103998677E+02  0.88819667481E+02  0.41800000000E+01 0. -1.
        -11    1    1    2    0    0 -0.43302150673E+02 -0.43226128805E+02 -0.69021137227E+02  0.92236065877E+02  0.00000000000E+00 0.  1.
         11    1    1    2    0    0  0.27659009060E+02  0.17185299693E+02 -0.23378697736E+02  0.40086391899E+02  0.00000000000E+00 0. -1.
</event>
<event>
 7    1  0.4394360E-006  0.1179492E+03  0.7561462E-02  0.1246519E+00
          2   -1    0    0  501    0  0.00000000000E+00  0.00000000000E+00  0.59516110439E+03  0.59516110439E+03  0.00000000000E+00 0. -1.
         -2   -1    0    0    0  501 -0.00000000000E+00 -0.00000000000E+00 -0.36207611628E+02  0.36207611628E+02  0.00000000000E+00 0.  1.
         23    2    1    2    0    0 -0.46483538416E+02  0.81377761043E+02  0.21789864606E+03  0.26816131414E+03  0.12509041175E+03 0.  0.
          5    1    3    3  502    0 -0.60428875748E+02  0.90359503969E+01  0.34086995286E+02  0.70090606157E+02  0.41800000000E+01 0.  1.
         -5    1    3    3    0  502  0.13945337332E+02  0.72341810646E+02  0.18381165078E+03  0.19807070799E+03  0.41800000000E+01 0.  1.
        -11    1    1    2    0    0 -0.57802209940E+01 -0.16913611801E+02  0.73298145256E+01  0.19318576548E+02  0.00000000000E+00 0. -1.
         11    1    1    2    0    0  0.52263759410E+02 -0.64464149243E+02  0.33372503217E+03  0.34388882532E+03  0.00000000000E+00 0.  1.
</event>
<event>
 7    1  0.4394360E-006  0.1466676E+03  0.7561462E-02  0.1204629E+00
         -3   -1    0    0    0  501 -0.00000000000E+00  0.00000000000E+00  0.21181772481E+03  0.21181772481E+03  0.00000000000E+00 0.  1.
          3   -1    0    0  501    0  0.00000000000E+00 -0.00000000000E+00 -0.13581645917E+03  0.13581645917E+03  0.00000000000E+00 0. -1.
         23    2    1    2    0    0  0.42654115694E+02 -0.10588219304E+03  0.10447976663E+03  0.19897943408E+03  0.12508549542E+03 0.  0.
          5    1    3    3  502    0 -0.54315692200E+01  0.15652944278E+02 -0.14327820195E+02  0.22299673547E+02  0.41800000000E+01 0. -1.
         -5    1    3    3    0  502  0.48085684914E+02 -0.12153513732E+03  0.11880758683E+03  0.17667976054E+03  0.41800000000E+01 0. -1.
        -11    1    1    2    0    0 -0.49205625278E+02  0.11063761227E+02 -0.45148276432E+01  0.50635798011E+02  0.00000000000E+00 0.  1.
         11    1    1    2    0    0  0.65515095844E+01  0.94818431812E+02 -0.23963673346E+02  0.98018951888E+02  0.00000000000E+00 0. -1.
</event>
<event>
 7    1  0.4394360E-006  0.3622850E+02  0.7561462E-02  0.1537954E+00
          2   -1    0    0  501    0  0.00000000000E+00  0.00000000000E+00  0.94957890178E+02  0.94957890178E+02  0.00000000000E+00 0. -1.
         -2   -1    0    0    0  501 -0.00000000000E+00 -0.00000000000E+00 -0.15950238104E+03  0.15950238104E+03  0.00000000000E+00 0.  1.
         23    2    1    2    0    0 -0.66438265681E+01  0.96770462847E+01 -0.97617749284E+02  0.15910299934E+03  0.12508698480E+03 0.  0.
          5    1    3    3  502    0  0.61279955410E+01  0.25265528262E+02 -0.12336315221E+03  0.12614213797E+03  0.41800000000E+01 0. -1.
         -5    1    3    3    0  502 -0.12771822109E+02 -0.15588481978E+02  0.25745402928E+02  0.32960861371E+02  0.41800000000E+01 0. -1.
        -11    1    1    2    0    0 -0.20390680891E+01 -0.15145581448E+02 -0.28818930905E+02  0.32620196421E+02  0.00000000000E+00 0.  1.
         11    1    1    2    0    0  0.86828946572E+01  0.54685351632E+01  0.61892189330E+02  0.62737075454E+02  0.00000000000E+00 0. -1.
</event>
<event>
 7    1  0.4394360E-006  0.1088216E+03  0.7561462E-02  0.1262768E+00
          1   -1    0    0  501    0  0.00000000000E+00  0.00000000000E+00  0.49733226676E+03  0.49733226676E+03  0.00000000000E+00 0. -1.
         -1   -1    0    0    0  501 -0.00000000000E+00 -0.00000000000E+00 -0.20673029415E+03  0.20673029415E+03  0.00000000000E+00 0.  1.
         23    2    1    2    0    0 -0.68340773207E+02  0.27793281614E+02 -0.17139545641E+03  0.22464696830E+03  0.12508768966E+03 0.  0.
          5    1    3    3  502    0 -0.24643848579E+02  0.42584348044E+02 -0.24201433895E+01  0.49437591620E+02  0.41800000000E+01 0.  1.
         -5    1    3    3    0  502 -0.43696924629E+02 -0.14791066430E+02 -0.16897531302E+03  0.17520937668E+03  0.41800000000E+01 0.  1.
        -11    1    1    2    0    0  0.10555796934E+02 -0.56460187825E+02  0.14581019732E+03  0.15671563834E+03  0.00000000000E+00 0.  1.
         11    1    1    2    0    0  0.57784976273E+02  0.28666906211E+02  0.31618723170E+03  0.32269995427E+03  0.00000000000E+00 0. -1.
</event>
<event>
 7    1  0.4394360E-006  0.9192515E+02  0.7561462E-02  0.1298256E+00
          1   -1    0    0  501    0  0.00000000000E+00  0.00000000000E+00  0.30540599018E+02  0.30540599018E+02  0.00000000000E+00 0. -1.
         -1   -1    0    0    0  501 -0.00000000000E+00 -0.00000000000E+00 -0.44103457327E+03  0.44103457327E+03  0.00000000000E+00 0.  1.
         23    2    1    2    0    0  0.11226554918E+02 -0.39037145530E+02 -0.25738437640E+03  0.28904793304E+03  0.12510817766E+03 0.  0.
          5    1    3    3  502    0  0.43814726371E+02 -0.13639981140E+02 -0.23939972260E+03  0.24379392715E+03  0.41800000000E+01 0. -1.
         -5    1    3    3    0  502 -0.32588171453E+02 -0.25397164390E+02 -0.17984653800E+02  0.45254005900E+02  0.41800000000E+01 0. -1.
        -11    1    1    2    0    0  0.30025142507E+02  0.45475706940E+02 -0.63555568155E+02  0.83718930641E+02  0.00000000000E+00 0. -1.
         11    1    1    2    0    0 -0.41251697425E+02 -0.64385614095E+01 -0.89554029703E+02  0.98808308605E+02  0.00000000000E+00 0.  1.
</event>
<event>
 7    1  0.4394360E-006  0.1920770E+03  0.7561462E-02  0.1156601E+00
         -2   -1    0    0    0  501 -0.00000000000E+00  0.00000000000E+00  0.82812301620E+02  0.82812301620E+02  0.00000000000E+00 0.  1.
          2   -1    0    0  501    0  0.00000000000E+00 -0.00000000000E+00 -0.54663750190E+03  0.54663750190E+03  0.00000000000E+00 0. -1.
         23    2    1    2    0    0  0.17394132958E+03  0.50646337972E+02 -0.27129908580E+03  0.34938624417E+03  0.12508763318E+03 0.  0.
          5    1    3    3  502    0  0.69965415473E+02 -0.24915573086E+02 -0.17039584160E+03  0.18592514725E+03  0.41800000000E+01 0. -1.
         -5    1    3    3    0  502  0.10397591411E+03  0.75561911058E+02 -0.10090324420E+03  0.16346109692E+03  0.41800000000E+01 0. -1.
        -11    1    1    2    0    0 -0.70915157516E+02 -0.20208560989E+02 -0.19287128312E+02  0.76219018763E+02  0.00000000000E+00 0.  1.
         11    1    1    2    0    0 -0.10302617206E+03 -0.30437776983E+02 -0.17323898617E+03  0.20384454059E+03  0.00000000000E+00 0. -1.
</event>
<event>
 7    1  0.4394360E-006  0.8829022E+02  0.7561462E-02  0.1307046E+00
         -2   -1    0    0    0  501 -0.00000000000E+00  0.00000000000E+00  0.65804468735E+02  0.65804468735E+02  0.00000000000E+00 0. -1.
          2   -1    0    0  501    0  0.00000000000E+00 -0.00000000000E+00 -0.20336729215E+03  0.20336729215E+03  0.00000000000E+00 0.  1.
         23    2    1    2    0    0 -0.10142206695E+02 -0.40740527669E+02 -0.70554333262E+02  0.14962533284E+03  0.12508865390E+03 0.  0.
          5    1    3    3  502    0  0.31506722915E+02 -0.24278269879E+02 -0.91611554581E+02  0.99961279053E+02  0.41800000000E+01 0.  1.
         -5    1    3    3    0  502 -0.41648929610E+02 -0.16462257790E+02  0.21057221319E+02  0.49664053790E+02  0.41800000000E+01 0.  1.
        -11    1    1    2    0    0 -0.16045623326E+02  0.58042405763E+02 -0.64217104794E+02  0.88035330651E+02  0.00000000000E+00 0.  1.
         11    1    1    2    0    0  0.26187830021E+02 -0.17301878094E+02 -0.27913853634E+01  0.31511097395E+02  0.00000000000E+00 0. -1.
</event>
<event>
 7    1  0.4394360E-006  0.1593572E+03  0.7561462E-02  0.1189424E+00
         -1   -1    0    0    0  501 -0.00000000000E+00  0.00000000000E+00  0.33969549225E+03  0.33969549225E+03  0.00000000000E+00 0.  1.
          1   -1    0    0  501    0  0.00000000000E+00 -0.00000000000E+00 -0.79132450225E+02  0.79132450225E+02  0.00000000000E+00 0. -1.
         23    2    1    2    0    0  0.10809176845E+03  0.57834759539E+02  0.13952637347E+03  0.22392747150E+03  0.12508882356E+03 0.  0.
          5    1    3    3  502    0  0.43856272087E+01  0.68779075274E+02  0.71227779174E+02  0.99200120200E+02  0.41800000000E+01 0. -1.
         -5    1    3    3    0  502  0.10370614124E+03 -0.10944315735E+02  0.68298594299E+02  0.12472735130E+03  0.41800000000E+01 0. -1.
        -11    1    1    2    0    0 -0.57690098929E+01 -0.41242465120E+02  0.64638824363E+02  0.76892132363E+02  0.00000000000E+00 0.  1.
         11    1    1    2    0    0 -0.10232275856E+03 -0.16592294419E+02  0.56397844186E+02  0.11800833861E+03  0.00000000000E+00 0. -1.
</event>
<event>
 7    1  0.4394360E-006  0.7148390E+02  0.7561462E-02  0.1355118E+00
          1   -1    0    0  501    0  0.00000000000E+00  0.00000000000E+00  0.53629774061E+03  0.53629774061E+03  0.00000000000E+00 0. -1.
         -1   -1    0    0    0  501 -0.00000000000E+00 -0.00000000000E+00 -0.22291309267E+02  0.22291309267E+02  0.00000000000E+00 0.  1.
         23    2    1    2    0    0  0.21130411418E+02 -0.14914506057E+02  0.28359877985E+03  0.31103484765E+03  0.12508186017E+03 0.  0.
          5    1    3    3  502    0 -0.17803948628E+02 -0.18865774383E+02  0.26705122513E+03  0.26834069254E+03  0.41800000000E+01 0. -1.
         -5    1    3    3    0  502  0.38934360046E+02  0.39512683262E+01  0.16547554723E+02  0.42694155114E+02  0.41800000000E+01 0. -1.
        -11    1    1    2    0    0  0.22702682720E+02 -0.12221275134E+02  0.14886965565E+03  0.15108588863E+03  0.00000000000E+00 0.  1.
         11    1    1    2    0    0 -0.43833094138E+02  0.27135781190E+02  0.81537995844E+02  0.96468313599E+02  0.00000000000E+00 0. -1.
</event>
<event>
 7    1  0.4394360E-006  0.6094397E+02  0.7561462E-02  0.1393912E+00
          1   -1    0    0  501    0  0.00000000000E+00  0.00000000000E+00  0.35324212705E+03  0.35324212705E+03  0.00000000000E+00 0. -1.
         -1   -1    0    0    0  501 -0.00000000000E+00 -0.00000000000E+00 -0.36841441714E+02  0.36841441714E+02  0.00000000000E+00 0.  1.
         23    2    1    2    0    0 -0.11688483688E+01 -0.32141015198E+02  0.21154762346E+03  0.24787115657E+03  0.12511315760E+03 0.  0.
          5    1    3    3  502    0  0.89781020600E+00  0.25218703798E+02 -0.29865373796E+01  0.25752298731E+02  0.41800000000E+01 0. -1.
         -5    1    3    3    0  502 -0.20666585748E+01 -0.57359718995E+02  0.21453416084E+03  0.22211885784E+03  0.41800000000E+01 0. -1.
        -11    1    1    2    0    0 -0.10111302975E+02  0.12154337379E+02 -0.14027907910E+02  0.21136427449E+02  0.00000000000E+00 0.  1.
         11    1    1    2    0    0  0.11280151344E+02  0.19986677819E+02  0.11888096979E+03  0.12107598475E+03  0.00000000000E+00 0. -1.
</event>
<event>
 6    1  0.4394360E-006  0.1568147E+03  0.7561462E-02  0.1192341E+00
         -1   -1    0    0    0  501 -0.00000000000E+00  0.00000000000E+00  0.33070928958E+03  0.33070928958E+03  0.00000000000E+00 0.  1.
          1   -1    0    0  501    0  0.00000000000E+00 -0.00000000000E+00 -0.77934562597E+02  0.77934562597E+02  0.00000000000E+00 0. -1.
          5    1    1    2  502    0 -0.67705670862E+02  0.53327490459E+02  0.11114897768E+03  0.14071050687E+03  0.41800000000E+01 0. -1.
         -5    1    1    2    0  502 -0.15353784315E+02 -0.84843412917E+02  0.52218098309E+02  0.10088778717E+03  0.41800000000E+01 0.  1.
        -11    1    1    2    0    0  0.10958603973E+03  0.33015111107E+02  0.70270631317E+02  0.13430211946E+03  0.00000000000E+00 0.  1.
         11    1    1    2    0    0 -0.26526584550E+02 -0.14991886495E+01  0.19137019676E+02  0.32743438680E+02  0.00000000000E+00 0. -1.
</event>
<event>
 7    1  0.4394360E-006  0.8619716E+02  0.7561462E-02  0.1312331E+00
         -1   -1    0    0    0  501 -0.00000000000E+00  0.00000000000E+00  0.63268993856E+03  0.63268993856E+03  0.00000000000E+00 0.  1.
          1   -1    0    0  501    0  0.00000000000E+00 -0.00000000000E+00 -0.21147848101E+02  0.21147848101E+02  0.00000000000E+00 0. -1.
         23    2    1    2    0    0  0.37095654445E+02 -0.93602472119E+00  0.28578891034E+03  0.31416574983E+03  0.12509138009E+03 0.  0.
          5    1    3    3  502    0 -0.81019632752E+01 -0.23867478364E+02  0.17488508577E+01  0.25609162651E+02  0.41800000000E+01 0.  1.
         -5    1    3    3    0  502  0.45197617720E+02  0.22931453643E+02  0.28404005948E+03  0.28855658718E+03  0.41800000000E+01 0.  1.
        -11    1    1    2    0    0 -0.63886317430E+02  0.15156942279E+02  0.23385406319E+03  0.24289692737E+03  0.00000000000E+00 0. -1.
         11    1    1    2    0    0  0.26790662985E+02 -0.14220917558E+02  0.91899116922E+02  0.96775109458E+02  0.00000000000E+00 0.  1.
</event>
<event>
 7    1  0.4394360E-006  0.1168262E+03  0.7561462E-02  0.1248427E+00
          1   -1    0    0  501    0  0.00000000000E+00  0.00000000000E+00  0.43085149210E+03  0.43085149210E+03  0.00000000000E+00 0. -1.
         -1   -1    0    0    0  501 -0.00000000000E+00 -0.00000000000E+00 -0.51363299259E+02  0.51363299259E+02  0.00000000000E+00 0.  1.
         23    2    1    2    0    0  0.19425739375E+02  0.79034713565E+02  0.10591931541E+03  0.18300550148E+03  0.12509303297E+03 0.  0.
          5    1    3    3  502    0 -0.31322824455E+02  0.48929154232E+02 -0.37845822330E+01  0.58369314955E+02  0.41800000000E+01 0. -1.
         -5    1    3    3    0  502  0.50748563830E+02  0.30105559333E+02  0.10970389764E+03  0.12463618653E+03  0.41800000000E+01 0. -1.
        -11    1    1    2    0    0 -0.52266664669E+02 -0.45210915038E+02  0.20212439494E+03  0.21361203642E+03  0.00000000000E+00 0. -1.
         11    1    1    2    0    0  0.32840925294E+02 -0.33823798527E+02  0.71444482494E+02  0.85597253459E+02  0.00000000000E+00 0.  1.
</event>
<event>
 7    1  0.4394360E-006  0.1147033E+03  0.7561462E-02  0.1252100E+00
         -1   -1    0    0    0  501 -0.00000000000E+00  0.00000000000E+00  0.91551440346E+02  0.91551440346E+02  0.00000000000E+00 0.  1.
          1   -1    0    0  501    0  0.00000000000E+00 -0.00000000000E+00 -0.23270798098E+03  0.23270798098E+03  0.00000000000E+00 0. -1.
         23    2    1    2    0    0  0.77261602034E+02  0.44878635181E+01 -0.10694948785E+02  0.14748719109E+03  0.12509433856E+03 0.  0.
          5    1    3    3  502    0  0.13852624821E+02 -0.49060344429E+02  0.25135451005E+02  0.56991893345E+02  0.41800000000E+01 0.  1.
         -5    1    3    3    0  502  0.63408977213E+02  0.53548207947E+02 -0.35830399790E+02  0.90495297749E+02  0.41800000000E+01 0.  1.
        -11    1    1    2    0    0 -0.11578146141E+01 -0.17851420537E+02  0.68968474781E+01  0.19172382611E+02  0.00000000000E+00 0.  1.
         11    1    1    2    0    0 -0.76103787420E+02  0.13363557019E+02 -0.13735843932E+03  0.15759984762E+03  0.00000000000E+00 0. -1.
</event>
<event>
 7    1  0.4394360E-006  0.7681103E+02  0.7561462E-02  0.1338353E+00
         -1   -1    0    0    0  501 -0.00000000000E+00  0.00000000000E+00  0.33736631192E+02  0.33736631192E+02  0.00000000000E+00 0.  1.
          1   -1    0    0  501    0  0.00000000000E+00 -0.00000000000E+00 -0.37722161302E+03  0.37722161302E+03  0.00000000000E+00 0. -1.
         23    2    1    2    0    0  0.20249776891E+02  0.23891930553E+02 -0.18303502290E+03  0.22389677292E+03  0.12508823889E+03 0.  0.
          5    1    3    3  502    0 -0.72346536521E+01  0.59457277165E+02 -0.16447000892E+03  0.17508673353E+03  0.41800000000E+01 0. -1.
         -5    1    3    3    0  502  0.27484430544E+02 -0.35565346612E+02 -0.18565013973E+02  0.48810039395E+02  0.41800000000E+01 0. -1.
        -11    1    1    2    0    0  0.10263907455E+02 -0.10391360941E+01  0.88070129327E+01  0.13564331051E+02  0.00000000000E+00 0.  1.
         11    1    1    2    0    0 -0.30513684347E+02 -0.22852794459E+02 -0.16925697186E+03  0.17349714024E+03  0.00000000000E+00 0. -1.
</event>
<event>
 7    1  0.4943388E-006  0.1138523E+03  0.7561462E-02  0.1253598E+00
         -1   -1    0    0    0  501 -0.00000000000E+00  0.00000000000E+00  0.19657170672E+03  0.19657170672E+03  0.00000000000E+00 0. -1.
          1   -1    0    0  501    0  0.00000000000E+00 -0.00000000000E+00 -0.81890785278E+02  0.81890785278E+02  0.00000000000E+00 0.  1.
         23    2    1    2    0    0  0.34857805309E+02 -0.56052655008E+02  0.69715673749E+02  0.15768644920E+03  0.12509106431E+03 0.  0.
          5    1    3    3  502    0  0.25091525400E+02 -0.89572647430E+02  0.78106874263E+02  0.12153600299E+03  0.41800000000E+01 0.  1.
         -5    1    3    3    0  502  0.97662799096E+01  0.33519992422E+02 -0.83912005143E+01  0.36150446212E+02  0.41800000000E+01 0.  1.
        -11    1    1    2    0    0  0.71760768335E+01  0.56933345656E+02  0.52834907024E+02  0.78002752045E+02  0.00000000000E+00 0. -1.
         11    1    1    2    0    0 -0.42033882143E+02 -0.88069064794E+00 -0.78696593320E+01  0.42773290755E+02  0.00000000000E+00 0.  1.
</event>
<event>
 7    1  0.4394360E-006  0.1725785E+03  0.7561462E-02  0.1175185E+00
         -1   -1    0    0    0  501 -0.00000000000E+00  0.00000000000E+00  0.72364108932E+03  0.72364108932E+03  0.00000000000E+00 0.  1.
          1   -1    0    0  501    0  0.00000000000E+00 -0.00000000000E+00 -0.35105764298E+03  0.35105764298E+03  0.00000000000E+00 0. -1.
         23    2    1    2    0    0  0.87709815175E+02 -0.13887617068E+03  0.68263394137E+03  0.71189408603E+03  0.11757758864E+03 0.  0.
          5    1    3    3  502    0 -0.42746493463E+01 -0.20505703462E+02  0.11599360703E+02  0.24305844364E+02  0.41800000000E+01 0. -1.
         -5    1    3    3    0  502  0.91984464522E+02 -0.11837046721E+03  0.67103458067E+03  0.68758824166E+03  0.41800000000E+01 0.  1.
        -11    1    1    2    0    0 -0.88892315844E+02  0.95615520133E+02 -0.28328231586E+03  0.31191832583E+03  0.00000000000E+00 0. -1.
         11    1    1    2    0    0  0.11825006692E+01  0.43260650544E+02 -0.26768179163E+02  0.50886320450E+02  0.00000000000E+00 0.  1.
</event>
<event>
 7    1  0.4394360E-006  0.2209139E+03  0.7561462E-02  0.1133204E+00
          2   -1    0    0  501    0  0.00000000000E+00  0.00000000000E+00  0.40118041654E+03  0.40118041654E+03  0.00000000000E+00 0. -1.
         -2   -1    0    0    0  501 -0.00000000000E+00 -0.00000000000E+00 -0.24845270512E+03  0.24845270512E+03  0.00000000000E+00 0.  1.
         23    2    1    2    0    0  0.17984648844E+03  0.90154957591E+02 -0.14595606124E+03  0.27825017904E+03  0.12508922631E+03 0.  0.
          5    1    3    3  502    0  0.16795904110E+03  0.25470005440E+02 -0.11672013605E+03  0.20615533761E+03  0.41800000000E+01 0.  1.
         -5    1    3    3    0  502  0.11887447341E+02  0.64684952151E+02 -0.29235925182E+02  0.72094841427E+02  0.41800000000E+01 0.  1.
        -11    1    1    2    0    0 -0.12419012901E+03 -0.38390635669E+02  0.11879062918E+03  0.17609157456E+03  0.00000000000E+00 0. -1.
         11    1    1    2    0    0 -0.55656359437E+02 -0.51764321922E+02  0.17989314348E+03  0.19529136807E+03  0.00000000000E+00 0.  1.
</event>
<event>
 6    1  0.4394360E-006  0.8859547E+02  0.7561462E-02  0.1306289E+00
         -2   -1    0    0    0  501 -0.00000000000E+00  0.00000000000E+00  0.64116978704E+02  0.64116978704E+02  0.00000000000E+00 0.  1.
          2   -1    0    0  501    0  0.00000000000E+00 -0.00000000000E+00 -0.24913425090E+03  0.24913425090E+03  0.00000000000E+00 0. -1.
          5    1    1    2  502    0  0.19898463241E+02  0.39497887408E+02 -0.87846949005E+02  0.98440798445E+02  0.41800000000E+01 0. -1.
         -5    1    1    2    0  502 -0.39570215107E+02 -0.31964360439E+02  0.28086713642E+02  0.58256829171E+02  0.41800000000E+01 0.  1.
        -11    1    1    2    0    0  0.23825219837E+02 -0.41314647927E+02 -0.32403461647E+02  0.57658698913E+02  0.00000000000E+00 0.  1.
         11    1    1    2    0    0 -0.41534679702E+01  0.33781120958E+02 -0.92853575181E+02  0.98894903070E+02  0.00000000000E+00 0. -1.
</event>
<event>
 7    1  0.4394360E-006  0.1042359E+03  0.7561462E-02  0.1271632E+00
          1   -1    0    0  501    0  0.00000000000E+00  0.00000000000E+00  0.66568458490E+02  0.66568458490E+02  0.00000000000E+00 0. -1.
         -1   -1    0    0    0  501 -0.00000000000E+00 -0.00000000000E+00 -0.20374386239E+03  0.20374386239E+03  0.00000000000E+00 0.  1.
         23    2    1    2    0    0 -0.14436252483E+02 -0.31268293011E+02 -0.10575637427E+03  0.16738645868E+03  0.12509078431E+03 0.  0.
          5    1    3    3  502    0  0.44320211215E+02 -0.50925529449E+02 -0.54272739903E+02  0.86721931300E+02  0.41800000000E+01 0. -1.
         -5    1    3    3    0  502 -0.58756463698E+02  0.19657236438E+02 -0.51483634364E+02  0.80664527383E+02  0.41800000000E+01 0. -1.
        -11    1    1    2    0    0  0.43173631427E+02  0.22520205749E+02  0.11978658970E+02  0.50145891040E+02  0.00000000000E+00 0. -1.
         11    1    1    2    0    0 -0.28737378944E+02  0.87480872625E+01 -0.43397688608E+02  0.52779971161E+02  0.00000000000E+00 0.  1.
</event>
<event>
 6    1  0.4394360E-006  0.1104541E+03  0.7561462E-02  0.1259731E+00
          1   -1    0    0  501    0  0.00000000000E+00  0.00000000000E+00  0.54769285179E+02  0.54769285179E+02  0.00000000000E+00 0. -1.
         -1   -1    0    0    0  501 -0.00000000000E+00 -0.00000000000E+00 -0.34851148748E+03  0.34851148748E+03  0.00000000000E+00 0.  1.
          5    1    1    2  502    0  0.63254560987E+02  0.90972980101E+00 -0.59316257575E+02  0.86820837975E+02  0.41800000000E+01 0. -1.
         -5    1    1    2    0  502 -0.68433211778E+02 -0.77601224252E+01 -0.20794008576E+03  0.21908873919E+03  0.41800000000E+01 0.  1.
        -11    1    1    2    0    0 -0.33788311416E+02 -0.21741823735E+02  0.37619704697E+01  0.40354792893E+02  0.00000000000E+00 0. -1.
         11    1    1    2    0    0  0.38966962207E+02  0.28592216359E+02 -0.30247829438E+02  0.57016402602E+02  0.00000000000E+00 0.  1.
</event>
<event>
 7    1  0.4394360E-006  0.8640257E+02  0.7561462E-02  0.1311805E+00
         -1   -1    0    0    0  501 -0.00000000000E+00  0.00000000000E+00  0.33293348549E+03  0.33293348549E+03  0.00000000000E+00 0.  1.
          1   -1    0    0  501    0  0.00000000000E+00 -0.00000000000E+00 -0.44226478570E+02  0.44226478570E+02  0.00000000000E+00 0. -1.
         23    2    1    2    0    0 -0.24585141528E+02  0.28562478735E+02  0.21754398647E+03  0.25375883428E+03  0.12509162861E+03 0.  0.
          5    1    3    3  502    0  0.11323115385E+02 -0.23479871749E+02 -0.79310693715E+00  0.26412473152E+02  0.41800000000E+01 0. -1.
         -5    1    3    3    0  502 -0.35908256912E+02  0.52042350484E+02  0.21833709341E+03  0.22734636113E+03  0.41800000000E+01 0. -1.
        -11    1    1    2    0    0 -0.25641607949E+02 -0.18989140094E+02 -0.43533916001E+01  0.32202973747E+02  0.00000000000E+00 0. -1.
         11    1    1    2    0    0  0.50226749477E+02 -0.95733386410E+01  0.75516412048E+02  0.91198156036E+02  0.00000000000E+00 0.  1.
</event>
<event>
 7    1  0.4394360E-006  0.9660102E+02  0.7561462E-02  0.1287610E+00
          2   -1    0    0  501    0  0.00000000000E+00  0.00000000000E+00  0.84960898940E+02  0.84960898940E+02  0.00000000000E+00 0. -1.
         -2   -1    0    0    0  501 -0.00000000000E+00 -0.00000000000E+00 -0.30143714542E+03  0.30143714542E+03  0.00000000000E+00 0.  1.
         23    2    1    2    0    0  0.31769348149E+02  0.42657683948E+02 -0.24264985059E+03  0.27812713214E+03  0.12508709830E+03 0.  0.
          5    1    3    3  502    0  0.72678413404E+02  0.50344499314E+02 -0.12423881698E+03  0.15254335918E+03  0.41800000000E+01 0.  1.
         -5    1    3    3    0  502 -0.40909065255E+02 -0.76868153659E+01 -0.11841103360E+03  0.12558377295E+03  0.41800000000E+01 0.  1.
        -11    1    1    2    0    0 -0.15282846272E+02  0.18493317444E+01 -0.30610426330E+02  0.34263444342E+02  0.00000000000E+00 0.  1.
         11    1    1    2    0    0 -0.16486501877E+02 -0.44507015693E+02  0.56784030433E+02  0.74007467882E+02  0.00000000000E+00 0. -1.
</event>
<event>
 7    1  0.4394360E-006  0.1027522E+03  0.7561462E-02  0.1274613E+00
          2   -1    0    0  501    0  0.00000000000E+00  0.00000000000E+00  0.14741827565E+02  0.14741827565E+02  0.00000000000E+00 0. -1.
         -2   -1    0    0    0  501 -0.00000000000E+00 -0.00000000000E+00 -0.11319964909E+04  0.11319964909E+04  0.00000000000E+00 0.  1.
         23    2    1    2    0    0  0.18685567547E+02 -0.38764611996E+01 -0.92374072635E+03  0.93236754439E+03  0.12509248944E+03 0.  0.
          5    1    3    3  502    0 -0.35901486151E+02 -0.35724834720E+02 -0.62080057126E+03  0.62287719672E+03  0.41800000000E+01 0.  1.
         -5    1    3    3    0  502  0.54587053698E+02  0.31848373520E+02 -0.30294015510E+03  0.30949034766E+03  0.41800000000E+01 0.  1.
        -11    1    1    2    0    0 -0.22843902652E+02  0.44760565179E+02 -0.91519783106E+02  0.10440892099E+03  0.00000000000E+00 0.  1.
         11    1    1    2    0    0  0.41583351045E+01 -0.40884103980E+02 -0.10199415388E+03  0.10996185308E+03  0.00000000000E+00 0. -1.
</event>
<event>
 7    1  0.4394360E-006  0.1097825E+03  0.7561462E-02  0.1260973E+00
         -2   -1    0    0    0  501 -0.00000000000E+00  0.00000000000E+00  0.54123092752E+02  0.54123092752E+02  0.00000000000E+00 0.  1.
          2   -1    0    0  501    0  0.00000000000E+00 -0.00000000000E+00 -0.28844258485E+03  0.28844258485E+03  0.00000000000E+00 0. -1.
         23    2    1    2    0    0 -0.51378264578E+02  0.26024160574E+02 -0.96541252505E+02  0.16817119511E+03  0.12507739374E+03 0.  0.
          5    1    3    3  502    0 -0.69204694396E+02  0.48527389421E+02 -0.20917211106E+02  0.87173386827E+02  0.41800000000E+01 0. -1.
         -5    1    3    3    0  502  0.17826429819E+02 -0.22503228847E+02 -0.75624041399E+02  0.80997808280E+02  0.41800000000E+01 0. -1.
        -11    1    1    2    0    0 -0.21812199687E+02 -0.24386863012E+02 -0.32100825111E+02  0.45836166022E+02  0.00000000000E+00 0.  1.
         11    1    1    2    0    0  0.73190464265E+02 -0.16372975615E+01 -0.10567741448E+03  0.12855831647E+03  0.00000000000E+00 0. -1.
</event>
<event>
 7    1  0.4394360E-006  0.1452298E+03  0.7561462E-02  0.1206460E+00
         -2   -1    0    0    0  501 -0.00000000000E+00  0.00000000000E+00  0.68989160919E+02  0.68989160919E+02  0.00000000000E+00 0.  1.
          2   -1    0    0  501    0  0.00000000000E+00 -0.00000000000E+00 -0.46121586208E+03  0.46121586208E+03  0.00000000000E+00 0. -1.
         23    2    1    2    0    0 -0.11028247907E+03 -0.43772433355E+02 -0.93465780121E+02  0.19611519669E+03  0.12508823769E+03 0.  0.
          5    1    3    3  502    0 -0.13498824458E+03 -0.19074573663E+02 -0.66234396521E+02  0.15162497557E+03  0.41800000000E+01 0. -1.
         -5    1    3    3    0  502  0.24705765506E+02 -0.24697859692E+02 -0.27231383600E+02  0.44490221120E+02  0.41800000000E+01 0. -1.
        -11    1    1    2    0    0  0.10116259087E+03  0.37862105112E+02 -0.30356352723E+03  0.32220835473E+03  0.00000000000E+00 0. -1.
         11    1    1    2    0    0  0.91198882056E+01  0.59103282431E+01  0.48026061835E+01  0.11881471583E+02  0.00000000000E+00 0.  1.
</event>
<event>
 7    1  0.4394360E-006  0.1777180E+03  0.7561462E-02  0.1170030E+00
          1   -1    0    0  501    0  0.00000000000E+00  0.00000000000E+00  0.38505857478E+02  0.38505857478E+02  0.00000000000E+00 0. -1.
         -1   -1    0    0    0  501 -0.00000000000E+00 -0.00000000000E+00 -0.10402861719E+04  0.10402861719E+04  0.00000000000E+00 0.  1.
         23    2    1    2    0    0 -0.16388546369E+03 -0.31035697365E+02 -0.46661437111E+03  0.51107612364E+03  0.12509265808E+03 0.  0.
          5    1    3    3  502    0 -0.41563761851E+02  0.24306666613E+02 -0.26125651718E+03  0.26568929318E+03  0.41800000000E+01 0. -1.
         -5    1    3    3    0  502 -0.12232170184E+03 -0.55342363978E+02 -0.20535785393E+03  0.24538683046E+03  0.41800000000E+01 0. -1.
        -11    1    1    2    0    0  0.12401385740E+03  0.30179705466E+01 -0.47147021018E+03  0.48751687567E+03  0.00000000000E+00 0.  1.
         11    1    1    2    0    0  0.39871606294E+02  0.28017726819E+02 -0.63695733108E+02  0.80199030049E+02  0.00000000000E+00 0. -1.
</event>
<event>
 7    1  0.4394360E-006  0.9092850E+02  0.7561462E-02  0.1300619E+00
          2   -1    0    0  501    0  0.00000000000E+00  0.00000000000E+00  0.26947521821E+03  0.26947521821E+03  0.00000000000E+00 0. -1.
         -2   -1    0    0    0  501 -0.00000000000E+00 -0.00000000000E+00 -0.64927486359E+02  0.64927486359E+02  0.00000000000E+00 0.  1.
         23    2    1    2    0    0  0.42665157096E+02 -0.27715781266E+02  0.44399739587E+02  0.14214699718E+03  0.12508377900E+03 0.  0.
          5    1    3    3  502    0  0.26796488151E+01 -0.43242398518E+02  0.76767382136E+02  0.88248449887E+02  0.41800000000E+01 0.  1.
         -5    1    3    3    0  502  0.39985508281E+02  0.15526617252E+02 -0.32367642549E+02  0.53898547290E+02  0.41800000000E+01 0.  1.
        -11    1    1    2    0    0  0.20956570934E+02  0.23477703621E+02  0.17507684909E+02  0.36012490381E+02  0.00000000000E+00 0.  1.
         11    1    1    2    0    0 -0.63621728029E+02  0.42380776453E+01  0.14264030736E+03  0.15624321701E+03  0.00000000000E+00 0. -1.
</event>
<event>
 7    1  0.4394360E-006  0.1399364E+03  0.7561462E-02  0.1213415E+00
          3   -1    0    0  501    0  0.00000000000E+00  0.00000000000E+00  0.14303995579E+03  0.14303995579E+03  0.00000000000E+00 0.  1.
         -3   -1    0    0    0  501 -0.00000000000E+00 -0.00000000000E+00 -0.21905821097E+03  0.21905821097E+03  0.00000000000E+00 0. -1.
         23    2    1    2    0    0 -0.89097634468E+02 -0.25532686479E+02 -0.14888807611E+03  0.21542020205E+03  0.12509155727E+03 0.  0.
          5    1    3    3  502    0 -0.11871798653E+03 -0.31469659654E+02 -0.10312474279E+03  0.16042594796E+03  0.41800000000E+01 0.  1.
         -5    1    3    3    0  502  0.29620352061E+02  0.59369731753E+01 -0.45763333315E+02  0.54994254089E+02  0.41800000000E+01 0.  1.
        -11    1    1    2    0    0  0.77459058569E+02  0.54870233294E+02  0.47289542767E+02  0.10605163418E+03  0.00000000000E+00 0. -1.
         11    1    1    2    0    0  0.11638575899E+02 -0.29337546816E+02  0.25580278152E+02  0.40626330531E+02  0.00000000000E+00 0.  1.
</event>
<event>
 7    1  0.4394360E-006  0.1573646E+03  0.7561462E-02  0.1191705E+00
         -2   -1    0    0    0  501 -0.00000000000E+00  0.00000000000E+00  0.94564850361E+03  0.94564850361E+03  0.00000000000E+00 0.  1.
          2   -1    0    0  501    0  0.00000000000E+00 -0.00000000000E+00 -0.32974135029E+02  0.32974135029E+02  0.00000000000E+00 0. -1.
         23    2    1    2    0    0  0.12672499789E+03 -0.15955149371E+01  0.62201454862E+03  0.64700205812E+03  0.12509114184E+03 0.  0.
          5    1    3    3  502    0  0.64522242228E+02 -0.48134157350E+02  0.46313710049E+03  0.47009941831E+03  0.41800000000E+01 0. -1.
         -5    1    3    3    0  502  0.62202755662E+02  0.46538642413E+02  0.15887744813E+03  0.17690263981E+03  0.41800000000E+01 0. -1.
        -11    1    1    2    0    0 -0.84296715417E+02  0.45060359286E+02  0.20925654056E+03  0.23005362848E+03  0.00000000000E+00 0.  1.
         11    1    1    2    0    0 -0.42428282473E+02 -0.43464844349E+02  0.81403279401E+02  0.10156695203E+03  0.00000000000E+00 0. -1.
</event>
<event>
 7    1  0.4394360E-006  0.9822664E+02  0.7561462E-02  0.1284070E+00
          1   -1    0    0  501    0  0.00000000000E+00  0.00000000000E+00  0.59927167690E+03  0.59927167690E+03  0.00000000000E+00 0. -1.
         -1   -1    0    0    0  501 -0.00000000000E+00 -0.00000000000E+00 -0.19221452186E+02  0.19221452186E+02  0.00000000000E+00 0.  1.
         23    2    1    2    0    0  0.11233548855E+02 -0.13947674759E+02  0.27414826045E+03  0.30186915860E+03  0.12508792889E+03 0.  0.
          5    1    3    3  502    0 -0.33282011752E+02 -0.53674872714E+02  0.17479598924E+03  0.18590264797E+03  0.41800000000E+01 0.  1.
         -5    1    3    3    0  502  0.44515560607E+02  0.39727197955E+02  0.99352271204E+02  0.11596651063E+03  0.41800000000E+01 0.  1.
        -11    1    1    2    0    0  0.28457584141E+02  0.17646700870E+02  0.72717198645E+02  0.80056424636E+02  0.00000000000E+00 0.  1.
         11    1    1    2    0    0 -0.39691132996E+02 -0.36990261115E+01  0.23318476563E+03  0.23656754586E+03  0.00000000000E+00 0. -1.
</event>
<event>
 7    1  0.4394360E-006  0.1062987E+03  0.7561462E-02  0.1267582E+00
          2   -1    0    0  501    0  0.00000000000E+00  0.00000000000E+00  0.12080687325E+02  0.12080687325E+02  0.00000000000E+00 0. -1.
         -2   -1    0    0    0  501 -0.00000000000E+00 -0.00000000000E+00 -0.11560151292E+04  0.11560151292E+04  0.00000000000E+00 0.  1.
         23    2    1    2    0    0 -0.13535680096E+02 -0.18613345025E+02 -0.85327928136E+03  0.86270587082E+03  0.12508483641E+03 0.  0.
          5    1    3    3  502    0 -0.60951313245E+02 -0.39598397847E+02 -0.57665777705E+03  0.58123554600E+03  0.41800000000E+01 0. -1.
         -5    1    3    3    0  502  0.47415633149E+02  0.20985052822E+02 -0.27662150431E+03  0.28147032482E+03  0.41800000000E+01 0. -1.
        -11    1    1    2    0    0 -0.20836793352E+02  0.41527799525E+02 -0.20624021041E+03  0.21140897446E+03  0.00000000000E+00 0.  1.
         11    1    1    2    0    0  0.34372473448E+02 -0.22914454500E+02 -0.84414950120E+02  0.93980971264E+02  0.00000000000E+00 0. -1.
</event>
<event>
 7    1  0.4394360E-006  0.1121158E+03  0.7561462E-02  0.1256701E+00
         -1   -1    0    0    0  501 -0.00000000000E+00  0.00000000000E+00  0.65798984699E+03  0.65798984699E+03  0.00000000000E+00 0.  1.
          1   -1    0    0  501    0  0.00000000000E+00 -0.00000000000E+00 -0.21591352582E+02  0.21591352582E+02  0.00000000000E+00 0. -1.
         23    2    1    2    0    0 -0.45812111886E+02  0.20646971389E+02  0.35306542174E+03  0.37792664625E+03  0.12509320884E+03 0.  0.
          5    1    3    3  502    0 -0.74382096609E+01  0.65706548059E+02  0.25356373202E+03  0.26207769080E+03  0.41800000000E+01 0.  1.
         -5    1    3    3    0  502 -0.38373902225E+02 -0.45059576671E+02  0.99501689720E+02  0.11584895545E+03  0.41800000000E+01 0.  1.
        -11    1    1    2    0    0 -0.50691430794E+00  0.30001494012E+02  0.48817483947E+02  0.57301774352E+02  0.00000000000E+00 0. -1.
         11    1    1    2    0    0  0.46319026194E+02 -0.50648465400E+02  0.23451558872E+03  0.24435277897E+03  0.00000000000E+00 0.  1.
</event>
<event>
 7    1  0.4394360E-006  0.1338649E+03  0.7561462E-02  0.1221831E+00
         -1   -1    0    0    0  501 -0.00000000000E+00  0.00000000000E+00  0.49501336209E+02  0.49501336209E+02  0.00000000000E+00 0.  1.
          1   -1    0    0  501    0  0.00000000000E+00 -0.00000000000E+00 -0.52175604128E+03  0.52175604128E+03  0.00000000000E+00 0. -1.
         23    2    1    2    0    0 -0.95810754352E+02 -0.42620409009E+02 -0.15979237458E+03  0.22842270753E+03  0.12508849039E+03 0.  0.
          5    1    3    3  502    0 -0.96420434739E+02 -0.57753536874E+02 -0.60142862532E+02  0.12754217957E+03  0.41800000000E+01 0.  1.
         -5    1    3    3    0  502  0.60968038681E+00  0.15133127865E+02 -0.99649512049E+02  0.10088052796E+03  0.41800000000E+01 0.  1.
        -11    1    1    2    0    0  0.41486561290E+02 -0.28293711449E+02 -0.89187918793E+02  0.10235308366E+03  0.00000000000E+00 0. -1.
         11    1    1    2    0    0  0.54324193062E+02  0.70914120459E+02 -0.22327441170E+03  0.24048158630E+03  0.00000000000E+00 0.  1.
</event>
<event>
 7    1  0.4394360E-006  0.1041338E+03  0.7561462E-02  0.1271836E+00
          3   -1    0    0  501    0  0.00000000000E+00  0.00000000000E+00  0.45069311097E+03  0.45069311097E+03  0.00000000000E+00 0. -1.
         -3   -1    0    0    0  501 -0.00000000000E+00 -0.00000000000E+00 -0.33267767542E+02  0.33267767542E+02  0.00000000000E+00 0.  1.
         23    2    1    2    0    0 -0.49066652769E+02  0.28334104007E+02  0.18048725584E+03  0.22678946066E+03  0.12508977609E+03 0.  0.
          5    1    3    3  502    0  0.28568906297E+02  0.84892067046E+01  0.91963232956E+00  0.30109253745E+02  0.41800000000E+01 0.  1.
         -5    1    3    3    0  502 -0.77635559065E+02  0.19844897302E+02  0.17956762351E+03  0.19668020692E+03  0.41800000000E+01 0.  1.
        -11    1    1    2    0    0  0.39691300520E+01 -0.48406423265E+02  0.91608220310E+02  0.10368703793E+03  0.00000000000E+00 0.  1.
         11    1    1    2    0    0  0.45097522717E+02  0.20072319258E+02  0.14532986728E+03  0.15348437992E+03  0.00000000000E+00 0. -1.
</event>
<event>
 7    1  0.4394360E-006  0.1312121E+03  0.7561462E-02  0.1225668E+00
          1   -1    0    0  501    0  0.00000000000E+00  0.00000000000E+00  0.71363932533E+02  0.71363932533E+02  0.00000000000E+00 0. -1.
         -1   -1    0    0    0  501 -0.00000000000E+00 -0.00000000000E+00 -0.30481569478E+03  0.30481569478E+03  0.00000000000E+00 0.  1.
         23    2    1    2    0    0 -0.84005495861E+02  0.45699075223E+02 -0.15620991551E+03  0.22179898424E+03  0.12509165796E+03 0.  0.
          5    1    3    3  502    0 -0.62556919409E+02  0.88245345624E+02 -0.12133572988E+03  0.16260516885E+03  0.41800000000E+01 0. -1.
         -5    1    3    3    0  502 -0.21448576452E+02 -0.42546270400E+02 -0.34874185634E+02  0.59193815390E+02  0.41800000000E+01 0. -1.
        -11    1    1    2    0    0  0.43488363502E+02 -0.49213465107E+02  0.15704336475E+01  0.65693752897E+02  0.00000000000E+00 0. -1.
         11    1    1    2    0    0  0.40517132359E+02  0.35143898835E+01 -0.78812280382E+02  0.88686890181E+02  0.00000000000E+00 0.  1.
</event>
<event>
 7    1  0.4394360E-006  0.9634119E+02  0.7561462E-02  0.1288184E+00
         -1   -1    0    0    0  501 -0.00000000000E+00  0.00000000000E+00  0.47811456208E+03  0.47811456208E+03  0.00000000000E+00 0.  1.
          1   -1    0    0  501    0  0.00000000000E+00 -0.00000000000E+00 -0.24397214732E+02  0.24397214732E+02  0.00000000000E+00 0. -1.
         23    2    1    2    0    0  0.15553590717E+02 -0.48110055534E+01  0.29188410444E+03  0.31797701010E+03  0.12509192048E+03 0.  0.
          5    1    3    3  502    0 -0.49908424314E+02 -0.92778496515E+00  0.66785244844E+02  0.83483249405E+02  0.41800000000E+01 0.  1.
         -5    1    3    3    0  502  0.65462015031E+02 -0.38832205883E+01  0.22509885960E+03  0.23449376070E+03  0.41800000000E+01 0.  1.
        -11    1    1    2    0    0  0.23016594528E+02 -0.20437812701E+02  0.11408353748E+03  0.11816311326E+03  0.00000000000E+00 0.  1.
         11    1    1    2    0    0 -0.38570185246E+02  0.25248818255E+02  0.47749705435E+02  0.66371653455E+02  0.00000000000E+00 0. -1.
</event>
<event>
 7    1  0.4394360E-006  0.1176907E+03  0.7561462E-02  0.1246956E+00
         -2   -1    0    0    0  501 -0.00000000000E+00  0.00000000000E+00  0.80687659665E+02  0.80687659665E+02  0.00000000000E+00 0.  1.
          2   -1    0    0  501    0  0.00000000000E+00 -0.00000000000E+00 -0.18269746322E+03  0.18269746322E+03  0.00000000000E+00 0. -1.
         23    2    1    2    0    0 -0.38632245696E+02  0.40151470759E+02 -0.45344732311E+02  0.14425201181E+03  0.12509159504E+03 0.  0.
          5    1    3    3  502    0 -0.72986918176E+02 -0.11749884627E+02 -0.18379065283E+02  0.76291627681E+02  0.41800000000E+01 0. -1.
         -5    1    3    3    0  502  0.34354672479E+02  0.51901355386E+02 -0.26965667028E+02  0.67960384125E+02  0.41800000000E+01 0. -1.
        -11    1    1    2    0    0  0.63094757408E+02 -0.17166524555E+02 -0.55136403196E+02  0.85531637042E+02  0.00000000000E+00 0.  1.
         11    1    1    2    0    0 -0.24462511712E+02 -0.22984946204E+02 -0.15286680433E+01  0.33601474033E+02  0.00000000000E+00 0. -1.
</event>
<event>
 7    1  0.4394360E-006  0.1262525E+03  0.7561462E-02  0.1233125E+00
         -2   -1    0    0    0  501 -0.00000000000E+00  0.00000000000E+00  0.67324543566E+02  0.67324543566E+02  0.00000000000E+00 0.  1.
          2   -1    0    0  501    0  0.00000000000E+00 -0.00000000000E+00 -0.31543224203E+03  0.31543224203E+03  0.00000000000E+00 0. -1.
         23    2    1    2    0    0 -0.10392869060E+03  0.84169673074E+01 -0.11011223099E+03  0.19659630264E+03  0.12511348740E+03 0.  0.
          5    1    3    3  502    0 -0.97200651918E+02 -0.19652630663E+02 -0.19167559366E+02  0.10108936817E+03  0.41800000000E+01 0.  1.
         -5    1    3    3    0  502 -0.67280386854E+01  0.28069597970E+02 -0.90944671625E+02  0.95506934469E+02  0.41800000000E+01 0.  1.
        -11    1    1    2    0    0  0.97915840971E+02 -0.29417410728E+02 -0.12146821253E+03  0.15876845601E+03  0.00000000000E+00 0.  1.
         11    1    1    2    0    0  0.60128496327E+01  0.21000443420E+02 -0.16527254943E+02  0.27392026951E+02  0.00000000000E+00 0. -1.
</event>
<event>
 7    1  0.4394360E-006  0.1119591E+03  0.7561462E-02  0.1256984E+00
         -3   -1    0    0    0  501 -0.00000000000E+00  0.00000000000E+00  0.48109582807E+03  0.48109582807E+03  0.00000000000E+00 0.  1.
          3   -1    0    0  501    0  0.00000000000E+00 -0.00000000000E+00 -0.30201666488E+02  0.30201666488E+02  0.00000000000E+00 0. -1.
         23    2    1    2    0    0 -0.29894297151E+02  0.34925868098E+02  0.30776651262E+03  0.33538292457E+03  0.12509194433E+03 0.  0.
          5    1    3    3  502    0  0.32274637821E+00 -0.44867802244E+02  0.75761483492E+02  0.88150431787E+02  0.41800000000E+01 0. -1.
         -5    1    3    3    0  502 -0.30217043529E+02  0.79793670341E+02  0.23200502913E+03  0.24723249278E+03  0.41800000000E+01 0. -1.
        -11    1    1    2    0    0  0.36707113796E+02  0.17427636957E+02  0.28259903132E+02  0.49495018519E+02  0.00000000000E+00 0. -1.
         11    1    1    2    0    0 -0.68128166453E+01 -0.52353505055E+02  0.11486774583E+03  0.12641955148E+03  0.00000000000E+00 0.  1.
</event>
<event>
 7    1  0.4394360E-006  0.1024905E+03  0.7561462E-02  0.1275144E+00
          1   -1    0    0  501    0  0.00000000000E+00  0.00000000000E+00  0.39597536047E+02  0.39597536047E+02  0.00000000000E+00 0. -1.
         -1   -1    0    0    0  501 -0.00000000000E+00 -0.00000000000E+00 -0.60961721500E+03  0.60961721500E+03  0.00000000000E+00 0.  1.
         23    2    1    2    0    0  0.76359668528E+01  0.31869188842E+02 -0.52818502704E+03  0.54378417054E+03  0.12509135925E+03 0.  0.
          5    1    3    3  502    0 -0.55425567191E+02 -0.16876751033E+01 -0.28103845454E+03  0.28648721975E+03  0.41800000000E+01 0.  1.
         -5    1    3    3    0  502  0.63061534044E+02  0.33556863945E+02 -0.24714657249E+03  0.25729695080E+03  0.41800000000E+01 0.  1.
        -11    1    1    2    0    0 -0.30033221958E+02 -0.43280018906E+02 -0.55747741058E+02  0.76700489508E+02  0.00000000000E+00 0.  1.
         11    1    1    2    0    0  0.22397255105E+02  0.11410830064E+02  0.13913089145E+02  0.28730090994E+02  0.00000000000E+00 0. -1.
</event>
<event>
 7    1  0.4394360E-006  0.1036111E+03  0.7561462E-02  0.1272880E+00
          1   -1    0    0  501    0  0.00000000000E+00  0.00000000000E+00  0.46100545976E+03  0.46100545976E+03  0.00000000000E+00 0. -1.
         -1   -1    0    0    0  501 -0.00000000000E+00 -0.00000000000E+00 -0.26988023364E+02  0.26988023364E+02  0.00000000000E+00 0.  1.
         23    2    1    2    0    0 -0.43174269545E+01  0.96394394657E+00  0.20490906780E+03  0.24011696590E+03  0.12509541112E+03 0.  0.
          5    1    3    3  502    0 -0.34783073459E+02  0.46190174653E+02  0.15717294323E+03  0.16752373240E+03  0.41800000000E+01 0. -1.
         -5    1    3    3    0  502  0.30465646504E+02 -0.45226230706E+02  0.47736124565E+02  0.72593233495E+02  0.41800000000E+01 0. -1.
        -11    1    1    2    0    0  0.49407166515E+02 -0.21441867797E+01  0.11552635149E+03  0.12566623862E+03  0.00000000000E+00 0.  1.
         11    1    1    2    0    0 -0.45089739561E+02  0.11802428331E+01  0.11358201711E+03  0.12221027861E+03  0.00000000000E+00 0. -1.
</event>
<event>
 7    1  0.4394360E-006  0.1518122E+03  0.7561462E-02  0.1198264E+00
          2   -1    0    0  501    0  0.00000000000E+00  0.00000000000E+00  0.85554120621E+02  0.85554120621E+02  0.00000000000E+00 0.  1.
         -2   -1    0    0    0  501 -0.00000000000E+00 -0.00000000000E+00 -0.42643911690E+03  0.42643911690E+03  0.00000000000E+00 0. -1.
         23    2    1    2    0    0 -0.44030224226E+02 -0.11730345893E+03 -0.30547408697E+03  0.35307396651E+03  0.12509214961E+03 0.  0.
          5    1    3    3  502    0  0.32098469620E+02 -0.90028374729E+02 -0.15350225928E+03  0.18087519457E+03  0.41800000000E+01 0.  1.
         -5    1    3    3    0  502 -0.76128693846E+02 -0.27275084200E+02 -0.15197182770E+03  0.17219877194E+03  0.41800000000E+01 0.  1.
        -11    1    1    2    0    0  0.31090672897E+02  0.53515178109E+02  0.28107411492E+02  0.67974486464E+02  0.00000000000E+00 0.  1.
         11    1    1    2    0    0  0.12939551330E+02  0.63788280820E+02 -0.63518320794E+02  0.90944784540E+02  0.00000000000E+00 0. -1.
</event>
<event>
 7    1  0.4394360E-006  0.2201150E+03  0.7561462E-02  0.1133797E+00
          4   -1    0    0  501    0  0.00000000000E+00  0.00000000000E+00  0.69397918845E+03  0.69397918845E+03  0.00000000000E+00 0. -1.
         -4   -1    0    0    0  501 -0.00000000000E+00 -0.00000000000E+00 -0.92326478518E+02  0.92326478518E+02  0.00000000000E+00 0.  1.
         23    2    1    2    0    0  0.79331751018E+01  0.20733193580E+03  0.16065966545E+03  0.29070246122E+03  0.12508767321E+03 0.  0.
          5    1    3    3  502    0  0.53325159818E+02  0.14986312154E+03  0.14588701277E+03  0.21587732804E+03  0.41800000000E+01 0. -1.
         -5    1    3    3    0  502 -0.45391984716E+02  0.57468814259E+02  0.14772652686E+02  0.74825133185E+02  0.41800000000E+01 0. -1.
        -11    1    1    2    0    0 -0.97300577528E+01 -0.11660943533E+03  0.14677789582E+03  0.18771303933E+03  0.00000000000E+00 0.  1.
         11    1    1    2    0    0  0.17968826511E+01 -0.90722500469E+02  0.29421514866E+03  0.30789016642E+03  0.00000000000E+00 0. -1.
</event>
<event>
 7    1  0.4394360E-006  0.9610222E+02  0.7561462E-02  0.1288713E+00
          1   -1    0    0  501    0  0.00000000000E+00  0.00000000000E+00  0.17198901184E+02  0.17198901184E+02  0.00000000000E+00 0. -1.
         -1   -1    0    0    0  501 -0.00000000000E+00 -0.00000000000E+00 -0.11299188075E+04  0.11299188075E+04  0.00000000000E+00 0.  1.
         23    2    1    2    0    0  0.35879572459E+02  0.63254071153E+02 -0.87475375417E+03  0.88663964186E+03  0.12508917951E+03 0.  0.
          5    1    3    3  502    0  0.46311700109E+02 -0.75911213475E+01 -0.12708250023E+03  0.13553535684E+03  0.41800000000E+01 0. -1.
         -5    1    3    3    0  502 -0.10432127650E+02  0.70845192501E+02 -0.74767125395E+03  0.75110428501E+03  0.41800000000E+01 0. -1.
        -11    1    1    2    0    0 -0.14370832749E+02 -0.35100112095E+02 -0.21485452458E+03  0.21817654649E+03  0.00000000000E+00 0.  1.
         11    1    1    2    0    0 -0.21508739710E+02 -0.28153959058E+02 -0.23111627554E+02  0.42301520336E+02  0.00000000000E+00 0. -1.
</event>
<event>
 7    1  0.4394360E-006  0.1437934E+03  0.7561462E-02  0.1208314E+00
         -1   -1    0    0    0  501 -0.00000000000E+00  0.00000000000E+00  0.27824536139E+02  0.27824536139E+02  0.00000000000E+00 0.  1.
          1   -1    0    0  501    0  0.00000000000E+00 -0.00000000000E+00 -0.75282554592E+03  0.75282554592E+03  0.00000000000E+00 0. -1.
         23    2    1    2    0    0 -0.89850450917E+02  0.28521623907E+02 -0.42419529903E+03  0.45218933097E+03  0.12508778021E+03 0.  0.
          5    1    3    3  502    0 -0.10796876868E+02 -0.46158625536E+02 -0.11843614598E+03  0.12763927427E+03  0.41800000000E+01 0.  1.
         -5    1    3    3    0  502 -0.79053574049E+02  0.74680249443E+02 -0.30575915305E+03  0.32455005670E+03  0.41800000000E+01 0.  1.
        -11    1    1    2    0    0 -0.14302025409E+02  0.12726895186E+02 -0.57532936296E+02  0.60634648104E+02  0.00000000000E+00 0. -1.
         11    1    1    2    0    0  0.10415247633E+03 -0.41248519092E+02 -0.24327277445E+03  0.26782610299E+03  0.00000000000E+00 0.  1.
</event>
<event>
 7    1  0.4394360E-006  0.1227616E+03  0.7561462E-02  0.1238610E+00
          2   -1    0    0  501    0  0.00000000000E+00  0.00000000000E+00  0.60331841160E+03  0.60331841160E+03  0.00000000000E+00 0. -1.
         -2   -1    0    0    0  501 -0.00000000000E+00 -0.00000000000E+00 -0.32107482685E+02  0.32107482685E+02  0.00000000000E+00 0.  1.
         23    2    1    2    0    0  0.25976280633E+02  0.85057270126E+02  0.34023461552E+03  0.37325168010E+03  0.12509083398E+03 0.  0.
          5    1    3    3  502    0  0.55001831587E+02  0.39636374898E+02  0.29512112467E+03  0.30283691043E+03  0.41800000000E+01 0.  1.
         -5    1    3    3    0  502 -0.29025550954E+02  0.45420895228E+02  0.45113490850E+02  0.70414769673E+02  0.41800000000E+01 0.  1.
        -11    1    1    2    0    0 -0.17171825849E+02  0.15174677709E+02  0.52632213330E+02  0.57404636803E+02  0.00000000000E+00 0.  1.
         11    1    1    2    0    0 -0.88044547839E+01 -0.10023194783E+03  0.17834410006E+03  0.20476957738E+03  0.00000000000E+00 0. -1.
</event>
<event>
 7    1  0.4394360E-006  0.9995482E+02  0.7561462E-02  0.1280391E+00
         -2   -1    0    0    0  501 -0.00000000000E+00  0.00000000000E+00  0.15906680694E+03  0.15906680694E+03  0.00000000000E+00 0.  1.
          2   -1    0    0  501    0  0.00000000000E+00 -0.00000000000E+00 -0.76482471057E+02  0.76482471057E+02  0.00000000000E+00 0. -1.
         23    2    1    2    0    0  0.64529243827E+01  0.19928136695E+02  0.49866741347E+02  0.13627974292E+03  0.12508679216E+03 0.  0.
          5    1    3    3  502    0 -0.22632349636E+01 -0.43173659281E+02 -0.14337650489E+02  0.45739782572E+02  0.41800000000E+01 0.  1.
         -5    1    3    3    0  502  0.87161593463E+01  0.63101795976E+02  0.64204391836E+02  0.90539960350E+02  0.41800000000E+01 0.  1.
        -11    1    1    2    0    0 -0.27063878509E+02 -0.49603518461E+02  0.27227296691E+02  0.62723904923E+02  0.00000000000E+00 0. -1.
         11    1    1    2    0    0  0.20610954126E+02  0.29675381766E+02  0.54902978483E+01  0.36545630155E+02  0.00000000000E+00 0.  1.
</event>
<event>
 7    1  0.4394360E-006  0.1238722E+03  0.7561462E-02  0.1236842E+00
          1   -1    0    0  501    0  0.00000000000E+00  0.00000000000E+00  0.91323142272E+03  0.91323142272E+03  0.00000000000E+00 0. -1.
         -1   -1    0    0    0  501 -0.00000000000E+00 -0.00000000000E+00 -0.26132767230E+02  0.26132767230E+02  0.00000000000E+00 0.  1.
         23    2    1    2    0    0 -0.59015528989E+02  0.92120737682E+02  0.43506204989E+03  0.46571872427E+03  0.12508349175E+03 0.  0.
          5    1    3    3  502    0  0.13989991467E+02  0.76378367052E+01 -0.61345036480E-01  0.16478245477E+02  0.41800000000E+01 0. -1.
         -5    1    3    3    0  502 -0.73005520456E+02  0.84482900977E+02  0.43512339493E+03  0.44924047880E+03  0.41800000000E+01 0. -1.
        -11    1    1    2    0    0 -0.83944427123E+01 -0.14231296190E+02  0.90474714538E+01  0.18837547595E+02  0.00000000000E+00 0.  1.
         11    1    1    2    0    0  0.67409971702E+02 -0.77889441493E+02  0.44298913414E+03  0.45480791808E+03  0.00000000000E+00 0. -1.
</event>
<event>
 7    1  0.4394360E-006  0.1095644E+03  0.7561462E-02  0.1261379E+00
          4   -1    0    0  501    0  0.00000000000E+00  0.00000000000E+00  0.35908986943E+03  0.35908986943E+03  0.00000000000E+00 0. -1.
         -4   -1    0    0    0  501 -0.00000000000E+00 -0.00000000000E+00 -0.51030315304E+02  0.51030315304E+02  0.00000000000E+00 0.  1.
         23    2    1    2    0    0 -0.28151514967E+02  0.26037977696E+02  0.71872200957E+02  0.14927108401E+03  0.12508300913E+03 0.  0.
          5    1    3    3  502    0 -0.35566824082E+02  0.65268101858E+02  0.78943242607E+02  0.10851005506E+03  0.41800000000E+01 0. -1.
         -5    1    3    3    0  502  0.74153091150E+01 -0.39230124162E+02 -0.70710416504E+01  0.40761028950E+02  0.41800000000E+01 0. -1.
        -11    1    1    2    0    0  0.28428707429E+02  0.34102197095E+02  0.59721192765E+02  0.74416208706E+02  0.00000000000E+00 0.  1.
         11    1    1    2    0    0 -0.27719246198E+00 -0.60140174791E+02  0.17646616041E+03  0.18643289202E+03  0.00000000000E+00 0. -1.
</event>
<event>
 7    1  0.4394360E-006  0.8569941E+02  0.7561462E-02  0.1313614E+00
         -1   -1    0    0    0  501 -0.00000000000E+00  0.00000000000E+00  0.45409671649E+03  0.45409671649E+03  0.00000000000E+00 0.  1.
          1   -1    0    0  501    0  0.00000000000E+00 -0.00000000000E+00 -0.50741883511E+02  0.50741883511E+02  0.00000000000E+00 0. -1.
         23    2    1    2    0    0 -0.62493095126E+02 -0.26517222232E+02  0.35379039553E+03  0.38134588436E+03  0.12509392285E+03 0.  0.
          5    1    3    3  502    0 -0.34465011022E+02 -0.84222670613E+01  0.34465891812E+03  0.34650543114E+03  0.41800000000E+01 0. -1.
         -5    1    3    3    0  502 -0.28028084105E+02 -0.18094955171E+02  0.91314774125E+01  0.34840453225E+02  0.41800000000E+01 0. -1.
        -11    1    1    2    0    0 -0.14670406385E+02 -0.88886359833E+01 -0.99329476405E+01  0.19821506552E+02  0.00000000000E+00 0. -1.
         11    1    1    2    0    0  0.77163501512E+02  0.35405858216E+02  0.59497385085E+02  0.10367120909E+03  0.00000000000E+00 0.  1.
</event>
<event>
 7    1  0.4394360E-006  0.1258243E+03  0.7561462E-02  0.1233787E+00
         -2   -1    0    0    0  501 -0.00000000000E+00  0.00000000000E+00  0.32897008212E+03  0.32897008212E+03  0.00000000000E+00 0.  1.
          2   -1    0    0  501    0  0.00000000000E+00 -0.00000000000E+00 -0.15359775412E+03  0.15359775412E+03  0.00000000000E+00 0. -1.
         23    2    1    2    0    0 -0.71917598263E+02  0.89569104893E+02  0.26286635509E+03  0.31295540439E+03  0.12509036336E+03 0.  0.
          5    1    3    3  502    0 -0.11386963193E+02  0.55282054698E+02  0.19587352273E+02  0.59890777850E+02  0.41800000000E+01 0.  1.
         -5    1    3    3    0  502 -0.60530635070E+02  0.34287050195E+02  0.24327900282E+03  0.25306462654E+03  0.41800000000E+01 0.  1.
        -11    1    1    2    0    0  0.59306145096E+02 -0.33966721930E+02 -0.39381012547E+01  0.68457765712E+02  0.00000000000E+00 0. -1.
         11    1    1    2    0    0  0.12611453167E+02 -0.55602382963E+02 -0.83555925832E+02  0.10115466615E+03  0.00000000000E+00 0.  1.
</event>
<event>
 7    1  0.4394360E-006  0.1228125E+03  0.7561462E-02  0.1238528E+00
         -1   -1    0    0    0  501 -0.00000000000E+00  0.00000000000E+00  0.91769827079E+02  0.91769827079E+02  0.00000000000E+00 0.  1.
          1   -1    0    0  501    0  0.00000000000E+00 -0.00000000000E+00 -0.19766273358E+03  0.19766273358E+03  0.00000000000E+00 0. -1.
         23    2    1    2    0    0  0.10305263929E+01  0.77066967269E+02 -0.37356645880E+02  0.15160287031E+03  0.12509009499E+03 0.  0.
          5    1    3    3  502    0  0.56126059250E+02  0.63528338664E+01 -0.20859426064E+02  0.60357941324E+02  0.41800000000E+01 0.  1.
         -5    1    3    3    0  502 -0.55095532857E+02  0.70714133403E+02 -0.16497219816E+02  0.91244928984E+02  0.41800000000E+01 0.  1.
        -11    1    1    2    0    0  0.11727476879E+02 -0.83938693808E+02 -0.82087452821E+02  0.11798977898E+03  0.00000000000E+00 0. -1.
         11    1    1    2    0    0 -0.12758003272E+02  0.68717265386E+01  0.13551192204E+02  0.19839911372E+02  0.00000000000E+00 0.  1.
</event>
<event>
 6    1  0.4394360E-006  0.1154711E+03  0.7561462E-02  0.1250761E+00
          1   -1    0    0  501    0  0.00000000000E+00  0.00000000000E+00  0.65848928893E+02  0.65848928893E+02  0.00000000000E+00 0. -1.
         -1   -1    0    0    0  501 -0.00000000000E+00 -0.00000000000E+00 -0.35706003292E+03  0.35706003292E+03  0.00000000000E+00 0.  1.
          5    1    1    2  502    0 -0.27529291069E+02 -0.65790908698E+02 -0.16625317430E+03  0.18095274493E+03  0.41800000000E+01 0. -1.
         -5    1    1    2    0  502 -0.20627116514E+02  0.71232052300E+02 -0.11909748920E+03  0.14036084762E+03  0.41800000000E+01 0.  1.
        -11    1    1    2    0    0  0.57493890376E+02  0.17793678891E+02 -0.29618223925E+02  0.67077579171E+02  0.00000000000E+00 0. -1.
         11    1    1    2    0    0 -0.93374827926E+01 -0.23234822493E+02  0.23757783394E+02  0.34517790094E+02  0.00000000000E+00 0.  1.
</event>
<event>
 7    1  0.4394360E-006  0.7813256E+02  0.7561462E-02  0.1334436E+00
          1   -1    0    0  501    0  0.00000000000E+00  0.00000000000E+00  0.45615507413E+03  0.45615507413E+03  0.00000000000E+00 0. -1.
         -1   -1    0    0    0  501 -0.00000000000E+00 -0.00000000000E+00 -0.30670366092E+02  0.30670366092E+02  0.00000000000E+00 0.  1.
         23    2    1    2    0    0 -0.48033788830E+02 -0.17501048139E+02  0.16902401567E+03  0.21639110785E+03  0.12506982902E+03 0.  0.
          5    1    3    3  502    0 -0.61767244384E+01  0.16276301916E+02 -0.15785256846E+02  0.23868738185E+02  0.41800000000E+01 0.  1.
         -5    1    3    3    0  502 -0.41857064391E+02 -0.33777350055E+02  0.18480927251E+03  0.19252236967E+03  0.41800000000E+01 0.  1.
        -11    1    1    2    0    0  0.94555216142E+01 -0.25170648312E+02  0.10585060024E+03  0.10921226120E+03  0.00000000000E+00 0. -1.
         11    1    1    2    0    0  0.38578267215E+02  0.42671696451E+02  0.15061009213E+03  0.16122207117E+03  0.00000000000E+00 0.  1.
</event>
<event>
 6    1  0.4394360E-006  0.3093883E+03  0.7561462E-02  0.1080639E+00
          1   -1    0    0  501    0  0.00000000000E+00  0.00000000000E+00  0.39800946733E+03  0.39800946733E+03  0.00000000000E+00 0. -1.
         -1   -1    0    0    0  501 -0.00000000000E+00 -0.00000000000E+00 -0.59261175114E+03  0.59261175114E+03  0.00000000000E+00 0.  1.
          5    1    1    2  502    0 -0.67794362454E+02  0.13235383541E+02 -0.33502081835E+03  0.34209307518E+03  0.41800000000E+01 0. -1.
         -5    1    1    2    0  502 -0.23860409333E+03 -0.31086564468E+02 -0.86978531297E+02  0.25589260472E+03  0.41800000000E+01 0.  1.
        -11    1    1    2    0    0  0.19531804187E+03  0.28260942177E+02  0.93591584187E+02  0.21841978611E+03  0.00000000000E+00 0.  1.
         11    1    1    2    0    0  0.11108041391E+03 -0.10409761251E+02  0.13380548165E+03  0.17421575246E+03  0.00000000000E+00 0. -1.
</event>
<event>
 7    1  0.4394360E-006  0.1501917E+03  0.7561462E-02  0.1200238E+00
          1   -1    0    0  501    0  0.00000000000E+00  0.00000000000E+00  0.11700996047E+04  0.11700996047E+04  0.00000000000E+00 0. -1.
         -1   -1    0    0    0  501 -0.00000000000E+00 -0.00000000000E+00 -0.40481087283E+02  0.40481087283E+02  0.00000000000E+00 0.  1.
         23    2    1    2    0    0 -0.13633314133E+03  0.13661257879E+01  0.22493627882E+03  0.29125963767E+03  0.12508898944E+03 0.  0.
          5    1    3    3  502    0 -0.10127091835E+03  0.62202143971E+01  0.50861106517E+02  0.11357294804E+03  0.41800000000E+01 0. -1.
         -5    1    3    3    0  502 -0.35062222973E+02 -0.48540886091E+01  0.17407517231E+03  0.17768668962E+03  0.41800000000E+01 0. -1.
        -11    1    1    2    0    0  0.42241335059E+02  0.42018323051E+02  0.30805768824E+03  0.31376648824E+03  0.00000000000E+00 0.  1.
         11    1    1    2    0    0  0.94091806267E+02 -0.43384448839E+02  0.59662455035E+03  0.60555456607E+03  0.00000000000E+00 0. -1.
</event>
<event>
 7    1  0.4394360E-006  0.1028009E+03  0.7561462E-02  0.1274514E+00
          2   -1    0    0  501    0  0.00000000000E+00  0.00000000000E+00  0.36146210204E+03  0.36146210204E+03  0.00000000000E+00 0. -1.
         -2   -1    0    0    0  501 -0.00000000000E+00 -0.00000000000E+00 -0.33848349549E+02  0.33848349549E+02  0.00000000000E+00 0.  1.
         23    2    1    2    0    0 -0.11007177196E+02 -0.20828440334E+02  0.15580536356E+03  0.20119004692E+03  0.12508853581E+03 0.  0.
          5    1    3    3  502    0 -0.43694689156E+02 -0.59249616778E+02  0.70614938499E+02  0.10209644895E+03  0.41800000000E+01 0. -1.
         -5    1    3    3    0  502  0.32687511959E+02  0.38421176445E+02  0.85190425058E+02  0.99093597972E+02  0.41800000000E+01 0. -1.
        -11    1    1    2    0    0  0.43531425665E+02  0.18073803806E+01  0.48555750035E+02  0.65237355140E+02  0.00000000000E+00 0.  1.
         11    1    1    2    0    0 -0.32524248469E+02  0.19021059953E+02  0.12325263890E+03  0.12888304953E+03  0.00000000000E+00 0. -1.
</event>
<event>
 7    1  0.4394360E-006  0.8946625E+02  0.7561462E-02  0.1304149E+00
         -1   -1    0    0    0  501 -0.00000000000E+00  0.00000000000E+00  0.92802328177E+02  0.92802328177E+02  0.00000000000E+00 0.  1.
          1   -1    0    0  501    0  0.00000000000E+00 -0.00000000000E+00 -0.15525754847E+03  0.15525754847E+03  0.00000000000E+00 0. -1.
         23    2    1    2    0    0 -0.37670821963E+02 -0.31799848282E+02 -0.22366086816E+02  0.13630048144E+03  0.12508900121E+03 0.  0.
          5    1    3    3  502    0  0.20946146784E+02  0.34787073957E+02  0.95611450304E+01  0.41925761458E+02  0.41800000000E+01 0.  1.
         -5    1    3    3    0  502 -0.58616968747E+02 -0.66586922239E+02 -0.31927231847E+02  0.94374719982E+02  0.41800000000E+01 0.  1.
        -11    1    1    2    0    0  0.28412149493E+02  0.23672335214E+02  0.25566040222E+02  0.44958337446E+02  0.00000000000E+00 0.  1.
         11    1    1    2    0    0  0.92586724696E+01  0.81275130681E+01 -0.65655173702E+02  0.66801057764E+02  0.00000000000E+00 0. -1.
</event>
<event>
 7    1  0.4394360E-006  0.1472635E+03  0.7561462E-02  0.1203876E+00
          1   -1    0    0  501    0  0.00000000000E+00  0.00000000000E+00  0.48777882591E+03  0.48777882591E+03  0.00000000000E+00 0.  1.
         -1   -1    0    0    0  501 -0.00000000000E+00 -0.00000000000E+00 -0.57730084208E+02  0.57730084208E+02  0.00000000000E+00 0. -1.
         23    2    1    2    0    0 -0.68886538734E+02  0.78837109178E+02  0.10796697948E+03  0.19561654017E+03  0.12509323374E+03 0.  0.
          5    1    3    3  502    0  0.36482771514E+02  0.14476813919E+02  0.29248999475E+02  0.49127865096E+02  0.41800000000E+01 0. -1.
         -5    1    3    3    0  502 -0.10536931025E+03  0.64360295259E+02  0.78717980008E+02  0.14648867507E+03  0.41800000000E+01 0. -1.
        -11    1    1    2    0    0  0.63121441009E+02 -0.11782320282E+02  0.10980198129E+03  0.12719911352E+03  0.00000000000E+00 0. -1.
         11    1    1    2    0    0  0.57650977250E+01 -0.67054788896E+02  0.21227978094E+03  0.22269325643E+03  0.00000000000E+00 0.  1.
</event>
<event>
 7    1  0.4394360E-006  0.1109027E+03  0.7561462E-02  0.1258907E+00
          1   -1    0    0  501    0  0.00000000000E+00  0.00000000000E+00  0.98661853464E+03  0.98661853464E+03  0.00000000000E+00 0. -1.
         -1   -1    0    0    0  501 -0.00000000000E+00 -0.00000000000E+00 -0.17091239274E+02  0.17091239274E+02  0.00000000000E+00 0.  1.
         23    2    1    2    0    0 -0.50235862119E+01 -0.53923209679E+02  0.71514144317E+03  0.72801673389E+03  0.12509249427E+03 0.  0.
          5    1    3    3  502    0  0.64173056883E+01 -0.92381149821E+02  0.41840175233E+03  0.42854749726E+03  0.41800000000E+01 0. -1.
         -5    1    3    3    0  502 -0.11440891900E+02  0.38457940142E+02  0.29673969084E+03  0.29946923663E+03  0.41800000000E+01 0. -1.
        -11    1    1    2    0    0  0.37760499672E+02  0.29747481274E+02  0.58949425747E+02  0.76064464591E+02  0.00000000000E+00 0.  1.
         11    1    1    2    0    0 -0.32736913460E+02  0.24175728405E+02  0.19543642644E+03  0.19962857543E+03  0.00000000000E+00 0. -1.
</event>
<event>
 7    1  0.4394360E-006  0.1155085E+03  0.7561462E-02  0.1250696E+00
          1   -1    0    0  501    0  0.00000000000E+00  0.00000000000E+00  0.87283872008E+03  0.87283872008E+03  0.00000000000E+00 0. -1.
         -1   -1    0    0    0  501 -0.00000000000E+00 -0.00000000000E+00 -0.16229784298E+02  0.16229784298E+02  0.00000000000E+00 0.  1.
         23    2    1    2    0    0  0.14690879306E+02  0.47253853796E+02  0.48916192929E+03  0.50731348513E+03  0.12505530975E+03 0.  0.
          5    1    3    3  502    0 -0.22851165479E+02  0.78691783608E+02  0.24883569105E+03  0.26201382809E+03  0.41800000000E+01 0. -1.
         -5    1    3    3    0  502  0.37542044785E+02 -0.31437929813E+02  0.24032623824E+03  0.24529965704E+03  0.41800000000E+01 0. -1.
        -11    1    1    2    0    0  0.31617879856E+02 -0.42924690229E+02  0.24590576257E+03  0.25161848784E+03  0.00000000000E+00 0.  1.
         11    1    1    2    0    0 -0.46308759161E+02 -0.43291635672E+01  0.12154124392E+03  0.13013653141E+03  0.00000000000E+00 0. -1.
</event>
<event>
 7    1  0.4394360E-006  0.8895128E+02  0.7561462E-02  0.1305411E+00
         -1   -1    0    0    0  501 -0.00000000000E+00  0.00000000000E+00  0.75880311725E+02  0.75880311725E+02  0.00000000000E+00 0.  1.
          1   -1    0    0  501    0  0.00000000000E+00 -0.00000000000E+00 -0.19012763044E+03  0.19012763044E+03  0.00000000000E+00 0. -1.
         23    2    1    2    0    0  0.43607517038E+02 -0.20478952164E+02 -0.43459288067E+02  0.14091837035E+03  0.12509306279E+03 0.  0.
          5    1    3    3  502    0  0.74919775821E+02 -0.46120524583E+02 -0.47434308082E+02  0.10003780076E+03  0.41800000000E+01 0. -1.
         -5    1    3    3    0  502 -0.31312258783E+02  0.25641572420E+02  0.39750200151E+01  0.40880569594E+02  0.41800000000E+01 0. -1.
        -11    1    1    2    0    0 -0.26837010255E+02  0.17677323235E+02  0.16525499008E+02  0.36135923866E+02  0.00000000000E+00 0.  1.
         11    1    1    2    0    0 -0.16770506783E+02  0.28016289289E+01 -0.87313529659E+02  0.88953647952E+02  0.00000000000E+00 0. -1.
</event>
<event>
 7    1  0.4394360E-006  0.1322954E+03  0.7561462E-02  0.1224089E+00
          1   -1    0    0  501    0  0.00000000000E+00  0.00000000000E+00  0.70164455001E+02  0.70164455001E+02  0.00000000000E+00 0. -1.
         -1   -1    0    0    0  501 -0.00000000000E+00 -0.00000000000E+00 -0.26110221278E+03  0.26110221278E+03  0.00000000000E+00 0.  1.
         23    2    1    2    0    0  0.64308229763E+02  0.46693363596E+02 -0.95904396106E+02  0.17652471975E+03  0.12508998709E+03 0.  0.
          5    1    3    3  502    0  0.98905473082E+02  0.50494409194E+02 -0.59778026660E+02  0.12618582661E+03  0.41800000000E+01 0.  1.
         -5    1    3    3    0  502 -0.34597243320E+02 -0.38010455982E+01 -0.36126369446E+02  0.50338893137E+02  0.41800000000E+01 0.  1.
        -11    1    1    2    0    0 -0.49723265924E+02 -0.73001365728E+02 -0.86135470552E+02  0.12337310023E+03  0.00000000000E+00 0.  1.
         11    1    1    2    0    0 -0.14584963839E+02  0.26308002132E+02 -0.88978911205E+01  0.31368847807E+02  0.00000000000E+00 0. -1.
</event>
<event>
 7    1  0.4394360E-006  0.1184919E+03  0.7561462E-02  0.1245606E+00
         -1   -1    0    0    0  501 -0.00000000000E+00  0.00000000000E+00  0.50017350595E+02  0.50017350595E+02  0.00000000000E+00 0.  1.
          1   -1    0    0  501    0  0.00000000000E+00 -0.00000000000E+00 -0.49988061487E+03  0.49988061487E+03  0.00000000000E+00 0. -1.
         23    2    1    2    0    0 -0.11209328098E+03 -0.24022384128E+01 -0.19700365984E+03  0.25889457713E+03  0.12508111644E+03 0.  0.
          5    1    3    3  502    0 -0.72931842740E+02  0.21597697328E+02 -0.24029532767E+02  0.79877437742E+02  0.41800000000E+01 0. -1.
         -5    1    3    3    0  502 -0.39161438240E+02 -0.23999935741E+02 -0.17297412707E+03  0.17901713939E+03  0.41800000000E+01 0. -1.
        -11    1    1    2    0    0  0.67485664949E+02 -0.10389263595E+02 -0.22872061003E+03  0.23869513867E+03  0.00000000000E+00 0. -1.
         11    1    1    2    0    0  0.44607616031E+02  0.12791502008E+02 -0.24138994407E+02  0.52308249661E+02  0.00000000000E+00 0.  1.
</event>
<event>
 7    1  0.4394360E-006  0.1513778E+03  0.7561462E-02  0.1198790E+00
         -2   -1    0    0    0  501 -0.00000000000E+00  0.00000000000E+00  0.10431584468E+03  0.10431584468E+03  0.00000000000E+00 0.  1.
          2   -1    0    0  501    0  0.00000000000E+00 -0.00000000000E+00 -0.29410563536E+03  0.29410563536E+03  0.00000000000E+00 0. -1.
         23    2    1    2    0    0 -0.82691385669E+02 -0.10914872701E+03 -0.93179599833E+02  0.20756434435E+03  0.12509679991E+03 0.  0.
          5    1    3    3  502    0 -0.82167713875E+02 -0.31621700556E+02 -0.24865080074E+01  0.88176642438E+02  0.41800000000E+01 0.  1.
         -5    1    3    3    0  502 -0.52367179401E+00 -0.77527026453E+02 -0.90693091826E+02  0.11938770191E+03  0.41800000000E+01 0.  1.
        -11    1    1    2    0    0  0.73243753502E+02  0.94933915562E+02 -0.11473876233E+03  0.16595806498E+03  0.00000000000E+00 0. -1.
         11    1    1    2    0    0  0.94476321668E+01  0.14214811447E+02  0.18128571483E+02  0.24899070707E+02  0.00000000000E+00 0.  1.
</event>
<event>
 6    1  0.4394360E-006  0.9680984E+02  0.7561462E-02  0.1287151E+00
         -1   -1    0    0    0  501 -0.00000000000E+00  0.00000000000E+00  0.13506012190E+03  0.13506012190E+03  0.00000000000E+00 0.  1.
          1   -1    0    0  501    0  0.00000000000E+00 -0.00000000000E+00 -0.15833610559E+03  0.15833610559E+03  0.00000000000E+00 0. -1.
          5    1    1    2  502    0  0.60515788882E+02 -0.62283098995E+01 -0.56436104315E+01  0.61239491237E+02  0.41800000000E+01 0. -1.
         -5    1    1    2    0  502 -0.64691534560E+02 -0.94404738395E+01  0.77891473268E+02  0.10177755744E+03  0.41800000000E+01 0.  1.
        -11    1    1    2    0    0 -0.97469964608E+01 -0.23564155512E+02  0.72740876299E+00  0.25510830808E+02  0.00000000000E+00 0. -1.
         11    1    1    2    0    0  0.13922742138E+02  0.39232939251E+02 -0.96251255285E+02  0.10486834801E+03  0.00000000000E+00 0.  1.
</event>
<event>
 7    1  0.4394360E-006  0.1382205E+03  0.7561462E-02  0.1215744E+00
          4   -1    0    0  501    0  0.00000000000E+00  0.00000000000E+00  0.12845194025E+03  0.12845194025E+03  0.00000000000E+00 0. -1.
         -4   -1    0    0    0  501 -0.00000000000E+00 -0.00000000000E+00 -0.21220947616E+03  0.21220947616E+03  0.00000000000E+00 0.  1.
         23    2    1    2    0    0  0.48438297799E+02 -0.11344120158E+03 -0.61998695513E+02  0.18629777764E+03  0.12509136181E+03 0.  0.
          5    1    3    3  502    0  0.24355121439E+02 -0.57958604669E+02 -0.97465484983E+02  0.11605759328E+03  0.41800000000E+01 0. -1.
         -5    1    3    3    0  502  0.24083176360E+02 -0.55482596911E+02  0.35466789470E+02  0.70240184360E+02  0.41800000000E+01 0. -1.
        -11    1    1    2    0    0 -0.71358205510E+02  0.10767143301E+03 -0.17571930467E+02  0.13036066784E+03  0.00000000000E+00 0.  1.
         11    1    1    2    0    0  0.22919907710E+02  0.57697685685E+01 -0.41869099314E+01  0.24002970932E+02  0.00000000000E+00 0. -1.
</event>
<event>
 7    1  0.4394360E-006  0.2259295E+03  0.7561462E-02  0.1129538E+00
         -1   -1    0    0    0  501 -0.00000000000E+00  0.00000000000E+00  0.13471365042E+03  0.13471365042E+03  0.00000000000E+00 0.  1.
          1   -1    0    0  501    0  0.00000000000E+00 -0.00000000000E+00 -0.47331533560E+03  0.47331533560E+03  0.00000000000E+00 0. -1.
         23    2    1    2    0    0 -0.14354046115E+03  0.16161282774E+03 -0.87772229060E+02  0.26472565640E+03  0.12511250490E+03 0.  0.
          5    1    3    3  502    0 -0.14827543963E+03  0.14268610588E+03 -0.11121042331E+03  0.23394478293E+03  0.41800000000E+01 0.  1.
         -5    1    3    3    0  502  0.47349784850E+01  0.18926721866E+02  0.23438194246E+02  0.30780873467E+02  0.41800000000E+01 0.  1.
        -11    1    1    2    0    0  0.12088353324E+03 -0.16351660162E+03 -0.18974781821E+03  0.27812720494E+03  0.00000000000E+00 0.  1.
         11    1    1    2    0    0  0.22656927911E+02  0.19037738716E+01 -0.61081637921E+02  0.65176124681E+02  0.00000000000E+00 0. -1.
</event>
<event>
 7    1  0.4394360E-006  0.7486963E+02  0.7561462E-02  0.1344275E+00
          2   -1    0    0  501    0  0.00000000000E+00  0.00000000000E+00  0.33082445013E+02  0.33082445013E+02  0.00000000000E+00 0. -1.
         -2   -1    0    0    0  501 -0.00000000000E+00 -0.00000000000E+00 -0.60091288931E+03  0.60091288931E+03  0.00000000000E+00 0.  1.
         23    2    1    2    0    0  0.35678307926E+02  0.35572666842E+02 -0.48172739869E+03  0.50024659169E+03  0.12508800729E+03 0.  0.
          5    1    3    3  502    0 -0.36956208890E+01  0.45203930474E+02 -0.43842811172E+03  0.44078762970E+03  0.41800000000E+01 0. -1.
         -5    1    3    3    0  502  0.39373928815E+02 -0.96312636325E+01 -0.43299286961E+02  0.59458961989E+02  0.41800000000E+01 0. -1.
        -11    1    1    2    0    0 -0.26652269403E+02  0.93076993504E-01  0.11810137000E+02  0.29151868955E+02  0.00000000000E+00 0. -1.
         11    1    1    2    0    0 -0.90260385233E+01 -0.35665743835E+02 -0.97913182614E+02  0.10459687368E+03  0.00000000000E+00 0.  1.
</event>
<event>
 7    1  0.4394360E-006  0.2707537E+03  0.7561462E-02  0.1100849E+00
          2   -1    0    0  501    0  0.00000000000E+00  0.00000000000E+00  0.11969770415E+04  0.11969770415E+04  0.00000000000E+00 0. -1.
         -2   -1    0    0    0  501 -0.00000000000E+00 -0.00000000000E+00 -0.86125790489E+02  0.86125790489E+02  0.00000000000E+00 0.  1.
         23    2    1    2    0    0  0.30078163198E+02 -0.24644258126E+03  0.22257100873E+03  0.35612309304E+03  0.12508861543E+03 0.  0.
          5    1    3    3  502    0 -0.29534633600E+02 -0.19658528251E+03  0.14376174555E+03  0.24536295516E+03  0.41800000000E+01 0.  1.
         -5    1    3    3    0  502  0.59612796798E+02 -0.49857298759E+02  0.78809263181E+02  0.11076013789E+03  0.41800000000E+01 0.  1.
        -11    1    1    2    0    0 -0.63488985782E+02  0.15561525787E+03  0.58088022868E+03  0.60470554807E+03  0.00000000000E+00 0. -1.
         11    1    1    2    0    0  0.33410822585E+02  0.90827323396E+02  0.30740001359E+03  0.32227419086E+03  0.00000000000E+00 0.  1.
</event>
<event>
 7    1  0.4394360E-006  0.3797789E+03  0.7561462E-02  0.1051016E+00
          2   -1    0    0  501    0  0.00000000000E+00  0.00000000000E+00  0.11531913956E+04  0.11531913956E+04  0.00000000000E+00 0. -1.
         -2   -1    0    0    0  501 -0.00000000000E+00 -0.00000000000E+00 -0.13035442355E+03  0.13035442355E+03  0.00000000000E+00 0.  1.
         23    2    1    2    0    0  0.33744374807E+03 -0.15144528662E+03  0.58271280576E+03  0.70143105760E+03  0.12508939453E+03 0.  0.
          5    1    3    3  502    0  0.15074139990E+03 -0.13446409136E+03  0.27853985917E+03  0.34410098380E+03  0.41800000000E+01 0.  1.
         -5    1    3    3    0  502  0.18670234817E+03 -0.16981195264E+02  0.30417294659E+03  0.35733007380E+03  0.41800000000E+01 0.  1.
        -11    1    1    2    0    0 -0.30988275742E+02  0.10901162251E+02  0.76083946249E+01  0.33719374856E+02  0.00000000000E+00 0.  1.
         11    1    1    2    0    0 -0.30645547233E+03  0.14054412437E+03  0.43251577169E+03  0.54839538672E+03  0.00000000000E+00 0. -1.
</event>
<event>
 7    1  0.4394360E-006  0.1640806E+03  0.7561462E-02  0.1184165E+00
         -2   -1    0    0    0  501 -0.00000000000E+00  0.00000000000E+00  0.27587843440E+03  0.27587843440E+03  0.00000000000E+00 0.  1.
          2   -1    0    0  501    0  0.00000000000E+00 -0.00000000000E+00 -0.10031728095E+03  0.10031728095E+03  0.00000000000E+00 0. -1.
         23    2    1    2    0    0  0.68177142972E+02 -0.10019695307E+03  0.11893325170E+03  0.21090305157E+03  0.12508967413E+03 0.  0.
          5    1    3    3  502    0  0.10015885024E+03 -0.47121102563E+02  0.63641290553E+02  0.12774928513E+03  0.41800000000E+01 0.  1.
         -5    1    3    3    0  502 -0.31981707266E+02 -0.53075850504E+02  0.55291961144E+02  0.83153766442E+02  0.41800000000E+01 0.  1.
        -11    1    1    2    0    0 -0.26448123452E+02 -0.16621417464E+02  0.10874771999E+02  0.33076206232E+02  0.00000000000E+00 0.  1.
         11    1    1    2    0    0 -0.41729019520E+02  0.11681837053E+03  0.45753129750E+02  0.13221645754E+03  0.00000000000E+00 0. -1.
</event>
<event>
 7    1  0.4394360E-006  0.8988302E+02  0.7561462E-02  0.1303135E+00
         -2   -1    0    0    0  501 -0.00000000000E+00  0.00000000000E+00  0.25628856353E+02  0.25628856353E+02  0.00000000000E+00 0.  1.
          2   -1    0    0  501    0  0.00000000000E+00 -0.00000000000E+00 -0.49810842447E+03  0.49810842447E+03  0.00000000000E+00 0. -1.
         23    2    1    2    0    0  0.24197461873E+02  0.28983305700E+02 -0.25940301990E+03  0.29045181310E+03  0.12508708898E+03 0.  0.
          5    1    3    3  502    0  0.21978884852E+02  0.55003672843E+02 -0.25714105004E+03  0.26390806623E+03  0.41800000000E+01 0. -1.
         -5    1    3    3    0  502  0.22185770211E+01 -0.26020367143E+02 -0.22619698626E+01  0.26543746871E+02  0.41800000000E+01 0. -1.
        -11    1    1    2    0    0 -0.60301430385E+01 -0.58754198118E+02 -0.14999679583E+03  0.16120625664E+03  0.00000000000E+00 0. -1.
         11    1    1    2    0    0 -0.18167318835E+02  0.29770892419E+02 -0.63079752393E+02  0.72079211088E+02  0.00000000000E+00 0.  1.
</event>
<event>
 7    1  0.4394360E-006  0.8433322E+02  0.7561462E-02  0.1317185E+00
         -1   -1    0    0    0  501 -0.00000000000E+00  0.00000000000E+00  0.17510350698E+02  0.17510350698E+02  0.00000000000E+00 0.  1.
          1   -1    0    0  501    0  0.00000000000E+00 -0.00000000000E+00 -0.78626802305E+03  0.78626802305E+03  0.00000000000E+00 0. -1.
         23    2    1    2    0    0  0.11885804486E+02  0.43736817573E+02 -0.40543051290E+03  0.42670397219E+03  0.12509275572E+03 0.  0.
          5    1    3    3  502    0  0.26042671160E+02  0.56347441365E+01 -0.93868196803E+01  0.28557938412E+02  0.41800000000E+01 0. -1.
         -5    1    3    3    0  502 -0.14156866675E+02  0.38102073436E+02 -0.39604369322E+03  0.39814603378E+03  0.41800000000E+01 0. -1.
        -11    1    1    2    0    0 -0.50136857099E+02 -0.13083648968E+02 -0.18049885400E+03  0.18778903750E+03  0.00000000000E+00 0. -1.
         11    1    1    2    0    0  0.38251052614E+02 -0.30653168604E+02 -0.18282830545E+03  0.18928536406E+03  0.00000000000E+00 0.  1.
</event>
<event>
 7    1  0.4394360E-006  0.1474865E+03  0.7561462E-02  0.1203596E+00
          3   -1    0    0  501    0  0.00000000000E+00  0.00000000000E+00  0.23061335311E+03  0.23061335311E+03  0.00000000000E+00 0. -1.
         -3   -1    0    0    0  501 -0.00000000000E+00 -0.00000000000E+00 -0.12356502051E+03  0.12356502051E+03  0.00000000000E+00 0.  1.
         23    2    1    2    0    0  0.12439763947E+03  0.20715001978E+02  0.34588095987E+02  0.18096289586E+03  0.12508936517E+03 0.  0.
          5    1    3    3  502    0  0.32147136763E+02  0.31753770788E+02  0.68332527595E+02  0.82027721465E+02  0.41800000000E+01 0.  1.
         -5    1    3    3    0  502  0.92250502712E+02 -0.11038768810E+02 -0.33744431608E+02  0.98935174392E+02  0.41800000000E+01 0.  1.
        -11    1    1    2    0    0 -0.12499354434E+02 -0.41005964620E+02  0.27478762894E+02  0.50919597464E+02  0.00000000000E+00 0.  1.
         11    1    1    2    0    0 -0.11189828504E+03  0.20290962643E+02  0.44981473720E+02  0.12229588030E+03  0.00000000000E+00 0. -1.
</event>
<event>
 7    1  0.4394360E-006  0.1202986E+03  0.7561462E-02  0.1242605E+00
          1   -1    0    0  501    0  0.00000000000E+00  0.00000000000E+00  0.47462803517E+03  0.47462803517E+03  0.00000000000E+00 0. -1.
         -1   -1    0    0    0  501 -0.00000000000E+00 -0.00000000000E+00 -0.42483447752E+02  0.42483447752E+02  0.00000000000E+00 0.  1.
         23    2    1    2    0    0  0.16748692416E+02 -0.56043013245E+02  0.10812974553E+03  0.17538064250E+03  0.12507993390E+03 0.  0.
          5    1    3    3  502    0 -0.18781352109E+01  0.39902681340E+02  0.28634070505E+02  0.49326805731E+02  0.41800000000E+01 0.  1.
         -5    1    3    3    0  502  0.18626827627E+02 -0.95945694584E+02  0.79495675026E+02  0.12605383677E+03  0.41800000000E+01 0.  1.
        -11    1    1    2    0    0  0.20227342567E+02  0.61943031287E+02  0.25520808691E+03  0.26339561906E+03  0.00000000000E+00 0. -1.
         11    1    1    2    0    0 -0.36976034983E+02 -0.59000180423E+01  0.68806754977E+02  0.78335221366E+02  0.00000000000E+00 0.  1.
</event>
<event>
 7    1  0.4394360E-006  0.6395330E+02  0.7561462E-02  0.1381953E+00
         -1   -1    0    0    0  501 -0.00000000000E+00  0.00000000000E+00  0.55190539373E+02  0.55190539373E+02  0.00000000000E+00 0.  1.
          1   -1    0    0  501    0  0.00000000000E+00 -0.00000000000E+00 -0.27392697560E+03  0.27392697560E+03  0.00000000000E+00 0. -1.
         23    2    1    2    0    0  0.34617613001E+02  0.40198875292E+02 -0.76878653591E+02  0.15610918719E+03  0.12508166230E+03 0.  0.
          5    1    3    3  502    0  0.52205655003E+00 -0.11150396842E+02  0.30210775843E+02  0.32477180756E+02  0.41800000000E+01 0. -1.
         -5    1    3    3    0  502  0.34095556451E+02  0.51349272134E+02 -0.10708942943E+03  0.12363200643E+03  0.41800000000E+01 0. -1.
        -11    1    1    2    0    0 -0.14305004644E+02 -0.87497567594E+01  0.79752890562E+01  0.18568700459E+02  0.00000000000E+00 0.  1.
         11    1    1    2    0    0 -0.20312608357E+02 -0.31449118533E+02 -0.14983307169E+03  0.15443962732E+03  0.00000000000E+00 0. -1.
</event>
<event>
 7    1  0.4394360E-006  0.7809009E+02  0.7561462E-02  0.1334561E+00
         -2   -1    0    0    0  501 -0.00000000000E+00  0.00000000000E+00  0.10803293120E+04  0.10803293120E+04  0.00000000000E+00 0.  1.
          2   -1    0    0  501    0  0.00000000000E+00 -0.00000000000E+00 -0.13705477839E+02  0.13705477839E+02  0.00000000000E+00 0. -1.
         23    2    1    2    0    0 -0.39984137164E+02 -0.29389891265E+02  0.71418230879E+03  0.72674999344E+03  0.12508671334E+03 0.  0.
          5    1    3    3  502    0 -0.18668741020E+01  0.46888026036E+01  0.61545398356E+03  0.61548886941E+03  0.41800000000E+01 0.  1.
         -5    1    3    3    0  502 -0.38117263062E+02 -0.34078693869E+02  0.98728325230E+02  0.11126112404E+03  0.41800000000E+01 0.  1.
        -11    1    1    2    0    0  0.66304828809E+02  0.27983940569E+02  0.30099268496E+03  0.30947702282E+03  0.00000000000E+00 0.  1.
         11    1    1    2    0    0 -0.26320691645E+02  0.14059506959E+01  0.51448840416E+02  0.57807773579E+02  0.00000000000E+00 0. -1.
</event>
<event>
 7    1  0.4394360E-006  0.1638052E+03  0.7561462E-02  0.1184467E+00
          2   -1    0    0  501    0  0.00000000000E+00  0.00000000000E+00  0.39203702314E+03  0.39203702314E+03  0.00000000000E+00 0. -1.
         -2   -1    0    0    0  501 -0.00000000000E+00 -0.00000000000E+00 -0.26338702217E+03  0.26338702217E+03  0.00000000000E+00 0.  1.
         23    2    1    2    0    0  0.23432320411E+02  0.15287774223E+03 -0.19919014883E+03  0.28150438078E+03  0.12508926131E+03 0.  0.
          5    1    3    3  502    0  0.28069340518E+02  0.77186711351E+02 -0.18739465944E+03  0.20464580884E+03  0.41800000000E+01 0. -1.
         -5    1    3    3    0  502 -0.46370201067E+01  0.75691030881E+02 -0.11795489390E+02  0.76858571943E+02  0.41800000000E+01 0. -1.
        -11    1    1    2    0    0 -0.41856382786E+02 -0.51397140587E+02  0.19359741688E+03  0.20463035616E+03  0.00000000000E+00 0. -1.
         11    1    1    2    0    0  0.18424062375E+02 -0.10148060164E+03  0.13424273292E+03  0.16928930837E+03  0.00000000000E+00 0.  1.
</event>
<event>
 7    1  0.4394360E-006  0.1040784E+03  0.7561462E-02  0.1271946E+00
         -2   -1    0    0    0  501 -0.00000000000E+00  0.00000000000E+00  0.23579557291E+02  0.23579557291E+02  0.00000000000E+00 0.  1.
          2   -1    0    0  501    0  0.00000000000E+00 -0.00000000000E+00 -0.75799767597E+03  0.75799767597E+03  0.00000000000E+00 0. -1.
         23    2    1    2    0    0  0.57016453107E+02  0.30174423606E+02 -0.27443733789E+03  0.30842351077E+03  0.12509131787E+03 0.  0.
          5    1    3    3  502    0  0.73710328494E+02  0.15960152276E+02 -0.27590227014E+03  0.28605501929E+03  0.41800000000E+01 0.  1.
         -5    1    3    3    0  502 -0.16693875386E+02  0.14214271331E+02  0.14649322577E+01  0.22368491487E+02  0.41800000000E+01 0.  1.
        -11    1    1    2    0    0 -0.80779436495E+02 -0.15149860352E+02 -0.32071330419E+03  0.33107681755E+03  0.00000000000E+00 0.  1.
         11    1    1    2    0    0  0.23762983387E+02 -0.15024563255E+02 -0.13926747660E+03  0.14207690495E+03  0.00000000000E+00 0. -1.
</event>
<event>
 7    1  0.4394360E-006  0.8328584E+02  0.7561462E-02  0.1319977E+00
          2   -1    0    0  501    0  0.00000000000E+00  0.00000000000E+00  0.62031456806E+03  0.62031456806E+03  0.00000000000E+00 0. -1.
         -2   -1    0    0    0  501 -0.00000000000E+00 -0.00000000000E+00 -0.22479043232E+02  0.22479043232E+02  0.00000000000E+00 0.  1.
         23    2    1    2    0    0 -0.36717830949E+02 -0.24617133622E+02  0.35562056322E+03  0.37956083111E+03  0.12508491976E+03 0.  0.
          5    1    3    3  502    0 -0.35816280252E+02 -0.37144528705E+02  0.44809839648E+02  0.68468358189E+02  0.41800000000E+01 0.  1.
         -5    1    3    3    0  502 -0.90155069695E+00  0.12527395084E+02  0.31081072357E+03  0.31109247292E+03  0.41800000000E+01 0.  1.
        -11    1    1    2    0    0  0.51878892848E+02  0.49966772535E+02  0.19071605150E+03  0.20386444069E+03  0.00000000000E+00 0.  1.
         11    1    1    2    0    0 -0.15161061899E+02 -0.25349638913E+02  0.51498910106E+02  0.59368339484E+02  0.00000000000E+00 0. -1.
</event>
<event>
 7    1  0.4394360E-006  0.1531105E+03  0.7561462E-02  0.1196702E+00
         -2   -1    0    0    0  501 -0.00000000000E+00  0.00000000000E+00  0.19645407786E+02  0.19645407786E+02  0.00000000000E+00 0.  1.
          2   -1    0    0  501    0  0.00000000000E+00 -0.00000000000E+00 -0.15886380837E+04  0.15886380837E+04  0.00000000000E+00 0. -1.
         23    2    1    2    0    0  0.73932860726E+02  0.11724832873E+03 -0.92206171579E+03  0.94077323041E+03  0.12507287818E+03 0.  0.
          5    1    3    3  502    0  0.23365650718E+02  0.11297200340E+03 -0.80335056289E+03  0.81160225880E+03  0.41800000000E+01 0. -1.
         -5    1    3    3    0  502  0.50567210008E+02  0.42763253302E+01 -0.11871115289E+03  0.12917097161E+03  0.41800000000E+01 0. -1.
        -11    1    1    2    0    0 -0.20038833692E+02 -0.18050314249E+02 -0.30022969014E+02  0.40357742363E+02  0.00000000000E+00 0.  1.
         11    1    1    2    0    0 -0.53894027034E+02 -0.99198014480E+02 -0.61690799115E+03  0.62715251874E+03  0.00000000000E+00 0. -1.
</event>
<event>
 6    1  0.4394360E-006  0.1206257E+03  0.7561462E-02  0.1242068E+00
         -2   -1    0    0    0  501 -0.00000000000E+00  0.00000000000E+00  0.18395570152E+03  0.18395570152E+03  0.00000000000E+00 0.  1.
          2   -1    0    0  501    0  0.00000000000E+00 -0.00000000000E+00 -0.14250919513E+03  0.14250919513E+03  0.00000000000E+00 0. -1.
          5    1    1    2  502    0 -0.62034741596E+02  0.12129005600E+02 -0.34865964689E+02  0.72308573733E+02  0.41800000000E+01 0. -1.
         -5    1    1    2    0  502  0.67012375284E+02  0.42389228075E+02  0.11715935216E+03  0.14153194444E+03  0.41800000000E+01 0.  1.
        -11    1    1    2    0    0  0.34662982143E+02 -0.49250993013E+01  0.34928483561E+01  0.35184924666E+02  0.00000000000E+00 0.  1.
         11    1    1    2    0    0 -0.39640615830E+02 -0.49593134373E+02 -0.44339729437E+02  0.77439453813E+02  0.00000000000E+00 0. -1.
</event>
<event>
 7    1  0.4394360E-006  0.1140235E+03  0.7561462E-02  0.1253295E+00
         -2   -1    0    0    0  501 -0.00000000000E+00  0.00000000000E+00  0.22016988046E+02  0.22016988046E+02  0.00000000000E+00 0.  1.
          2   -1    0    0  501    0  0.00000000000E+00 -0.00000000000E+00 -0.67525121151E+03  0.67525121151E+03  0.00000000000E+00 0. -1.
         23    2    1    2    0    0 -0.31023802070E+02  0.43415829636E+02 -0.31259246040E+03  0.34089531298E+03  0.12509259592E+03 0.  0.
          5    1    3    3  502    0  0.18245739176E+02 -0.34070406756E+02 -0.14067562341E+03  0.14594794633E+03  0.41800000000E+01 0. -1.
         -5    1    3    3    0  502 -0.49269541245E+02  0.77486236393E+02 -0.17191683699E+03  0.19494736665E+03  0.41800000000E+01 0. -1.
        -11    1    1    2    0    0  0.51410259283E+02 -0.24174743883E+01 -0.11295248032E+03  0.12412542750E+03  0.00000000000E+00 0.  1.
         11    1    1    2    0    0 -0.20386457214E+02 -0.40998355248E+02 -0.22768928274E+03  0.23224745907E+03  0.00000000000E+00 0. -1.
</event>
<event>
 7    1  0.4394360E-006  0.1261467E+03  0.7561462E-02  0.1233288E+00
         -1   -1    0    0    0  501 -0.00000000000E+00  0.00000000000E+00  0.36684166673E+03  0.36684166673E+03  0.00000000000E+00 0.  1.
          1   -1    0    0  501    0  0.00000000000E+00 -0.00000000000E+00 -0.62111510384E+02  0.62111510384E+02  0.00000000000E+00 0. -1.
         23    2    1    2    0    0  0.17689244351E+02  0.10003901117E+03  0.20413241315E+03  0.26007382726E+03  0.12509052885E+03 0.  0.
          5    1    3    3  502    0 -0.79608020707E+01  0.89733496652E+02  0.49381228165E+02  0.10281757090E+03  0.41800000000E+01 0. -1.
         -5    1    3    3    0  502  0.25650046421E+02  0.10305514523E+02  0.15475118498E+03  0.15725625636E+03  0.41800000000E+01 0. -1.
        -11    1    1    2    0    0 -0.46486889600E+02 -0.22914131352E+02  0.51294044541E+02  0.72918909247E+02  0.00000000000E+00 0. -1.
         11    1    1    2    0    0  0.28797645249E+02 -0.77124879822E+02  0.49303698652E+02  0.95960440601E+02  0.00000000000E+00 0.  1.
</event>
<event>
 7    1  0.4394360E-006  0.6107932E+02  0.7561462E-02  0.1393357E+00
         -3   -1    0    0    0  501 -0.00000000000E+00  0.00000000000E+00  0.26193558953E+03  0.26193558953E+03  0.00000000000E+00 0.  1.
          3   -1    0    0  501    0  0.00000000000E+00 -0.00000000000E+00 -0.51823700735E+02  0.51823700735E+02  0.00000000000E+00 0. -1.
         23    2    1    2    0    0 -0.17724877292E+02  0.22650125694E+02  0.16068318087E+03  0.20565610973E+03  0.12509257128E+03 0.  0.
          5    1    3    3  502    0 -0.26521535668E+02  0.10175437453E+02  0.17909224901E+03  0.18137926408E+03  0.41800000000E+01 0. -1.
         -5    1    3    3    0  502  0.87966583762E+01  0.12474688242E+02 -0.18409068141E+02  0.24276845659E+02  0.41800000000E+01 0. -1.
        -11    1    1    2    0    0  0.41798748657E+02 -0.31107301908E+02  0.60882552741E+02  0.80134167803E+02  0.00000000000E+00 0.  1.
         11    1    1    2    0    0 -0.24073871365E+02  0.84571762139E+01 -0.11453844813E+02  0.27969012729E+02  0.00000000000E+00 0. -1.
</event>
<event>
 7    1  0.4394360E-006  0.8078320E+02  0.7561462E-02  0.1326843E+00
          2   -1    0    0  501    0  0.00000000000E+00  0.00000000000E+00  0.29027551398E+03  0.29027551398E+03  0.00000000000E+00 0. -1.
         -2   -1    0    0    0  501 -0.00000000000E+00 -0.00000000000E+00 -0.51766107591E+02  0.51766107591E+02  0.00000000000E+00 0.  1.
         23    2    1    2    0    0  0.18600430928E+02  0.49785594835E+02  0.10300211690E+03  0.17053184697E+03  0.12508834183E+03 0.  0.
          5    1    3    3  502    0  0.81852346459E+01  0.41637890869E+02 -0.19754811034E+02  0.46994010057E+02  0.41800000000E+01 0. -1.
         -5    1    3    3    0  502  0.10415196282E+02  0.81477039655E+01  0.12275692793E+03  0.12353783691E+03  0.41800000000E+01 0. -1.
        -11    1    1    2    0    0  0.35125730539E+02 -0.57547546062E+01  0.49054168311E+02  0.60607306285E+02  0.00000000000E+00 0.  1.
         11    1    1    2    0    0 -0.53726161467E+02 -0.44030840228E+02  0.86453121182E+02  0.11090246832E+03  0.00000000000E+00 0. -1.
</event>
<event>
 7    1  0.4394360E-006  0.2022967E+03  0.7561462E-02  0.1147816E+00
          2   -1    0    0  501    0  0.00000000000E+00  0.00000000000E+00  0.83463734227E+03  0.83463734227E+03  0.00000000000E+00 0. -1.
         -2   -1    0    0    0  501 -0.00000000000E+00 -0.00000000000E+00 -0.71873919083E+02  0.71873919083E+02  0.00000000000E+00 0.  1.
         23    2    1    2    0    0 -0.10737242010E+03  0.16357814468E+03  0.20995096746E+03  0.31306582846E+03  0.12507660930E+03 0.  0.
          5    1    3    3  502    0 -0.57910795454E+02  0.29019133194E+02  0.80472070302E+01  0.65406423709E+02  0.41800000000E+01 0. -1.
         -5    1    3    3    0  502 -0.49461624648E+02  0.13455901149E+03  0.20190376043E+03  0.24765940475E+03  0.41800000000E+01 0. -1.
        -11    1    1    2    0    0  0.64021512606E+02 -0.83699615123E+02  0.17015060833E+03  0.20013897462E+03  0.00000000000E+00 0.  1.
         11    1    1    2    0    0  0.43350907496E+02 -0.79878529559E+02  0.38266184739E+03  0.39330645827E+03  0.00000000000E+00 0. -1.
</event>
<event>
 7    1  0.4394360E-006  0.9223660E+02  0.7561462E-02  0.1297524E+00
         -2   -1    0    0    0  501 -0.00000000000E+00  0.00000000000E+00  0.14404331728E+03  0.14404331728E+03  0.00000000000E+00 0.  1.
          2   -1    0    0  501    0  0.00000000000E+00 -0.00000000000E+00 -0.11897216822E+03  0.11897216822E+03  0.00000000000E+00 0. -1.
         23    2    1    2    0    0  0.20054476669E+00 -0.15382211409E+02  0.87242052860E+02  0.15328202106E+03  0.12509016567E+03 0.  0.
          5    1    3    3  502    0 -0.57979636894E+02 -0.29291926223E+02  0.54882096330E+02  0.85142070293E+02  0.41800000000E+01 0. -1.
         -5    1    3    3    0  502  0.58180181661E+02  0.13909714814E+02  0.32359956530E+02  0.68139950770E+02  0.41800000000E+01 0. -1.
        -11    1    1    2    0    0 -0.28430628497E+02  0.12433809118E+02  0.96588381741E+01  0.32499129232E+02  0.00000000000E+00 0.  1.
         11    1    1    2    0    0  0.28230083731E+02  0.29484022910E+01 -0.71829741970E+02  0.77234335208E+02  0.00000000000E+00 0. -1.
</event>
<event>
 6    1  0.4394360E-006  0.1387791E+03  0.7561462E-02  0.1214981E+00
          1   -1    0    0  501    0  0.00000000000E+00  0.00000000000E+00  0.61837723465E+03  0.61837723465E+03  0.00000000000E+00 0. -1.
         -1   -1    0    0    0  501 -0.00000000000E+00 -0.00000000000E+00 -0.37201579453E+02  0.37201579453E+02  0.00000000000E+00 0.  1.
          5    1    1    2  502    0 -0.41168341744E+02 -0.60453084276E+02  0.21312996281E+03  0.22536916650E+03  0.41800000000E+01 0. -1.
         -5    1    1    2    0  502 -0.11502073567E+02  0.99620201852E+02  0.10090031081E+03  0.14231945557E+03  0.41800000000E+01 0.  1.
        -11    1    1    2    0    0  0.48976695749E+02 -0.63008324791E+02  0.23131554344E+03  0.24469500681E+03  0.00000000000E+00 0.  1.
         11    1    1    2    0    0  0.36937195617E+01  0.23841207215E+02  0.35829838143E+02  0.43195185230E+02  0.00000000000E+00 0. -1.
</event>
<event>
 6    1  0.4394360E-006  0.1241689E+03  0.7561462E-02  0.1236374E+00
          2   -1    0    0  501    0  0.00000000000E+00  0.00000000000E+00  0.42402399445E+03  0.42402399445E+03  0.00000000000E+00 0. -1.
         -2   -1    0    0    0  501 -0.00000000000E+00 -0.00000000000E+00 -0.52378345195E+02  0.52378345195E+02  0.00000000000E+00 0.  1.
          5    1    1    2  502    0 -0.41956172821E+01  0.39767896880E+02  0.36744512520E+02  0.54467608971E+02  0.41800000000E+01 0. -1.
         -5    1    1    2    0  502  0.11626565387E+02 -0.12188723336E+03  0.10761574230E+03  0.16306530922E+03  0.41800000000E+01 0.  1.
        -11    1    1    2    0    0 -0.14212306129E+02  0.31623633208E+02  0.10570507166E+02  0.36246095577E+02  0.00000000000E+00 0.  1.
         11    1    1    2    0    0  0.67813580242E+01  0.50495703267E+02  0.21671488727E+03  0.22262332589E+03  0.00000000000E+00 0. -1.
</event>
<event>
 7    1  0.4394360E-006  0.9470291E+02  0.7561462E-02  0.1291847E+00
         -2   -1    0    0    0  501 -0.00000000000E+00  0.00000000000E+00  0.20853916039E+03  0.20853916039E+03  0.00000000000E+00 0. -1.
          2   -1    0    0  501    0  0.00000000000E+00 -0.00000000000E+00 -0.11510380314E+03  0.11510380314E+03  0.00000000000E+00 0.  1.
         23    2    1    2    0    0 -0.26121822514E+02 -0.56643756473E+02  0.14338313413E+03  0.20024231947E+03  0.12508956229E+03 0.  0.
          5    1    3    3  502    0 -0.38257678229E+02 -0.59350381709E+02  0.16240197907E+03  0.17713834412E+03  0.41800000000E+01 0. -1.
         -5    1    3    3    0  502  0.12135855715E+02  0.27066252366E+01 -0.19018844940E+02  0.23103975349E+02  0.41800000000E+01 0. -1.
        -11    1    1    2    0    0 -0.39359284581E+01  0.71787153808E+02 -0.53414531820E+02  0.89565613905E+02  0.00000000000E+00 0.  1.
         11    1    1    2    0    0  0.30057750972E+02 -0.15143397335E+02  0.34667549392E+01  0.33835030163E+02  0.00000000000E+00 0. -1.
</event>
<event>
 7    1  0.4394360E-006  0.8781719E+02  0.7561462E-02  0.1308225E+00
          1   -1    0    0  501    0  0.00000000000E+00  0.00000000000E+00  0.14299969214E+03  0.14299969214E+03  0.00000000000E+00 0. -1.
         -1   -1    0    0    0  501 -0.00000000000E+00 -0.00000000000E+00 -0.11709306947E+03  0.11709306947E+03  0.00000000000E+00 0.  1.
         23    2    1    2    0    0 -0.59936737201E+02  0.24115767259E+02 -0.13790381841E+02  0.14146122557E+03  0.12508845275E+03 0.  0.
          5    1    3    3  502    0 -0.21390975342E+02  0.17148502254E+02 -0.68582842763E+02  0.73977859371E+02  0.41800000000E+01 0.  1.
         -5    1    3    3    0  502 -0.38545761859E+02  0.69672650050E+01  0.54792460923E+02  0.67483366194E+02  0.41800000000E+01 0.  1.
        -11    1    1    2    0    0  0.67348389450E+02  0.14748165297E+02  0.11141882476E+02  0.69838782107E+02  0.00000000000E+00 0.  1.
         11    1    1    2    0    0 -0.74116522486E+01 -0.38863932556E+02  0.28555122032E+02  0.48792753940E+02  0.00000000000E+00 0. -1.
</event>
<event>
 7    1  0.4394360E-006  0.6714038E+02  0.7561462E-02  0.1370096E+00
          4   -1    0    0  501    0  0.00000000000E+00  0.00000000000E+00  0.37944993800E+02  0.37944993800E+02  0.00000000000E+00 0. -1.
         -4   -1    0    0    0  501 -0.00000000000E+00 -0.00000000000E+00 -0.39429636069E+03  0.39429636069E+03  0.00000000000E+00 0.  1.
         23    2    1    2    0    0 -0.89594822288E+01  0.17380786483E+01 -0.29835286804E+03  0.32364151561E+03  0.12508438559E+03 0.  0.
          5    1    3    3  502    0 -0.19970812539E+02  0.21010556540E+02 -0.29959287698E+03  0.30102099790E+03  0.41800000000E+01 0.  1.
         -5    1    3    3    0  502  0.11011330310E+02 -0.19272477891E+02  0.12400089370E+01  0.22620517709E+02  0.41800000000E+01 0.  1.
        -11    1    1    2    0    0  0.39383015727E+02  0.20805886161E+02 -0.54772280559E+02  0.70596809733E+02  0.00000000000E+00 0.  1.
         11    1    1    2    0    0 -0.30423533498E+02 -0.22543964810E+02 -0.32262182863E+01  0.38003029146E+02  0.00000000000E+00 0. -1.
</event>
<event>
 7    1  0.4394360E-006  0.1081954E+03  0.7561462E-02  0.1263949E+00
          2   -1    0    0  501    0  0.00000000000E+00  0.00000000000E+00  0.12431672401E+03  0.12431672401E+03  0.00000000000E+00 0. -1.
         -2   -1    0    0    0  501 -0.00000000000E+00 -0.00000000000E+00 -0.18634564681E+03  0.18634564681E+03  0.00000000000E+00 0.  1.
         23    2    1    2    0    0  0.85695373049E+02  0.21702485885E+02 -0.99157125058E+02  0.18248968283E+03  0.12512255605E+03 0.  0.
          5    1    3    3  502    0  0.55223508897E+02 -0.25556098712E+02  0.78883427890E+01  0.61501613542E+02  0.41800000000E+01 0.  1.
         -5    1    3    3    0  502  0.30471864151E+02  0.47258584597E+02 -0.10704546785E+03  0.12098806929E+03  0.41800000000E+01 0.  1.
        -11    1    1    2    0    0 -0.11654019917E+02 -0.22082265479E+02 -0.22108795994E+02  0.33350284695E+02  0.00000000000E+00 0.  1.
         11    1    1    2    0    0 -0.74041353131E+02  0.37977959418E+00  0.59236998247E+02  0.94822403299E+02  0.00000000000E+00 0. -1.
</event>
<event>
 7    1  0.4394360E-006  0.1095925E+03  0.7561462E-02  0.1261326E+00
          4   -1    0    0  501    0  0.00000000000E+00  0.00000000000E+00  0.10545691481E+03  0.10545691481E+03  0.00000000000E+00 0.  1.
         -4   -1    0    0    0  501 -0.00000000000E+00 -0.00000000000E+00 -0.16020270495E+03  0.16020270495E+03  0.00000000000E+00 0. -1.
         23    2    1    2    0    0  0.50344962184E+02  0.44669590397E+02 -0.67783800272E+02  0.15739006493E+03  0.12508797478E+03 0.  0.
          5    1    3    3  502    0  0.42956592873E+02 -0.26022655544E+02 -0.69881788176E+02  0.86159063316E+02  0.41800000000E+01 0. -1.
         -5    1    3    3    0  502  0.73883693119E+01  0.70692245941E+02  0.20979879037E+01  0.71231001611E+02  0.41800000000E+01 0. -1.
        -11    1    1    2    0    0 -0.14120223668E+01 -0.48485263487E+02  0.29174429762E+02  0.56603550546E+02  0.00000000000E+00 0.  1.
         11    1    1    2    0    0 -0.48932939818E+02  0.38156730893E+01 -0.16136419632E+02  0.51666004286E+02  0.00000000000E+00 0. -1.
</event>
<event>
 7    1  0.4394360E-006  0.6989907E+02  0.7561462E-02  0.1360437E+00
          1   -1    0    0  501    0  0.00000000000E+00  0.00000000000E+00  0.50840788798E+02  0.50840788798E+02  0.00000000000E+00 0. -1.
         -1   -1    0    0    0  501 -0.00000000000E+00 -0.00000000000E+00 -0.26362237460E+03  0.26362237460E+03  0.00000000000E+00 0.  1.
         23    2    1    2    0    0 -0.50197168495E+02 -0.85338371527E+01 -0.15078355939E+03  0.20242367135E+03  0.12508828418E+03 0.  0.
          5    1    3    3  502    0  0.93721234246E+00 -0.10751029702E+02 -0.15062666096E+03  0.15107060071E+03  0.41800000000E+01 0.  1.
         -5    1    3    3    0  502 -0.51134380838E+02  0.22171925491E+01 -0.15689842453E+00  0.51353070634E+02  0.41800000000E+01 0.  1.
        -11    1    1    2    0    0  0.58462265762E+02 -0.73936935071E+01 -0.70748535578E+02  0.92075287174E+02  0.00000000000E+00 0.  1.
         11    1    1    2    0    0 -0.82650972667E+01  0.15927530660E+02  0.87505091649E+01  0.19964204878E+02  0.00000000000E+00 0. -1.
</event>
<event>
 7    1  0.4394360E-006  0.1506905E+03  0.7561462E-02  0.1199627E+00
          2   -1    0    0  501    0  0.00000000000E+00  0.00000000000E+00  0.19194763099E+03  0.19194763099E+03  0.00000000000E+00 0. -1.
         -2   -1    0    0    0  501 -0.00000000000E+00 -0.00000000000E+00 -0.16096095926E+03  0.16096095926E+03  0.00000000000E+00 0.  1.
         23    2    1    2    0    0  0.35094340418E+02 -0.12591782438E+03 -0.32398945407E+02  0.18379974397E+03  0.12508294446E+03 0.  0.
          5    1    3    3  502    0 -0.37842742328E+02 -0.65538221557E+02  0.15869422993E+02  0.77437992083E+02  0.41800000000E+01 0.  1.
         -5    1    3    3    0  502  0.72937082746E+02 -0.60379602824E+02 -0.48268368399E+02  0.10636175189E+03  0.41800000000E+01 0.  1.
        -11    1    1    2    0    0 -0.23512008587E+02  0.92430663622E+02 -0.12674015192E+01  0.95382642195E+02  0.00000000000E+00 0.  1.
         11    1    1    2    0    0 -0.11582331831E+02  0.33487160758E+02  0.64653018655E+02  0.73726204076E+02  0.00000000000E+00 0. -1.
</event>
<event>
 6    1  0.4394360E-006  0.7234519E+02  0.7561462E-02  0.1352295E+00
          2   -1    0    0  501    0  0.00000000000E+00  0.00000000000E+00  0.32689567930E+03  0.32689567930E+03  0.00000000000E+00 0. -1.
         -2   -1    0    0    0  501 -0.00000000000E+00 -0.00000000000E+00 -0.52518246296E+02  0.52518246296E+02  0.00000000000E+00 0.  1.
          5    1    1    2  502    0  0.20119821701E+00  0.29751775484E+02  0.13925298480E+03  0.14245727360E+03  0.41800000000E+01 0. -1.
         -5    1    1    2    0  502 -0.38044467991E+02 -0.11713199834E+02 -0.27190553592E+02  0.48387800112E+02  0.41800000000E+01 0.  1.
        -11    1    1    2    0    0 -0.77827652535E+01 -0.27019934430E+02  0.10871664151E+02  0.30146996086E+02  0.00000000000E+00 0.  1.
         11    1    1    2    0    0  0.45626035028E+02  0.89813587799E+01  0.15144333764E+03  0.15842185579E+03  0.00000000000E+00 0. -1.
</event>
<event>
 7    1  0.4394360E-006  0.1206913E+03  0.7561462E-02  0.1241961E+00
          2   -1    0    0  501    0  0.00000000000E+00  0.00000000000E+00  0.20816124763E+03  0.20816124763E+03  0.00000000000E+00 0. -1.
         -2   -1    0    0    0  501 -0.00000000000E+00 -0.00000000000E+00 -0.12340799875E+03  0.12340799875E+03  0.00000000000E+00 0.  1.
         23    2    1    2    0    0  0.60330250614E+02  0.85820170858E+02 -0.91758182250E+01  0.16351108664E+03  0.12508732530E+03 0.  0.
          5    1    3    3  502    0  0.23479753954E+02  0.30485498769E+02 -0.65629797996E+02  0.76193223229E+02  0.41800000000E+01 0.  1.
         -5    1    3    3    0  502  0.36850496660E+02  0.55334672089E+02  0.56453979771E+02  0.87317863415E+02  0.41800000000E+01 0.  1.
        -11    1    1    2    0    0  0.57764019783E+01 -0.67112454242E+02  0.28358022545E+02  0.73086426762E+02  0.00000000000E+00 0.  1.
         11    1    1    2    0    0 -0.66106652593E+02 -0.18707716617E+02  0.65571044566E+02  0.94971732971E+02  0.00000000000E+00 0. -1.
</event>
<event>
 7    1  0.4394360E-006  0.2054480E+03  0.7561462E-02  0.1145222E+00
         -1   -1    0    0    0  501 -0.00000000000E+00  0.00000000000E+00  0.19485600404E+03  0.19485600404E+03  0.00000000000E+00 0.  1.
          1   -1    0    0  501    0  0.00000000000E+00 -0.00000000000E+00 -0.36385226480E+03  0.36385226480E+03  0.00000000000E+00 0. -1.
         23    2    1    2    0    0 -0.19483831559E+03  0.16336221827E+02  0.63974140135E+02  0.24076476712E+03  0.12508453587E+03 0.  0.
          5    1    3    3  502    0 -0.92346811942E+02  0.97372237791E+01 -0.33793924436E+02  0.98905252295E+02  0.41800000000E+01 0.  1.
         -5    1    3    3    0  502 -0.10249150365E+03  0.65989980482E+01  0.97768064571E+02  0.14185951482E+03  0.41800000000E+01 0.  1.
        -11    1    1    2    0    0  0.10673052700E+03 -0.53668187650E+02 -0.11253762994E+03  0.16412311815E+03  0.00000000000E+00 0.  1.
         11    1    1    2    0    0  0.88107788594E+02  0.37331965822E+02 -0.12043277095E+03  0.15382038357E+03  0.00000000000E+00 0. -1.
</event>
<event>
 7    1  0.4394360E-006  0.1168531E+03  0.7561462E-02  0.1248381E+00
         -1   -1    0    0    0  501 -0.00000000000E+00  0.00000000000E+00  0.41968160590E+02  0.41968160590E+02  0.00000000000E+00 0.  1.
          1   -1    0    0  501    0  0.00000000000E+00 -0.00000000000E+00 -0.68314229610E+03  0.68314229610E+03  0.00000000000E+00 0. -1.
         23    2    1    2    0    0 -0.52529720900E+02  0.80743067332E+02 -0.15594989552E+03  0.22190974753E+03  0.12507898159E+03 0.  0.
          5    1    3    3  502    0 -0.13491322973E+02  0.60673905340E+02 -0.26042323495E+01  0.62350565442E+02  0.41800000000E+01 0.  1.
         -5    1    3    3    0  502 -0.39038397927E+02  0.20069161992E+02 -0.15334566317E+03  0.15955918209E+03  0.41800000000E+01 0.  1.
        -11    1    1    2    0    0  0.60908490041E+02 -0.17293399530E+02 -0.31594555875E+03  0.32222740716E+03  0.00000000000E+00 0.  1.
         11    1    1    2    0    0 -0.83787691406E+01 -0.63449667802E+02 -0.16927868124E+03  0.18097330200E+03  0.00000000000E+00 0. -1.
</event>
<event>
 7    1  0.4394360E-006  0.9204296E+02  0.7561462E-02  0.1297978E+00
         -2   -1    0    0    0  501 -0.00000000000E+00  0.00000000000E+00  0.37073034769E+03  0.37073034769E+03  0.00000000000E+00 0.  1.
          2   -1    0    0  501    0  0.00000000000E+00 -0.00000000000E+00 -0.73100133543E+02  0.73100133543E+02  0.00000000000E+00 0. -1.
         23    2    1    2    0    0  0.53157698814E+01  0.39530204872E+02  0.31616201531E+03  0.34233556457E+03  0.12507727347E+03 0.  0.
          5    1    3    3  502    0  0.28985910204E+01 -0.22157064957E+02  0.27793255760E+01  0.22902716172E+02  0.41800000000E+01 0.  1.
         -5    1    3    3    0  502  0.24171788610E+01  0.61687269829E+02  0.31338268973E+03  0.31943284840E+03  0.41800000000E+01 0.  1.
        -11    1    1    2    0    0 -0.29525149164E+02  0.19697101264E+02 -0.10472780445E+02  0.37005261269E+02  0.00000000000E+00 0.  1.
         11    1    1    2    0    0  0.24209379282E+02 -0.59227306136E+02 -0.80590207184E+01  0.64489655390E+02  0.00000000000E+00 0. -1.
</event>
<event>
 7    1  0.4394360E-006  0.3024228E+03  0.7561462E-02  0.1084036E+00
         -1   -1    0    0    0  501 -0.00000000000E+00  0.00000000000E+00  0.10526336590E+03  0.10526336590E+03  0.00000000000E+00 0.  1.
          1   -1    0    0  501    0  0.00000000000E+00 -0.00000000000E+00 -0.10963115451E+04  0.10963115451E+04  0.00000000000E+00 0. -1.
         23    2    1    2    0    0  0.29328817121E+03  0.65144717517E+02 -0.28720774750E+03  0.43404853123E+03  0.12509217260E+03 0.  0.
          5    1    3    3  502    0  0.56292595252E+02 -0.60700765840E+01 -0.12729808338E+03  0.13938427652E+03  0.41800000000E+01 0. -1.
         -5    1    3    3    0  502  0.23699557596E+03  0.71214794101E+02 -0.15990966412E+03  0.29466425471E+03  0.41800000000E+01 0. -1.
        -11    1    1    2    0    0 -0.77709886531E+02 -0.21381110765E+02 -0.25929637738E+03  0.27153377265E+03  0.00000000000E+00 0. -1.
         11    1    1    2    0    0 -0.21557828468E+03 -0.43763606751E+02 -0.44454405435E+03  0.49599260716E+03  0.00000000000E+00 0.  1.
</event>
<event>
 7    1  0.4394360E-006  0.1190027E+03  0.7561462E-02  0.1244751E+00
          2   -1    0    0  501    0  0.00000000000E+00  0.00000000000E+00  0.18873115790E+03  0.18873115790E+03  0.00000000000E+00 0. -1.
         -2   -1    0    0    0  501 -0.00000000000E+00 -0.00000000000E+00 -0.11154724263E+03  0.11154724263E+03  0.00000000000E+00 0.  1.
         23    2    1    2    0    0  0.19320646087E+02 -0.89596098816E+02  0.15616526107E+02  0.15585952003E+03  0.12509023067E+03 0.  0.
          5    1    3    3  502    0 -0.21160399039E+01  0.71189552761E+01  0.50148729740E+02  0.50867717106E+02  0.41800000000E+01 0. -1.
         -5    1    3    3    0  502  0.21436685991E+02 -0.96715054092E+02 -0.34532203632E+02  0.10499180293E+03  0.41800000000E+01 0. -1.
        -11    1    1    2    0    0  0.25426976870E+02 -0.47921324792E+01  0.16250501308E+02  0.30554451054E+02  0.00000000000E+00 0. -1.
         11    1    1    2    0    0 -0.44747622957E+02  0.94388231295E+02  0.45316887853E+02  0.11386442944E+03  0.00000000000E+00 0.  1.
</event>
<event>
 7    1  0.4394360E-006  0.3025606E+03  0.7561462E-02  0.1083968E+00
         -2   -1    0    0    0  501 -0.00000000000E+00  0.00000000000E+00  0.67765687024E+02  0.67765687024E+02  0.00000000000E+00 0. -1.
          2   -1    0    0  501    0  0.00000000000E+00 -0.00000000000E+00 -0.17438128920E+04  0.17438128920E+04  0.00000000000E+00 0.  1.
         23    2    1    2    0    0  0.12585170204E+03 -0.25777929607E+03 -0.44285894763E+03  0.54227333574E+03  0.12508999468E+03 0.  0.
          5    1    3    3  502    0  0.45373748409E+02 -0.51816890524E+01 -0.88786467271E+02  0.99930656540E+02  0.41800000000E+01 0. -1.
         -5    1    3    3    0  502  0.80477953629E+02 -0.25259760702E+03 -0.35407248036E+03  0.44234267920E+03  0.41800000000E+01 0. -1.
        -11    1    1    2    0    0 -0.35072924794E+02  0.14584222624E+03 -0.49699695549E+03  0.51913971026E+03  0.00000000000E+00 0.  1.
         11    1    1    2    0    0 -0.90778777245E+02  0.11193706984E+03 -0.73619130185E+03  0.75016553301E+03  0.00000000000E+00 0. -1.
</event>
<event>
 7    1  0.4394360E-006  0.1664005E+03  0.7561462E-02  0.1181654E+00
         -1   -1    0    0    0  501 -0.00000000000E+00  0.00000000000E+00  0.23938028578E+02  0.23938028578E+02  0.00000000000E+00 0.  1.
          1   -1    0    0  501    0  0.00000000000E+00 -0.00000000000E+00 -0.14085329524E+04  0.14085329524E+04  0.00000000000E+00 0. -1.
         23    2    1    2    0    0  0.13368255613E+02 -0.14500858592E+03 -0.82066935756E+03  0.84282394752E+03  0.12509121401E+03 0.  0.
          5    1    3    3  502    0  0.32983712325E+02 -0.13351337148E+03 -0.80021337462E+03  0.81195607206E+03  0.41800000000E+01 0.  1.
         -5    1    3    3    0  502 -0.19615456712E+02 -0.11495214433E+02 -0.20455982942E+02  0.30867875453E+02  0.41800000000E+01 0.  1.
        -11    1    1    2    0    0  0.36617068632E+02  0.32415419451E+02 -0.17196897528E+03  0.17878729707E+03  0.00000000000E+00 0. -1.
         11    1    1    2    0    0 -0.49985324244E+02  0.11259316647E+03 -0.39195659096E+03  0.41085973637E+03  0.00000000000E+00 0.  1.
</event>
<event>
 7    1  0.4394360E-006  0.1387056E+03  0.7561462E-02  0.1215081E+00
          2   -1    0    0  501    0  0.00000000000E+00  0.00000000000E+00  0.21833785873E+03  0.21833785873E+03  0.00000000000E+00 0. -1.
         -2   -1    0    0    0  501 -0.00000000000E+00 -0.00000000000E+00 -0.99759150539E+02  0.99759150539E+02  0.00000000000E+00 0.  1.
         23    2    1    2    0    0 -0.22519074049E+02 -0.86547991296E+02  0.17564071967E+02  0.15476992452E+03  0.12509024510E+03 0.  0.
          5    1    3    3  502    0  0.43841192665E+02 -0.71678339320E+02 -0.10701756729E+01  0.84133537772E+02  0.41800000000E+01 0. -1.
         -5    1    3    3    0  502 -0.66360266714E+02 -0.14869651976E+02  0.18634247640E+02  0.70636386751E+02  0.41800000000E+01 0. -1.
        -11    1    1    2    0    0  0.55644151731E+02  0.42402425853E+02  0.74154063083E+02  0.10194637027E+03  0.00000000000E+00 0.  1.
         11    1    1    2    0    0 -0.33125077683E+02  0.44145565443E+02  0.26860573142E+02  0.61380714474E+02  0.00000000000E+00 0. -1.
</event>
<event>
 7    1  0.4394360E-006  0.1031564E+03  0.7561462E-02  0.1273795E+00
          2   -1    0    0  501    0  0.00000000000E+00  0.00000000000E+00  0.36376544406E+02  0.36376544406E+02  0.00000000000E+00 0. -1.
         -2   -1    0    0    0  501 -0.00000000000E+00 -0.00000000000E+00 -0.41274945571E+03  0.41274945571E+03  0.00000000000E+00 0.  1.
         23    2    1    2    0    0 -0.52670666032E+02 -0.51789593012E+01 -0.22378376243E+03  0.26177701097E+03  0.12508801088E+03 0.  0.
          5    1    3    3  502    0 -0.64381311449E+02 -0.39303775882E+02 -0.67435905211E+02  0.10126605440E+03  0.41800000000E+01 0. -1.
         -5    1    3    3    0  502  0.11710645417E+02  0.34124816580E+02 -0.15634785722E+03  0.16051095657E+03  0.41800000000E+01 0. -1.
        -11    1    1    2    0    0  0.69138525124E+02  0.20334393040E+02 -0.14784091632E+03  0.16447054367E+03  0.00000000000E+00 0.  1.
         11    1    1    2    0    0 -0.16467859092E+02 -0.15155433738E+02 -0.47482325540E+01  0.22878445473E+02  0.00000000000E+00 0. -1.
</event>
<event>
 7    1  0.4394360E-006  0.1029593E+03  0.7561462E-02  0.1274193E+00
          1   -1    0    0  501    0  0.00000000000E+00  0.00000000000E+00  0.29746663746E+03  0.29746663746E+03  0.00000000000E+00 0. -1.
         -1   -1    0    0    0  501 -0.00000000000E+00 -0.00000000000E+00 -0.66729874310E+02  0.66729874310E+02  0.00000000000E+00 0.  1.
         23    2    1    2    0    0  0.66191106395E+02  0.42842471593E+02  0.71770414324E+02  0.16436187545E+03  0.12508834395E+03 0.  0.
          5    1    3    3  502    0  0.59137811221E+02  0.21503608584E+02  0.10591670511E+03  0.12327005605E+03  0.41800000000E+01 0. -1.
         -5    1    3    3    0  502  0.70532951746E+01  0.21338863009E+02 -0.34146290784E+02  0.41091819401E+02  0.41800000000E+01 0. -1.
        -11    1    1    2    0    0  0.22672903234E+02 -0.13616970651E+02  0.24659739825E+02  0.36160547549E+02  0.00000000000E+00 0.  1.
         11    1    1    2    0    0 -0.88864009629E+02 -0.29225500942E+02  0.13430660900E+03  0.16367408877E+03  0.00000000000E+00 0. -1.
</event>
<event>
 7    1  0.4394360E-006  0.1154594E+03  0.7561462E-02  0.1250781E+00
         -2   -1    0    0    0  501 -0.00000000000E+00  0.00000000000E+00  0.18094687684E+03  0.18094687684E+03  0.00000000000E+00 0.  1.
          2   -1    0    0  501    0  0.00000000000E+00 -0.00000000000E+00 -0.14998395624E+03  0.14998395624E+03  0.00000000000E+00 0. -1.
         23    2    1    2    0    0 -0.36228440077E+02 -0.89095336406E+02  0.95650006659E+02  0.18451619873E+03  0.12508726945E+03 0.  0.
          5    1    3    3  502    0 -0.41380485336E+02  0.17153082570E+01  0.82649294594E+02  0.92540073189E+02  0.41800000000E+01 0. -1.
         -5    1    3    3    0  502  0.51520452592E+01 -0.90810644663E+02  0.13000712065E+02  0.91976125536E+02  0.41800000000E+01 0. -1.
        -11    1    1    2    0    0  0.18827107447E+02  0.69629243895E+02  0.46949338851E+01  0.72282321382E+02  0.00000000000E+00 0.  1.
         11    1    1    2    0    0  0.17401332630E+02  0.19466092511E+02 -0.69382019945E+02  0.74132312972E+02  0.00000000000E+00 0. -1.
</event>
<event>
 7    1  0.4394360E-006  0.1250117E+03  0.7561462E-02  0.1235051E+00
          2   -1    0    0  501    0  0.00000000000E+00  0.00000000000E+00  0.15946181042E+03  0.15946181042E+03  0.00000000000E+00 0. -1.
         -2   -1    0    0    0  501 -0.00000000000E+00 -0.00000000000E+00 -0.13065081647E+03  0.13065081647E+03  0.00000000000E+00 0.  1.
         23    2    1    2    0    0  0.19548884996E+02  0.92705776720E+02  0.94294567029E+01  0.15719946475E+03  0.12508491964E+03 0.  0.
          5    1    3    3  502    0 -0.22539546658E+02  0.97812618295E+02  0.36312284810E+02  0.10682412597E+03  0.41800000000E+01 0. -1.
         -5    1    3    3    0  502  0.42088431654E+02 -0.51068415747E+01 -0.26882828107E+02  0.50375338777E+02  0.41800000000E+01 0. -1.
        -11    1    1    2    0    0 -0.34321410970E+02 -0.42523347039E+02 -0.28820084342E+02  0.61780187406E+02  0.00000000000E+00 0.  1.
         11    1    1    2    0    0  0.14772525975E+02 -0.50182429681E+02  0.48201621585E+02  0.71132974743E+02  0.00000000000E+00 0. -1.
</event>
<event>
 7    1  0.4394360E-006  0.7403528E+02  0.7561462E-02  0.1346885E+00
         -1   -1    0    0    0  501 -0.00000000000E+00  0.00000000000E+00  0.57997299188E+02  0.57997299188E+02  0.00000000000E+00 0.  1.
          1   -1    0    0  501    0  0.00000000000E+00 -0.00000000000E+00 -0.31325255972E+03  0.31325255972E+03  0.00000000000E+00 0. -1.
         23    2    1    2    0    0 -0.32971149717E+00  0.66063163686E+02 -0.75005744508E+02  0.16011989393E+03  0.12509223963E+03 0.  0.
          5    1    3    3  502    0  0.20355050208E+02  0.22452375779E+02 -0.10072483437E+03  0.10526823787E+03  0.41800000000E+01 0. -1.
         -5    1    3    3    0  502 -0.20684761706E+02  0.43610787907E+02  0.25719089858E+02  0.54851656054E+02  0.41800000000E+01 0. -1.
        -11    1    1    2    0    0  0.10145845964E+02 -0.36172798894E+02 -0.17530190838E+03  0.17928237128E+03  0.00000000000E+00 0. -1.
         11    1    1    2    0    0 -0.98161344664E+01 -0.29890364792E+02 -0.49476076476E+01  0.31847593704E+02  0.00000000000E+00 0.  1.
</event>
<event>
 7    1  0.4394360E-006  0.9157804E+02  0.7561462E-02  0.1299075E+00
          1   -1    0    0  501    0  0.00000000000E+00  0.00000000000E+00  0.61532503054E+02  0.61532503054E+02  0.00000000000E+00 0. -1.
         -1   -1    0    0    0  501 -0.00000000000E+00 -0.00000000000E+00 -0.16593689362E+03  0.16593689362E+03  0.00000000000E+00 0.  1.
         23    2    1    2    0    0 -0.12446519741E+02  0.31009952426E+02 -0.66631556161E+02  0.14561656323E+03  0.12509151133E+03 0.  0.
          5    1    3    3  502    0  0.71278134171E+01  0.69705347682E+02 -0.53086870229E+01  0.70393861789E+02  0.41800000000E+01 0. -1.
         -5    1    3    3    0  502 -0.19574333158E+02 -0.38695395257E+02 -0.61322869138E+02  0.75222701441E+02  0.41800000000E+01 0. -1.
        -11    1    1    2    0    0  0.34886945808E+02 -0.53265643712E+01 -0.31229724345E+02  0.47125014148E+02  0.00000000000E+00 0.  1.
         11    1    1    2    0    0 -0.22440426067E+02 -0.25683388055E+02 -0.65431100625E+01  0.34727819300E+02  0.00000000000E+00 0. -1.
</event>
<event>
 7    1  0.4394360E-006  0.1269217E+03  0.7561462E-02  0.1232096E+00
          1   -1    0    0  501    0  0.00000000000E+00  0.00000000000E+00  0.14201856120E+03  0.14201856120E+03  0.00000000000E+00 0. -1.
         -1   -1    0    0    0  501 -0.00000000000E+00 -0.00000000000E+00 -0.11884553474E+03  0.11884553474E+03  0.00000000000E+00 0.  1.
         23    2    1    2    0    0  0.18070066135E+02 -0.64630897034E+02 -0.12095016362E+02  0.14242518312E+03  0.12503984655E+03 0.  0.
          5    1    3    3  502    0  0.69925425446E+02 -0.54253859305E+02 -0.11724227446E+02  0.89375479202E+02  0.41800000000E+01 0.  1.
         -5    1    3    3    0  502 -0.51855359311E+02 -0.10377037729E+02 -0.37078891585E+00  0.53049703918E+02  0.41800000000E+01 0.  1.
        -11    1    1    2    0    0 -0.54154940430E+02  0.48373426552E+02  0.29776184125E+02  0.78481635497E+02  0.00000000000E+00 0. -1.
         11    1    1    2    0    0  0.36084874295E+02  0.16257470483E+02  0.54918587026E+01  0.39957277327E+02  0.00000000000E+00 0.  1.
</event>
<event>
 7    1  0.4394360E-006  0.5570593E+02  0.7561462E-02  0.1416790E+00
         -2   -1    0    0    0  501 -0.00000000000E+00  0.00000000000E+00  0.12976412462E+03  0.12976412462E+03  0.00000000000E+00 0.  1.
          2   -1    0    0  501    0  0.00000000000E+00 -0.00000000000E+00 -0.19774018774E+03  0.19774018774E+03  0.00000000000E+00 0. -1.
         23    2    1    2    0    0  0.23555893803E+02  0.25608053817E+01  0.81082274606E+02  0.15100802052E+03  0.12517048034E+03 0.  0.
          5    1    3    3  502    0 -0.15339808457E+02  0.93539417027E+01  0.10368976470E+03  0.10531783160E+03  0.41800000000E+01 0. -1.
         -5    1    3    3    0  502  0.38895702260E+02 -0.67931363210E+01 -0.22607490093E+02  0.45690188921E+02  0.41800000000E+01 0. -1.
        -11    1    1    2    0    0  0.12082462052E+02 -0.11324687065E+02  0.56478128465E+01  0.17496634428E+02  0.00000000000E+00 0.  1.
         11    1    1    2    0    0 -0.35638355855E+02  0.87638816831E+01 -0.15470615058E+03  0.15899965741E+03  0.00000000000E+00 0. -1.
</event>
<event>
 7    1  0.4394360E-006  0.1381779E+03  0.7561462E-02  0.1215802E+00
          2   -1    0    0  501    0  0.00000000000E+00  0.00000000000E+00  0.10990085682E+04  0.10990085682E+04  0.00000000000E+00 0. -1.
         -2   -1    0    0    0  501 -0.00000000000E+00 -0.00000000000E+00 -0.21930861747E+02  0.21930861747E+02  0.00000000000E+00 0.  1.
         23    2    1    2    0    0 -0.10423521260E+03 -0.37300618493E+02  0.55610180030E+03  0.58065231766E+03  0.12510629889E+03 0.  0.
          5    1    3    3  502    0 -0.38028253548E+02  0.24619275853E+02  0.37835835884E+03  0.38108368755E+03  0.41800000000E+01 0.  1.
         -5    1    3    3    0  502 -0.66206959050E+02 -0.61919894345E+02  0.17774344146E+03  0.19956863011E+03  0.41800000000E+01 0.  1.
        -11    1    1    2    0    0  0.91715848801E+01  0.43876040871E+02  0.11876555616E+03  0.12694283068E+03  0.00000000000E+00 0.  1.
         11    1    1    2    0    0  0.95063627718E+02 -0.65754223788E+01  0.40221035003E+03  0.41334428164E+03  0.00000000000E+00 0. -1.
</event>
<event>
 7    1  0.4394360E-006  0.1051461E+03  0.7561462E-02  0.1269832E+00
          1   -1    0    0  501    0  0.00000000000E+00  0.00000000000E+00  0.28993647010E+03  0.28993647010E+03  0.00000000000E+00 0. -1.
         -1   -1    0    0    0  501 -0.00000000000E+00 -0.00000000000E+00 -0.10242833681E+03  0.10242833681E+03  0.00000000000E+00 0.  1.
         23    2    1    2    0    0 -0.56452795228E+02  0.48062719199E+02 -0.27202077440E+02  0.14793448389E+03  0.12509082876E+03 0.  0.
          5    1    3    3  502    0 -0.80185484936E+02  0.26144492029E+02  0.23515623732E+02  0.87656736292E+02  0.41800000000E+01 0.  1.
         -5    1    3    3    0  502  0.23732689708E+02  0.21918227169E+02 -0.50717701172E+02  0.60277747596E+02  0.41800000000E+01 0.  1.
        -11    1    1    2    0    0  0.51538507265E+02 -0.71093324877E+01  0.42002102459E+02  0.66865065247E+02  0.00000000000E+00 0.  1.
         11    1    1    2    0    0  0.49142879626E+01 -0.40953386711E+02  0.17270810827E+03  0.17756525778E+03  0.00000000000E+00 0. -1.
</event>
<event>
 7    1  0.4394360E-006  0.1073582E+03  0.7561462E-02  0.1265542E+00
         -2   -1    0    0    0  501 -0.00000000000E+00  0.00000000000E+00  0.55261149169E+03  0.55261149169E+03  0.00000000000E+00 0.  1.
          2   -1    0    0  501    0  0.00000000000E+00 -0.00000000000E+00 -0.42374351722E+02  0.42374351722E+02  0.00000000000E+00 0. -1.
         23    2    1    2    0    0 -0.54317713490E+02  0.47384081248E+02  0.44057859858E+03  0.46142670369E+03  0.11665948825E+03 0.  0.
          5    1    3    3  502    0 -0.39585750101E+02 -0.27146261636E+02  0.27518240484E+03  0.27936853699E+03  0.41800000000E+01 0. -1.
         -5    1    3    3    0  502 -0.14731963390E+02  0.74530342884E+02  0.16539619374E+03  0.18205816669E+03  0.41800000000E+01 0.  1.
        -11    1    1    2    0    0  0.16887058833E+02  0.11672409300E+02  0.59454872722E+02  0.62899123883E+02  0.00000000000E+00 0.  1.
         11    1    1    2    0    0  0.37430654658E+02 -0.59056490548E+02  0.10203668667E+02  0.70660015838E+02  0.00000000000E+00 0. -1.
</event>
<event>
 7    1  0.4394360E-006  0.1105556E+03  0.7561462E-02  0.1259544E+00
         -2   -1    0    0    0  501 -0.00000000000E+00  0.00000000000E+00  0.14388628114E+03  0.14388628114E+03  0.00000000000E+00 0. -1.
          2   -1    0    0  501    0  0.00000000000E+00 -0.00000000000E+00 -0.23617536931E+03  0.23617536931E+03  0.00000000000E+00 0.  1.
         23    2    1    2    0    0  0.38231653250E+01  0.75368729136E+02  0.83578527280E+02  0.16830902879E+03  0.12508995573E+03 0.  0.
          5    1    3    3  502    0  0.83201396602E+01 -0.32751586608E+02  0.47867098361E+01  0.34384242617E+02  0.41800000000E+01 0. -1.
         -5    1    3    3    0  502 -0.44969743352E+01  0.10812031574E+03  0.78791817444E+02  0.13392478617E+03  0.41800000000E+01 0. -1.
        -11    1    1    2    0    0 -0.13186676185E+02 -0.50526939870E+02 -0.17762968158E+03  0.18514633094E+03  0.00000000000E+00 0.  1.
         11    1    1    2    0    0  0.93635108604E+01 -0.24841789266E+02  0.17620661263E+01  0.26606290734E+02  0.00000000000E+00 0. -1.
</event>
<event>
 7    1  0.4394360E-006  0.9076139E+02  0.7561462E-02  0.1301018E+00
         -2   -1    0    0    0  501 -0.00000000000E+00  0.00000000000E+00  0.69135862298E+03  0.69135862298E+03  0.00000000000E+00 0.  1.
          2   -1    0    0  501    0  0.00000000000E+00 -0.00000000000E+00 -0.25659956899E+02  0.25659956899E+02  0.00000000000E+00 0. -1.
         23    2    1    2    0    0  0.14060706699E+02  0.65938189451E+02  0.48094765958E+03  0.50150278421E+03  0.12509533570E+03 0.  0.
          5    1    3    3  502    0  0.13412402959E+02  0.76457965617E+02  0.13816870408E+03  0.15853635623E+03  0.41800000000E+01 0.  1.
         -5    1    3    3    0  502  0.64830373967E+00 -0.10519776166E+02  0.34277895550E+03  0.34296642798E+03  0.41800000000E+01 0.  1.
        -11    1    1    2    0    0 -0.96772888646E+01 -0.78524579989E+02  0.18600145346E+03  0.20212941466E+03  0.00000000000E+00 0.  1.
         11    1    1    2    0    0 -0.43834178343E+01  0.12586390538E+02 -0.12504469659E+01  0.13386381001E+02  0.00000000000E+00 0. -1.
</event>
<event>
 7    1  0.4394360E-006  0.1537900E+03  0.7561462E-02  0.1195892E+00
          2   -1    0    0  501    0  0.00000000000E+00  0.00000000000E+00  0.13381265485E+03  0.13381265485E+03  0.00000000000E+00 0. -1.
         -2   -1    0    0    0  501 -0.00000000000E+00 -0.00000000000E+00 -0.24557021834E+03  0.24557021834E+03  0.00000000000E+00 0.  1.
         23    2    1    2    0    0  0.76245523221E+02  0.10110542301E+03 -0.13055590608E+03  0.22074666511E+03  0.12509420119E+03 0.  0.
          5    1    3    3  502    0  0.99507020421E+02  0.77480205434E+02 -0.54071968538E+02  0.13728102392E+03  0.41800000000E+01 0.  1.
         -5    1    3    3    0  502 -0.23261497200E+02  0.23625217576E+02 -0.76483937543E+02  0.83465641192E+02  0.41800000000E+01 0.  1.
        -11    1    1    2    0    0 -0.54680846055E+02 -0.11580630815E+02 -0.19085801033E+02  0.59062456234E+02  0.00000000000E+00 0.  1.
         11    1    1    2    0    0 -0.21564677167E+02 -0.89524792195E+02  0.37884143626E+02  0.99573751848E+02  0.00000000000E+00 0. -1.
</event>
<event>
 7    1  0.4394360E-006  0.2262018E+03  0.7561462E-02  0.1129342E+00
          1   -1    0    0  501    0  0.00000000000E+00  0.00000000000E+00  0.63548089364E+03  0.63548089364E+03  0.00000000000E+00 0. -1.
         -1   -1    0    0    0  501 -0.00000000000E+00 -0.00000000000E+00 -0.86985238987E+02  0.86985238987E+02  0.00000000000E+00 0.  1.
         23    2    1    2    0    0 -0.20462759131E+03  0.12347487325E+02  0.22485866173E+03  0.32898811078E+03  0.12508736031E+03 0.  0.
          5    1    3    3  502    0 -0.79661693791E+02 -0.47448222324E+02  0.13493107079E+03  0.16377174825E+03  0.41800000000E+01 0.  1.
         -5    1    3    3    0  502 -0.12496589752E+03  0.59795709649E+02  0.89927590936E+02  0.16521636253E+03  0.41800000000E+01 0.  1.
        -11    1    1    2    0    0  0.16979176873E+03 -0.42373510916E+02  0.27930511662E+03  0.32959992009E+03  0.00000000000E+00 0. -1.
         11    1    1    2    0    0  0.34835822585E+02  0.30026023591E+02  0.44331876304E+02  0.63878101760E+02  0.00000000000E+00 0.  1.
</event>
<event>
 7    1  0.4394360E-006  0.1253134E+03  0.7561462E-02  0.1234580E+00
         -1   -1    0    0    0  501 -0.00000000000E+00  0.00000000000E+00  0.17972280966E+02  0.17972280966E+02  0.00000000000E+00 0.  1.
          1   -1    0    0  501    0  0.00000000000E+00 -0.00000000000E+00 -0.88471596077E+03  0.88471596077E+03  0.00000000000E+00 0. -1.
         23    2    1    2    0    0  0.47667092492E+02 -0.43144634879E+02 -0.49553572615E+03  0.51510835802E+03  0.12508938157E+03 0.  0.
          5    1    3    3  502    0  0.42358203801E+02  0.39066218326E+02 -0.18566128453E+03  0.19444272117E+03  0.41800000000E+01 0.  1.
         -5    1    3    3    0  502  0.53088886907E+01 -0.82210853204E+02 -0.30987444163E+03  0.32066563685E+03  0.41800000000E+01 0.  1.
        -11    1    1    2    0    0 -0.78457857865E+01  0.64638393435E+02 -0.24499483796E+03  0.25349980056E+03  0.00000000000E+00 0. -1.
         11    1    1    2    0    0 -0.39821306705E+02 -0.21493758556E+02 -0.12621311569E+03  0.13408008315E+03  0.00000000000E+00 0.  1.
</event>
<event>
 7    1  0.4394360E-006  0.1345693E+03  0.7561462E-02  0.1220829E+00
          2   -1    0    0  501    0  0.00000000000E+00  0.00000000000E+00  0.26197904866E+03  0.26197904866E+03  0.00000000000E+00 0. -1.
         -2   -1    0    0    0  501 -0.00000000000E+00 -0.00000000000E+00 -0.83396689254E+02  0.83396689254E+02  0.00000000000E+00 0.  1.
         23    2    1    2    0    0  0.27311402336E+02  0.94035432650E+02  0.74048948269E+02  0.17527247821E+03  0.12509444267E+03 0.  0.
          5    1    3    3  502    0  0.13617621516E+02 -0.30022148678E+02  0.22717336139E+02  0.40253183579E+02  0.41800000000E+01 0.  1.
         -5    1    3    3    0  502  0.13693780820E+02  0.12405758133E+03  0.51331612130E+02  0.13501929463E+03  0.41800000000E+01 0.  1.
        -11    1    1    2    0    0  0.85434296408E+01 -0.63087848120E+02  0.10103007818E+02  0.64460356324E+02  0.00000000000E+00 0.  1.
         11    1    1    2    0    0 -0.35854831977E+02 -0.30947584530E+02  0.94430403322E+02  0.10564290339E+03  0.00000000000E+00 0. -1.
</event>
<event>
 7    1  0.4394360E-006  0.7617499E+02  0.7561462E-02  0.1340271E+00
         -1   -1    0    0    0  501 -0.00000000000E+00  0.00000000000E+00  0.14629848676E+03  0.14629848676E+03  0.00000000000E+00 0.  1.
          1   -1    0    0  501    0  0.00000000000E+00 -0.00000000000E+00 -0.10146692959E+03  0.10146692959E+03  0.00000000000E+00 0. -1.
         23    2    1    2    0    0 -0.46734252366E+02  0.31229242074E+02  0.30488175512E+02  0.14048671585E+03  0.12509049756E+03 0.  0.
          5    1    3    3  502    0 -0.57208085878E+02  0.12469666628E+02 -0.37100698251E+02  0.69442003761E+02  0.41800000000E+01 0.  1.
         -5    1    3    3    0  502  0.10473833512E+02  0.18759575446E+02  0.67588873763E+02  0.71044712089E+02  0.41800000000E+01 0.  1.
        -11    1    1    2    0    0  0.44933889555E+02 -0.41600853607E+02 -0.25304550940E+02  0.66257118483E+02  0.00000000000E+00 0. -1.
         11    1    1    2    0    0  0.18003628107E+01  0.10371611533E+02  0.39647932602E+02  0.41021582023E+02  0.00000000000E+00 0.  1.
</event>
<event>
 7    1  0.4394360E-006  0.1203531E+03  0.7561462E-02  0.1242516E+00
          1   -1    0    0  501    0  0.00000000000E+00  0.00000000000E+00  0.10632818734E+03  0.10632818734E+03  0.00000000000E+00 0. -1.
         -1   -1    0    0    0  501 -0.00000000000E+00 -0.00000000000E+00 -0.14875137633E+03  0.14875137633E+03  0.00000000000E+00 0.  1.
         23    2    1    2    0    0  0.89874516023E+01  0.63544385304E+02 -0.17168517047E+02  0.14163758823E+03  0.12509110772E+03 0.  0.
          5    1    3    3  502    0  0.20211805909E+02 -0.34259780786E+02 -0.16049218121E+02  0.43096397528E+02  0.41800000000E+01 0. -1.
         -5    1    3    3    0  502 -0.11224354307E+02  0.97804166090E+02 -0.11192989260E+01  0.98541190699E+02  0.41800000000E+01 0. -1.
        -11    1    1    2    0    0 -0.77884010710E+01 -0.82657745683E+02 -0.16429243055E+01  0.83040118695E+02  0.00000000000E+00 0. -1.
         11    1    1    2    0    0 -0.11990505313E+01  0.19113360379E+02 -0.23611747633E+02  0.30401856743E+02  0.00000000000E+00 0.  1.
</event>
<event>
 7    1  0.4394360E-006  0.1416813E+03  0.7561462E-02  0.1211084E+00
          3   -1    0    0  501    0  0.00000000000E+00  0.00000000000E+00  0.32531852711E+03  0.32531852711E+03  0.00000000000E+00 0. -1.
         -3   -1    0    0    0  501 -0.00000000000E+00 -0.00000000000E+00 -0.96939947950E+02  0.96939947950E+02  0.00000000000E+00 0.  1.
         23    2    1    2    0    0 -0.84286668404E+02  0.84781079329E+02  0.32668405967E+02  0.17609511698E+03  0.12510072579E+03 0.  0.
          5    1    3    3  502    0 -0.46996904153E+02 -0.17370935825E+02  0.43826973781E+02  0.66698833889E+02  0.41800000000E+01 0.  1.
         -5    1    3    3    0  502 -0.37289764251E+02  0.10215201515E+03 -0.11158567813E+02  0.10939628309E+03  0.41800000000E+01 0.  1.
        -11    1    1    2    0    0  0.70453476244E+02 -0.48783752550E+02  0.18831583217E+03  0.20689707459E+03  0.00000000000E+00 0. -1.
         11    1    1    2    0    0  0.13833192160E+02 -0.35997326779E+02  0.73943410305E+01  0.39266283499E+02  0.00000000000E+00 0.  1.
</event>
<event>
 7    1  0.4394360E-006  0.1645059E+03  0.7561462E-02  0.1183702E+00
         -2   -1    0    0    0  501 -0.00000000000E+00  0.00000000000E+00  0.45634982568E+02  0.45634982568E+02  0.00000000000E+00 0.  1.
          2   -1    0    0  501    0  0.00000000000E+00 -0.00000000000E+00 -0.84670972098E+03  0.84670972098E+03  0.00000000000E+00 0. -1.
         23    2    1    2    0    0 -0.12282300977E+03 -0.60534862089E+02 -0.21548818932E+03  0.28430963370E+03  0.12508735676E+03 0.  0.
          5    1    3    3  502    0 -0.70288797949E+02  0.19026266221E+02 -0.36711178096E+02  0.81655966840E+02  0.41800000000E+01 0. -1.
         -5    1    3    3    0  502 -0.52534211820E+02 -0.79561128310E+02 -0.17877701122E+03  0.20265366686E+03  0.41800000000E+01 0. -1.
        -11    1    1    2    0    0  0.75120670808E+02 -0.96942677399E+01 -0.21839740717E+03  0.23115908260E+03  0.00000000000E+00 0.  1.
         11    1    1    2    0    0  0.47702338961E+02  0.70229129829E+02 -0.36718914193E+03  0.37687598726E+03  0.00000000000E+00 0. -1.
</event>
<event>
 7    1  0.4394360E-006  0.1499511E+03  0.7561462E-02  0.1200533E+00
          2   -1    0    0  501    0  0.00000000000E+00  0.00000000000E+00  0.41522996718E+03  0.41522996718E+03  0.00000000000E+00 0. -1.
         -2   -1    0    0    0  501 -0.00000000000E+00 -0.00000000000E+00 -0.59498824305E+02  0.59498824305E+02  0.00000000000E+00 0.  1.
         23    2    1    2    0    0  0.77343664403E+02  0.40687848262E+02  0.14579417691E+03  0.21104720361E+03  0.12508971466E+03 0.  0.
          5    1    3    3  502    0 -0.58000306525E+01  0.62125550157E+02  0.85996171033E+02  0.10632985550E+03  0.41800000000E+01 0.  1.
         -5    1    3    3    0  502  0.83143695055E+02 -0.21437701895E+02  0.59798005874E+02  0.10471734812E+03  0.41800000000E+01 0.  1.
        -11    1    1    2    0    0 -0.11147615735E+03 -0.27564249707E+02  0.11759920606E+03  0.16436634323E+03  0.00000000000E+00 0.  1.
         11    1    1    2    0    0  0.34132492950E+02 -0.13123598555E+02  0.92337759904E+02  0.99315244641E+02  0.00000000000E+00 0. -1.
</event>
<event>
 6    1  0.4394360E-006  0.1470148E+03  0.7561462E-02  0.1204190E+00
          2   -1    0    0  501    0  0.00000000000E+00  0.00000000000E+00  0.90110012686E+02  0.90110012686E+02  0.00000000000E+00 0. -1.
         -2   -1    0    0    0  501 -0.00000000000E+00 -0.00000000000E+00 -0.28176634968E+03  0.28176634968E+03  0.00000000000E+00 0.  1.
          5    1    1    2  502    0  0.26891557642E+02  0.35875214307E+02  0.11192668215E+02  0.46399731634E+02  0.41800000000E+01 0. -1.
         -5    1    1    2    0  502 -0.10499113233E+03 -0.67041531202E+02 -0.13510760453E+03  0.18381850281E+03  0.41800000000E+01 0.  1.
        -11    1    1    2    0    0  0.33679041056E+01  0.47701883033E+02 -0.28034370562E+02  0.55432286222E+02  0.00000000000E+00 0. -1.
         11    1    1    2    0    0  0.74731670587E+02 -0.16535566137E+02 -0.39707030123E+02  0.86225841703E+02  0.00000000000E+00 0.  1.
</event>
<event>
 7    1  0.4394360E-006  0.1009510E+03  0.7561462E-02  0.1278309E+00
         -4   -1    0    0    0  501 -0.00000000000E+00  0.00000000000E+00  0.54643243634E+03  0.54643243634E+03  0.00000000000E+00 0.  1.
          4   -1    0    0  501    0  0.00000000000E+00 -0.00000000000E+00 -0.31425468594E+02  0.31425468594E+02  0.00000000000E+00 0. -1.
         23    2    1    2    0    0  0.41979869461E+02 -0.41463988708E+02  0.37163683628E+03  0.39653992382E+03  0.12509357022E+03 0.  0.
          5    1    3    3  502    0  0.10590649454E+02 -0.68914359796E+02  0.10174260536E+03  0.12341142972E+03  0.41800000000E+01 0.  1.
         -5    1    3    3    0  502  0.31389220007E+02  0.27450371088E+02  0.26989423092E+03  0.27312849410E+03  0.41800000000E+01 0.  1.
        -11    1    1    2    0    0  0.11891024234E+02  0.33677081978E+02  0.11401105354E+03  0.11947410865E+03  0.00000000000E+00 0.  1.
         11    1    1    2    0    0 -0.53870893696E+02  0.77869067303E+01  0.29359077927E+02  0.61843872459E+02  0.00000000000E+00 0. -1.
</event>
<event>
 7    1  0.4394360E-006  0.8389180E+02  0.7561462E-02  0.1318356E+00
          1   -1    0    0  501    0  0.00000000000E+00  0.00000000000E+00  0.52270184122E+02  0.52270184122E+02  0.00000000000E+00 0. -1.
         -1   -1    0    0    0  501 -0.00000000000E+00 -0.00000000000E+00 -0.27988129996E+03  0.27988129996E+03  0.00000000000E+00 0.  1.
         23    2    1    2    0    0  0.55864423519E+01 -0.36895713627E+02 -0.18630500188E+03  0.22748781279E+03  0.12509456112E+03 0.  0.
          5    1    3    3  502    0 -0.40673173332E+02  0.25350975428E+02 -0.10249564974E+03  0.11322459803E+03  0.41800000000E+01 0.  1.
         -5    1    3    3    0  502  0.46259615684E+02 -0.62246689055E+02 -0.83809352141E+02  0.11426321476E+03  0.41800000000E+01 0.  1.
        -11    1    1    2    0    0 -0.12768541759E+02  0.21213471481E+02 -0.68288856814E+02  0.72638935812E+02  0.00000000000E+00 0.  1.
         11    1    1    2    0    0  0.71820994074E+01  0.15682242146E+02  0.26982742853E+02  0.32024735479E+02  0.00000000000E+00 0. -1.
</event>
<event>
 7    1  0.4394360E-006  0.1156759E+03  0.7561462E-02  0.1250406E+00
          3   -1    0    0  501    0  0.00000000000E+00  0.00000000000E+00  0.14294472566E+03  0.14294472566E+03  0.00000000000E+00 0. -1.
         -3   -1    0    0    0  501 -0.00000000000E+00 -0.00000000000E+00 -0.18513145840E+03  0.18513145840E+03  0.00000000000E+00 0.  1.
         23    2    1    2    0    0 -0.60684092966E+02 -0.33073608773E+02 -0.12242037163E+03  0.18817778987E+03  0.12509080891E+03 0.  0.
          5    1    3    3  502    0 -0.47281291546E+02 -0.72558098148E+02 -0.11743679275E+03  0.14597626803E+03  0.41800000000E+01 0. -1.
         -5    1    3    3    0  502 -0.13402801420E+02  0.39484489375E+02 -0.49835788811E+01  0.42201521840E+02  0.41800000000E+01 0. -1.
        -11    1    1    2    0    0  0.78972969749E+02  0.26269559635E+02  0.85872560328E+02  0.11958643874E+03  0.00000000000E+00 0.  1.
         11    1    1    2    0    0 -0.18288876784E+02  0.68040491374E+01 -0.56389214334E+01  0.20311955435E+02  0.00000000000E+00 0. -1.
</event>
<event>
 7    1  0.4394360E-006  0.1433001E+03  0.7561462E-02  0.1208956E+00
         -1   -1    0    0    0  501 -0.00000000000E+00  0.00000000000E+00  0.95512650502E+03  0.95512650502E+03  0.00000000000E+00 0.  1.
          1   -1    0    0  501    0  0.00000000000E+00 -0.00000000000E+00 -0.21717456394E+02  0.21717456394E+02  0.00000000000E+00 0. -1.
         23    2    1    2    0    0 -0.57210465422E+02  0.62504744026E+02  0.53695442325E+03  0.55780672125E+03  0.12509358598E+03 0.  0.
          5    1    3    3  502    0  0.73986977902E+01 -0.33902465085E+02  0.12165344693E+03  0.12657468712E+03  0.41800000000E+01 0.  1.
         -5    1    3    3    0  502 -0.64609163212E+02  0.96407209111E+02  0.41530097631E+03  0.43123203414E+03  0.41800000000E+01 0.  1.
        -11    1    1    2    0    0  0.87945261077E+02 -0.55508527043E+02  0.31323137525E+03  0.33004463329E+03  0.00000000000E+00 0.  1.
         11    1    1    2    0    0 -0.30734795655E+02 -0.69962169830E+01  0.83223250130E+02  0.88992606874E+02  0.00000000000E+00 0. -1.
</event>
<event>
 7    1  0.4394360E-006  0.2346450E+03  0.7561462E-02  0.1123412E+00
          1   -1    0    0  501    0  0.00000000000E+00  0.00000000000E+00  0.34768027675E+03  0.34768027675E+03  0.00000000000E+00 0. -1.
         -1   -1    0    0    0  501 -0.00000000000E+00 -0.00000000000E+00 -0.34014336267E+03  0.34014336267E+03  0.00000000000E+00 0.  1.
         23    2    1    2    0    0 -0.20319438808E+03  0.76488518570E+02 -0.23950348214E+03  0.34662366165E+03  0.12509033550E+03 0.  0.
          5    1    3    3  502    0 -0.11591862403E+03  0.88292074335E+02 -0.85035373903E+02  0.16876345873E+03  0.41800000000E+01 0. -1.
         -5    1    3    3    0  502 -0.87275764056E+02 -0.11803555766E+02 -0.15446810824E+03  0.17786020292E+03  0.41800000000E+01 0. -1.
        -11    1    1    2    0    0  0.55076977489E+02 -0.67271953327E+02  0.91792236931E+02  0.12643102434E+03  0.00000000000E+00 0.  1.
         11    1    1    2    0    0  0.14811741059E+03 -0.92165652429E+01  0.15524815929E+03  0.21476895343E+03  0.00000000000E+00 0. -1.
</event>
<event>
 7    1  0.4394360E-006  0.1238167E+03  0.7561462E-02  0.1236930E+00
          1   -1    0    0  501    0  0.00000000000E+00  0.00000000000E+00  0.34380364489E+03  0.34380364489E+03  0.00000000000E+00 0. -1.
         -1   -1    0    0    0  501 -0.00000000000E+00 -0.00000000000E+00 -0.53176801987E+02  0.53176801987E+02  0.00000000000E+00 0.  1.
         23    2    1    2    0    0  0.13669297522E+02  0.60117953270E+02  0.84620690986E+02  0.16310956208E+03  0.12507217876E+03 0.  0.
          5    1    3    3  502    0  0.57196709697E+02 -0.65061882758E+01  0.49439810462E+02  0.75997114054E+02  0.41800000000E+01 0. -1.
         -5    1    3    3    0  502 -0.43527412175E+02  0.66624141546E+02  0.35180880524E+02  0.87112448030E+02  0.41800000000E+01 0. -1.
        -11    1    1    2    0    0  0.30323077432E+02 -0.58861965120E+02  0.13431194898E+03  0.14974618393E+03  0.00000000000E+00 0. -1.
         11    1    1    2    0    0 -0.43992374954E+02 -0.12559881505E+01  0.71694202935E+02  0.84124700860E+02  0.00000000000E+00 0.  1.
</event>
<event>
 7    1  0.4394360E-006  0.1797741E+03  0.7561462E-02  0.1168022E+00
          1   -1    0    0  501    0  0.00000000000E+00  0.00000000000E+00  0.39485410437E+03  0.39485410437E+03  0.00000000000E+00 0. -1.
         -1   -1    0    0    0  501 -0.00000000000E+00 -0.00000000000E+00 -0.96174982219E+02  0.96174982219E+02  0.00000000000E+00 0.  1.
         23    2    1    2    0    0 -0.12728136065E+03  0.91886041815E+02  0.10891066353E+03  0.22836950811E+03  0.12509000822E+03 0.  0.
          5    1    3    3  502    0 -0.10717603714E+03  0.11983032713E+03  0.10792304002E+03  0.19367721912E+03  0.41800000000E+01 0.  1.
         -5    1    3    3    0  502 -0.20105323510E+02 -0.27944285319E+02  0.98762350863E+00  0.34692288994E+02  0.41800000000E+01 0.  1.
        -11    1    1    2    0    0  0.32719125875E+02 -0.76472166364E+00  0.10472667841E+01  0.32744812794E+02  0.00000000000E+00 0.  1.
         11    1    1    2    0    0  0.94562234771E+02 -0.91121320151E+02  0.18872119184E+03  0.22991476569E+03  0.00000000000E+00 0. -1.
</event>
<event>
 7    1  0.4394360E-006  0.8888276E+02  0.7561462E-02  0.1305580E+00
          2   -1    0    0  501    0  0.00000000000E+00  0.00000000000E+00  0.45222038644E+02  0.45222038644E+02  0.00000000000E+00 0. -1.
         -2   -1    0    0    0  501 -0.00000000000E+00 -0.00000000000E+00 -0.31398996816E+03  0.31398996816E+03  0.00000000000E+00 0.  1.
         23    2    1    2    0    0 -0.25117352632E+01 -0.48141719322E+02 -0.17080355288E+03  0.21712768033E+03  0.12508653780E+03 0.  0.
          5    1    3    3  502    0 -0.34960038989E+02 -0.36013970634E+02 -0.84528777959E+01  0.51069892794E+02  0.41800000000E+01 0.  1.
         -5    1    3    3    0  502  0.32448303725E+02 -0.12127748687E+02 -0.16235067508E+03  0.16605778754E+03  0.41800000000E+01 0.  1.
        -11    1    1    2    0    0  0.40743526166E+02  0.23819058481E+02 -0.80909335838E+02  0.93668047365E+02  0.00000000000E+00 0.  1.
         11    1    1    2    0    0 -0.38231790903E+02  0.24322660841E+02 -0.17055040805E+02  0.48416279110E+02  0.00000000000E+00 0. -1.
</event>
<event>
 7    1  0.4394360E-006  0.9120215E+02  0.7561462E-02  0.1299966E+00
          3   -1    0    0  501    0  0.00000000000E+00  0.00000000000E+00  0.47650402996E+02  0.47650402996E+02  0.00000000000E+00 0. -1.
         -3   -1    0    0    0  501 -0.00000000000E+00 -0.00000000000E+00 -0.41495618664E+03  0.41495618664E+03  0.00000000000E+00 0.  1.
         23    2    1    2    0    0 -0.44690634829E+02 -0.30404174326E+02 -0.31945544494E+03  0.34730486755E+03  0.12508886067E+03 0.  0.
          5    1    3    3  502    0  0.15011164359E+02 -0.35401795971E+02 -0.23372583351E+02  0.45192612957E+02  0.41800000000E+01 0. -1.
         -5    1    3    3    0  502 -0.59701799187E+02  0.49976216449E+01 -0.29608286159E+03  0.30211225459E+03  0.41800000000E+01 0. -1.
        -11    1    1    2    0    0  0.53910174014E+02  0.21551598074E+01 -0.62169282367E+02  0.82316287854E+02  0.00000000000E+00 0.  1.
         11    1    1    2    0    0 -0.92195391853E+01  0.28249014519E+02  0.14318943660E+02  0.32985434234E+02  0.00000000000E+00 0. -1.
</event>
<event>
 7    1  0.4394360E-006  0.9124220E+02  0.7561462E-02  0.1299871E+00
          1   -1    0    0  501    0  0.00000000000E+00  0.00000000000E+00  0.42728483397E+03  0.42728483397E+03  0.00000000000E+00 0. -1.
         -1   -1    0    0    0  501 -0.00000000000E+00 -0.00000000000E+00 -0.40125885368E+02  0.40125885368E+02  0.00000000000E+00 0.  1.
         23    2    1    2    0    0 -0.62689936203E+02  0.23836923690E+02  0.16931025805E+03  0.22093462687E+03  0.12509164175E+03 0.  0.
          5    1    3    3  502    0 -0.84834306081E+02  0.43359920984E+01  0.17110819201E+03  0.19107890017E+03  0.41800000000E+01 0. -1.
         -5    1    3    3    0  502  0.22144369878E+02  0.19500931591E+02 -0.17979339586E+01  0.29855726700E+02  0.41800000000E+01 0. -1.
        -11    1    1    2    0    0  0.51141142526E+02 -0.15661874435E+02  0.22454142185E+03  0.23082365758E+03  0.00000000000E+00 0. -1.
         11    1    1    2    0    0  0.11548793677E+02 -0.81750492549E+01 -0.66927313050E+01  0.15652434891E+02  0.00000000000E+00 0.  1.
</event>
<event>
 7    1  0.4394360E-006  0.2539078E+03  0.7561462E-02  0.1110860E+00
          2   -1    0    0  501    0  0.00000000000E+00  0.00000000000E+00  0.81657583067E+03  0.81657583067E+03  0.00000000000E+00 0. -1.
         -2   -1    0    0    0  501 -0.00000000000E+00 -0.00000000000E+00 -0.85482968687E+02  0.85482968687E+02  0.00000000000E+00 0.  1.
         23    2    1    2    0    0  0.19430588267E+02  0.23380949673E+03  0.28281907066E+03  0.38819079785E+03  0.12514407808E+03 0.  0.
          5    1    3    3  502    0 -0.53196724422E+02  0.90446936296E+02  0.11763566289E+03  0.15769008009E+03  0.41800000000E+01 0. -1.
         -5    1    3    3    0  502  0.72627312689E+02  0.14336256044E+03  0.16518340777E+03  0.23050071775E+03  0.41800000000E+01 0. -1.
        -11    1    1    2    0    0 -0.32514399503E+02 -0.64584108090E+02  0.20383402741E+03  0.21627899557E+03  0.00000000000E+00 0. -1.
         11    1    1    2    0    0  0.13083811236E+02 -0.16922538864E+03  0.24443976392E+03  0.29758900595E+03  0.00000000000E+00 0.  1.
</event>
<event>
 7    1  0.4394360E-006  0.1401537E+03  0.7561462E-02  0.1213122E+00
         -1   -1    0    0    0  501 -0.00000000000E+00  0.00000000000E+00  0.49969529985E+03  0.49969529985E+03  0.00000000000E+00 0.  1.
          1   -1    0    0  501    0  0.00000000000E+00 -0.00000000000E+00 -0.57915710435E+02  0.57915710435E+02  0.00000000000E+00 0. -1.
         23    2    1    2    0    0  0.11148839441E+03 -0.20340934098E+02  0.31644689541E+03  0.35866310502E+03  0.12512861223E+03 0.  0.
          5    1    3    3  502    0  0.77458381410E+02  0.35528208033E+02  0.25469813786E+03  0.26860876428E+03  0.41800000000E+01 0.  1.
         -5    1    3    3    0  502  0.34030012999E+02 -0.55869142131E+02  0.61748757542E+02  0.90054340735E+02  0.41800000000E+01 0.  1.
        -11    1    1    2    0    0  0.24401263577E+00 -0.12870481039E+02  0.67703034140E+02  0.68915960822E+02  0.00000000000E+00 0.  1.
         11    1    1    2    0    0 -0.11173240704E+03  0.33211415137E+02  0.57629659865E+02  0.13003194444E+03  0.00000000000E+00 0. -1.
</event>
<event>
 7    1  0.4394360E-006  0.1097805E+03  0.7561462E-02  0.1260977E+00
          1   -1    0    0  501    0  0.00000000000E+00  0.00000000000E+00  0.99234438531E+02  0.99234438531E+02  0.00000000000E+00 0. -1.
         -1   -1    0    0    0  501 -0.00000000000E+00 -0.00000000000E+00 -0.13482456277E+03  0.13482456277E+03  0.00000000000E+00 0.  1.
         23    2    1    2    0    0  0.14704200787E+02 -0.18764635711E+02 -0.53799311551E+02  0.13824448814E+03  0.12509535365E+03 0.  0.
          5    1    3    3  502    0 -0.20737878254E+02 -0.64297734982E+02 -0.17382770967E+02  0.69884844171E+02  0.41800000000E+01 0. -1.
         -5    1    3    3    0  502  0.35442079041E+02  0.45533099271E+02 -0.36416540583E+02  0.68359643972E+02  0.41800000000E+01 0. -1.
        -11    1    1    2    0    0  0.38031807482E+02 -0.40296865906E-01  0.88692821351E+01  0.39052326048E+02  0.00000000000E+00 0. -1.
         11    1    1    2    0    0 -0.52736008268E+02  0.18804932577E+02  0.93399051731E+01  0.56762187114E+02  0.00000000000E+00 0.  1.
</event>
<event>
 7    1  0.4394360E-006  0.1318058E+03  0.7561462E-02  0.1224801E+00
         -1   -1    0    0    0  501 -0.00000000000E+00  0.00000000000E+00  0.33488671526E+03  0.33488671526E+03  0.00000000000E+00 0.  1.
          1   -1    0    0  501    0  0.00000000000E+00 -0.00000000000E+00 -0.11794782098E+03  0.11794782098E+03  0.00000000000E+00 0. -1.
         23    2    1    2    0    0 -0.83357163320E+02 -0.59829746784E+02  0.26215385821E+03  0.30804981084E+03  0.12506808270E+03 0.  0.
          5    1    3    3  502    0 -0.85386763993E+01 -0.49831820480E+02  0.21040767480E+03  0.21643701472E+03  0.41800000000E+01 0. -1.
         -5    1    3    3    0  502 -0.74818486921E+02 -0.99979263036E+01  0.51746183408E+02  0.91612796119E+02  0.41800000000E+01 0. -1.
        -11    1    1    2    0    0  0.26835475339E+01 -0.22122350807E+02 -0.10694881318E+02  0.24718016082E+02  0.00000000000E+00 0. -1.
         11    1    1    2    0    0  0.80673615786E+02  0.81952097591E+02 -0.34520082614E+02  0.12006670932E+03  0.00000000000E+00 0.  1.
</event>
<event>
 7    1  0.4394360E-006  0.1036948E+03  0.7561462E-02  0.1272713E+00
          1   -1    0    0  501    0  0.00000000000E+00  0.00000000000E+00  0.74725585899E+02  0.74725585899E+02  0.00000000000E+00 0. -1.
         -1   -1    0    0    0  501 -0.00000000000E+00 -0.00000000000E+00 -0.29523522310E+03  0.29523522310E+03  0.00000000000E+00 0.  1.
         23    2    1    2    0    0 -0.18150363724E+02  0.15559532425E+02 -0.24055400979E+03  0.27218566324E+03  0.12508904386E+03 0.  0.
          5    1    3    3  502    0 -0.34404052206E+01 -0.48432414234E+02 -0.16477071947E+03  0.17182664965E+03  0.41800000000E+01 0. -1.
         -5    1    3    3    0  502 -0.14709958503E+02  0.63991946658E+02 -0.75783290321E+02  0.10035901359E+03  0.41800000000E+01 0. -1.
        -11    1    1    2    0    0 -0.29299284834E+02  0.18322604196E+02  0.19054295949E+02  0.39461780375E+02  0.00000000000E+00 0. -1.
         11    1    1    2    0    0  0.47449648558E+02 -0.33882136620E+02  0.99007664372E+00  0.58313365380E+02  0.00000000000E+00 0.  1.
</event>
<event>
 7    1  0.4394360E-006  0.2321684E+03  0.7561462E-02  0.1125123E+00
         -4   -1    0    0    0  501 -0.00000000000E+00  0.00000000000E+00  0.19857984857E+03  0.19857984857E+03  0.00000000000E+00 0.  1.
          4   -1    0    0  501    0  0.00000000000E+00 -0.00000000000E+00 -0.29720036176E+03  0.29720036176E+03  0.00000000000E+00 0. -1.
         23    2    1    2    0    0 -0.99735216300E+02 -0.17932109823E+03  0.21455943981E+02  0.24127030793E+03  0.12509130392E+03 0.  0.
          5    1    3    3  502    0 -0.12939235789E+03 -0.14640982658E+03  0.22719162316E+02  0.19675327783E+03  0.41800000000E+01 0. -1.
         -5    1    3    3    0  502  0.29657141588E+02 -0.32911271646E+02 -0.12632183354E+01  0.44517030102E+02  0.41800000000E+01 0. -1.
        -11    1    1    2    0    0  0.25199375771E+02 -0.49006302604E+01 -0.13320605342E+02  0.28921674275E+02  0.00000000000E+00 0.  1.
         11    1    1    2    0    0  0.74535840529E+02  0.18422172849E+03 -0.10675585183E+03  0.22558822813E+03  0.00000000000E+00 0. -1.
</event>
<event>
 7    1  0.4394360E-006  0.1080113E+03  0.7561462E-02  0.1264298E+00
         -2   -1    0    0    0  501 -0.00000000000E+00  0.00000000000E+00  0.90784755104E+02  0.90784755104E+02  0.00000000000E+00 0.  1.
          2   -1    0    0  501    0  0.00000000000E+00 -0.00000000000E+00 -0.31350993913E+03  0.31350993913E+03  0.00000000000E+00 0. -1.
         23    2    1    2    0    0  0.79732305131E+02  0.82977496300E+00  0.31153893470E+01  0.14837366869E+03  0.12508841234E+03 0.  0.
          5    1    3    3  502    0  0.53603730435E+02  0.25461752915E+02 -0.54286357527E+02  0.80536586665E+02  0.41800000000E+01 0. -1.
         -5    1    3    3    0  502  0.26128574697E+02 -0.24631977952E+02  0.57401746874E+02  0.67837082025E+02  0.41800000000E+01 0. -1.
        -11    1    1    2    0    0 -0.31821909311E+01 -0.35998200121E+02 -0.68090078384E+02  0.77086026785E+02  0.00000000000E+00 0. -1.
         11    1    1    2    0    0 -0.76550114200E+02  0.35168425158E+02 -0.15775049499E+03  0.17883499876E+03  0.00000000000E+00 0.  1.
</event>
<event>
 7    1  0.4394360E-006  0.8067980E+02  0.7561462E-02  0.1327133E+00
         -1   -1    0    0    0  501 -0.00000000000E+00  0.00000000000E+00  0.86426754583E+02  0.86426754583E+02  0.00000000000E+00 0.  1.
          1   -1    0    0  501    0  0.00000000000E+00 -0.00000000000E+00 -0.16014066753E+03  0.16014066753E+03  0.00000000000E+00 0. -1.
         23    2    1    2    0    0 -0.24656474934E+02 -0.31295304177E+02 -0.18732643682E+02  0.13260367558E+03  0.12508191324E+03 0.  0.
          5    1    3    3  502    0 -0.75629132760E+01  0.22562696555E+02  0.42681254680E+02  0.49045232532E+02  0.41800000000E+01 0. -1.
         -5    1    3    3    0  502 -0.17093561658E+02 -0.53858000733E+02 -0.61413898361E+02  0.83558443050E+02  0.41800000000E+01 0. -1.
        -11    1    1    2    0    0  0.49259755652E+02  0.24490372393E+02 -0.18783433033E+01  0.55043891945E+02  0.00000000000E+00 0.  1.
         11    1    1    2    0    0 -0.24603280719E+02  0.68049317846E+01 -0.53102925961E+02  0.58919854585E+02  0.00000000000E+00 0. -1.
</event>
<event>
 7    1  0.4394360E-006  0.9661884E+02  0.7561462E-02  0.1287571E+00
         -3   -1    0    0    0  501 -0.00000000000E+00  0.00000000000E+00  0.24684999584E+03  0.24684999584E+03  0.00000000000E+00 0.  1.
          3   -1    0    0  501    0  0.00000000000E+00 -0.00000000000E+00 -0.50856221616E+02  0.50856221616E+02  0.00000000000E+00 0. -1.
         23    2    1    2    0    0  0.59581839213E+01 -0.18984457881E+01  0.13912891067E+03  0.18719643422E+03  0.12508615889E+03 0.  0.
          5    1    3    3  502    0 -0.20499033575E+02 -0.55862455608E+02  0.42196842788E+02  0.73067573282E+02  0.41800000000E+01 0.  1.
         -5    1    3    3    0  502  0.26457217496E+02  0.53964009820E+02  0.96932067885E+02  0.11412886093E+03  0.41800000000E+01 0.  1.
        -11    1    1    2    0    0 -0.34546378437E+02  0.19596354840E+02  0.64762870772E+02  0.75971697472E+02  0.00000000000E+00 0.  1.
         11    1    1    2    0    0  0.28588194516E+02 -0.17697909052E+02 -0.78980072197E+01  0.34538085769E+02  0.00000000000E+00 0. -1.
</event>
<event>
 7    1  0.4394360E-006  0.1316977E+03  0.7561462E-02  0.1224958E+00
         -2   -1    0    0    0  501 -0.00000000000E+00  0.00000000000E+00  0.48098328604E+02  0.48098328604E+02  0.00000000000E+00 0. -1.
          2   -1    0    0  501    0  0.00000000000E+00 -0.00000000000E+00 -0.38882976237E+03  0.38882976237E+03  0.00000000000E+00 0.  1.
         23    2    1    2    0    0  0.96943518050E+01 -0.84031323728E+02 -0.20044636493E+03  0.25098488863E+03  0.12513762537E+03 0.  0.
          5    1    3    3  502    0  0.40236517977E+02  0.10855269450E+02 -0.10444005262E+03  0.11252560262E+03  0.41800000000E+01 0.  1.
         -5    1    3    3    0  502 -0.30542166172E+02 -0.94886593177E+02 -0.96006312308E+02  0.13845928601E+03  0.41800000000E+01 0.  1.
        -11    1    1    2    0    0 -0.34139076968E+02 -0.92433113982E-01 -0.33611707584E+02  0.47908579678E+02  0.00000000000E+00 0.  1.
         11    1    1    2    0    0  0.24444725163E+02  0.84123756842E+02 -0.10667336125E+03  0.13803462267E+03  0.00000000000E+00 0. -1.
</event>
<event>
 6    1  0.4394360E-006  0.1131675E+03  0.7561462E-02  0.1254814E+00
         -4   -1    0    0    0  501 -0.00000000000E+00  0.00000000000E+00  0.27873318478E+03  0.27873318478E+03  0.00000000000E+00 0.  1.
          4   -1    0    0  501    0  0.00000000000E+00 -0.00000000000E+00 -0.63888689088E+02  0.63888689088E+02  0.00000000000E+00 0. -1.
          5    1    1    2  502    0 -0.52326368087E+02 -0.43709715780E+01 -0.50377045349E+01  0.52915074002E+02  0.41800000000E+01 0. -1.
         -5    1    1    2    0  502  0.28798913192E+02  0.58735736508E+02  0.14054891433E+03  0.15508299025E+03  0.41800000000E+01 0.  1.
        -11    1    1    2    0    0  0.58282702648E+02 -0.29104137778E+02  0.54923042813E+02  0.85208361653E+02  0.00000000000E+00 0.  1.
         11    1    1    2    0    0 -0.34755247753E+02 -0.25260627152E+02  0.24410243087E+02  0.49415447970E+02  0.00000000000E+00 0. -1.
</event>
<event>
 6    1  0.4394360E-006  0.1149101E+03  0.7561462E-02  0.1251738E+00
         -2   -1    0    0    0  501 -0.00000000000E+00  0.00000000000E+00  0.79034969507E+02  0.79034969507E+02  0.00000000000E+00 0.  1.
          2   -1    0    0  501    0  0.00000000000E+00 -0.00000000000E+00 -0.18555368368E+03  0.18555368368E+03  0.00000000000E+00 0. -1.
          5    1    1    2  502    0 -0.56049917395E+02 -0.13409972777E+02 -0.36625877543E+02  0.68413068310E+02  0.41800000000E+01 0. -1.
         -5    1    1    2    0  502  0.78652533517E+02  0.57750906578E+01 -0.66177709129E+02  0.10303656771E+03  0.41800000000E+01 0.  1.
        -11    1    1    2    0    0 -0.44711136444E+02 -0.26809458202E+02 -0.17189056763E+01  0.52161167624E+02  0.00000000000E+00 0. -1.
         11    1    1    2    0    0  0.22108520322E+02  0.34444340321E+02 -0.19962218221E+01  0.40977849535E+02  0.00000000000E+00 0.  1.
</event>
<event>
 7    1  0.4394360E-006  0.1046827E+03  0.7561462E-02  0.1270746E+00
          1   -1    0    0  501    0  0.00000000000E+00  0.00000000000E+00  0.26540658567E+02  0.26540658567E+02  0.00000000000E+00 0. -1.
         -1   -1    0    0    0  501 -0.00000000000E+00 -0.00000000000E+00 -0.45758293663E+03  0.45758293663E+03  0.00000000000E+00 0.  1.
         23    2    1    2    0    0  0.25179023374E+02  0.22406400661E+01 -0.30081554314E+03  0.32676756331E+03  0.12509214902E+03 0.  0.
          5    1    3    3  502    0  0.16340724389E+02  0.61361265134E+02 -0.19551067866E+03  0.20560671682E+03  0.41800000000E+01 0.  1.
         -5    1    3    3    0  502  0.88382989848E+01 -0.59120625068E+02 -0.10530486449E+03  0.12116084649E+03  0.41800000000E+01 0.  1.
        -11    1    1    2    0    0 -0.54164708569E+02  0.86292717465E+01 -0.64244456528E+02  0.84472659363E+02  0.00000000000E+00 0. -1.
         11    1    1    2    0    0  0.28985685195E+02 -0.10869911813E+02 -0.65982278390E+02  0.72883372525E+02  0.00000000000E+00 0.  1.
</event>
<event>
 7    1  0.4394360E-006  0.4540496E+03  0.7561462E-02  0.1026521E+00
          2   -1    0    0  501    0  0.00000000000E+00  0.00000000000E+00  0.28219978437E+04  0.28219978437E+04  0.00000000000E+00 0.  1.
         -2   -1    0    0    0  501 -0.00000000000E+00 -0.00000000000E+00 -0.90977149176E+02  0.90977149176E+02  0.00000000000E+00 0. -1.
         23    2    1    2    0    0 -0.20395710043E+03  0.39760319340E+03  0.76508373660E+03  0.89481669619E+03  0.12512792477E+03 0.  0.
          5    1    3    3  502    0 -0.71883324464E+02  0.77605298199E+02  0.10312799488E+03  0.14779259242E+03  0.41800000000E+01 0. -1.
         -5    1    3    3    0  502 -0.13207377597E+03  0.31999789520E+03  0.66195574172E+03  0.74702410378E+03  0.41800000000E+01 0. -1.
        -11    1    1    2    0    0  0.62351959379E+02 -0.22119582340E+03  0.10121724014E+04  0.10379346460E+04  0.00000000000E+00 0.  1.
         11    1    1    2    0    0  0.14160514105E+03 -0.17640737000E+03  0.95376455650E+03  0.98022365070E+03  0.00000000000E+00 0. -1.
</event>
<event>
 7    1  0.4394360E-006  0.1847973E+03  0.7561462E-02  0.1163239E+00
          1   -1    0    0  501    0  0.00000000000E+00  0.00000000000E+00  0.43781406706E+03  0.43781406706E+03  0.00000000000E+00 0. -1.
         -1   -1    0    0    0  501 -0.00000000000E+00 -0.00000000000E+00 -0.19641886457E+03  0.19641886457E+03  0.00000000000E+00 0.  1.
         23    2    1    2    0    0 -0.12370741269E+03 -0.12989271977E+03 -0.98374795800E+02  0.23979201875E+03  0.12508784595E+03 0.  0.
          5    1    3    3  502    0 -0.41328167450E+02 -0.87847470831E+02 -0.10966480295E+03  0.14652316186E+03  0.41800000000E+01 0.  1.
         -5    1    3    3    0  502 -0.82379245239E+02 -0.42045248943E+02  0.11290007148E+02  0.93268856894E+02  0.41800000000E+01 0.  1.
        -11    1    1    2    0    0  0.92093648965E+02  0.88214462203E+02  0.14656367472E+03  0.19427800253E+03  0.00000000000E+00 0.  1.
         11    1    1    2    0    0  0.31613763724E+02  0.41678257571E+02  0.19320632357E+03  0.20016291035E+03  0.00000000000E+00 0. -1.
</event>
<event>
 7    1  0.4394360E-006  0.1029646E+03  0.7561462E-02  0.1274183E+00
         -2   -1    0    0    0  501 -0.00000000000E+00  0.00000000000E+00  0.20726084529E+02  0.20726084529E+02  0.00000000000E+00 0. -1.
          2   -1    0    0  501    0  0.00000000000E+00 -0.00000000000E+00 -0.65576625417E+03  0.65576625417E+03  0.00000000000E+00 0.  1.
         23    2    1    2    0    0 -0.38944321863E+02 -0.88147211514E-01 -0.29536100910E+03  0.32311475141E+03  0.12509336076E+03 0.  0.
          5    1    3    3  502    0 -0.67758774434E+02 -0.22860063848E+02 -0.26722934385E+03  0.27666374653E+03  0.41800000000E+01 0.  1.
         -5    1    3    3    0  502  0.28814452571E+02  0.22771916636E+02 -0.28131665254E+02  0.46451004879E+02  0.41800000000E+01 0.  1.
        -11    1    1    2    0    0  0.74057990624E+01 -0.43168498321E+02 -0.16099532843E+03  0.16684681862E+03  0.00000000000E+00 0. -1.
         11    1    1    2    0    0  0.31538522800E+02  0.43256645533E+02 -0.17868383211E+03  0.18653076867E+03  0.00000000000E+00 0.  1.
</event>
<event>
 7    1  0.4394360E-006  0.9762842E+02  0.7561462E-02  0.1285364E+00
         -2   -1    0    0    0  501 -0.00000000000E+00  0.00000000000E+00  0.52287112978E+02  0.52287112978E+02  0.00000000000E+00 0.  1.
          2   -1    0    0  501    0  0.00000000000E+00 -0.00000000000E+00 -0.31133779141E+03  0.31133779141E+03  0.00000000000E+00 0. -1.
         23    2    1    2    0    0 -0.50151583359E+02 -0.25430787864E+02 -0.91274048941E+02  0.16473768364E+03  0.12508255720E+03 0.  0.
          5    1    3    3  502    0 -0.26079339389E+02  0.22553727797E+02  0.20740415046E+02  0.40452933105E+02  0.41800000000E+01 0. -1.
         -5    1    3    3    0  502 -0.24072243970E+02 -0.47984515661E+02 -0.11201446399E+03  0.12428475053E+03  0.41800000000E+01 0. -1.
        -11    1    1    2    0    0 -0.10944842283E+01 -0.30673424889E+02 -0.52718344012E+02  0.61002300657E+02  0.00000000000E+00 0. -1.
         11    1    1    2    0    0  0.51246067587E+02  0.56104212753E+02 -0.11505828548E+03  0.13788492010E+03  0.00000000000E+00 0.  1.
</event>
<event>
 6    1  0.4394360E-006  0.1146059E+03  0.7561462E-02  0.1252271E+00
          2   -1    0    0  501    0  0.00000000000E+00  0.00000000000E+00  0.81395506423E+02  0.81395506423E+02  0.00000000000E+00 0. -1.
         -2   -1    0    0    0  501 -0.00000000000E+00 -0.00000000000E+00 -0.20859632221E+03  0.20859632221E+03  0.00000000000E+00 0.  1.
          5    1    1    2  502    0  0.63280611930E+01 -0.65838462244E+02  0.19221170052E+02  0.69004878431E+02  0.41800000000E+01 0. -1.
         -5    1    1    2    0  502 -0.23843041259E+02  0.65593513085E+02 -0.82048841637E+02  0.10779835059E+03  0.41800000000E+01 0.  1.
        -11    1    1    2    0    0 -0.36855218119E+02  0.90289522112E+01 -0.23956488995E+02  0.44874741733E+02  0.00000000000E+00 0.  1.
         11    1    1    2    0    0  0.54370198185E+02 -0.87840030520E+01 -0.40416655205E+02  0.68313857879E+02  0.00000000000E+00 0. -1.
</event>
<event>
 7    1  0.4394360E-006  0.1739399E+03  0.7561462E-02  0.1173800E+00
         -1   -1    0    0    0  501 -0.00000000000E+00  0.00000000000E+00  0.59004404198E+03  0.59004404198E+03  0.00000000000E+00 0.  1.
          1   -1    0    0  501    0  0.00000000000E+00 -0.00000000000E+00 -0.71114585990E+02  0.71114585990E+02  0.00000000000E+00 0. -1.
         23    2    1    2    0    0 -0.65903112383E+02  0.13972871233E+03  0.39855455020E+03  0.44532981401E+03  0.12492229780E+03 0.  0.
          5    1    3    3  502    0 -0.81490961989E+02  0.10120196659E+03  0.17553442951E+03  0.21843173595E+03  0.41800000000E+01 0.  1.
         -5    1    3    3    0  502  0.15587849606E+02  0.38526745739E+02  0.22302012069E+03  0.22689807806E+03  0.41800000000E+01 0.  1.
        -11    1    1    2    0    0  0.31153668359E+02  0.98385354762E+00  0.37885143003E+02  0.49059179369E+02  0.00000000000E+00 0.  1.
         11    1    1    2    0    0  0.34749444024E+02 -0.14071256588E+03  0.82489762784E+02  0.16676963459E+03  0.00000000000E+00 0. -1.
</event>
<event>
 7    1  0.4394360E-006  0.1789793E+03  0.7561462E-02  0.1168795E+00
         -1   -1    0    0    0  501 -0.00000000000E+00  0.00000000000E+00  0.85277952498E+02  0.85277952498E+02  0.00000000000E+00 0.  1.
          1   -1    0    0  501    0  0.00000000000E+00 -0.00000000000E+00 -0.39412215454E+03  0.39412215454E+03  0.00000000000E+00 0. -1.
         23    2    1    2    0    0 -0.13965723965E+03  0.36899808476E+02 -0.12027145850E+03  0.22579672342E+03  0.12511273366E+03 0.  0.
          5    1    3    3  502    0 -0.15053224040E+03  0.60347020876E+02 -0.89102795201E+02  0.18509051526E+03  0.41800000000E+01 0.  1.
         -5    1    3    3    0  502  0.10875000746E+02 -0.23447212400E+02 -0.31168663303E+02  0.40706208159E+02  0.41800000000E+01 0.  1.
        -11    1    1    2    0    0  0.26718832267E+02 -0.49150667664E+02 -0.60047175454E+02  0.82069162354E+02  0.00000000000E+00 0.  1.
         11    1    1    2    0    0  0.11293840738E+03  0.12250859188E+02 -0.12852556808E+03  0.17153422126E+03  0.00000000000E+00 0. -1.
</event>
<event>
 7    1  0.4394360E-006  0.1365801E+03  0.7561462E-02  0.1218006E+00
          1   -1    0    0  501    0  0.00000000000E+00  0.00000000000E+00  0.82378151936E+02  0.82378151936E+02  0.00000000000E+00 0. -1.
         -1   -1    0    0    0  501 -0.00000000000E+00 -0.00000000000E+00 -0.30088358161E+03  0.30088358161E+03  0.00000000000E+00 0.  1.
         23    2    1    2    0    0 -0.11709034968E+02 -0.11246394898E+03 -0.18689321633E+03  0.25171798344E+03  0.12509047748E+03 0.  0.
          5    1    3    3  502    0  0.43614483675E+02 -0.50834221586E+02 -0.28460382400E+02  0.72895864333E+02  0.41800000000E+01 0. -1.
         -5    1    3    3    0  502 -0.55323518643E+02 -0.61629727391E+02 -0.15843283393E+03  0.17882211911E+03  0.41800000000E+01 0. -1.
        -11    1    1    2    0    0 -0.18356517006E+02  0.58979862741E+02 -0.33281130518E+02  0.70165658082E+02  0.00000000000E+00 0.  1.
         11    1    1    2    0    0  0.30065551974E+02  0.53484086236E+02  0.16689171792E+01  0.61378092025E+02  0.00000000000E+00 0. -1.
</event>
<event>
 7    1  0.4394360E-006  0.1902049E+03  0.7561462E-02  0.1158277E+00
          2   -1    0    0  501    0  0.00000000000E+00  0.00000000000E+00  0.11959162289E+03  0.11959162289E+03  0.00000000000E+00 0. -1.
         -2   -1    0    0    0  501 -0.00000000000E+00 -0.00000000000E+00 -0.38234859185E+03  0.38234859185E+03  0.00000000000E+00 0.  1.
         23    2    1    2    0    0 -0.13032482621E+03  0.11285611206E+03 -0.21104438778E+03  0.29984801513E+03  0.12509211090E+03 0.  0.
          5    1    3    3  502    0  0.12897256330E+02  0.39318867103E+02 -0.10982432524E+02  0.43016261521E+02  0.41800000000E+01 0.  1.
         -5    1    3    3    0  502 -0.14322208254E+03  0.73537244956E+02 -0.20006195525E+03  0.25683175361E+03  0.41800000000E+01 0.  1.
        -11    1    1    2    0    0  0.52547887678E+02 -0.74175140523E+02  0.15559165562E+02  0.92224289664E+02  0.00000000000E+00 0. -1.
         11    1    1    2    0    0  0.77776938529E+02 -0.38680971536E+02 -0.67271746739E+02  0.10986790994E+03  0.00000000000E+00 0.  1.
</event>
<event>
 7    1  0.4394360E-006  0.8719234E+02  0.7561462E-02  0.1309797E+00
          2   -1    0    0  501    0  0.00000000000E+00  0.00000000000E+00  0.18244185461E+03  0.18244185461E+03  0.00000000000E+00 0. -1.
         -2   -1    0    0    0  501 -0.00000000000E+00 -0.00000000000E+00 -0.11462141921E+03  0.11462141921E+03  0.00000000000E+00 0.  1.
         23    2    1    2    0    0  0.36554686235E+02  0.64117830747E+02 -0.29997187416E+02  0.14830277816E+03  0.12508613613E+03 0.  0.
          5    1    3    3  502    0  0.44006789140E+02  0.96299987985E+01 -0.67749028395E+02  0.81466174673E+02  0.41800000000E+01 0. -1.
         -5    1    3    3    0  502 -0.74521029055E+01  0.54487831948E+02  0.37751840979E+02  0.66836603485E+02  0.41800000000E+01 0. -1.
        -11    1    1    2    0    0 -0.13060048056E+02 -0.28090970613E+02 -0.10103380814E+02  0.32584440904E+02  0.00000000000E+00 0.  1.
         11    1    1    2    0    0 -0.23494638179E+02 -0.36026860134E+02  0.10792100363E+03  0.11617605476E+03  0.00000000000E+00 0. -1.
</event>
<event>
 7    1  0.4394360E-006  0.1078219E+03  0.7561462E-02  0.1264657E+00
         -1   -1    0    0    0  501 -0.00000000000E+00  0.00000000000E+00  0.17173109809E+04  0.17173109809E+04  0.00000000000E+00 0.  1.
          1   -1    0    0  501    0  0.00000000000E+00 -0.00000000000E+00 -0.10162142997E+02  0.10162142997E+02  0.00000000000E+00 0. -1.
         23    2    1    2    0    0 -0.48664271621E+02 -0.29757594678E+02  0.12486071476E+04  0.12561534380E+04  0.12509166650E+03 0.  0.
          5    1    3    3  502    0  0.12541136375E+02 -0.53873579918E+02  0.87644165480E+03  0.87819535946E+03  0.41800000000E+01 0.  1.
         -5    1    3    3    0  502 -0.61205407996E+02  0.24115985240E+02  0.37216549283E+03  0.37795807859E+03  0.41800000000E+01 0.  1.
        -11    1    1    2    0    0 -0.20084373717E+02  0.11411336101E+02  0.35622970631E+02  0.42456998196E+02  0.00000000000E+00 0. -1.
         11    1    1    2    0    0  0.68748645339E+02  0.18346258577E+02  0.42291871963E+03  0.42886268764E+03  0.00000000000E+00 0.  1.
</event>
<event>
 7    1  0.4394360E-006  0.1347941E+03  0.7561462E-02  0.1220511E+00
          1   -1    0    0  501    0  0.00000000000E+00  0.00000000000E+00  0.53682415509E+03  0.53682415509E+03  0.00000000000E+00 0. -1.
         -1   -1    0    0    0  501 -0.00000000000E+00 -0.00000000000E+00 -0.40832999905E+02  0.40832999905E+02  0.00000000000E+00 0.  1.
         23    2    1    2    0    0  0.74271046941E+02  0.50698809589E+02  0.17717106521E+03  0.23478337697E+03  0.12508832898E+03 0.  0.
          5    1    3    3  502    0  0.86128173690E+02  0.82655188642E+02  0.14323240929E+03  0.18650184445E+03  0.41800000000E+01 0. -1.
         -5    1    3    3    0  502 -0.11857126749E+02 -0.31956379053E+02  0.33938655925E+02  0.48281532524E+02  0.41800000000E+01 0. -1.
        -11    1    1    2    0    0 -0.49988427302E+02  0.95058524818E+01  0.75527621094E+02  0.91069345247E+02  0.00000000000E+00 0.  1.
         11    1    1    2    0    0 -0.24282619639E+02 -0.60204662071E+02  0.24329246888E+03  0.25180443277E+03  0.00000000000E+00 0. -1.
</event>
<event>
 7    1  0.4394360E-006  0.1119794E+03  0.7561462E-02  0.1256948E+00
          2   -1    0    0  501    0  0.00000000000E+00  0.00000000000E+00  0.55358381652E+03  0.55358381652E+03  0.00000000000E+00 0. -1.
         -2   -1    0    0    0  501 -0.00000000000E+00 -0.00000000000E+00 -0.32940606061E+02  0.32940606061E+02  0.00000000000E+00 0.  1.
         23    2    1    2    0    0 -0.71814645704E+02 -0.33181736538E+02  0.30539863758E+03  0.33937258581E+03  0.12508818165E+03 0.  0.
          5    1    3    3  502    0  0.28862310768E+02  0.15396559420E+02  0.10258339528E+03  0.10775394384E+03  0.41800000000E+01 0.  1.
         -5    1    3    3    0  502 -0.10067695647E+03 -0.48578295958E+02  0.20281524230E+03  0.23161864198E+03  0.41800000000E+01 0.  1.
        -11    1    1    2    0    0  0.93124468088E+01  0.47350640247E+01 -0.82711423151E+01  0.13324949984E+02  0.00000000000E+00 0.  1.
         11    1    1    2    0    0  0.62502198896E+02  0.28446672513E+02  0.22351571519E+03  0.23382688678E+03  0.00000000000E+00 0. -1.
</event>
<event>
 7    1  0.4394360E-006  0.1302326E+03  0.7561462E-02  0.1227111E+00
          2   -1    0    0  501    0  0.00000000000E+00  0.00000000000E+00  0.51287000979E+03  0.51287000979E+03  0.00000000000E+00 0.  1.
         -2   -1    0    0    0  501 -0.00000000000E+00 -0.00000000000E+00 -0.35309313341E+02  0.35309313341E+02  0.00000000000E+00 0. -1.
         23    2    1    2    0    0 -0.51188156401E+02  0.58576541862E+02  0.26800233924E+03  0.30581601841E+03  0.12508694841E+03 0.  0.
          5    1    3    3  502    0  0.38699622370E+02  0.32890780264E+02  0.12417866526E+03  0.13422845266E+03  0.41800000000E+01 0. -1.
         -5    1    3    3    0  502 -0.89887778771E+02  0.25685761599E+02  0.14382367398E+03  0.17158756575E+03  0.41800000000E+01 0. -1.
        -11    1    1    2    0    0  0.55650480544E+02 -0.78100145225E+02  0.13795868795E+03  0.16801550003E+03  0.00000000000E+00 0. -1.
         11    1    1    2    0    0 -0.44623241434E+01  0.19523603362E+02  0.71599669259E+02  0.74347804695E+02  0.00000000000E+00 0.  1.
</event>
<event>
 7    1  0.4394360E-006  0.1098785E+03  0.7561462E-02  0.1260795E+00
          1   -1    0    0  501    0  0.00000000000E+00  0.00000000000E+00  0.36269077264E+03  0.36269077264E+03  0.00000000000E+00 0. -1.
         -1   -1    0    0    0  501 -0.00000000000E+00 -0.00000000000E+00 -0.50796667735E+02  0.50796667735E+02  0.00000000000E+00 0.  1.
         23    2    1    2    0    0  0.58716137420E+02  0.46258654371E+02  0.11860972221E+03  0.18789600035E+03  0.12509673396E+03 0.  0.
          5    1    3    3  502    0  0.72742042955E+02  0.79459735971E+02  0.10031444258E+03  0.14726070163E+03  0.41800000000E+01 0. -1.
         -5    1    3    3    0  502 -0.14025905535E+02 -0.33201081599E+02  0.18295279635E+02  0.40635298724E+02  0.41800000000E+01 0. -1.
        -11    1    1    2    0    0 -0.15604476907E+02 -0.61250521766E+01 -0.59844777022E+01  0.17799717331E+02  0.00000000000E+00 0.  1.
         11    1    1    2    0    0 -0.43111660513E+02 -0.40133602195E+02  0.19926886039E+03  0.20779172269E+03  0.00000000000E+00 0. -1.
</event>
<event>
 7    1  0.4394360E-006  0.9252114E+02  0.7561462E-02  0.1296859E+00
          1   -1    0    0  501    0  0.00000000000E+00  0.00000000000E+00  0.19436106825E+03  0.19436106825E+03  0.00000000000E+00 0. -1.
         -1   -1    0    0    0  501 -0.00000000000E+00 -0.00000000000E+00 -0.59960733868E+02  0.59960733868E+02  0.00000000000E+00 0.  1.
         23    2    1    2    0    0 -0.63906040931E+01 -0.74621317527E+01  0.68552351853E+02  0.14298184075E+03  0.12509140102E+03 0.  0.
          5    1    3    3  502    0 -0.50179465076E+02 -0.15253021051E+02  0.81018255092E+02  0.96602605683E+02  0.41800000000E+01 0. -1.
         -5    1    3    3    0  502  0.43788860983E+02  0.77908892987E+01 -0.12465903239E+02  0.46379235071E+02  0.41800000000E+01 0. -1.
        -11    1    1    2    0    0  0.46562745877E+02  0.95444645729E+01  0.47257581795E+02  0.67025854300E+02  0.00000000000E+00 0.  1.
         11    1    1    2    0    0 -0.40172141784E+02 -0.20823328202E+01  0.18590400735E+02  0.44314107065E+02  0.00000000000E+00 0. -1.
</event>
<event>
 7    1  0.4394360E-006  0.1035323E+03  0.7561462E-02  0.1273039E+00
          2   -1    0    0  501    0  0.00000000000E+00  0.00000000000E+00  0.22944875946E+03  0.22944875946E+03  0.00000000000E+00 0. -1.
         -2   -1    0    0    0  501 -0.00000000000E+00 -0.00000000000E+00 -0.87191818207E+02  0.87191818207E+02  0.00000000000E+00 0.  1.
         23    2    1    2    0    0 -0.56657026587E+02  0.18052191157E+02  0.81707665031E+00  0.13850738085E+03  0.12509087364E+03 0.  0.
          5    1    3    3  502    0  0.27382854766E+02  0.36940353683E+02 -0.19153756376E+02  0.49987490922E+02  0.41800000000E+01 0. -1.
         -5    1    3    3    0  502 -0.84039881353E+02 -0.18888162526E+02  0.19970833026E+02  0.88519889930E+02  0.41800000000E+01 0. -1.
        -11    1    1    2    0    0  0.27870794376E+02 -0.32194028003E+02  0.11239053097E+02  0.44040355728E+02  0.00000000000E+00 0.  1.
         11    1    1    2    0    0  0.28786232211E+02  0.14141836846E+02  0.13020081150E+03  0.13409284108E+03  0.00000000000E+00 0. -1.
</event>
<event>
 7    1  0.4394360E-006  0.1116518E+03  0.7561462E-02  0.1257541E+00
          2   -1    0    0  501    0  0.00000000000E+00  0.00000000000E+00  0.91684329037E+03  0.91684329037E+03  0.00000000000E+00 0. -1.
         -2   -1    0    0    0  501 -0.00000000000E+00 -0.00000000000E+00 -0.14786006570E+02  0.14786006570E+02  0.00000000000E+00 0.  1.
         23    2    1    2    0    0  0.19675196885E+00  0.44050776946E+02  0.54763331607E+03  0.56346183182E+03  0.12508588004E+03 0.  0.
          5    1    3    3  502    0 -0.33213610899E+01 -0.42712161608E+02  0.23774565920E+03  0.24161090840E+03  0.41800000000E+01 0.  1.
         -5    1    3    3    0  502  0.35181130588E+01  0.86762938554E+02  0.30988765687E+03  0.32185092342E+03  0.41800000000E+01 0.  1.
        -11    1    1    2    0    0  0.64821897292E+01  0.24044121772E+02  0.46659291433E+02  0.52888827294E+02  0.00000000000E+00 0.  1.
         11    1    1    2    0    0 -0.66789416980E+01 -0.68094898719E+02  0.30776467630E+03  0.31527863783E+03  0.00000000000E+00 0. -1.
</event>
<event>
 6    1  0.4394360E-006  0.1522582E+03  0.7561462E-02  0.1197725E+00
          4   -1    0    0  501    0  0.00000000000E+00  0.00000000000E+00  0.53349684379E+03  0.53349684379E+03  0.00000000000E+00 0. -1.
         -4   -1    0    0    0  501 -0.00000000000E+00 -0.00000000000E+00 -0.10069126950E+03  0.10069126950E+03  0.00000000000E+00 0.  1.
          5    1    1    2  502    0  0.10939724347E+03  0.15269797676E+01  0.12264723641E+03  0.16440774174E+03  0.41800000000E+01 0. -1.
         -5    1    1    2    0  502 -0.93228472448E+02  0.41222544449E+02 -0.37057915067E+02  0.10854311454E+03  0.41800000000E+01 0.  1.
        -11    1    1    2    0    0  0.21019282792E+02 -0.50783390642E+02  0.13713761945E+03  0.14774129308E+03  0.00000000000E+00 0. -1.
         11    1    1    2    0    0 -0.37188053816E+02  0.80338664251E+01  0.21007863350E+03  0.21349596392E+03  0.00000000000E+00 0.  1.
</event>
<event>
 7    1  0.4394360E-006  0.8425562E+02  0.7561462E-02  0.1317391E+00
         -4   -1    0    0    0  501 -0.00000000000E+00  0.00000000000E+00  0.35532302019E+03  0.35532302019E+03  0.00000000000E+00 0.  1.
          4   -1    0    0  501    0  0.00000000000E+00 -0.00000000000E+00 -0.32369358585E+02  0.32369358585E+02  0.00000000000E+00 0. -1.
         23    2    1    2    0    0  0.33181001288E+02 -0.47118127455E+01  0.22094349034E+03  0.25617975199E+03  0.12525517705E+03 0.  0.
          5    1    3    3  502    0  0.36259935856E+02  0.53662537877E+02  0.76623145621E+02  0.10041429064E+03  0.41800000000E+01 0.  1.
         -5    1    3    3    0  502 -0.30789345674E+01 -0.58374350623E+02  0.14432034472E+03  0.15576546135E+03  0.41800000000E+01 0.  1.
        -11    1    1    2    0    0 -0.16152054249E+02 -0.12778919969E+02  0.10492558813E+03  0.10692786679E+03  0.00000000000E+00 0.  1.
         11    1    1    2    0    0 -0.17028947039E+02  0.17490732715E+02 -0.29154168747E+01  0.24584759989E+02  0.00000000000E+00 0. -1.
</event>
<event>
 7    1  0.4394360E-006  0.1641099E+03  0.7561462E-02  0.1184133E+00
          2   -1    0    0  501    0  0.00000000000E+00  0.00000000000E+00  0.88975671227E+03  0.88975671227E+03  0.00000000000E+00 0. -1.
         -2   -1    0    0    0  501 -0.00000000000E+00 -0.00000000000E+00 -0.42331406347E+02  0.42331406347E+02  0.00000000000E+00 0.  1.
         23    2    1    2    0    0 -0.17282764820E+02 -0.15074246814E+03  0.32852354807E+03  0.38288005719E+03  0.12508969143E+03 0.  0.
          5    1    3    3  502    0 -0.23513868735E+01 -0.86077341430E+02  0.57043556176E+02  0.10337445250E+03  0.41800000000E+01 0.  1.
         -5    1    3    3    0  502 -0.14931377947E+02 -0.64665126706E+02  0.27147999189E+03  0.27950560469E+03  0.41800000000E+01 0.  1.
        -11    1    1    2    0    0 -0.35150548566E+02  0.41857915305E+02  0.11016693352E+03  0.12298129687E+03  0.00000000000E+00 0. -1.
         11    1    1    2    0    0  0.52433313387E+02  0.10888455283E+03  0.40873482434E+03  0.42622676456E+03  0.00000000000E+00 0.  1.
</event>
<event>
 7    1  0.4394360E-006  0.1398492E+03  0.7561462E-02  0.1213532E+00
         -1   -1    0    0    0  501 -0.00000000000E+00  0.00000000000E+00  0.22574933224E+02  0.22574933224E+02  0.00000000000E+00 0.  1.
          1   -1    0    0  501    0  0.00000000000E+00 -0.00000000000E+00 -0.91620653599E+03  0.91620653599E+03  0.00000000000E+00 0. -1.
         23    2    1    2    0    0  0.60838293855E+02  0.67141615200E+02 -0.52805090615E+03  0.55017320992E+03  0.12507400581E+03 0.  0.
          5    1    3    3  502    0 -0.24409991811E+02  0.64115694936E+02 -0.21835173139E+03  0.22891400359E+03  0.41800000000E+01 0. -1.
         -5    1    3    3    0  502  0.85248285666E+02  0.30259202638E+01 -0.30969917477E+03  0.32125920633E+03  0.41800000000E+01 0. -1.
        -11    1    1    2    0    0 -0.72191314697E+02 -0.17020326691E+02 -0.15478024837E+03  0.17163392067E+03  0.00000000000E+00 0.  1.
         11    1    1    2    0    0  0.11353020841E+02 -0.50121288509E+02 -0.21080044824E+03  0.21697433863E+03  0.00000000000E+00 0. -1.
</event>
<event>
 7    1  0.4394360E-006  0.1040869E+03  0.7561462E-02  0.1271929E+00
         -2   -1    0    0    0  501 -0.00000000000E+00  0.00000000000E+00  0.10106254396E+03  0.10106254396E+03  0.00000000000E+00 0.  1.
          2   -1    0    0  501    0  0.00000000000E+00 -0.00000000000E+00 -0.16380842439E+03  0.16380842439E+03  0.00000000000E+00 0. -1.
         23    2    1    2    0    0 -0.47250714927E+02  0.46035967153E+00  0.41472417087E+01  0.13379362093E+03  0.12510272337E+03 0.  0.
          5    1    3    3  502    0 -0.43153639885E+02 -0.38843787974E+02  0.47392166154E+02  0.75063748323E+02  0.41800000000E+01 0.  1.
         -5    1    3    3    0  502 -0.40970750418E+01  0.39304147645E+02 -0.43244924446E+02  0.58729872606E+02  0.41800000000E+01 0.  1.
        -11    1    1    2    0    0  0.20575569972E+02 -0.49940211568E+02 -0.46527871166E+02  0.71289701966E+02  0.00000000000E+00 0. -1.
         11    1    1    2    0    0  0.26675144955E+02  0.49479851897E+02 -0.20365250973E+02  0.59787645457E+02  0.00000000000E+00 0.  1.
</event>
<event>
 7    1  0.4394360E-006  0.1131927E+03  0.7561462E-02  0.1254769E+00
         -1   -1    0    0    0  501 -0.00000000000E+00  0.00000000000E+00  0.26417438164E+02  0.26417438164E+02  0.00000000000E+00 0.  1.
          1   -1    0    0  501    0  0.00000000000E+00 -0.00000000000E+00 -0.58649482435E+03  0.58649482435E+03  0.00000000000E+00 0. -1.
         23    2    1    2    0    0 -0.63872073133E+02  0.18616747954E+00 -0.37047236804E+03  0.39255401268E+03  0.11300088940E+03 0.  0.
          5    1    3    3  502    0 -0.88735962824E+02 -0.11711583017E+02 -0.19153334985E+03  0.21145621008E+03  0.41800000000E+01 0. -1.
         -5    1    3    3    0  502  0.24863889691E+02  0.11897750496E+02 -0.17893901819E+03  0.18109780261E+03  0.41800000000E+01 0.  1.
        -11    1    1    2    0    0 -0.14778806488E+02 -0.22705929721E+02 -0.26562542342E+02  0.37941283866E+02  0.00000000000E+00 0. -1.
         11    1    1    2    0    0  0.78650879621E+02  0.22519762241E+02 -0.16304247580E+03  0.18241696596E+03  0.00000000000E+00 0.  1.
</event>
<event>
 7    1  0.4394360E-006  0.1247630E+03  0.7561462E-02  0.1235440E+00
         -1   -1    0    0    0  501 -0.00000000000E+00  0.00000000000E+00  0.40541684404E+02  0.40541684404E+02  0.00000000000E+00 0.  1.
          1   -1    0    0  501    0  0.00000000000E+00 -0.00000000000E+00 -0.59351499901E+03  0.59351499901E+03  0.00000000000E+00 0. -1.
         23    2    1    2    0    0 -0.95178586358E+02  0.23311801072E+02 -0.15940495064E+03  0.21936055822E+03  0.11448455286E+03 0.  0.
          5    1    3    3  502    0  0.20961590996E+02  0.82958164554E+01 -0.18446134276E+01  0.23001823111E+02  0.41800000000E+01 0. -1.
         -5    1    3    3    0  502 -0.11614017735E+03  0.15015984617E+02 -0.15756033721E+03  0.19635873511E+03  0.41800000000E+01 0.  1.
        -11    1    1    2    0    0  0.78679845637E+02  0.25718838850E+01 -0.36277239325E+03  0.37121549267E+03  0.00000000000E+00 0. -1.
         11    1    1    2    0    0  0.16498740720E+02 -0.25883684957E+02 -0.30795970714E+02  0.43480632522E+02  0.00000000000E+00 0.  1.
</event>
<event>
 7    1  0.4394360E-006  0.7348244E+02  0.7561462E-02  0.1348636E+00
         -3   -1    0    0    0  501 -0.00000000000E+00  0.00000000000E+00  0.19297681511E+02  0.19297681511E+02  0.00000000000E+00 0.  1.
          3   -1    0    0  501    0  0.00000000000E+00 -0.00000000000E+00 -0.63602873600E+03  0.63602873600E+03  0.00000000000E+00 0. -1.
         23    2    1    2    0    0 -0.13729901786E+02  0.95133297757E-02 -0.30201391321E+03  0.32717597291E+03  0.12507279155E+03 0.  0.
          5    1    3    3  502    0  0.18853834997E+02  0.94299457873E+01  0.16881032150E+01  0.21557204460E+02  0.41800000000E+01 0. -1.
         -5    1    3    3    0  502 -0.32583736783E+02 -0.94204324575E+01 -0.30370201642E+03  0.30561876845E+03  0.41800000000E+01 0. -1.
        -11    1    1    2    0    0 -0.32665845122E+02 -0.22574233917E+02 -0.10724096006E+03  0.11435592241E+03  0.00000000000E+00 0.  1.
         11    1    1    2    0    0  0.46395746908E+02  0.22564720587E+02 -0.20747618122E+03  0.21379452220E+03  0.00000000000E+00 0. -1.
</event>
<event>
 7    1  0.4394360E-006  0.1241298E+03  0.7561462E-02  0.1236436E+00
          2   -1    0    0  501    0  0.00000000000E+00  0.00000000000E+00  0.35322251908E+03  0.35322251908E+03  0.00000000000E+00 0. -1.
         -2   -1    0    0    0  501 -0.00000000000E+00 -0.00000000000E+00 -0.56601335469E+02  0.56601335469E+02  0.00000000000E+00 0.  1.
         23    2    1    2    0    0 -0.62440286965E+02 -0.37774492700E+02  0.85877980053E+02  0.16837357253E+03  0.12509568631E+03 0.  0.
          5    1    3    3  502    0 -0.94290070087E+02 -0.41254935814E+02  0.36335858250E+02  0.10922616006E+03  0.41800000000E+01 0. -1.
         -5    1    3    3    0  502  0.31849783122E+02  0.34804431135E+01  0.49542121804E+02  0.59147412471E+02  0.41800000000E+01 0. -1.
        -11    1    1    2    0    0  0.30544607252E+02 -0.26983722704E+02  0.45251640364E+02  0.60899961238E+02  0.00000000000E+00 0.  1.
         11    1    1    2    0    0  0.31895679713E+02  0.64758215404E+02  0.16549156319E+03  0.18055032078E+03  0.00000000000E+00 0. -1.
</event>
<event>
 7    1  0.4394360E-006  0.1614125E+03  0.7561462E-02  0.1187111E+00
         -2   -1    0    0    0  501 -0.00000000000E+00  0.00000000000E+00  0.42322143460E+02  0.42322143460E+02  0.00000000000E+00 0.  1.
          2   -1    0    0  501    0  0.00000000000E+00 -0.00000000000E+00 -0.72852188946E+03  0.72852188946E+03  0.00000000000E+00 0. -1.
         23    2    1    2    0    0 -0.62564530853E+02 -0.12185175209E+03 -0.34352035287E+03  0.39040505946E+03  0.12509079743E+03 0.  0.
          5    1    3    3  502    0 -0.93468052426E+02 -0.50924941563E+02 -0.22287500858E+03  0.24702301177E+03  0.41800000000E+01 0.  1.
         -5    1    3    3    0  502  0.30903521573E+02 -0.70926810528E+02 -0.12064534430E+03  0.14338204768E+03  0.41800000000E+01 0.  1.
        -11    1    1    2    0    0  0.43252515655E+02  0.59577132284E+02 -0.75635092949E+02  0.10555037701E+03  0.00000000000E+00 0.  1.
         11    1    1    2    0    0  0.19312015197E+02  0.62274619807E+02 -0.26704430018E+03  0.27488859645E+03  0.00000000000E+00 0. -1.
</event>
<event>
 7    1  0.4394360E-006  0.1480774E+03  0.7561462E-02  0.1202856E+00
         -2   -1    0    0    0  501 -0.00000000000E+00  0.00000000000E+00  0.12829278477E+03  0.12829278477E+03  0.00000000000E+00 0.  1.
          2   -1    0    0  501    0  0.00000000000E+00 -0.00000000000E+00 -0.32938484189E+03  0.32938484189E+03  0.00000000000E+00 0. -1.
         23    2    1    2    0    0 -0.13692506194E+03  0.72041521605E+01  0.15084459072E+02  0.18621333372E+03  0.12508993705E+03 0.  0.
          5    1    3    3  502    0 -0.83667454111E+02  0.43519633471E+02  0.55987996295E+02  0.10975577208E+03  0.41800000000E+01 0. -1.
         -5    1    3    3    0  502 -0.53257607830E+02 -0.36315481310E+02 -0.40903537223E+02  0.76457561640E+02  0.41800000000E+01 0. -1.
        -11    1    1    2    0    0  0.10618558737E+03 -0.41594458908E+01 -0.83243482611E+02  0.13498947127E+03  0.00000000000E+00 0.  1.
         11    1    1    2    0    0  0.30739474570E+02 -0.30447062697E+01 -0.13293303359E+03  0.13647482168E+03  0.00000000000E+00 0. -1.
</event>
<event>
 7    1  0.4394360E-006  0.9080830E+02  0.7561462E-02  0.1300906E+00
         -2   -1    0    0    0  501 -0.00000000000E+00  0.00000000000E+00  0.14340080341E+03  0.14340080341E+03  0.00000000000E+00 0.  1.
          2   -1    0    0  501    0  0.00000000000E+00 -0.00000000000E+00 -0.85388976862E+02  0.85388976862E+02  0.00000000000E+00 0. -1.
         23    2    1    2    0    0 -0.42298515603E+01 -0.16844541609E+02  0.52467310305E+02  0.13675628614E+03  0.12509129835E+03 0.  0.
          5    1    3    3  502    0  0.42102683728E+02 -0.16070566436E+02 -0.20922252907E+02  0.49860928084E+02  0.41800000000E+01 0. -1.
         -5    1    3    3    0  502 -0.46332535289E+02 -0.77397517317E+00  0.73389563212E+02  0.86895358060E+02  0.41800000000E+01 0. -1.
        -11    1    1    2    0    0  0.31959601693E+02  0.41736285176E+02  0.12723149058E+02  0.54085230541E+02  0.00000000000E+00 0.  1.
         11    1    1    2    0    0 -0.27729750132E+02 -0.24891743567E+02 -0.71786328150E+01  0.37948263587E+02  0.00000000000E+00 0. -1.
</event>
<event>
 7    1  0.4394360E-006  0.1214428E+03  0.7561462E-02  0.1240736E+00
         -2   -1    0    0    0  501 -0.00000000000E+00  0.00000000000E+00  0.12246621711E+03  0.12246621711E+03  0.00000000000E+00 0.  1.
          2   -1    0    0  501    0  0.00000000000E+00 -0.00000000000E+00 -0.23286038751E+03  0.23286038751E+03  0.00000000000E+00 0. -1.
         23    2    1    2    0    0  0.69992614018E+02  0.55861847892E+02  0.38677155730E+02  0.15862722604E+03  0.12508861818E+03 0.  0.
          5    1    3    3  502    0  0.10436311008E+03  0.27662333088E+02  0.36020492668E+02  0.11389386160E+03  0.41800000000E+01 0.  1.
         -5    1    3    3    0  502 -0.34370496066E+02  0.28199514805E+02  0.26566630614E+01  0.44733364435E+02  0.41800000000E+01 0.  1.
        -11    1    1    2    0    0 -0.51424363865E+02 -0.46756129909E+02 -0.29754879440E+02  0.75603926706E+02  0.00000000000E+00 0.  1.
         11    1    1    2    0    0 -0.18568250153E+02 -0.91057179838E+01 -0.11931644669E+03  0.12109545188E+03  0.00000000000E+00 0. -1.
</event>
<event>
 7    1  0.4394360E-006  0.2038555E+03  0.7561462E-02  0.1146526E+00
          2   -1    0    0  501    0  0.00000000000E+00  0.00000000000E+00  0.64651217105E+02  0.64651217105E+02  0.00000000000E+00 0. -1.
         -2   -1    0    0    0  501 -0.00000000000E+00 -0.00000000000E+00 -0.10838388705E+04  0.10838388705E+04  0.00000000000E+00 0.  1.
         23    2    1    2    0    0 -0.18943558808E+03  0.46924096720E+02 -0.83422409034E+03  0.86583226851E+03  0.12509185183E+03 0.  0.
          5    1    3    3  502    0 -0.17723953861E+03  0.48309388115E+02 -0.83274969605E+03  0.85278202355E+03  0.41800000000E+01 0.  1.
         -5    1    3    3    0  502 -0.12196049469E+02 -0.13852913959E+01 -0.14743942989E+01  0.13050244958E+02  0.41800000000E+01 0.  1.
        -11    1    1    2    0    0  0.13169200050E+03  0.71444427680E+01 -0.93141129806E+02  0.16145927078E+03  0.00000000000E+00 0. -1.
         11    1    1    2    0    0  0.57743587574E+02 -0.54068539488E+02 -0.91822433249E+02  0.12119854832E+03  0.00000000000E+00 0.  1.
</event>
<event>
 7    1  0.4394360E-006  0.6993646E+02  0.7561462E-02  0.1360309E+00
          1   -1    0    0  501    0  0.00000000000E+00  0.00000000000E+00  0.36852959248E+02  0.36852959248E+02  0.00000000000E+00 0. -1.
         -1   -1    0    0    0  501 -0.00000000000E+00 -0.00000000000E+00 -0.38216302572E+03  0.38216302572E+03  0.00000000000E+00 0.  1.
         23    2    1    2    0    0 -0.42026681897E+02  0.15378910683E+02 -0.21748550677E+03  0.25485556950E+03  0.12509461526E+03 0.  0.
          5    1    3    3  502    0 -0.86472048004E+01  0.11527852370E+02  0.14229982459E+02  0.20679224645E+02  0.41800000000E+01 0.  1.
         -5    1    3    3    0  502 -0.33379477096E+02  0.38510583130E+01 -0.23171548923E+03  0.23417634486E+03  0.41800000000E+01 0.  1.
        -11    1    1    2    0    0  0.15967236425E+01  0.30108330327E+02 -0.83769853106E+02  0.89030609179E+02  0.00000000000E+00 0.  1.
         11    1    1    2    0    0  0.40429958254E+02 -0.45487241010E+02 -0.44054706588E+02  0.75129806280E+02  0.00000000000E+00 0. -1.
</event>
<event>
 7    1  0.4394360E-006  0.1119071E+03  0.7561462E-02  0.1257079E+00
          1   -1    0    0  501    0  0.00000000000E+00  0.00000000000E+00  0.62890880365E+03  0.62890880365E+03  0.00000000000E+00 0. -1.
         -1   -1    0    0    0  501 -0.00000000000E+00 -0.00000000000E+00 -0.34331075192E+02  0.34331075192E+02  0.00000000000E+00 0.  1.
         23    2    1    2    0    0 -0.31960086067E+01  0.85827362742E+02  0.21221917479E+03  0.26088665949E+03  0.12509324636E+03 0.  0.
          5    1    3    3  502    0  0.24201917825E+02  0.50799984564E+02  0.20857478188E+03  0.21607240289E+03  0.41800000000E+01 0. -1.
         -5    1    3    3    0  502 -0.27397926432E+02  0.35027378179E+02  0.36443929183E+01  0.44814256600E+02  0.41800000000E+01 0. -1.
        -11    1    1    2    0    0 -0.38989542522E+02 -0.64706055849E+02  0.27283767162E+03  0.28310325527E+03  0.00000000000E+00 0.  1.
         11    1    1    2    0    0  0.42185551128E+02 -0.21121306893E+02  0.10952088205E+03  0.11924996409E+03  0.00000000000E+00 0. -1.
</event>
<event>
 7    1  0.4394360E-006  0.8783162E+02  0.7561462E-02  0.1308189E+00
         -2   -1    0    0    0  501 -0.00000000000E+00  0.00000000000E+00  0.10907494217E+03  0.10907494217E+03  0.00000000000E+00 0.  1.
          2   -1    0    0  501    0  0.00000000000E+00 -0.00000000000E+00 -0.15578647220E+03  0.15578647220E+03  0.00000000000E+00 0. -1.
         23    2    1    2    0    0  0.42365615702E+02 -0.15423194659E+02  0.29664434112E+02  0.13623599446E+03  0.12509015632E+03 0.  0.
          5    1    3    3  502    0  0.73780242857E+02 -0.43179813233E+02  0.37399690604E+02  0.93403585392E+02  0.41800000000E+01 0.  1.
         -5    1    3    3    0  502 -0.31414627155E+02  0.27756618574E+02 -0.77352564925E+01  0.42832409072E+02  0.41800000000E+01 0.  1.
        -11    1    1    2    0    0 -0.15460190083E+02  0.14233111548E+02  0.19725376408E+02  0.28821683091E+02  0.00000000000E+00 0.  1.
         11    1    1    2    0    0 -0.26905425620E+02  0.11900831107E+01 -0.96101340548E+02  0.99803736807E+02  0.00000000000E+00 0. -1.
</event>
<event>
 7    1  0.4394360E-006  0.9133313E+02  0.7561462E-02  0.1299655E+00
         -2   -1    0    0    0  501 -0.00000000000E+00  0.00000000000E+00  0.45490680152E+03  0.45490680152E+03  0.00000000000E+00 0.  1.
          2   -1    0    0  501    0  0.00000000000E+00 -0.00000000000E+00 -0.26875357268E+02  0.26875357268E+02  0.00000000000E+00 0. -1.
         23    2    1    2    0    0  0.15748725977E+02 -0.73131249962E+01  0.29276766399E+03  0.31884512189E+03  0.12509117679E+03 0.  0.
          5    1    3    3  502    0 -0.48417004080E+02 -0.31077892216E+02  0.12918122446E+03  0.14147544953E+03  0.41800000000E+01 0. -1.
         -5    1    3    3    0  502  0.64165730057E+02  0.23764767220E+02  0.16358643953E+03  0.17736967236E+03  0.41800000000E+01 0. -1.
        -11    1    1    2    0    0 -0.13576190465E+02  0.30371867372E+02  0.88582743700E+01  0.34427202908E+02  0.00000000000E+00 0. -1.
         11    1    1    2    0    0 -0.21725355116E+01 -0.23058742376E+02  0.12640550590E+03  0.12850983399E+03  0.00000000000E+00 0.  1.
</event>
<event>
 7    1  0.4394360E-006  0.1744316E+03  0.7561462E-02  0.1173304E+00
         -2   -1    0    0    0  501 -0.00000000000E+00  0.00000000000E+00  0.45105978915E+02  0.45105978915E+02  0.00000000000E+00 0. -1.
          2   -1    0    0  501    0  0.00000000000E+00 -0.00000000000E+00 -0.73077399148E+03  0.73077399148E+03  0.00000000000E+00 0.  1.
         23    2    1    2    0    0 -0.11330012126E+03  0.66437391883E+02 -0.30530481093E+03  0.35512054829E+03  0.12509489087E+03 0.  0.
          5    1    3    3  502    0 -0.13962979452E+03  0.66341961588E+02 -0.26399520648E+03  0.30595535103E+03  0.41800000000E+01 0. -1.
         -5    1    3    3    0  502  0.26329673257E+02  0.95430295091E-01 -0.41309604455E+02  0.49165197254E+02  0.41800000000E+01 0. -1.
        -11    1    1    2    0    0  0.89880330931E+02  0.73141190212E+01 -0.27915509056E+03  0.29335905442E+03  0.00000000000E+00 0.  1.
         11    1    1    2    0    0  0.23419790328E+02 -0.73751510904E+02 -0.10120811107E+03  0.12740036769E+03  0.00000000000E+00 0. -1.
</event>
<event>
 7    1  0.4394360E-006  0.8846109E+02  0.7561462E-02  0.1306622E+00
          2   -1    0    0  501    0  0.00000000000E+00  0.00000000000E+00  0.34275876748E+03  0.34275876748E+03  0.00000000000E+00 0. -1.
         -2   -1    0    0    0  501 -0.00000000000E+00 -0.00000000000E+00 -0.36468747559E+02  0.36468747559E+02  0.00000000000E+00 0.  1.
         23    2    1    2    0    0 -0.10707320251E+01 -0.24100570462E+02  0.18038019673E+03  0.22083126961E+03  0.12508976897E+03 0.  0.
          5    1    3    3  502    0  0.19876918298E+02  0.28664120614E+02  0.15424273423E+03  0.15819297442E+03  0.41800000000E+01 0.  1.
         -5    1    3    3    0  502 -0.20947650324E+02 -0.52764691076E+02  0.26137462496E+02  0.62638295189E+02  0.41800000000E+01 0.  1.
        -11    1    1    2    0    0  0.41059246140E+02  0.15995950178E+02  0.10198501105E+03  0.11109759041E+03  0.00000000000E+00 0. -1.
         11    1    1    2    0    0 -0.39988514115E+02  0.81046202834E+01  0.23924812142E+02  0.47298655024E+02  0.00000000000E+00 0.  1.
</event>
<event>
 6    1  0.4394360E-006  0.3804294E+03  0.7561462E-02  0.1050775E+00
          1   -1    0    0  501    0  0.00000000000E+00  0.00000000000E+00  0.82197822024E+03  0.82197822024E+03  0.00000000000E+00 0. -1.
         -1   -1    0    0    0  501 -0.00000000000E+00 -0.00000000000E+00 -0.18763809245E+03  0.18763809245E+03  0.00000000000E+00 0.  1.
          5    1    1    2  502    0  0.13867560377E+03  0.21552682817E+03  0.27667311980E+03  0.37715808935E+03  0.41800000000E+01 0. -1.
         -5    1    1    2    0  502  0.49269981147E+02 -0.11573095826E+02  0.74518681313E+02  0.90177457571E+02  0.41800000000E+01 0.  1.
        -11    1    1    2    0    0 -0.28547521137E+03 -0.80857952098E+02  0.23351226125E+03  0.37757394094E+03  0.00000000000E+00 0.  1.
         11    1    1    2    0    0  0.97529626454E+02 -0.12309578025E+03  0.49636065433E+02  0.16470682482E+03  0.00000000000E+00 0. -1.
</event>
<event>
 7    1  0.4394360E-006  0.1148635E+03  0.7561462E-02  0.1251820E+00
          2   -1    0    0  501    0  0.00000000000E+00  0.00000000000E+00  0.83780732769E+02  0.83780732769E+02  0.00000000000E+00 0. -1.
         -2   -1    0    0    0  501 -0.00000000000E+00 -0.00000000000E+00 -0.30836451367E+03  0.30836451367E+03  0.00000000000E+00 0.  1.
         23    2    1    2    0    0  0.71728101623E+02  0.78525766543E+02 -0.18055487241E+03  0.24404746234E+03  0.12509150790E+03 0.  0.
          5    1    3    3  502    0  0.25908756228E+02  0.52619741051E+02 -0.18196219921E+03  0.19122712972E+03  0.41800000000E+01 0. -1.
         -5    1    3    3    0  502  0.45819345395E+02  0.25906025492E+02  0.14073268051E+01  0.52820332618E+02  0.41800000000E+01 0. -1.
        -11    1    1    2    0    0  0.60083912459E+01 -0.19820905729E+02 -0.46232972839E+02  0.50660209700E+02  0.00000000000E+00 0.  1.
         11    1    1    2    0    0 -0.77736492869E+02 -0.58704860814E+02  0.22040643425E+01  0.97437574407E+02  0.00000000000E+00 0. -1.
</event>
<event>
 7    1  0.4394360E-006  0.1225509E+03  0.7561462E-02  0.1238947E+00
          2   -1    0    0  501    0  0.00000000000E+00  0.00000000000E+00  0.54031614142E+02  0.54031614142E+02  0.00000000000E+00 0. -1.
         -2   -1    0    0    0  501 -0.00000000000E+00 -0.00000000000E+00 -0.31328343642E+03  0.31328343642E+03  0.00000000000E+00 0.  1.
         23    2    1    2    0    0 -0.52382817259E+02  0.48487352266E+02 -0.13720576707E+03  0.19891814405E+03  0.12509205666E+03 0.  0.
          5    1    3    3  502    0 -0.89247348351E+01 -0.38828952825E+02 -0.15636200573E+02  0.43003507272E+02  0.41800000000E+01 0. -1.
         -5    1    3    3    0  502 -0.43458082424E+02  0.87316305091E+02 -0.12156956650E+03  0.15591463678E+03  0.41800000000E+01 0. -1.
        -11    1    1    2    0    0  0.47935956279E+02  0.98290396220E+01 -0.88089916965E+02  0.10076854368E+03  0.00000000000E+00 0.  1.
         11    1    1    2    0    0  0.44468609794E+01 -0.58316391888E+02 -0.33956138244E+02  0.67628362836E+02  0.00000000000E+00 0. -1.
</event>
<event>
 7    1  0.4394360E-006  0.8341341E+02  0.7561462E-02  0.1319635E+00
         -1   -1    0    0    0  501 -0.00000000000E+00  0.00000000000E+00  0.37224036677E+03  0.37224036677E+03  0.00000000000E+00 0.  1.
          1   -1    0    0  501    0  0.00000000000E+00 -0.00000000000E+00 -0.49151799040E+02  0.49151799040E+02  0.00000000000E+00 0. -1.
         23    2    1    2    0    0  0.16302188117E+02 -0.58803903445E+02  0.25822026468E+03  0.29334452209E+03  0.12509853375E+03 0.  0.
          5    1    3    3  502    0  0.14777627348E+02 -0.54012412009E+02  0.27218911293E+03  0.27792104008E+03  0.41800000000E+01 0.  1.
         -5    1    3    3    0  502  0.15245607691E+01 -0.47914914365E+01 -0.13968848250E+02  0.15423482005E+02  0.41800000000E+01 0.  1.
        -11    1    1    2    0    0 -0.36039932623E+02 -0.58711083157E+01  0.44215547172E+02  0.57344234828E+02  0.00000000000E+00 0.  1.
         11    1    1    2    0    0  0.19737744506E+02  0.64675011761E+02  0.20652755876E+02  0.70703408898E+02  0.00000000000E+00 0. -1.
</event>
<event>
 7    1  0.4394360E-006  0.1518469E+03  0.7561462E-02  0.1198222E+00
         -2   -1    0    0    0  501 -0.00000000000E+00  0.00000000000E+00  0.62382541982E+03  0.62382541982E+03  0.00000000000E+00 0.  1.
          2   -1    0    0  501    0  0.00000000000E+00 -0.00000000000E+00 -0.37351384856E+02  0.37351384856E+02  0.00000000000E+00 0. -1.
         23    2    1    2    0    0  0.48804670311E+02  0.87584707304E+02  0.32673007564E+03  0.36394253069E+03  0.12509455031E+03 0.  0.
          5    1    3    3  502    0  0.84513939224E+02  0.26517212754E+02  0.19921153717E+03  0.21805613368E+03  0.41800000000E+01 0. -1.
         -5    1    3    3    0  502 -0.35709268913E+02  0.61067494550E+02  0.12751853847E+03  0.14588639701E+03  0.41800000000E+01 0. -1.
        -11    1    1    2    0    0 -0.55385476952E+02 -0.10872165087E+03  0.22688783537E+03  0.25761606756E+03  0.00000000000E+00 0.  1.
         11    1    1    2    0    0  0.65808066403E+01  0.21136943569E+02  0.32856123946E+02  0.39618206423E+02  0.00000000000E+00 0. -1.
</event>
<event>
 7    1  0.4394360E-006  0.9899154E+02  0.7561462E-02  0.1282431E+00
         -3   -1    0    0    0  501 -0.00000000000E+00  0.00000000000E+00  0.32960902153E+03  0.32960902153E+03  0.00000000000E+00 0.  1.
          3   -1    0    0  501    0  0.00000000000E+00 -0.00000000000E+00 -0.36030950491E+02  0.36030950491E+02  0.00000000000E+00 0. -1.
         23    2    1    2    0    0 -0.37295042243E+02  0.28369608013E+02  0.22061242416E+03  0.25790176180E+03  0.12509085582E+03 0.  0.
          5    1    3    3  502    0 -0.83170676276E+02  0.12925658585E+02  0.12672264193E+03  0.15218585486E+03  0.41800000000E+01 0.  1.
         -5    1    3    3    0  502  0.45875634033E+02  0.15443949427E+02  0.93889782231E+02  0.10571590694E+03  0.41800000000E+01 0.  1.
        -11    1    1    2    0    0  0.43907623010E+02 -0.92196391582E+01  0.16592370855E+02  0.47835006796E+02  0.00000000000E+00 0. -1.
         11    1    1    2    0    0 -0.66125807667E+01 -0.19149968855E+02  0.56373276025E+02  0.59903203431E+02  0.00000000000E+00 0.  1.
</event>
<event>
 7    1  0.4394360E-006  0.9471374E+02  0.7561462E-02  0.1291822E+00
         -2   -1    0    0    0  501 -0.00000000000E+00  0.00000000000E+00  0.51790054970E+02  0.51790054970E+02  0.00000000000E+00 0.  1.
          2   -1    0    0  501    0  0.00000000000E+00 -0.00000000000E+00 -0.28840227740E+03  0.28840227740E+03  0.00000000000E+00 0. -1.
         23    2    1    2    0    0  0.62780034319E+02  0.37277716515E+02 -0.14681303429E+03  0.20623439267E+03  0.12509035465E+03 0.  0.
          5    1    3    3  502    0  0.47744413344E+02  0.64670198801E+02 -0.15411867971E+03  0.17387295205E+03  0.41800000000E+01 0. -1.
         -5    1    3    3    0  502  0.15035620975E+02 -0.27392482285E+02  0.73056454241E+01  0.32361440619E+02  0.41800000000E+01 0. -1.
        -11    1    1    2    0    0 -0.29560996298E+02 -0.32355280137E+02 -0.90299021664E+02  0.10037245622E+03  0.00000000000E+00 0. -1.
         11    1    1    2    0    0 -0.33219038021E+02 -0.49224363788E+01  0.49983352165E+00  0.33585483479E+02  0.00000000000E+00 0.  1.
</event>
<event>
 7    1  0.4394360E-006  0.1024762E+03  0.7561462E-02  0.1275173E+00
         -2   -1    0    0    0  501 -0.00000000000E+00  0.00000000000E+00  0.56155060104E+02  0.56155060104E+02  0.00000000000E+00 0.  1.
          2   -1    0    0  501    0  0.00000000000E+00 -0.00000000000E+00 -0.32769521078E+03  0.32769521078E+03  0.00000000000E+00 0. -1.
         23    2    1    2    0    0  0.78891776531E+02  0.31085071324E+01 -0.11670647535E+03  0.18841989067E+03  0.12509228030E+03 0.  0.
          5    1    3    3  502    0 -0.11031966023E+02  0.39644860196E+01 -0.95004348189E+02  0.95816073801E+02  0.41800000000E+01 0.  1.
         -5    1    3    3    0  502  0.89923742554E+02 -0.85597888724E+00 -0.21702127159E+02  0.92603816865E+02  0.41800000000E+01 0.  1.
        -11    1    1    2    0    0 -0.26484103163E+02 -0.32871089167E+02 -0.17959001113E+02  0.45874196934E+02  0.00000000000E+00 0.  1.
         11    1    1    2    0    0 -0.52407673368E+02  0.29762582035E+02 -0.13687467422E+03  0.14955618329E+03  0.00000000000E+00 0. -1.
</event>
<event>
 7    1  0.4394360E-006  0.1275658E+03  0.7561462E-02  0.1231113E+00
         -1   -1    0    0    0  501 -0.00000000000E+00  0.00000000000E+00  0.44145726447E+03  0.44145726447E+03  0.00000000000E+00 0.  1.
          1   -1    0    0  501    0  0.00000000000E+00 -0.00000000000E+00 -0.47177466937E+02  0.47177466937E+02  0.00000000000E+00 0. -1.
         23    2    1    2    0    0  0.75390800982E+02  0.10792299713E+02  0.30202066387E+03  0.33565512611E+03  0.12509050994E+03 0.  0.
          5    1    3    3  502    0  0.85118795440E+02 -0.40242454461E+02  0.18896572728E+03  0.21116387703E+03  0.41800000000E+01 0. -1.
         -5    1    3    3    0  502 -0.97279944586E+01  0.51034754174E+02  0.11305493659E+03  0.12449124908E+03  0.41800000000E+01 0. -1.
        -11    1    1    2    0    0 -0.16258155237E+02 -0.39732546124E+02  0.72476588681E+02  0.84236920290E+02  0.00000000000E+00 0.  1.
         11    1    1    2    0    0 -0.59132645745E+02  0.28940246410E+02  0.19782544980E+02  0.68742685000E+02  0.00000000000E+00 0. -1.
</event>
<event>
 7    1  0.4394360E-006  0.1163091E+03  0.7561462E-02  0.1249313E+00
         -1   -1    0    0    0  501 -0.00000000000E+00  0.00000000000E+00  0.54079935171E+02  0.54079935171E+02  0.00000000000E+00 0.  1.
          1   -1    0    0  501    0  0.00000000000E+00 -0.00000000000E+00 -0.27870363785E+03  0.27870363785E+03  0.00000000000E+00 0. -1.
         23    2    1    2    0    0  0.23391257466E+02 -0.36488361303E+02 -0.78216121101E+02  0.15376551183E+03  0.12509004593E+03 0.  0.
          5    1    3    3  502    0  0.71124422915E+02  0.11563333608E+01 -0.37996870168E+02  0.80754288953E+02  0.41800000000E+01 0. -1.
         -5    1    3    3    0  502 -0.47733165449E+02 -0.37644694663E+02 -0.40219250932E+02  0.73011222874E+02  0.41800000000E+01 0. -1.
        -11    1    1    2    0    0  0.34211368634E+02  0.23126619829E+02 -0.80487508963E+02  0.90462685056E+02  0.00000000000E+00 0. -1.
         11    1    1    2    0    0 -0.57602626100E+02  0.13361741474E+02 -0.65920072613E+02  0.88555376134E+02  0.00000000000E+00 0.  1.
</event>
<event>
 7    1  0.4394360E-006  0.1685581E+03  0.7561462E-02  0.1179360E+00
          2   -1    0    0  501    0  0.00000000000E+00  0.00000000000E+00  0.67989439313E+03  0.67989439313E+03  0.00000000000E+00 0. -1.
         -2   -1    0    0    0  501 -0.00000000000E+00 -0.00000000000E+00 -0.70350125972E+02  0.70350125972E+02  0.00000000000E+00 0.  1.
         23    2    1    2    0    0 -0.13266239184E+03  0.59156649201E+02  0.10779490266E+03  0.21992257196E+03  0.12508947704E+03 0.  0.
          5    1    3    3  502    0 -0.32877364492E+02 -0.33953160809E+02  0.25303045612E+01  0.47514345898E+02  0.41800000000E+01 0. -1.
         -5    1    3    3    0  502 -0.99785027345E+02  0.93109810011E+02  0.10526459810E+03  0.17240822606E+03  0.41800000000E+01 0. -1.
        -11    1    1    2    0    0  0.44509549782E+01 -0.17892988444E+02  0.11099750386E+02  0.21521489128E+02  0.00000000000E+00 0.  1.
         11    1    1    2    0    0  0.12821143686E+03 -0.41263660757E+02  0.49064961411E+03  0.50880045801E+03  0.00000000000E+00 0. -1.
</event>
<event>
 7    1  0.4394360E-006  0.1178120E+03  0.7561462E-02  0.1246751E+00
          2   -1    0    0  501    0  0.00000000000E+00  0.00000000000E+00  0.13530619473E+03  0.13530619473E+03  0.00000000000E+00 0. -1.
         -2   -1    0    0    0  501 -0.00000000000E+00 -0.00000000000E+00 -0.10821386909E+03  0.10821386909E+03  0.00000000000E+00 0.  1.
         23    2    1    2    0    0  0.46924941585E+02 -0.90099511928E+01 -0.63012626689E+00  0.13391065547E+03  0.12509411348E+03 0.  0.
          5    1    3    3  502    0  0.34758563983E+02  0.55811994999E+02  0.11040410011E+02  0.66801943154E+02  0.41800000000E+01 0.  1.
         -5    1    3    3    0  502  0.12166377601E+02 -0.64821946191E+02 -0.11670536278E+02  0.67108712318E+02  0.41800000000E+01 0.  1.
        -11    1    1    2    0    0 -0.17314470977E+02 -0.41577328041E+02  0.64946352578E+00  0.45043167241E+02  0.00000000000E+00 0.  1.
         11    1    1    2    0    0 -0.29610470608E+02  0.50587279234E+02  0.27072988381E+02  0.64566241100E+02  0.00000000000E+00 0. -1.
</event>
<event>
 7    1  0.4394360E-006  0.1081064E+03  0.7561462E-02  0.1264117E+00
         -2   -1    0    0    0  501 -0.00000000000E+00  0.00000000000E+00  0.13788553335E+04  0.13788553335E+04  0.00000000000E+00 0. -1.
          2   -1    0    0  501    0  0.00000000000E+00 -0.00000000000E+00 -0.10727025322E+02  0.10727025322E+02  0.00000000000E+00 0.  1.
         23    2    1    2    0    0 -0.17499924985E+02 -0.21977060365E+02  0.10371025620E+04  0.10449970382E+04  0.12509135549E+03 0.  0.
          5    1    3    3  502    0  0.11986334411E+02  0.47435142033E+02  0.53448221759E+03  0.53673315366E+03  0.41800000000E+01 0. -1.
         -5    1    3    3    0  502 -0.29486259396E+02 -0.69412202399E+02  0.50262034438E+03  0.50826388454E+03  0.41800000000E+01 0. -1.
        -11    1    1    2    0    0 -0.76770924571E+01  0.51903859071E+02  0.23722611092E+03  0.24295920653E+03  0.00000000000E+00 0.  1.
         11    1    1    2    0    0  0.25177017443E+02 -0.29926798706E+02  0.93799635292E+02  0.10162611411E+03  0.00000000000E+00 0. -1.
</event>
<event>
 7    1  0.4394360E-006  0.8083286E+02  0.7561462E-02  0.1326704E+00
          2   -1    0    0  501    0  0.00000000000E+00  0.00000000000E+00  0.29005971932E+02  0.29005971932E+02  0.00000000000E+00 0. -1.
         -2   -1    0    0    0  501 -0.00000000000E+00 -0.00000000000E+00 -0.49409964727E+03  0.49409964727E+03  0.00000000000E+00 0.  1.
         23    2    1    2    0    0 -0.53993351042E+02 -0.15818724100E+02 -0.27475148046E+03  0.30708591391E+03  0.12509144064E+03 0.  0.
          5    1    3    3  502    0 -0.10784036769E+02  0.35307318432E+01  0.11635736718E+02  0.16781665154E+02  0.41800000000E+01 0. -1.
         -5    1    3    3    0  502 -0.43209314273E+02 -0.19349455944E+02 -0.28638721717E+03  0.29030424876E+03  0.41800000000E+01 0. -1.
        -11    1    1    2    0    0 -0.17611879847E+02  0.24222282622E+02 -0.51507031779E+02  0.59580799004E+02  0.00000000000E+00 0.  1.
         11    1    1    2    0    0  0.71605230889E+02 -0.84035585218E+01 -0.13883516310E+03  0.15643890629E+03  0.00000000000E+00 0. -1.
</event>
<event>
 7    1  0.4394360E-006  0.1680490E+03  0.7561462E-02  0.1179898E+00
          1   -1    0    0  501    0  0.00000000000E+00  0.00000000000E+00  0.20478355612E+03  0.20478355612E+03  0.00000000000E+00 0. -1.
         -1   -1    0    0    0  501 -0.00000000000E+00 -0.00000000000E+00 -0.16446762608E+03  0.16446762608E+03  0.00000000000E+00 0.  1.
         23    2    1    2    0    0  0.49519575398E+02  0.13671748177E+03 -0.21302992318E+01  0.19182359224E+03  0.12509154327E+03 0.  0.
          5    1    3    3  502    0  0.50645868623E+02  0.24733003925E+02  0.42994050820E+02  0.71011874342E+02  0.41800000000E+01 0. -1.
         -5    1    3    3    0  502 -0.11262932250E+01  0.11198447785E+03 -0.45124350051E+02  0.12081171790E+03  0.41800000000E+01 0. -1.
        -11    1    1    2    0    0  0.17541364258E+02 -0.72752930572E+02 -0.15183336054E+01  0.74853147588E+02  0.00000000000E+00 0.  1.
         11    1    1    2    0    0 -0.67060939656E+02 -0.63964551199E+02  0.43964562876E+02  0.10257444237E+03  0.00000000000E+00 0. -1.
</event>
<event>
 7    1  0.4394360E-006  0.2987429E+03  0.7561462E-02  0.1085871E+00
          2   -1    0    0  501    0  0.00000000000E+00  0.00000000000E+00  0.39121038564E+03  0.39121038564E+03  0.00000000000E+00 0. -1.
         -2   -1    0    0    0  501 -0.00000000000E+00 -0.00000000000E+00 -0.27430678485E+03  0.27430678485E+03  0.00000000000E+00 0.  1.
         23    2    1    2    0    0  0.27095758983E+03  0.84899813299E+02 -0.64074802005E+02  0.31682669255E+03  0.12509028370E+03 0.  0.
          5    1    3    3  502    0  0.20502784912E+01 -0.19516473688E+02  0.38732042383E+01  0.20434541790E+02  0.41800000000E+01 0.  1.
         -5    1    3    3    0  502  0.26890731134E+03  0.10441628699E+03 -0.67948006243E+02  0.29639215076E+03  0.41800000000E+01 0.  1.
        -11    1    1    2    0    0 -0.96273323483E+02 -0.57403659267E+02  0.29648264318E+02  0.11594288460E+03  0.00000000000E+00 0.  1.
         11    1    1    2    0    0 -0.17468426635E+03 -0.27496154032E+02  0.15133013847E+03  0.23274759334E+03  0.00000000000E+00 0. -1.
</event>
<event>
 7    1  0.4394360E-006  0.1301271E+03  0.7561462E-02  0.1227267E+00
          2   -1    0    0  501    0  0.00000000000E+00  0.00000000000E+00  0.10806082295E+04  0.10806082295E+04  0.00000000000E+00 0. -1.
         -2   -1    0    0    0  501 -0.00000000000E+00 -0.00000000000E+00 -0.16318507643E+02  0.16318507643E+02  0.00000000000E+00 0.  1.
         23    2    1    2    0    0  0.18762303071E+02 -0.73894287396E+02  0.50099429155E+03  0.52197219471E+03  0.12508917682E+03 0.  0.
          5    1    3    3  502    0 -0.48759578127E+02 -0.59820560992E+02  0.25469563118E+03  0.26616410900E+03  0.41800000000E+01 0.  1.
         -5    1    3    3    0  502  0.67521881198E+02 -0.14073726404E+02  0.24629866037E+03  0.25580808571E+03  0.41800000000E+01 0.  1.
        -11    1    1    2    0    0 -0.52592662844E+02  0.48793859811E+02  0.39536187745E+03  0.40181817166E+03  0.00000000000E+00 0.  1.
         11    1    1    2    0    0  0.33830359773E+02  0.25100427585E+02  0.16793355283E+03  0.17313637074E+03  0.00000000000E+00 0. -1.
</event>
<event>
 7    1  0.4394360E-006  0.9461565E+02  0.7561462E-02  0.1292044E+00
         -1   -1    0    0    0  501 -0.00000000000E+00  0.00000000000E+00  0.79713047918E+03  0.79713047918E+03  0.00000000000E+00 0.  1.
          1   -1    0    0  501    0  0.00000000000E+00 -0.00000000000E+00 -0.42844964724E+02  0.42844964724E+02  0.00000000000E+00 0. -1.
         23    2    1    2    0    0  0.40322277607E+02 -0.58851914114E+02  0.69990050315E+03  0.71456002590E+03  0.12508350189E+03 0.  0.
          5    1    3    3  502    0  0.45423365682E+02 -0.38203025743E+02  0.11703269041E+03  0.13128928498E+03  0.41800000000E+01 0. -1.
         -5    1    3    3    0  502 -0.51010880746E+01 -0.20648888371E+02  0.58286781274E+03  0.58327074093E+03  0.41800000000E+01 0. -1.
        -11    1    1    2    0    0 -0.25201373133E+02 -0.17201950979E+02 -0.32685229521E+00  0.30514310703E+02  0.00000000000E+00 0.  1.
         11    1    1    2    0    0 -0.15120904474E+02  0.76053865093E+02  0.54711863605E+02  0.94901107300E+02  0.00000000000E+00 0. -1.
</event>
<event>
 7    1  0.4394360E-006  0.1054183E+03  0.7561462E-02  0.1269298E+00
          1   -1    0    0  501    0  0.00000000000E+00  0.00000000000E+00  0.61000557935E+02  0.61000557935E+02  0.00000000000E+00 0. -1.
         -1   -1    0    0    0  501 -0.00000000000E+00 -0.00000000000E+00 -0.20671112618E+03  0.20671112618E+03  0.00000000000E+00 0.  1.
         23    2    1    2    0    0  0.12204095765E+01  0.29467624303E+02 -0.94483463821E+02  0.15952115607E+03  0.12510013596E+03 0.  0.
          5    1    3    3  502    0  0.45372285129E+02  0.51983653507E+02 -0.23833418314E+02  0.73119414100E+02  0.41800000000E+01 0. -1.
         -5    1    3    3    0  502 -0.44151875553E+02 -0.22516029204E+02 -0.70650045507E+02  0.86401741973E+02  0.41800000000E+01 0. -1.
        -11    1    1    2    0    0 -0.18003626857E+02  0.27341350927E+02 -0.51401921136E+01  0.33137616473E+02  0.00000000000E+00 0. -1.
         11    1    1    2    0    0  0.16783217280E+02 -0.56808975230E+02 -0.46086912315E+02  0.75052911574E+02  0.00000000000E+00 0.  1.
</event>
<event>
 7    1  0.4394360E-006  0.1180671E+03  0.7561462E-02  0.1246320E+00
          4   -1    0    0  501    0  0.00000000000E+00  0.00000000000E+00  0.47635622170E+03  0.47635622170E+03  0.00000000000E+00 0. -1.
         -4   -1    0    0    0  501 -0.00000000000E+00 -0.00000000000E+00 -0.36806092236E+02  0.36806092236E+02  0.00000000000E+00 0.  1.
         23    2    1    2    0    0 -0.33899460110E+02 -0.47324004418E+02  0.15276899534E+03  0.20584663921E+03  0.12508292508E+03 0.  0.
          5    1    3    3  502    0  0.42270506034E+02 -0.93720568337E+01  0.90187701404E+02  0.10012954117E+03  0.41800000000E+01 0. -1.
         -5    1    3    3    0  502 -0.76169966144E+02 -0.37951947584E+02  0.62581293936E+02  0.10571709804E+03  0.41800000000E+01 0. -1.
        -11    1    1    2    0    0  0.64380043541E+02  0.40926647600E+02  0.23295905041E+03  0.24513200455E+03  0.00000000000E+00 0. -1.
         11    1    1    2    0    0 -0.30480583431E+02  0.63973568175E+01  0.53822083718E+02  0.62183670174E+02  0.00000000000E+00 0.  1.
</event>
<event>
 7    1  0.4394360E-006  0.1009145E+03  0.7561462E-02  0.1278385E+00
         -1   -1    0    0    0  501 -0.00000000000E+00  0.00000000000E+00  0.33132654353E+02  0.33132654353E+02  0.00000000000E+00 0.  1.
          1   -1    0    0  501    0  0.00000000000E+00 -0.00000000000E+00 -0.39334801411E+03  0.39334801411E+03  0.00000000000E+00 0. -1.
         23    2    1    2    0    0  0.41368159352E+02  0.88606302076E+01 -0.15007218324E+03  0.19325182303E+03  0.11416992401E+03 0.  0.
          5    1    3    3  502    0  0.60336101827E+02 -0.26986952935E+02 -0.13391269522E+03  0.14939485652E+03  0.41800000000E+01 0. -1.
         -5    1    3    3    0  502 -0.18967942475E+02  0.35847583142E+02 -0.16159488018E+02  0.43856966515E+02  0.41800000000E+01 0.  1.
        -11    1    1    2    0    0 -0.64171059532E+02  0.10365300591E+02 -0.10121213694E+03  0.12028824133E+03  0.00000000000E+00 0.  1.
         11    1    1    2    0    0  0.22802900180E+02 -0.19225930799E+02 -0.10893103958E+03  0.11294060410E+03  0.00000000000E+00 0. -1.
</event>
<event>
 7    1  0.4394360E-006  0.9759932E+02  0.7561462E-02  0.1285427E+00
         -3   -1    0    0    0  501 -0.00000000000E+00  0.00000000000E+00  0.12052970202E+03  0.12052970202E+03  0.00000000000E+00 0.  1.
          3   -1    0    0  501    0  0.00000000000E+00 -0.00000000000E+00 -0.91239183863E+02  0.91239183863E+02  0.00000000000E+00 0. -1.
         23    2    1    2    0    0 -0.12252251496E+02  0.29974636251E+01  0.34782803863E+02  0.11983963400E+03  0.11398505156E+03 0.  0.
          5    1    3    3  502    0 -0.25374869787E+02  0.50912438121E+02 -0.32537244058E+01  0.57131598040E+02  0.41800000000E+01 0. -1.
         -5    1    3    3    0  502  0.13122618291E+02 -0.47914974496E+02  0.38036528269E+02  0.62708035964E+02  0.41800000000E+01 0.  1.
        -11    1    1    2    0    0 -0.33332445583E+02  0.18261003601E+02  0.99983577881E+01  0.39299915261E+02  0.00000000000E+00 0.  1.
         11    1    1    2    0    0  0.45584697079E+02 -0.21258467226E+02 -0.15490643497E+02  0.52629336615E+02  0.00000000000E+00 0. -1.
</event>
<event>
 7    1  0.4394360E-006  0.9473029E+02  0.7561462E-02  0.1291785E+00
         -4   -1    0    0    0  501 -0.00000000000E+00  0.00000000000E+00  0.71896404452E+02  0.71896404452E+02  0.00000000000E+00 0.  1.
          4   -1    0    0  501    0  0.00000000000E+00 -0.00000000000E+00 -0.18995175950E+03  0.18995175950E+03  0.00000000000E+00 0. -1.
         23    2    1    2    0    0 -0.47490513665E+02 -0.16273355513E+02 -0.47810904224E+02  0.14301612028E+03  0.12509019590E+03 0.  0.
          5    1    3    3  502    0  0.11364280134E+02  0.43224365045E+02 -0.37691032254E+02  0.58613811588E+02  0.41800000000E+01 0. -1.
         -5    1    3    3    0  502 -0.58854793799E+02 -0.59497720557E+02 -0.10119871970E+02  0.84402308696E+02  0.41800000000E+01 0. -1.
        -11    1    1    2    0    0  0.21629186864E+02 -0.10073926665E+02  0.13426320906E+02  0.27378309223E+02  0.00000000000E+00 0.  1.
         11    1    1    2    0    0  0.25861326800E+02  0.26347282178E+02 -0.83670771731E+02  0.91453734446E+02  0.00000000000E+00 0. -1.
</event>
<event>
 7    1  0.4394360E-006  0.1218989E+03  0.7561462E-02  0.1239997E+00
          2   -1    0    0  501    0  0.00000000000E+00  0.00000000000E+00  0.13068843642E+03  0.13068843642E+03  0.00000000000E+00 0. -1.
         -2   -1    0    0    0  501 -0.00000000000E+00 -0.00000000000E+00 -0.15456808791E+03  0.15456808791E+03  0.00000000000E+00 0.  1.
         23    2    1    2    0    0  0.10311469170E+02 -0.89000588704E+02 -0.56497529630E+01  0.15396429960E+03  0.12508259134E+03 0.  0.
          5    1    3    3  502    0 -0.24951358992E+02  0.23923514886E+02  0.47094348949E+01  0.35136249900E+02  0.41800000000E+01 0.  1.
         -5    1    3    3    0  502  0.35262828161E+02 -0.11292410359E+03 -0.10359187858E+02  0.11882804970E+03  0.41800000000E+01 0.  1.
        -11    1    1    2    0    0 -0.92500593589E+01  0.26051905035E+02  0.37923738708E+02  0.46930537091E+02  0.00000000000E+00 0. -1.
         11    1    1    2    0    0 -0.10614098107E+01  0.62948683669E+02 -0.56153637242E+02  0.84361687643E+02  0.00000000000E+00 0.  1.
</event>
<event>
 7    1  0.4394360E-006  0.1818845E+03  0.7561462E-02  0.1165992E+00
         -1   -1    0    0    0  501 -0.00000000000E+00  0.00000000000E+00  0.14504424279E+03  0.14504424279E+03  0.00000000000E+00 0.  1.
          1   -1    0    0  501    0  0.00000000000E+00 -0.00000000000E+00 -0.26878774525E+03  0.26878774525E+03  0.00000000000E+00 0. -1.
         23    2    1    2    0    0  0.69417706176E+02 -0.12873754134E+03  0.14542682593E+02  0.19300588253E+03  0.12509040168E+03 0.  0.
          5    1    3    3  502    0  0.61386064118E+02  0.16362101241E+01  0.89620427880E+01  0.62199008532E+02  0.41800000000E+01 0.  1.
         -5    1    3    3    0  502  0.80316420586E+01 -0.13037375146E+03  0.55806398054E+01  0.13080687400E+03  0.41800000000E+01 0.  1.
        -11    1    1    2    0    0 -0.38505594667E+02 -0.64113394268E+00 -0.23410177162E+02  0.45068040430E+02  0.00000000000E+00 0.  1.
         11    1    1    2    0    0 -0.30912111509E+02  0.12937867528E+03 -0.11487600789E+03  0.17575806509E+03  0.00000000000E+00 0. -1.
</event>
<event>
 7    1  0.4394360E-006  0.1118193E+03  0.7561462E-02  0.1257237E+00
          1   -1    0    0  501    0  0.00000000000E+00  0.00000000000E+00  0.20995793162E+03  0.20995793162E+03  0.00000000000E+00 0. -1.
         -1   -1    0    0    0  501 -0.00000000000E+00 -0.00000000000E+00 -0.70893470431E+02  0.70893470431E+02  0.00000000000E+00 0.  1.
         23    2    1    2    0    0 -0.49537330003E+02 -0.26423640016E+02  0.72725048850E+02  0.15516576689E+03  0.12504129986E+03 0.  0.
          5    1    3    3  502    0 -0.79158336636E+02 -0.30359634818E+01  0.84018427897E+02  0.11555011017E+03  0.41800000000E+01 0.  1.
         -5    1    3    3    0  502  0.29621006633E+02 -0.23387676534E+02 -0.11293379047E+02  0.39615656727E+02  0.41800000000E+01 0.  1.
        -11    1    1    2    0    0  0.27422068674E+02  0.60094808028E+02  0.35795200496E+02  0.75130900306E+02  0.00000000000E+00 0.  1.
         11    1    1    2    0    0  0.22115261329E+02 -0.33671168012E+02  0.30544211847E+02  0.50554734855E+02  0.00000000000E+00 0. -1.
</event>
<event>
 7    1  0.4394360E-006  0.2266293E+03  0.7561462E-02  0.1129035E+00
         -1   -1    0    0    0  501 -0.00000000000E+00  0.00000000000E+00  0.16002046015E+03  0.16002046015E+03  0.00000000000E+00 0.  1.
          1   -1    0    0  501    0  0.00000000000E+00 -0.00000000000E+00 -0.44571041231E+03  0.44571041231E+03  0.00000000000E+00 0. -1.
         23    2    1    2    0    0 -0.11507562718E+03 -0.16462879390E+03  0.10103985217E+02  0.23684224846E+03  0.12508845024E+03 0.  0.
          5    1    3    3  502    0 -0.11508898679E+03 -0.18304299145E+03  0.16547297629E+02  0.21689051860E+03  0.41800000000E+01 0.  1.
         -5    1    3    3    0  502  0.13359603535E-01  0.18414197544E+02 -0.64433124113E+01  0.19951729862E+02  0.41800000000E+01 0.  1.
        -11    1    1    2    0    0  0.91321063090E+02  0.17070614099E+03 -0.27721738427E+03  0.33812660540E+03  0.00000000000E+00 0. -1.
         11    1    1    2    0    0  0.23754564091E+02 -0.60773470872E+01 -0.18576553111E+02  0.30762018599E+02  0.00000000000E+00 0.  1.
</event>
<event>
 6    1  0.4394360E-006  0.3034546E+03  0.7561462E-02  0.1083526E+00
          1   -1    0    0  501    0  0.00000000000E+00  0.00000000000E+00  0.15054953485E+04  0.15054953485E+04  0.00000000000E+00 0. -1.
         -1   -1    0    0    0  501 -0.00000000000E+00 -0.00000000000E+00 -0.80466927743E+02  0.80466927743E+02  0.00000000000E+00 0.  1.
          5    1    1    2  502    0 -0.73537290013E+02  0.27383006754E+03  0.81002090052E+03  0.85822023432E+03  0.41800000000E+01 0. -1.
         -5    1    1    2    0  502 -0.14913697048E+02  0.62662921616E+01  0.24973544627E+03  0.25029372805E+03  0.41800000000E+01 0.  1.
        -11    1    1    2    0    0  0.10166715631E+03 -0.18919873416E+03  0.23944721595E+03  0.32166339690E+03  0.00000000000E+00 0.  1.
         11    1    1    2    0    0 -0.13216169246E+02 -0.90897625544E+02  0.12582485797E+03  0.15578491693E+03  0.00000000000E+00 0. -1.
</event>
<event>
 6    1  0.4394360E-006  0.1067172E+03  0.7561462E-02  0.1266773E+00
         -1   -1    0    0    0  501 -0.00000000000E+00  0.00000000000E+00  0.11191647782E+03  0.11191647782E+03  0.00000000000E+00 0.  1.
          1   -1    0    0  501    0  0.00000000000E+00 -0.00000000000E+00 -0.12342851151E+03  0.12342851151E+03  0.00000000000E+00 0. -1.
          5    1    1    2  502    0 -0.30468556611E+02 -0.48820089518E+02 -0.39501862379E+02  0.69925700668E+02  0.41800000000E+01 0. -1.
         -5    1    1    2    0  502  0.37833544664E+02  0.66137898799E+02  0.31216399451E+02  0.82447163409E+02  0.41800000000E+01 0.  1.
        -11    1    1    2    0    0 -0.24654298368E+02  0.24141735832E+02 -0.13223762831E+02  0.36953020721E+02  0.00000000000E+00 0. -1.
         11    1    1    2    0    0  0.17289310314E+02 -0.41459545113E+02  0.99971920738E+01  0.46019104527E+02  0.00000000000E+00 0.  1.
</event>
<event>
 7    1  0.4394360E-006  0.1688150E+03  0.7561462E-02  0.1179089E+00
          2   -1    0    0  501    0  0.00000000000E+00  0.00000000000E+00  0.24016216156E+03  0.24016216156E+03  0.00000000000E+00 0. -1.
         -2   -1    0    0    0  501 -0.00000000000E+00 -0.00000000000E+00 -0.17282537157E+03  0.17282537157E+03  0.00000000000E+00 0.  1.
         23    2    1    2    0    0  0.12594783431E+03 -0.76732263389E+02 -0.54670573680E+02  0.20097026965E+03  0.12509788345E+03 0.  0.
          5    1    3    3  502    0 -0.10529695859E+02 -0.47700925050E+02 -0.34446831817E+02  0.59919190313E+02  0.41800000000E+01 0. -1.
         -5    1    3    3    0  502  0.13647753017E+03 -0.29031338338E+02 -0.20223741863E+02  0.14105107934E+03  0.41800000000E+01 0. -1.
        -11    1    1    2    0    0 -0.55878004155E+02  0.46497936506E+02  0.57115508155E+01  0.72917976250E+02  0.00000000000E+00 0.  1.
         11    1    1    2    0    0 -0.70069830157E+02  0.30234326883E+02  0.11629581285E+03  0.13909928723E+03  0.00000000000E+00 0. -1.
</event>
<event>
 7    1  0.4394360E-006  0.1616868E+03  0.7561462E-02  0.1186805E+00
          1   -1    0    0  501    0  0.00000000000E+00  0.00000000000E+00  0.14097619754E+04  0.14097619754E+04  0.00000000000E+00 0. -1.
         -1   -1    0    0    0  501 -0.00000000000E+00 -0.00000000000E+00 -0.27641362023E+02  0.27641362023E+02  0.00000000000E+00 0.  1.
         23    2    1    2    0    0  0.15714326464E+03 -0.69232537931E+01  0.69035976752E+03  0.71901736729E+03  0.12508968298E+03 0.  0.
          5    1    3    3  502    0  0.13525916953E+01 -0.78393528324E+01  0.27868303154E+03  0.27882788495E+03  0.41800000000E+01 0. -1.
         -5    1    3    3    0  502  0.15579067295E+03  0.91609903929E+00  0.41167673598E+03  0.44018948234E+03  0.41800000000E+01 0. -1.
        -11    1    1    2    0    0 -0.30853415148E+02 -0.65183546718E+01  0.26737183478E+02  0.41343671272E+02  0.00000000000E+00 0.  1.
         11    1    1    2    0    0 -0.12628984950E+03  0.13441608465E+02  0.66502366237E+03  0.67704229885E+03  0.00000000000E+00 0. -1.
</event>
<event>
 7    1  0.4394360E-006  0.1581924E+03  0.7561462E-02  0.1190753E+00
          2   -1    0    0  501    0  0.00000000000E+00  0.00000000000E+00  0.44570495893E+03  0.44570495893E+03  0.00000000000E+00 0. -1.
         -2   -1    0    0    0  501 -0.00000000000E+00 -0.00000000000E+00 -0.75123143946E+02  0.75123143946E+02  0.00000000000E+00 0.  1.
         23    2    1    2    0    0  0.13219697699E+03 -0.47878122559E+02  0.13342004946E+03  0.23069003637E+03  0.12509447605E+03 0.  0.
          5    1    3    3  502    0  0.14800396454E+02 -0.46697467870E+02  0.95211098453E+02  0.10715563872E+03  0.41800000000E+01 0.  1.
         -5    1    3    3    0  502  0.11739658053E+03 -0.11806546889E+01  0.38208951005E+02  0.12353439765E+03  0.41800000000E+01 0.  1.
        -11    1    1    2    0    0 -0.95239786173E+02  0.57890528376E+02  0.10715323094E+03  0.15460836021E+03  0.00000000000E+00 0.  1.
         11    1    1    2    0    0 -0.36957190815E+02 -0.10012405817E+02  0.13000853458E+03  0.13552970629E+03  0.00000000000E+00 0. -1.
</event>
<event>
 7    1  0.4394360E-006  0.1036530E+03  0.7561462E-02  0.1272796E+00
         -1   -1    0    0    0  501 -0.00000000000E+00  0.00000000000E+00  0.23444826288E+02  0.23444826288E+02  0.00000000000E+00 0.  1.
          1   -1    0    0  501    0  0.00000000000E+00 -0.00000000000E+00 -0.62916844960E+03  0.62916844960E+03  0.00000000000E+00 0. -1.
         23    2    1    2    0    0 -0.46214374831E+02  0.24893876629E+02 -0.28461970399E+03  0.31529333886E+03  0.12508413206E+03 0.  0.
          5    1    3    3  502    0 -0.86409854618E+02  0.34106859871E+02 -0.17645253211E+03  0.19945653500E+03  0.41800000000E+01 0.  1.
         -5    1    3    3    0  502  0.40195479787E+02 -0.92129832421E+01 -0.10816717188E+03  0.11583680386E+03  0.41800000000E+01 0.  1.
        -11    1    1    2    0    0  0.55300711718E+02 -0.29501328904E+02 -0.32107155080E+03  0.32713214128E+03  0.00000000000E+00 0. -1.
         11    1    1    2    0    0 -0.90863368867E+01  0.46074522753E+01 -0.32368514595E-01  0.10187795748E+02  0.00000000000E+00 0.  1.
</event>
<event>
 7    1  0.4394360E-006  0.7044650E+02  0.7561462E-02  0.1358581E+00
         -1   -1    0    0    0  501 -0.00000000000E+00  0.00000000000E+00  0.21032698492E+03  0.21032698492E+03  0.00000000000E+00 0.  1.
          1   -1    0    0  501    0  0.00000000000E+00 -0.00000000000E+00 -0.11190495187E+03  0.11190495187E+03  0.00000000000E+00 0. -1.
         23    2    1    2    0    0 -0.20182178123E+01 -0.31623348793E+02  0.16588366891E+03  0.20531103162E+03  0.11675238199E+03 0.  0.
          5    1    3    3  502    0  0.33648039938E+02  0.11253675323E+02  0.63858975630E+01  0.36291705494E+02  0.41800000000E+01 0. -1.
         -5    1    3    3    0  502 -0.35666257751E+02 -0.42877024116E+02  0.15949777135E+03  0.16901932613E+03  0.41800000000E+01 0.  1.
        -11    1    1    2    0    0  0.19674543350E+02  0.13029642292E+02 -0.83437287400E+02  0.86710092624E+02  0.00000000000E+00 0. -1.
         11    1    1    2    0    0 -0.17656325537E+02  0.18593706501E+02  0.15975651533E+02  0.30210812548E+02  0.00000000000E+00 0.  1.
</event>
<event>
 7    1  0.4394360E-006  0.1308029E+03  0.7561462E-02  0.1226269E+00
         -4   -1    0    0    0  501 -0.00000000000E+00  0.00000000000E+00  0.66969328932E+02  0.66969328932E+02  0.00000000000E+00 0. -1.
          4   -1    0    0  501    0  0.00000000000E+00 -0.00000000000E+00 -0.67181863022E+03  0.67181863022E+03  0.00000000000E+00 0.  1.
         23    2    1    2    0    0  0.94319692384E+02 -0.81010312047E+02 -0.85520798406E+02  0.19619176900E+03  0.12537355477E+03 0.  0.
          5    1    3    3  502    0  0.85835198205E+02 -0.49446219368E+02 -0.11509820966E+03  0.15191339680E+03  0.41800000000E+01 0.  1.
         -5    1    3    3    0  502  0.84844941792E+01 -0.31564092679E+02  0.29577411256E+02  0.44278372200E+02  0.41800000000E+01 0.  1.
        -11    1    1    2    0    0 -0.11269439887E+02 -0.27015317687E+01 -0.17080142666E+01  0.11713917448E+02  0.00000000000E+00 0. -1.
         11    1    1    2    0    0 -0.83050252498E+02  0.83711843815E+02 -0.51762048862E+03  0.53088227270E+03  0.00000000000E+00 0.  1.
</event>
<event>
 7    1  0.4394360E-006  0.9046317E+02  0.7561462E-02  0.1301734E+00
         -1   -1    0    0    0  501 -0.00000000000E+00  0.00000000000E+00  0.19500232506E+02  0.19500232506E+02  0.00000000000E+00 0.  1.
          1   -1    0    0  501    0  0.00000000000E+00 -0.00000000000E+00 -0.86550368106E+03  0.86550368106E+03  0.00000000000E+00 0. -1.
         23    2    1    2    0    0  0.63342666083E+02  0.30938510517E+02 -0.41111503025E+03  0.43546207783E+03  0.12506865456E+03 0.  0.
          5    1    3    3  502    0  0.47839005380E+02 -0.74520850258E+01 -0.42658700298E+02  0.64663290344E+02  0.41800000000E+01 0.  1.
         -5    1    3    3    0  502  0.15503660703E+02  0.38390595543E+02 -0.36845632995E+03  0.37079878748E+03  0.41800000000E+01 0.  1.
        -11    1    1    2    0    0 -0.72095123430E+02 -0.36024013762E+02 -0.43135607939E+03  0.43882058249E+03  0.00000000000E+00 0. -1.
         11    1    1    2    0    0  0.87524573470E+01  0.50855032444E+01 -0.35323389116E+01  0.10721253240E+02  0.00000000000E+00 0.  1.
</event>
<event>
 7    1  0.4394360E-006  0.2104183E+03  0.7561462E-02  0.1141235E+00
          1   -1    0    0  501    0  0.00000000000E+00  0.00000000000E+00  0.12059747760E+03  0.12059747760E+03  0.00000000000E+00 0. -1.
         -1   -1    0    0    0  501 -0.00000000000E+00 -0.00000000000E+00 -0.38879389013E+03  0.38879389013E+03  0.00000000000E+00 0.  1.
         23    2    1    2    0    0  0.48420323480E+02 -0.17716118998E+03 -0.17910390566E+03  0.28540367035E+03  0.12508569489E+03 0.  0.
          5    1    3    3  502    0 -0.20195538095E+02 -0.13104383410E+03 -0.74967656977E+02  0.15237443423E+03  0.41800000000E+01 0. -1.
         -5    1    3    3    0  502  0.68615861574E+02 -0.46117355885E+02 -0.10413624868E+03  0.13302923612E+03  0.41800000000E+01 0. -1.
        -11    1    1    2    0    0 -0.65756676233E+02  0.66977351890E+02 -0.44304097456E+02  0.10379190328E+03  0.00000000000E+00 0. -1.
         11    1    1    2    0    0  0.17336352753E+02  0.11018383809E+03 -0.44788409416E+02  0.12019579411E+03  0.00000000000E+00 0.  1.
</event>
<event>
 7    1  0.4394360E-006  0.8740924E+02  0.7561462E-02  0.1309250E+00
          2   -1    0    0  501    0  0.00000000000E+00  0.00000000000E+00  0.17001370316E+03  0.17001370316E+03  0.00000000000E+00 0. -1.
         -2   -1    0    0    0  501 -0.00000000000E+00 -0.00000000000E+00 -0.92869316136E+02  0.92869316136E+02  0.00000000000E+00 0.  1.
         23    2    1    2    0    0  0.27506519122E+02 -0.22440674379E+02 -0.77501414337E+01  0.13026120654E+03  0.12509086608E+03 0.  0.
          5    1    3    3  502    0 -0.30674288543E+02  0.40226583744E+01 -0.46047592739E+02  0.55632247438E+02  0.41800000000E+01 0. -1.
         -5    1    3    3    0  502  0.58180807664E+02 -0.26463332754E+02  0.38297451305E+02  0.74628959107E+02  0.41800000000E+01 0. -1.
        -11    1    1    2    0    0 -0.46466458387E+02 -0.44123808386E+01  0.58826893139E+01  0.47044732896E+02  0.00000000000E+00 0.  1.
         11    1    1    2    0    0  0.18959939266E+02  0.26853055218E+02  0.79011839140E+02  0.85577079851E+02  0.00000000000E+00 0. -1.
</event>
<event>
 7    1  0.4394360E-006  0.6552008E+02  0.7561462E-02  0.1376026E+00
         -1   -1    0    0    0  501 -0.00000000000E+00  0.00000000000E+00  0.72581384496E+02  0.72581384496E+02  0.00000000000E+00 0.  1.
          1   -1    0    0  501    0  0.00000000000E+00 -0.00000000000E+00 -0.18200277438E+03  0.18200277438E+03  0.00000000000E+00 0. -1.
         23    2    1    2    0    0 -0.23824624324E+02  0.27156172029E+02 -0.48591753396E+02  0.13897241085E+03  0.12508837706E+03 0.  0.
          5    1    3    3  502    0 -0.24708761230E+02  0.20259917139E+02 -0.90614356509E+02  0.96173910857E+02  0.41800000000E+01 0.  1.
         -5    1    3    3    0  502  0.88413690565E+00  0.68962548897E+01  0.42022603112E+02  0.42798499996E+02  0.41800000000E+01 0.  1.
        -11    1    1    2    0    0 -0.60052382268E+01 -0.51715763736E+02 -0.12151931955E+02  0.53462627650E+02  0.00000000000E+00 0.  1.
         11    1    1    2    0    0  0.29829862551E+02  0.24559591707E+02 -0.48677704535E+02  0.62149120375E+02  0.00000000000E+00 0. -1.
</event>
<event>
 7    1  0.4394360E-006  0.1079439E+03  0.7561462E-02  0.1264426E+00
          1   -1    0    0  501    0  0.00000000000E+00  0.00000000000E+00  0.52187221913E+03  0.52187221913E+03  0.00000000000E+00 0. -1.
         -1   -1    0    0    0  501 -0.00000000000E+00 -0.00000000000E+00 -0.44524648312E+02  0.44524648312E+02  0.00000000000E+00 0.  1.
         23    2    1    2    0    0 -0.81295033119E+01  0.45254431832E+02  0.78540966486E+02  0.15469427245E+03  0.12509029574E+03 0.  0.
          5    1    3    3  502    0  0.47225561683E+02  0.58047031808E+02  0.33604460907E+02  0.82136738253E+02  0.41800000000E+01 0. -1.
         -5    1    3    3    0  502 -0.55355064995E+02 -0.12792599977E+02  0.44936505580E+02  0.72557534195E+02  0.41800000000E+01 0. -1.
        -11    1    1    2    0    0  0.49848970017E+01  0.18998929216E+02  0.22203446879E+02  0.29644587411E+02  0.00000000000E+00 0.  1.
         11    1    1    2    0    0  0.31446063102E+01 -0.64253361047E+02  0.37660315745E+03  0.38205800758E+03  0.00000000000E+00 0. -1.
</event>
<event>
 7    1  0.4394360E-006  0.7671568E+02  0.7561462E-02  0.1338639E+00
          2   -1    0    0  501    0  0.00000000000E+00  0.00000000000E+00  0.27163446305E+03  0.27163446305E+03  0.00000000000E+00 0. -1.
         -2   -1    0    0    0  501 -0.00000000000E+00 -0.00000000000E+00 -0.45396990288E+02  0.45396990288E+02  0.00000000000E+00 0.  1.
         23    2    1    2    0    0 -0.77358475261E+01 -0.95577814847E+01  0.10482971845E+03  0.16367066960E+03  0.12509046205E+03 0.  0.
          5    1    3    3  502    0  0.18657332510E+02  0.32689225406E+02 -0.93675002457E+01  0.39011587700E+02  0.41800000000E+01 0.  1.
         -5    1    3    3    0  502 -0.26393180036E+02 -0.42247006891E+02  0.11419721869E+03  0.12465908190E+03  0.41800000000E+01 0.  1.
        -11    1    1    2    0    0 -0.64631889742E+01 -0.26259518653E+02  0.11346142523E+01  0.27066999854E+02  0.00000000000E+00 0.  1.
         11    1    1    2    0    0  0.14199036500E+02  0.35817300137E+02  0.12027314007E+03  0.12629378389E+03  0.00000000000E+00 0. -1.
</event>
<event>
 7    1  0.4394360E-006  0.9073897E+02  0.7561462E-02  0.1301072E+00
          2   -1    0    0  501    0  0.00000000000E+00  0.00000000000E+00  0.62081641483E+02  0.62081641483E+02  0.00000000000E+00 0. -1.
         -2   -1    0    0    0  501 -0.00000000000E+00 -0.00000000000E+00 -0.19559089161E+03  0.19559089161E+03  0.00000000000E+00 0.  1.
         23    2    1    2    0    0  0.13978075055E+02  0.11141249685E+02 -0.81676114203E+02  0.15046063702E+03  0.12509157300E+03 0.  0.
          5    1    3    3  502    0 -0.37900167663E+02 -0.74316580251E+00  0.14223060742E+02  0.40703106284E+02  0.41800000000E+01 0. -1.
         -5    1    3    3    0  502  0.51878242718E+02  0.11884415488E+02 -0.95899174945E+02  0.10975753074E+03  0.41800000000E+01 0. -1.
        -11    1    1    2    0    0  0.37073220785E+02  0.23601560577E+01 -0.36840340313E+02  0.52318301868E+02  0.00000000000E+00 0.  1.
         11    1    1    2    0    0 -0.51051295840E+02 -0.13501405743E+02 -0.14992795611E+02  0.54893594200E+02  0.00000000000E+00 0. -1.
</event>
<event>
 7    1  0.4394360E-006  0.8732587E+02  0.7561462E-02  0.1309460E+00
          1   -1    0    0  501    0  0.00000000000E+00  0.00000000000E+00  0.42067138067E+02  0.42067138067E+02  0.00000000000E+00 0. -1.
         -1   -1    0    0    0  501 -0.00000000000E+00 -0.00000000000E+00 -0.30677959680E+03  0.30677959680E+03  0.00000000000E+00 0.  1.
         23    2    1    2    0    0 -0.15664175617E+02 -0.33905241344E+01 -0.19689827889E+03  0.23382120888E+03  0.12508622401E+03 0.  0.
          5    1    3    3  502    0  0.27713655282E+02 -0.34348228068E+02 -0.16655534307E+03  0.17235429257E+03  0.41800000000E+01 0. -1.
         -5    1    3    3    0  502 -0.43377830899E+02  0.30957703934E+02 -0.30342935818E+02  0.61466916308E+02  0.41800000000E+01 0. -1.
        -11    1    1    2    0    0  0.45960397317E+01 -0.35824073103E+02 -0.24177401320E+00  0.36118502870E+02  0.00000000000E+00 0. -1.
         11    1    1    2    0    0  0.11068135885E+02  0.39214597237E+02 -0.67572405830E+02  0.78907023123E+02  0.00000000000E+00 0.  1.
</event>
<event>
 7    1  0.4394360E-006  0.1331260E+03  0.7561462E-02  0.1222890E+00
         -1   -1    0    0    0  501 -0.00000000000E+00  0.00000000000E+00  0.48217093006E+02  0.48217093006E+02  0.00000000000E+00 0.  1.
          1   -1    0    0  501    0  0.00000000000E+00 -0.00000000000E+00 -0.52002486842E+03  0.52002486842E+03  0.00000000000E+00 0. -1.
         23    2    1    2    0    0 -0.66062350998E+02 -0.83233066166E+02 -0.17626662405E+03  0.24085122682E+03  0.12508962060E+03 0.  0.
          5    1    3    3  502    0 -0.34556084447E+02  0.20904131630E+02 -0.99969706159E+02  0.10790051085E+03  0.41800000000E+01 0. -1.
         -5    1    3    3    0  502 -0.31506266550E+02 -0.10413719780E+03 -0.76296917891E+02  0.13295071597E+03  0.41800000000E+01 0. -1.
        -11    1    1    2    0    0  0.29551809143E+02  0.73148707163E+02 -0.95864845569E+02  0.12415357989E+03  0.00000000000E+00 0.  1.
         11    1    1    2    0    0  0.36510541855E+02  0.10084359003E+02 -0.19967630579E+03  0.20323715472E+03  0.00000000000E+00 0. -1.
</event>
<event>
 7    1  0.4394360E-006  0.5916736E+02  0.7561462E-02  0.1401360E+00
         -1   -1    0    0    0  501 -0.00000000000E+00  0.00000000000E+00  0.22645190261E+02  0.22645190261E+02  0.00000000000E+00 0.  1.
          1   -1    0    0  501    0  0.00000000000E+00 -0.00000000000E+00 -0.66363425002E+03  0.66363425002E+03  0.00000000000E+00 0. -1.
         23    2    1    2    0    0 -0.45912578414E+02  0.17411544558E+02 -0.45307468777E+03  0.47258426727E+03  0.12509232684E+03 0.  0.
          5    1    3    3  502    0 -0.52281364021E+02  0.19515590778E+02 -0.70883448130E+02  0.90311322247E+02  0.41800000000E+01 0.  1.
         -5    1    3    3    0  502  0.63687856076E+01 -0.21040462196E+01 -0.38219123964E+03  0.38227294502E+03  0.41800000000E+01 0.  1.
        -11    1    1    2    0    0  0.60218423335E+01 -0.13011594155E+02  0.60943556149E+01  0.15579003110E+02  0.00000000000E+00 0.  1.
         11    1    1    2    0    0  0.39890736080E+02 -0.43999504035E+01 -0.19400872761E+03  0.19811616990E+03  0.00000000000E+00 0. -1.
</event>
<event>
 7    1  0.4394360E-006  0.1359708E+03  0.7561462E-02  0.1218856E+00
         -2   -1    0    0    0  501 -0.00000000000E+00  0.00000000000E+00  0.85596924060E+02  0.85596924060E+02  0.00000000000E+00 0.  1.
          2   -1    0    0  501    0  0.00000000000E+00 -0.00000000000E+00 -0.42050455933E+03  0.42050455933E+03  0.00000000000E+00 0. -1.
         23    2    1    2    0    0  0.15884592546E+02  0.10565998298E+03 -0.25752604948E+02  0.16651598809E+03  0.12509206748E+03 0.  0.
          5    1    3    3  502    0 -0.18516499625E+02  0.97846797732E+02  0.26682121668E+02  0.10318073755E+03  0.41800000000E+01 0.  1.
         -5    1    3    3    0  502  0.34401092170E+02  0.78131852430E+01 -0.52434726616E+02  0.63335250544E+02  0.41800000000E+01 0.  1.
        -11    1    1    2    0    0 -0.51335297494E+02 -0.63999008973E+02 -0.22211321741E+03  0.23678147576E+03  0.00000000000E+00 0.  1.
         11    1    1    2    0    0  0.35450704948E+02 -0.41660974003E+02 -0.87041812915E+02  0.10280401953E+03  0.00000000000E+00 0. -1.
</event>
<event>
 7    1  0.4394360E-006  0.1801084E+03  0.7561462E-02  0.1167698E+00
         -2   -1    0    0    0  501 -0.00000000000E+00  0.00000000000E+00  0.75536224477E+03  0.75536224477E+03  0.00000000000E+00 0.  1.
          2   -1    0    0  501    0  0.00000000000E+00 -0.00000000000E+00 -0.12415594152E+03  0.12415594152E+03  0.00000000000E+00 0. -1.
         23    2    1    2    0    0 -0.28351006816E+02  0.15150732843E+03  0.66844062045E+03  0.69524241335E+03  0.11309686154E+03 0.  0.
          5    1    3    3  502    0  0.31279372437E+02  0.12145924193E+02  0.20088501046E+03  0.20371102680E+03  0.41800000000E+01 0. -1.
         -5    1    3    3    0  502 -0.59630379254E+02  0.13936140424E+03  0.46755561000E+03  0.49153138655E+03  0.41800000000E+01 0.  1.
        -11    1    1    2    0    0  0.33123703108E+02 -0.12086823218E+02  0.10569812595E+02  0.36810215177E+02  0.00000000000E+00 0.  1.
         11    1    1    2    0    0 -0.47726962913E+01 -0.13942050521E+03 -0.47804129795E+02  0.14746555777E+03  0.00000000000E+00 0. -1.
</event>
<event>
 7    1  0.4394360E-006  0.1398070E+03  0.7561462E-02  0.1213589E+00
          1   -1    0    0  501    0  0.00000000000E+00  0.00000000000E+00  0.43787808498E+02  0.43787808498E+02  0.00000000000E+00 0. -1.
         -1   -1    0    0    0  501 -0.00000000000E+00 -0.00000000000E+00 -0.54862287990E+03  0.54862287990E+03  0.00000000000E+00 0.  1.
         23    2    1    2    0    0  0.62717029860E+02 -0.57647031085E+02 -0.37662214342E+03  0.40589235581E+03  0.12509100512E+03 0.  0.
          5    1    3    3  502    0  0.90553719743E+02 -0.75529600273E+02 -0.29305702444E+03  0.31591864245E+03  0.41800000000E+01 0. -1.
         -5    1    3    3    0  502 -0.27836689883E+02  0.17882569187E+02 -0.83565118983E+02  0.89973713356E+02  0.41800000000E+01 0. -1.
        -11    1    1    2    0    0  0.11351840317E+02  0.52842999680E+02 -0.25418476023E+02  0.59727261925E+02  0.00000000000E+00 0. -1.
         11    1    1    2    0    0 -0.74068870177E+02  0.48040314057E+01 -0.10279445196E+03  0.12679107067E+03  0.00000000000E+00 0.  1.
</event>
<event>
 7    1  0.4394360E-006  0.2024847E+03  0.7561462E-02  0.1147659E+00
         -3   -1    0    0    0  501 -0.00000000000E+00  0.00000000000E+00  0.40051367388E+03  0.40051367388E+03  0.00000000000E+00 0.  1.
          3   -1    0    0  501    0  0.00000000000E+00 -0.00000000000E+00 -0.12345802093E+03  0.12345802093E+03  0.00000000000E+00 0. -1.
         23    2    1    2    0    0 -0.84405442178E+02 -0.15829479308E+03  0.23059605080E+03  0.31781060126E+03  0.12509004534E+03 0.  0.
          5    1    3    3  502    0 -0.10595157920E+03 -0.14737243804E+03  0.23034640751E+03  0.29329390120E+03  0.41800000000E+01 0.  1.
         -5    1    3    3    0  502  0.21546137019E+02 -0.10922355042E+02  0.24964329011E+00  0.24516700061E+02  0.41800000000E+01 0.  1.
        -11    1    1    2    0    0  0.17348985091E+02  0.12086637748E+03  0.42406398287E+02  0.12925931728E+03  0.00000000000E+00 0.  1.
         11    1    1    2    0    0  0.67056457087E+02  0.37428415599E+02  0.40532038735E+01  0.76901776267E+02  0.00000000000E+00 0. -1.
</event>
<event>
 7    1  0.4394360E-006  0.2764203E+03  0.7561462E-02  0.1097660E+00
         -1   -1    0    0    0  501 -0.00000000000E+00  0.00000000000E+00  0.92260990342E+02  0.92260990342E+02  0.00000000000E+00 0.  1.
          1   -1    0    0  501    0  0.00000000000E+00 -0.00000000000E+00 -0.10204950703E+04  0.10204950703E+04  0.00000000000E+00 0. -1.
         23    2    1    2    0    0  0.62043573233E+02  0.26684101995E+03 -0.31860726436E+03  0.43841982335E+03  0.12509123749E+03 0.  0.
          5    1    3    3  502    0  0.35853508484E-01  0.10265411659E+03 -0.20502067323E+03  0.22932251915E+03  0.41800000000E+01 0. -1.
         -5    1    3    3    0  502  0.62007719724E+02  0.16418690335E+03 -0.11358659114E+03  0.20909730420E+03  0.41800000000E+01 0. -1.
        -11    1    1    2    0    0 -0.14181712972E+02 -0.99117586714E+02 -0.32921895490E+03  0.34410832196E+03  0.00000000000E+00 0. -1.
         11    1    1    2    0    0 -0.47861860261E+02 -0.16772343323E+03 -0.28040786069E+03  0.33022791533E+03  0.00000000000E+00 0.  1.
</event>
<event>
 7    1  0.4394360E-006  0.1169007E+03  0.7561462E-02  0.1248299E+00
          1   -1    0    0  501    0  0.00000000000E+00  0.00000000000E+00  0.38928951988E+02  0.38928951988E+02  0.00000000000E+00 0. -1.
         -1   -1    0    0    0  501 -0.00000000000E+00 -0.00000000000E+00 -0.85330716214E+03  0.85330716214E+03  0.00000000000E+00 0.  1.
         23    2    1    2    0    0  0.28878533019E+02  0.98087183220E+02 -0.68713577796E+03  0.70587408859E+03  0.12509031300E+03 0.  0.
          5    1    3    3  502    0  0.84454605024E+01  0.11625929924E+02 -0.48266431734E+03  0.48289626596E+03  0.41800000000E+01 0.  1.
         -5    1    3    3    0  502  0.20433072516E+02  0.86461253297E+02 -0.20447146062E+03  0.22297782262E+03  0.41800000000E+01 0.  1.
        -11    1    1    2    0    0 -0.52782093943E+02 -0.37455693035E+02 -0.91364660488E+02  0.11196597505E+03  0.00000000000E+00 0.  1.
         11    1    1    2    0    0  0.23903560925E+02 -0.60631490186E+02 -0.35877771710E+02  0.74396050499E+02  0.00000000000E+00 0. -1.
</event>
<event>
 7    1  0.4394360E-006  0.1094634E+03  0.7561462E-02  0.1261567E+00
         -4   -1    0    0    0  501 -0.00000000000E+00  0.00000000000E+00  0.21970916707E+03  0.21970916707E+03  0.00000000000E+00 0.  1.
          4   -1    0    0  501    0  0.00000000000E+00 -0.00000000000E+00 -0.94421704147E+02  0.94421704147E+02  0.00000000000E+00 0. -1.
         23    2    1    2    0    0 -0.28306361412E+02 -0.17786449669E+02  0.16414884787E+03  0.20906965077E+03  0.12509063405E+03 0.  0.
          5    1    3    3  502    0 -0.46742736378E+02 -0.63731165356E+02  0.11086949719E+03  0.13622063958E+03  0.41800000000E+01 0.  1.
         -5    1    3    3    0  502  0.18436374966E+02  0.45944715686E+02  0.53279350689E+02  0.72849011189E+02  0.41800000000E+01 0.  1.
        -11    1    1    2    0    0  0.50736476238E+02  0.35159253605E+02 -0.65699418220E+01  0.62076785280E+02  0.00000000000E+00 0.  1.
         11    1    1    2    0    0 -0.22430114826E+02 -0.17372803936E+02 -0.32291443126E+02  0.42984435170E+02  0.00000000000E+00 0. -1.
</event>
<event>
 7    1  0.4394360E-006  0.1754159E+03  0.7561462E-02  0.1172315E+00
         -3   -1    0    0    0  501 -0.00000000000E+00  0.00000000000E+00  0.94402945406E+02  0.94402945406E+02  0.00000000000E+00 0.  1.
          3   -1    0    0  501    0  0.00000000000E+00 -0.00000000000E+00 -0.37429931352E+03  0.37429931352E+03  0.00000000000E+00 0. -1.
         23    2    1    2    0    0 -0.10706928974E+03 -0.10930514025E+03 -0.14917392765E+03  0.24761420942E+03  0.12509392282E+03 0.  0.
          5    1    3    3  502    0 -0.75366136983E+02 -0.42304050426E+00 -0.25280868361E+02  0.79604197578E+02  0.41800000000E+01 0. -1.
         -5    1    3    3    0  502 -0.31703152753E+02 -0.10888209975E+03 -0.12389305929E+03  0.16801001184E+03  0.41800000000E+01 0. -1.
        -11    1    1    2    0    0  0.71771163661E+02  0.10372004770E+03 -0.13539971068E+03  0.18504602098E+03  0.00000000000E+00 0. -1.
         11    1    1    2    0    0  0.35298126075E+02  0.55850925562E+01  0.46772702208E+01  0.36042028522E+02  0.00000000000E+00 0.  1.
</event>
<event>
 7    1  0.4394360E-006  0.1322623E+03  0.7561462E-02  0.1224137E+00
         -3   -1    0    0    0  501 -0.00000000000E+00  0.00000000000E+00  0.50408898419E+02  0.50408898419E+02  0.00000000000E+00 0.  1.
          3   -1    0    0  501    0  0.00000000000E+00 -0.00000000000E+00 -0.42048140443E+03  0.42048140443E+03  0.00000000000E+00 0. -1.
         23    2    1    2    0    0 -0.28934433854E+02  0.68384649605E+02 -0.10512538365E+03  0.17947779575E+03  0.12508905274E+03 0.  0.
          5    1    3    3  502    0  0.48733145179E+02  0.27217350317E+02 -0.28609462971E+02  0.62862368463E+02  0.41800000000E+01 0.  1.
         -5    1    3    3    0  502 -0.77667579033E+02  0.41167299289E+02 -0.76515920678E+02  0.11661542729E+03  0.41800000000E+01 0.  1.
        -11    1    1    2    0    0 -0.34905146009E+02 -0.30220477462E+02 -0.11809106938E+03  0.12679569056E+03  0.00000000000E+00 0. -1.
         11    1    1    2    0    0  0.63839579863E+02 -0.38164172144E+02 -0.14685605298E+03  0.16461681654E+03  0.00000000000E+00 0.  1.
</event>
<event>
 7    1  0.4394360E-006  0.6399878E+02  0.7561462E-02  0.1381778E+00
         -1   -1    0    0    0  501 -0.00000000000E+00  0.00000000000E+00  0.44852921336E+02  0.44852921336E+02  0.00000000000E+00 0.  1.
          1   -1    0    0  501    0  0.00000000000E+00 -0.00000000000E+00 -0.26529341806E+03  0.26529341806E+03  0.00000000000E+00 0. -1.
         23    2    1    2    0    0 -0.40423550979E+01  0.30775247596E+02 -0.12351911703E+03  0.17851720898E+03  0.12509182679E+03 0.  0.
          5    1    3    3  502    0 -0.14207698334E+02  0.13888330039E+02 -0.14653100972E+03  0.14793090824E+03  0.41800000000E+01 0. -1.
         -5    1    3    3    0  502  0.10165343237E+02  0.16886917557E+02  0.23011892691E+02  0.30586300739E+02  0.41800000000E+01 0. -1.
        -11    1    1    2    0    0  0.21422764072E+02  0.22762086630E+02 -0.23459058906E+02  0.39081643428E+02  0.00000000000E+00 0. -1.
         11    1    1    2    0    0 -0.17380408974E+02 -0.53537334226E+02 -0.73462320792E+02  0.92547486991E+02  0.00000000000E+00 0.  1.
</event>
<event>
 7    1  0.4394360E-006  0.9592268E+02  0.7561462E-02  0.1289111E+00
          2   -1    0    0  501    0  0.00000000000E+00  0.00000000000E+00  0.31120100987E+03  0.31120100987E+03  0.00000000000E+00 0. -1.
         -2   -1    0    0    0  501 -0.00000000000E+00 -0.00000000000E+00 -0.61225774846E+02  0.61225774846E+02  0.00000000000E+00 0.  1.
         23    2    1    2    0    0 -0.77650846397E+01  0.30234569038E+02  0.30353800056E+02  0.13245057087E+03  0.12508946735E+03 0.  0.
          5    1    3    3  502    0 -0.14105285170E+02 -0.46088849300E+02  0.27604145409E+02  0.55701008458E+02  0.41800000000E+01 0.  1.
         -5    1    3    3    0  502  0.63402005302E+01  0.76323418338E+02  0.27496546475E+01  0.76749562411E+02  0.41800000000E+01 0.  1.
        -11    1    1    2    0    0  0.28994724937E+02 -0.34546980230E+02  0.21240799141E+03  0.21714359934E+03  0.00000000000E+00 0. -1.
         11    1    1    2    0    0 -0.21229640297E+02  0.43124111922E+01  0.72134435558E+01  0.22832614510E+02  0.00000000000E+00 0.  1.
</event>
<event>
 7    1  0.4394360E-006  0.1082511E+03  0.7561462E-02  0.1263843E+00
         -1   -1    0    0    0  501 -0.00000000000E+00  0.00000000000E+00  0.35355324535E+02  0.35355324535E+02  0.00000000000E+00 0.  1.
          1   -1    0    0  501    0  0.00000000000E+00 -0.00000000000E+00 -0.48634513163E+03  0.48634513163E+03  0.00000000000E+00 0. -1.
         23    2    1    2    0    0  0.66515382105E+02 -0.27782105608E+02 -0.22788312084E+03  0.26976480478E+03  0.12508473803E+03 0.  0.
          5    1    3    3  502    0  0.23201741592E+02 -0.73486438787E+02 -0.15644549168E+03  0.17444552664E+03  0.41800000000E+01 0. -1.
         -5    1    3    3    0  502  0.43313640513E+02  0.45704333180E+02 -0.71437629157E+02  0.95319278142E+02  0.41800000000E+01 0. -1.
        -11    1    1    2    0    0 -0.38102431096E+02  0.24945422545E+01 -0.20723054436E+03  0.21071904639E+03  0.00000000000E+00 0. -1.
         11    1    1    2    0    0 -0.28412951009E+02  0.25287563353E+02 -0.15876141901E+02  0.41216604992E+02  0.00000000000E+00 0.  1.
</event>
<event>
 7    1  0.4394360E-006  0.1069786E+03  0.7561462E-02  0.1266270E+00
         -2   -1    0    0    0  501 -0.00000000000E+00  0.00000000000E+00  0.24069828286E+02  0.24069828286E+02  0.00000000000E+00 0. -1.
          2   -1    0    0  501    0  0.00000000000E+00 -0.00000000000E+00 -0.60772145171E+03  0.60772145171E+03  0.00000000000E+00 0.  1.
         23    2    1    2    0    0 -0.45687217163E+02  0.28308929907E+02 -0.30970796946E+03  0.33831249443E+03  0.12509036820E+03 0.  0.
          5    1    3    3  502    0  0.28482093550E+02  0.45011207092E+02 -0.79056633927E+02  0.95418353501E+02  0.41800000000E+01 0. -1.
         -5    1    3    3    0  502 -0.74169310713E+02 -0.16702277185E+02 -0.23065133553E+03  0.24289414093E+03  0.41800000000E+01 0. -1.
        -11    1    1    2    0    0  0.15821377372E+02  0.21268598368E+02 -0.20498990739E+02  0.33509370030E+02  0.00000000000E+00 0. -1.
         11    1    1    2    0    0  0.29865839790E+02 -0.49577528275E+02 -0.25344466323E+03  0.25996941554E+03  0.00000000000E+00 0.  1.
</event>
<event>
 7    1  0.4394360E-006  0.8475610E+02  0.7561462E-02  0.1316072E+00
         -1   -1    0    0    0  501 -0.00000000000E+00  0.00000000000E+00  0.34076742197E+03  0.34076742197E+03  0.00000000000E+00 0.  1.
          1   -1    0    0  501    0  0.00000000000E+00 -0.00000000000E+00 -0.35183681578E+02  0.35183681578E+02  0.00000000000E+00 0. -1.
         23    2    1    2    0    0 -0.14052920007E+02 -0.14875147802E+02  0.20250366902E+03  0.23889657972E+03  0.12508031521E+03 0.  0.
          5    1    3    3  502    0 -0.60172899137E+01 -0.48237500968E+02  0.19813216851E+03  0.20405120160E+03  0.41800000000E+01 0. -1.
         -5    1    3    3    0  502 -0.80356300938E+01  0.33362353166E+02  0.43715005134E+01  0.34845378122E+02  0.41800000000E+01 0. -1.
        -11    1    1    2    0    0  0.22269169730E+02 -0.31764787434E+02  0.67373707902E+02  0.77744029724E+02  0.00000000000E+00 0.  1.
         11    1    1    2    0    0 -0.82162497224E+01  0.46639935236E+02  0.35706363471E+02  0.59310494102E+02  0.00000000000E+00 0. -1.
</event>
<event>
 7    1  0.4394360E-006  0.1260273E+03  0.7561462E-02  0.1233473E+00
          2   -1    0    0  501    0  0.00000000000E+00  0.00000000000E+00  0.32576787020E+02  0.32576787020E+02  0.00000000000E+00 0. -1.
         -2   -1    0    0    0  501 -0.00000000000E+00 -0.00000000000E+00 -0.84521987225E+03  0.84521987225E+03  0.00000000000E+00 0.  1.
         23    2    1    2    0    0 -0.10894461535E+03 -0.37105886467E+02 -0.56534835253E+03  0.59035355519E+03  0.12511108823E+03 0.  0.
          5    1    3    3  502    0 -0.40581264570E+01 -0.29118993123E+02 -0.34364531295E+03  0.34492601767E+03  0.41800000000E+01 0.  1.
         -5    1    3    3    0  502 -0.10488648890E+03 -0.79868933437E+01 -0.22170303958E+03  0.24542753753E+03  0.41800000000E+01 0.  1.
        -11    1    1    2    0    0  0.40928170865E+02  0.25116220594E+02 -0.19496630375E+03  0.20079292644E+03  0.00000000000E+00 0.  1.
         11    1    1    2    0    0  0.68016444489E+02  0.11989665873E+02 -0.52328428946E+02  0.86650177638E+02  0.00000000000E+00 0. -1.
</event>
<event>
 6    1  0.4394360E-006  0.1304813E+03  0.7561462E-02  0.1226743E+00
         -1   -1    0    0    0  501 -0.00000000000E+00  0.00000000000E+00  0.18753527444E+02  0.18753527444E+02  0.00000000000E+00 0.  1.
          1   -1    0    0  501    0  0.00000000000E+00 -0.00000000000E+00 -0.99768448534E+03  0.99768448534E+03  0.00000000000E+00 0. -1.
          5    1    1    2  502    0  0.61740446052E+02  0.76514952272E+02 -0.40359481485E+03  0.41541866542E+03  0.41800000000E+01 0. -1.
         -5    1    1    2    0  502 -0.71569177175E+01 -0.56304592257E+02 -0.11381268924E+03  0.12724869042E+03  0.41800000000E+01 0.  1.
        -11    1    1    2    0    0 -0.49256740222E+02 -0.53040792847E+02 -0.27870769212E+03  0.28795404115E+03  0.00000000000E+00 0.  1.
         11    1    1    2    0    0 -0.53267881128E+01  0.32830432832E+02 -0.18281576168E+03  0.18581661581E+03  0.00000000000E+00 0. -1.
</event>
<event>
 7    1  0.4394360E-006  0.9396719E+02  0.7561462E-02  0.1293519E+00
         -1   -1    0    0    0  501 -0.00000000000E+00  0.00000000000E+00  0.32983626124E+03  0.32983626124E+03  0.00000000000E+00 0.  1.
          1   -1    0    0  501    0  0.00000000000E+00 -0.00000000000E+00 -0.39307498363E+02  0.39307498363E+02  0.00000000000E+00 0. -1.
         23    2    1    2    0    0 -0.67080900156E+01  0.44662508019E+01  0.24369600657E+03  0.26752145390E+03  0.11006833702E+03 0.  0.
          5    1    3    3  502    0 -0.56226449350E+02 -0.50914274469E+01  0.15995609466E+03  0.16967840422E+03  0.41800000000E+01 0. -1.
         -5    1    3    3    0  502  0.49518359335E+02  0.95576782488E+01  0.83739911904E+02  0.97843049679E+02  0.41800000000E+01 0.  1.
        -11    1    1    2    0    0  0.37551224976E+02  0.18884885485E+02  0.15449528876E+01  0.42060911503E+02  0.00000000000E+00 0.  1.
         11    1    1    2    0    0 -0.30843134961E+02 -0.23351136286E+02  0.45287803425E+02  0.59561394201E+02  0.00000000000E+00 0. -1.
</event>
<event>
 7    1  0.4394360E-006  0.1308551E+03  0.7561462E-02  0.1226192E+00
         -1   -1    0    0    0  501 -0.00000000000E+00  0.00000000000E+00  0.11050730929E+03  0.11050730929E+03  0.00000000000E+00 0.  1.
          1   -1    0    0  501    0  0.00000000000E+00 -0.00000000000E+00 -0.20405792901E+03  0.20405792901E+03  0.00000000000E+00 0. -1.
         23    2    1    2    0    0 -0.45350641247E+02 -0.91210447640E+02 -0.33674191262E+02  0.16479341973E+03  0.12508754378E+03 0.  0.
          5    1    3    3  502    0 -0.62404926497E+02 -0.42166209375E+02 -0.68694481001E+02  0.10202337077E+03  0.41800000000E+01 0. -1.
         -5    1    3    3    0  502  0.17054285249E+02 -0.49044238264E+02  0.35020289739E+02  0.62770048954E+02  0.41800000000E+01 0. -1.
        -11    1    1    2    0    0  0.71809231379E+02  0.63269433441E+02 -0.27761839945E+02  0.99650924112E+02  0.00000000000E+00 0.  1.
         11    1    1    2    0    0 -0.26458590131E+02  0.27941014199E+02 -0.32114588509E+02  0.50120894458E+02  0.00000000000E+00 0. -1.
</event>
<event>
 7    1  0.4394360E-006  0.1120892E+03  0.7561462E-02  0.1256749E+00
         -1   -1    0    0    0  501 -0.00000000000E+00  0.00000000000E+00  0.38701109257E+02  0.38701109257E+02  0.00000000000E+00 0.  1.
          1   -1    0    0  501    0  0.00000000000E+00 -0.00000000000E+00 -0.46831158787E+03  0.46831158787E+03  0.00000000000E+00 0. -1.
         23    2    1    2    0    0  0.49976020892E+02 -0.59320888459E+02 -0.21314209117E+03  0.25902404544E+03  0.12508930655E+03 0.  0.
          5    1    3    3  502    0  0.35943969667E+02 -0.74114098904E+02 -0.22168124639E+03  0.23652677652E+03  0.41800000000E+01 0. -1.
         -5    1    3    3    0  502  0.14032051225E+02  0.14793210445E+02  0.85391552156E+01  0.22497268915E+02  0.41800000000E+01 0. -1.
        -11    1    1    2    0    0 -0.12236844522E+02  0.77878074593E+02 -0.13614777587E+03  0.15732435203E+03  0.00000000000E+00 0.  1.
         11    1    1    2    0    0 -0.37739176370E+02 -0.18557186134E+02 -0.80320611573E+02  0.90664299665E+02  0.00000000000E+00 0. -1.
</event>
<event>
 7    1  0.4394360E-006  0.1388817E+03  0.7561462E-02  0.1214842E+00
         -1   -1    0    0    0  501 -0.00000000000E+00  0.00000000000E+00  0.46269422837E+02  0.46269422837E+02  0.00000000000E+00 0.  1.
          1   -1    0    0  501    0  0.00000000000E+00 -0.00000000000E+00 -0.55499173714E+03  0.55499173714E+03  0.00000000000E+00 0. -1.
         23    2    1    2    0    0  0.28520760514E+02 -0.11353220701E+03 -0.25892019630E+03  0.31046740885E+03  0.12508936045E+03 0.  0.
          5    1    3    3  502    0  0.48824733740E+02 -0.86611064715E+02 -0.25794599390E+03  0.27647592902E+03  0.41800000000E+01 0. -1.
         -5    1    3    3    0  502 -0.20303973227E+02 -0.26921142291E+02 -0.97420240275E+00  0.33991479835E+02  0.41800000000E+01 0. -1.
        -11    1    1    2    0    0  0.63880620552E+01  0.10886660711E+03 -0.15383543412E+03  0.18856851877E+03  0.00000000000E+00 0.  1.
         11    1    1    2    0    0 -0.34908822569E+02  0.46655998995E+01 -0.95966683875E+02  0.10222523235E+03  0.00000000000E+00 0. -1.
</event>
<event>
 7    1  0.4394360E-006  0.9739437E+02  0.7561462E-02  0.1285873E+00
          2   -1    0    0  501    0  0.00000000000E+00  0.00000000000E+00  0.30306578108E+03  0.30306578108E+03  0.00000000000E+00 0. -1.
         -2   -1    0    0    0  501 -0.00000000000E+00 -0.00000000000E+00 -0.64585112835E+02  0.64585112835E+02  0.00000000000E+00 0.  1.
         23    2    1    2    0    0  0.32573267903E+02  0.20549468971E+02  0.22824735045E+02  0.13286295497E+03  0.12509315655E+03 0.  0.
          5    1    3    3  502    0  0.13474068951E+02  0.58159870512E+02 -0.28509121643E+02  0.66289995390E+02  0.41800000000E+01 0.  1.
         -5    1    3    3    0  502  0.19099198952E+02 -0.37610401540E+02  0.51333856687E+02  0.66572959578E+02  0.41800000000E+01 0.  1.
        -11    1    1    2    0    0 -0.54588050460E+02  0.93918802683E+01  0.13785095466E+03  0.14856294413E+03  0.00000000000E+00 0. -1.
         11    1    1    2    0    0  0.22014782557E+02 -0.29941349240E+02  0.77804978538E+02  0.86224994813E+02  0.00000000000E+00 0.  1.
</event>
<event>
 7    1  0.4394360E-006  0.1097824E+03  0.7561462E-02  0.1260973E+00
          1   -1    0    0  501    0  0.00000000000E+00  0.00000000000E+00  0.91426461988E+03  0.91426461988E+03  0.00000000000E+00 0. -1.
         -1   -1    0    0    0  501 -0.00000000000E+00 -0.00000000000E+00 -0.13880716251E+02  0.13880716251E+02  0.00000000000E+00 0.  1.
         23    2    1    2    0    0  0.31570559060E+02  0.19961777502E+02  0.44578162460E+03  0.46450400471E+03  0.12509013068E+03 0.  0.
          5    1    3    3  502    0  0.56480417977E+02 -0.37214390632E+02  0.24687140887E+03  0.25600373709E+03  0.41800000000E+01 0. -1.
         -5    1    3    3    0  502 -0.24909858917E+02  0.57176168134E+02  0.19891021573E+03  0.20850026762E+03  0.41800000000E+01 0. -1.
        -11    1    1    2    0    0 -0.47305307004E+02 -0.41287115068E+02  0.35825364406E+03  0.36371429918E+03  0.00000000000E+00 0.  1.
         11    1    1    2    0    0  0.15734747944E+02  0.21325337566E+02  0.96348634965E+02  0.99927032253E+02  0.00000000000E+00 0. -1.
</event>
<event>
 7    1  0.4394360E-006  0.1402103E+03  0.7561462E-02  0.1213046E+00
         -4   -1    0    0    0  501 -0.00000000000E+00  0.00000000000E+00  0.88041756925E+02  0.88041756925E+02  0.00000000000E+00 0.  1.
          4   -1    0    0  501    0  0.00000000000E+00 -0.00000000000E+00 -0.25615163752E+03  0.25615163752E+03  0.00000000000E+00 0. -1.
         23    2    1    2    0    0 -0.96841777398E+02  0.47299179637E+02 -0.65989752230E+02  0.17781145733E+03  0.12508686867E+03 0.  0.
          5    1    3    3  502    0  0.15334681617E+02  0.48011052447E+02 -0.71731778660E+01  0.51079746457E+02  0.41800000000E+01 0. -1.
         -5    1    3    3    0  502 -0.11217645902E+03 -0.71187281032E+00 -0.58816574364E+02  0.12673171087E+03  0.41800000000E+01 0. -1.
        -11    1    1    2    0    0  0.63856189122E+02 -0.51429259951E+01 -0.91681339040E+02  0.11184601247E+03  0.00000000000E+00 0. -1.
         11    1    1    2    0    0  0.32985588276E+02 -0.42156253642E+02 -0.10438789326E+02  0.54535924651E+02  0.00000000000E+00 0.  1.
</event>
<event>
 7    1  0.4394360E-006  0.1731807E+03  0.7561462E-02  0.1174571E+00
          2   -1    0    0  501    0  0.00000000000E+00  0.00000000000E+00  0.53929375780E+03  0.53929375780E+03  0.00000000000E+00 0. -1.
         -2   -1    0    0    0  501 -0.00000000000E+00 -0.00000000000E+00 -0.72886224204E+02  0.72886224204E+02  0.00000000000E+00 0.  1.
         23    2    1    2    0    0 -0.43983755346E-01  0.15044937911E+03  0.13279807180E+03  0.23646839310E+03  0.12508779098E+03 0.  0.
          5    1    3    3  502    0 -0.14436138106E+02  0.16721659905E+03  0.96159397330E+02  0.19347841010E+03  0.41800000000E+01 0. -1.
         -5    1    3    3    0  502  0.14392154351E+02 -0.16767219940E+02  0.36638674465E+02  0.42989982996E+02  0.41800000000E+01 0. -1.
        -11    1    1    2    0    0  0.20583809137E+02 -0.79177074341E+02  0.92672662157E+02  0.12361603703E+03  0.00000000000E+00 0.  1.
         11    1    1    2    0    0 -0.20539825382E+02 -0.71272304765E+02  0.24093679965E+03  0.25209555188E+03  0.00000000000E+00 0. -1.
</event>
<event>
 7    1  0.4394360E-006  0.1541648E+03  0.7561462E-02  0.1195447E+00
          1   -1    0    0  501    0  0.00000000000E+00  0.00000000000E+00  0.14360408502E+03  0.14360408502E+03  0.00000000000E+00 0. -1.
         -1   -1    0    0    0  501 -0.00000000000E+00 -0.00000000000E+00 -0.25117905674E+03  0.25117905674E+03  0.00000000000E+00 0.  1.
         23    2    1    2    0    0 -0.11440784629E+03 -0.92115546316E+02 -0.11074060115E+03  0.22244736921E+03  0.12507966326E+03 0.  0.
          5    1    3    3  502    0 -0.11065018219E+03 -0.96460625132E+02 -0.41168827543E+02  0.15251380194E+03  0.41800000000E+01 0. -1.
         -5    1    3    3    0  502 -0.37576641020E+01  0.43450788165E+01 -0.69571773604E+02  0.69933567275E+02  0.41800000000E+01 0. -1.
        -11    1    1    2    0    0  0.82381780662E+02  0.36305743589E+02 -0.36055439209E+02  0.96978654863E+02  0.00000000000E+00 0. -1.
         11    1    1    2    0    0  0.32026065632E+02  0.55809802727E+02  0.39221068636E+02  0.75357117681E+02  0.00000000000E+00 0.  1.
</event>
<event>
 7    1  0.4394360E-006  0.1017721E+03  0.7561462E-02  0.1276613E+00
         -1   -1    0    0    0  501 -0.00000000000E+00  0.00000000000E+00  0.84870351738E+02  0.84870351738E+02  0.00000000000E+00 0.  1.
          1   -1    0    0  501    0  0.00000000000E+00 -0.00000000000E+00 -0.14780643142E+03  0.14780643142E+03  0.00000000000E+00 0. -1.
         23    2    1    2    0    0 -0.18313645294E+02 -0.20586418018E+02 -0.22344469692E+02  0.13002329644E+03  0.12509033568E+03 0.  0.
          5    1    3    3  502    0  0.34693853730E+02  0.22031173763E+02 -0.42192235772E+02  0.59048228284E+02  0.41800000000E+01 0.  1.
         -5    1    3    3    0  502 -0.53007499024E+02 -0.42617591781E+02  0.19847766080E+02  0.70975068160E+02  0.41800000000E+01 0.  1.
        -11    1    1    2    0    0  0.30662093514E+02 -0.29473382551E+02 -0.21650966810E+02  0.47724298019E+02  0.00000000000E+00 0.  1.
         11    1    1    2    0    0 -0.12348448220E+02  0.50059800568E+02 -0.18940643179E+02  0.54929188692E+02  0.00000000000E+00 0. -1.
</event>
<event>
 6    1  0.4394360E-006  0.8976273E+02  0.7561462E-02  0.1303427E+00
          1   -1    0    0  501    0  0.00000000000E+00  0.00000000000E+00  0.69000747847E+02  0.69000747847E+02  0.00000000000E+00 0. -1.
         -1   -1    0    0    0  501 -0.00000000000E+00 -0.00000000000E+00 -0.22363052324E+03  0.22363052324E+03  0.00000000000E+00 0.  1.
          5    1    1    2  502    0 -0.15676356288E+02 -0.49991865811E+02 -0.65872433877E+02  0.84270900901E+02  0.41800000000E+01 0. -1.
         -5    1    1    2    0  502  0.57156979147E+02  0.61349055455E+02 -0.53115550996E+02  0.99344657773E+02  0.41800000000E+01 0.  1.
        -11    1    1    2    0    0 -0.14942441464E+02 -0.44664347533E+01 -0.66169649429E+02  0.67982704432E+02  0.00000000000E+00 0.  1.
         11    1    1    2    0    0 -0.26538181395E+02 -0.68907548898E+01  0.30527858907E+02  0.41033007984E+02  0.00000000000E+00 0. -1.
</event>
<event>
 7    1  0.4394360E-006  0.1065554E+03  0.7561462E-02  0.1267085E+00
         -3   -1    0    0    0  501 -0.00000000000E+00  0.00000000000E+00  0.16646782472E+03  0.16646782472E+03  0.00000000000E+00 0.  1.
          3   -1    0    0  501    0  0.00000000000E+00 -0.00000000000E+00 -0.10785148056E+03  0.10785148056E+03  0.00000000000E+00 0. -1.
         23    2    1    2    0    0  0.19055517449E+02 -0.68963996073E+01  0.11068189799E+03  0.16826324913E+03  0.12510541712E+03 0.  0.
          5    1    3    3  502    0 -0.52626447668E+02 -0.96664907539E+01  0.58948405583E+02  0.79720580520E+02  0.41800000000E+01 0.  1.
         -5    1    3    3    0  502  0.71681965117E+02  0.27700911467E+01  0.51733492406E+02  0.88542668610E+02  0.41800000000E+01 0.  1.
        -11    1    1    2    0    0 -0.52348540778E+02 -0.41327756982E+01 -0.14103208752E+02  0.54372328014E+02  0.00000000000E+00 0.  1.
         11    1    1    2    0    0  0.33293023328E+02  0.11029175306E+02 -0.37962345083E+02  0.51683728140E+02  0.00000000000E+00 0. -1.
</event>
<event>
 7    1  0.4394360E-006  0.1725608E+03  0.7561462E-02  0.1175203E+00
          1   -1    0    0  501    0  0.00000000000E+00  0.00000000000E+00  0.37201163214E+02  0.37201163214E+02  0.00000000000E+00 0. -1.
         -1   -1    0    0    0  501 -0.00000000000E+00 -0.00000000000E+00 -0.94947022872E+03  0.94947022872E+03  0.00000000000E+00 0.  1.
         23    2    1    2    0    0  0.46787861635E+02  0.13237634597E+03 -0.63412579293E+03  0.66141962524E+03  0.12509116047E+03 0.  0.
          5    1    3    3  502    0  0.77990921663E+02  0.13466781769E+03 -0.50253120345E+03  0.52609228071E+03  0.41800000000E+01 0.  1.
         -5    1    3    3    0  502 -0.31203060029E+02 -0.22914717118E+01 -0.13159458948E+03  0.13532734454E+03  0.41800000000E+01 0.  1.
        -11    1    1    2    0    0 -0.56483826527E+02 -0.51543217788E+02 -0.19228573357E+03  0.20693218525E+03  0.00000000000E+00 0.  1.
         11    1    1    2    0    0  0.96959648920E+01 -0.80833128186E+02 -0.85857539003E+02  0.11831958144E+03  0.00000000000E+00 0. -1.
</event>
<event>
 7    1  0.4394360E-006  0.1084757E+03  0.7561462E-02  0.1263419E+00
         -1   -1    0    0    0  501 -0.00000000000E+00  0.00000000000E+00  0.24367238513E+03  0.24367238513E+03  0.00000000000E+00 0. -1.
          1   -1    0    0  501    0  0.00000000000E+00 -0.00000000000E+00 -0.65458372401E+02  0.65458372401E+02  0.00000000000E+00 0.  1.
         23    2    1    2    0    0 -0.29667087514E+02  0.53417940303E+02  0.13686763563E+03  0.19522791274E+03  0.12509027061E+03 0.  0.
          5    1    3    3  502    0  0.26554196822E+02  0.48041356232E+02  0.12608395930E+03  0.13757810317E+03  0.41800000000E+01 0.  1.
         -5    1    3    3    0  502 -0.56221284336E+02  0.53765840710E+01  0.10783676330E+02  0.57649809573E+02  0.41800000000E+01 0.  1.
        -11    1    1    2    0    0 -0.86770443579E+01  0.20354113912E+02  0.29474859978E+01  0.22321933734E+02  0.00000000000E+00 0.  1.
         11    1    1    2    0    0  0.38344131872E+02 -0.73772054215E+02  0.38398891095E+02  0.91580911054E+02  0.00000000000E+00 0. -1.
</event>
<event>
 7    1  0.4394360E-006  0.1544108E+03  0.7561462E-02  0.1195155E+00
          1   -1    0    0  501    0  0.00000000000E+00  0.00000000000E+00  0.90869885117E+03  0.90869885117E+03  0.00000000000E+00 0. -1.
         -1   -1    0    0    0  501 -0.00000000000E+00 -0.00000000000E+00 -0.33298279484E+02  0.33298279484E+02  0.00000000000E+00 0.  1.
         23    2    1    2    0    0  0.11933817756E+03 -0.13404167524E+02  0.29327080459E+03  0.34069924073E+03  0.12508771115E+03 0.  0.
          5    1    3    3  502    0  0.83699707136E+00  0.36266223176E+02  0.28335474096E+02  0.46220244481E+02  0.41800000000E+01 0.  1.
         -5    1    3    3    0  502  0.11850118048E+03 -0.49670390700E+02  0.26493533049E+03  0.29447899625E+03  0.41800000000E+01 0.  1.
        -11    1    1    2    0    0 -0.27924133764E+02  0.39781895628E+02  0.29056521614E+03  0.29460227647E+03  0.00000000000E+00 0.  1.
         11    1    1    2    0    0 -0.91414043792E+02 -0.26377728104E+02  0.29156455095E+03  0.30669561346E+03  0.00000000000E+00 0. -1.
</event>
<event>
 7    1  0.4394360E-006  0.1172227E+03  0.7561462E-02  0.1247750E+00
          2   -1    0    0  501    0  0.00000000000E+00  0.00000000000E+00  0.12759478990E+03  0.12759478990E+03  0.00000000000E+00 0. -1.
         -2   -1    0    0    0  501 -0.00000000000E+00 -0.00000000000E+00 -0.12798497872E+03  0.12798497872E+03  0.00000000000E+00 0.  1.
         23    2    1    2    0    0 -0.63777057912E+02  0.20906962951E+02  0.11179098461E+02  0.14240015861E+03  0.12509284037E+03 0.  0.
          5    1    3    3  502    0 -0.59705683293E+02  0.59393890748E+02 -0.26337204710E+02  0.88337555024E+02  0.41800000000E+01 0.  1.
         -5    1    3    3    0  502 -0.40713746193E+01 -0.38486927797E+02  0.37516303171E+02  0.54062603583E+02  0.41800000000E+01 0.  1.
        -11    1    1    2    0    0 -0.14065245268E+02  0.19066096646E+02 -0.98450018120E+01  0.25656796886E+02  0.00000000000E+00 0.  1.
         11    1    1    2    0    0  0.77842303180E+02 -0.39973059597E+02 -0.17242854671E+01  0.87522813131E+02  0.00000000000E+00 0. -1.
</event>
<event>
 7    1  0.4394360E-006  0.8886429E+02  0.7561462E-02  0.1305626E+00
         -1   -1    0    0    0  501 -0.00000000000E+00  0.00000000000E+00  0.81425371961E+02  0.81425371961E+02  0.00000000000E+00 0.  1.
          1   -1    0    0  501    0  0.00000000000E+00 -0.00000000000E+00 -0.19365770500E+03  0.19365770500E+03  0.00000000000E+00 0. -1.
         23    2    1    2    0    0 -0.11559257169E+02  0.34030801091E+02 -0.20015972218E+02  0.13168204262E+03  0.12509120415E+03 0.  0.
          5    1    3    3  502    0  0.36093834845E+02 -0.31676152163E+02 -0.10124969181E+01  0.48214531831E+02  0.41800000000E+01 0.  1.
         -5    1    3    3    0  502 -0.47653092015E+02  0.65706953254E+02 -0.19003475300E+02  0.83467510793E+02  0.41800000000E+01 0.  1.
        -11    1    1    2    0    0 -0.94924534531E+01 -0.22098572460E+02  0.18328397296E+02  0.30238778493E+02  0.00000000000E+00 0.  1.
         11    1    1    2    0    0  0.21051710622E+02 -0.11932228632E+02 -0.11054475812E+03  0.11316225584E+03  0.00000000000E+00 0. -1.
</event>
<event>
 7    1  0.4394360E-006  0.1391082E+03  0.7561462E-02  0.1214534E+00
          2   -1    0    0  501    0  0.00000000000E+00  0.00000000000E+00  0.36583593636E+03  0.36583593636E+03  0.00000000000E+00 0.  1.
         -2   -1    0    0    0  501 -0.00000000000E+00 -0.00000000000E+00 -0.10574807788E+03  0.10574807788E+03  0.00000000000E+00 0. -1.
         23    2    1    2    0    0 -0.12942593983E+03 -0.27593149034E+02  0.27626875151E+02  0.18417419132E+03  0.12507770682E+03 0.  0.
          5    1    3    3  502    0 -0.31904499992E+02  0.16314270291E+02 -0.42856225694E+02  0.56019469968E+02  0.41800000000E+01 0.  1.
         -5    1    3    3    0  502 -0.97521439835E+02 -0.43907419325E+02  0.70483100845E+02  0.12815472135E+03  0.41800000000E+01 0.  1.
        -11    1    1    2    0    0  0.43320960872E+02 -0.37337568730E+01  0.69997789775E+01  0.44041383913E+02  0.00000000000E+00 0. -1.
         11    1    1    2    0    0  0.86104978955E+02  0.31326905907E+02  0.22546120436E+03  0.24336843901E+03  0.00000000000E+00 0.  1.
</event>
<event>
 7    1  0.4394360E-006  0.1202799E+03  0.7561462E-02  0.1242636E+00
         -1   -1    0    0    0  501 -0.00000000000E+00  0.00000000000E+00  0.11254005963E+03  0.11254005963E+03  0.00000000000E+00 0.  1.
          1   -1    0    0  501    0  0.00000000000E+00 -0.00000000000E+00 -0.16846041714E+03  0.16846041714E+03  0.00000000000E+00 0. -1.
         23    2    1    2    0    0  0.31866323079E+02 -0.45307258133E+02  0.34827589903E+02  0.14116366910E+03  0.12508401285E+03 0.  0.
          5    1    3    3  502    0 -0.21986101078E+02  0.32947560390E+02  0.21156148652E+02  0.45099727295E+02  0.41800000000E+01 0.  1.
         -5    1    3    3    0  502  0.53852424157E+02 -0.78254818523E+02  0.13671441252E+02  0.96063941807E+02  0.41800000000E+01 0.  1.
        -11    1    1    2    0    0  0.10291016953E+02 -0.23100659876E+02 -0.29133677627E+02  0.38578707712E+02  0.00000000000E+00 0. -1.
         11    1    1    2    0    0 -0.42157340032E+02  0.68407918009E+02 -0.61614269785E+02  0.10125809995E+03  0.00000000000E+00 0.  1.
</event>
<event>
 7    1  0.4394360E-006  0.2140803E+03  0.7561462E-02  0.1138375E+00
          1   -1    0    0  501    0  0.00000000000E+00  0.00000000000E+00  0.34010404127E+03  0.34010404127E+03  0.00000000000E+00 0. -1.
         -1   -1    0    0    0  501 -0.00000000000E+00 -0.00000000000E+00 -0.22045593463E+03  0.22045593463E+03  0.00000000000E+00 0.  1.
         23    2    1    2    0    0 -0.13845389587E+03 -0.14280110979E+03 -0.94580853094E+02  0.25328411827E+03  0.12508264690E+03 0.  0.
          5    1    3    3  502    0 -0.40512946160E+02 -0.11960766236E+03 -0.84590064445E+02  0.15205342188E+03  0.41800000000E+01 0.  1.
         -5    1    3    3    0  502 -0.97940949711E+02 -0.23193447428E+02 -0.99907886481E+01  0.10123069639E+03  0.41800000000E+01 0.  1.
        -11    1    1    2    0    0  0.81348579905E+02  0.62739823873E+02  0.46327115232E+02  0.11269462524E+03  0.00000000000E+00 0.  1.
         11    1    1    2    0    0  0.57105315966E+02  0.80061285918E+02  0.16790184450E+03  0.19458123239E+03  0.00000000000E+00 0. -1.
</event>
<event>
 7    1  0.4394360E-006  0.1414354E+03  0.7561462E-02  0.1211410E+00
         -1   -1    0    0    0  501 -0.00000000000E+00  0.00000000000E+00  0.72085538623E+02  0.72085538623E+02  0.00000000000E+00 0.  1.
          1   -1    0    0  501    0  0.00000000000E+00 -0.00000000000E+00 -0.29946635502E+03  0.29946635502E+03  0.00000000000E+00 0. -1.
         23    2    1    2    0    0 -0.23284192949E+02  0.87509274020E+02 -0.75009505277E+02  0.17167992734E+03  0.12509014705E+03 0.  0.
          5    1    3    3  502    0 -0.52472844387E+02 -0.86071874405E+01 -0.32979422096E+02  0.62710427805E+02  0.41800000000E+01 0.  1.
         -5    1    3    3    0  502  0.29188651438E+02  0.96116461461E+02 -0.42030083181E+02  0.10896949953E+03  0.41800000000E+01 0.  1.
        -11    1    1    2    0    0 -0.34800993939E+02 -0.45630552262E+02 -0.75201559553E+02  0.94596675619E+02  0.00000000000E+00 0.  1.
         11    1    1    2    0    0  0.58085186888E+02 -0.41878721759E+02 -0.77169751563E+02  0.10527529068E+03  0.00000000000E+00 0. -1.
</event>
<event>
 7    1  0.4394360E-006  0.6011807E+02  0.7561462E-02  0.1397337E+00
          1   -1    0    0  501    0  0.00000000000E+00  0.00000000000E+00  0.57670316585E+02  0.57670316585E+02  0.00000000000E+00 0. -1.
         -1   -1    0    0    0  501 -0.00000000000E+00 -0.00000000000E+00 -0.27957110325E+03  0.27957110325E+03  0.00000000000E+00 0.  1.
         23    2    1    2    0    0 -0.27814996610E+02  0.27551841369E+02 -0.19371450381E+03  0.23389835486E+03  0.12510137258E+03 0.  0.
          5    1    3    3  502    0 -0.33401830040E+01  0.25250809213E+02  0.10719743215E+02  0.27948979999E+02  0.41800000000E+01 0. -1.
         -5    1    3    3    0  502 -0.24474813606E+02  0.23010321560E+01 -0.20443424703E+03  0.20594937486E+03  0.41800000000E+01 0. -1.
        -11    1    1    2    0    0  0.51870966998E+01  0.17942946250E+02  0.24062929813E+02  0.30461120851E+02  0.00000000000E+00 0. -1.
         11    1    1    2    0    0  0.22627899910E+02 -0.45494787618E+02 -0.52249212672E+02  0.72881944126E+02  0.00000000000E+00 0.  1.
</event>
<event>
 7    1  0.4394360E-006  0.9446726E+02  0.7561462E-02  0.1292380E+00
         -3   -1    0    0    0  501 -0.00000000000E+00  0.00000000000E+00  0.43276582847E+03  0.43276582847E+03  0.00000000000E+00 0.  1.
          3   -1    0    0  501    0  0.00000000000E+00 -0.00000000000E+00 -0.38628565479E+02  0.38628565479E+02  0.00000000000E+00 0. -1.
         23    2    1    2    0    0 -0.25697911871E+01  0.70278205154E+02  0.20413223645E+03  0.24952174951E+03  0.12508198740E+03 0.  0.
          5    1    3    3  502    0 -0.22797278255E+02  0.40771646618E+02  0.20806962194E+03  0.21328966932E+03  0.41800000000E+01 0.  1.
         -5    1    3    3    0  502  0.20227487068E+02  0.29506558536E+02 -0.39373854961E+01  0.36232080182E+02  0.41800000000E+01 0.  1.
        -11    1    1    2    0    0  0.55311963369E+01  0.17416307863E+02  0.82572222874E+01  0.20052521847E+02  0.00000000000E+00 0. -1.
         11    1    1    2    0    0 -0.29614051498E+01 -0.87694513018E+02  0.18174780426E+03  0.20182012260E+03  0.00000000000E+00 0.  1.
</event>
<event>
 7    1  0.4394360E-006  0.1482436E+03  0.7561462E-02  0.1202648E+00
          2   -1    0    0  501    0  0.00000000000E+00  0.00000000000E+00  0.82016883618E+03  0.82016883618E+03  0.00000000000E+00 0. -1.
         -2   -1    0    0    0  501 -0.00000000000E+00 -0.00000000000E+00 -0.37747583542E+02  0.37747583542E+02  0.00000000000E+00 0.  1.
         23    2    1    2    0    0 -0.86854406073E+02  0.83679743534E+02  0.25141105086E+03  0.30561491098E+03  0.12508784909E+03 0.  0.
          5    1    3    3  502    0 -0.11007956067E+03  0.41459558028E+02  0.13241999097E+03  0.17716921583E+03  0.41800000000E+01 0. -1.
         -5    1    3    3    0  502  0.23225154597E+02  0.42220185506E+02  0.11899105989E+03  0.12844569515E+03  0.41800000000E+01 0. -1.
        -11    1    1    2    0    0  0.45172218906E+02 -0.10777480608E+02  0.72036006711E+02  0.85708049284E+02  0.00000000000E+00 0.  1.
         11    1    1    2    0    0  0.41682187167E+02 -0.72902262926E+02  0.45897419507E+03  0.46659345946E+03  0.00000000000E+00 0. -1.
</event>
<event>
 7    1  0.4394360E-006  0.1126745E+03  0.7561462E-02  0.1255696E+00
         -1   -1    0    0    0  501 -0.00000000000E+00  0.00000000000E+00  0.13088994153E+03  0.13088994153E+03  0.00000000000E+00 0.  1.
          1   -1    0    0  501    0  0.00000000000E+00 -0.00000000000E+00 -0.12036424146E+03  0.12036424146E+03  0.00000000000E+00 0. -1.
         23    2    1    2    0    0  0.23715303817E+02  0.48391181765E+02  0.26351435670E+02  0.13873001514E+03  0.12508995496E+03 0.  0.
          5    1    3    3  502    0 -0.29881227945E+02 -0.28251695504E+02 -0.50284071123E+00  0.41337287419E+02  0.41800000000E+01 0. -1.
         -5    1    3    3    0  502  0.53596531763E+02  0.76642877269E+02  0.26854276381E+02  0.97392727721E+02  0.41800000000E+01 0. -1.
        -11    1    1    2    0    0 -0.41541635527E+02 -0.57055941907E+02  0.18433596822E+02  0.72944399928E+02  0.00000000000E+00 0.  1.
         11    1    1    2    0    0  0.17826331709E+02  0.86647601422E+01 -0.34259332422E+02  0.39579767919E+02  0.00000000000E+00 0. -1.
</event>
<event>
 7    1  0.4394360E-006  0.1616165E+03  0.7561462E-02  0.1186884E+00
          1   -1    0    0  501    0  0.00000000000E+00  0.00000000000E+00  0.25202713418E+03  0.25202713418E+03  0.00000000000E+00 0. -1.
         -1   -1    0    0    0  501 -0.00000000000E+00 -0.00000000000E+00 -0.11127419017E+03  0.11127419017E+03  0.00000000000E+00 0.  1.
         23    2    1    2    0    0  0.10426752609E+03  0.68421263517E+02  0.48458649776E+02  0.18316622889E+03  0.12509372634E+03 0.  0.
          5    1    3    3  502    0  0.52042747079E+01  0.73933262682E+02  0.37764103271E+02  0.83287524287E+02  0.41800000000E+01 0.  1.
         -5    1    3    3    0  502  0.99063251378E+02 -0.55119991647E+01  0.10694546505E+02  0.99878704604E+02  0.41800000000E+01 0.  1.
        -11    1    1    2    0    0  0.62381105823E+01 -0.33097959265E+02  0.41609621076E+02  0.53532695591E+02  0.00000000000E+00 0. -1.
         11    1    1    2    0    0 -0.11050563667E+03 -0.35323304252E+02  0.50684673165E+02  0.12660239987E+03  0.00000000000E+00 0.  1.
</event>
<event>
 7    1  0.4394360E-006  0.1256931E+03  0.7561462E-02  0.1233990E+00
          1   -1    0    0  501    0  0.00000000000E+00  0.00000000000E+00  0.93301679489E+03  0.93301679489E+03  0.00000000000E+00 0. -1.
         -1   -1    0    0    0  501 -0.00000000000E+00 -0.00000000000E+00 -0.20451055667E+02  0.20451055667E+02  0.00000000000E+00 0.  1.
         23    2    1    2    0    0  0.34507161501E+01 -0.67252997079E+02  0.31920011375E+03  0.34938572995E+03  0.12508718007E+03 0.  0.
          5    1    3    3  502    0 -0.49708079824E+02 -0.68703925236E+02  0.15489105000E+03  0.17663474265E+03  0.41800000000E+01 0. -1.
         -5    1    3    3    0  502  0.53158795974E+02  0.14509281572E+01  0.16430906375E+03  0.17275098729E+03  0.41800000000E+01 0. -1.
        -11    1    1    2    0    0 -0.46905626231E+02  0.41489284331E+02  0.31340596473E+03  0.31960099689E+03  0.00000000000E+00 0.  1.
         11    1    1    2    0    0  0.43454910081E+02  0.25763712748E+02  0.27995966075E+03  0.28448112372E+03  0.00000000000E+00 0. -1.
</event>
<event>
 7    1  0.4394360E-006  0.1149914E+03  0.7561462E-02  0.1251596E+00
         -2   -1    0    0    0  501 -0.00000000000E+00  0.00000000000E+00  0.32299244637E+03  0.32299244637E+03  0.00000000000E+00 0.  1.
          2   -1    0    0  501    0  0.00000000000E+00 -0.00000000000E+00 -0.10492984138E+03  0.10492984138E+03  0.00000000000E+00 0. -1.
         23    2    1    2    0    0  0.48265495703E+01  0.64999665043E+02  0.27091841238E+03  0.30543454694E+03  0.12508087089E+03 0.  0.
          5    1    3    3  502    0  0.49810163020E+02  0.14510337652E+02  0.42549018776E+02  0.67227179307E+02  0.41800000000E+01 0. -1.
         -5    1    3    3    0  502 -0.44983613449E+02  0.50489327391E+02  0.22836939360E+03  0.23820736763E+03  0.41800000000E+01 0. -1.
        -11    1    1    2    0    0  0.41846979446E+02 -0.25232250294E+02 -0.18877918503E+02  0.52385226455E+02  0.00000000000E+00 0.  1.
         11    1    1    2    0    0 -0.46673529017E+02 -0.39767414749E+02 -0.33977888889E+02  0.70102514363E+02  0.00000000000E+00 0. -1.
</event>
<event>
 7    1  0.4394360E-006  0.1065355E+03  0.7561462E-02  0.1267123E+00
         -3   -1    0    0    0  501 -0.00000000000E+00  0.00000000000E+00  0.15917676199E+03  0.15917676199E+03  0.00000000000E+00 0.  1.
          3   -1    0    0  501    0  0.00000000000E+00 -0.00000000000E+00 -0.12517863816E+03  0.12517863816E+03  0.00000000000E+00 0. -1.
         23    2    1    2    0    0  0.41089326886E+02  0.78259216796E+02  0.31455085430E+02  0.15637014101E+03  0.12509740526E+03 0.  0.
          5    1    3    3  502    0  0.47586153364E+02  0.16349162570E+02  0.67517140615E+02  0.84307614042E+02  0.41800000000E+01 0. -1.
         -5    1    3    3    0  502 -0.64968264776E+01  0.61910054226E+02 -0.36062055184E+02  0.72062526965E+02  0.41800000000E+01 0. -1.
        -11    1    1    2    0    0 -0.11963561995E+02 -0.68405371617E+02 -0.36369403230E+02  0.78391040132E+02  0.00000000000E+00 0. -1.
         11    1    1    2    0    0 -0.29125764891E+02 -0.98538451784E+01  0.38912441627E+02  0.49594219004E+02  0.00000000000E+00 0.  1.
</event>
<event>
 7    1  0.4394360E-006  0.1941620E+03  0.7561462E-02  0.1154760E+00
         -2   -1    0    0    0  501 -0.00000000000E+00  0.00000000000E+00  0.25833192947E+02  0.25833192947E+02  0.00000000000E+00 0. -1.
          2   -1    0    0  501    0  0.00000000000E+00 -0.00000000000E+00 -0.16973742901E+04  0.16973742901E+04  0.00000000000E+00 0.  1.
         23    2    1    2    0    0 -0.13240893041E+03 -0.11988052124E+03 -0.85835081566E+03  0.88561761620E+03  0.12509586388E+03 0.  0.
          5    1    3    3  502    0  0.63330471428E+01 -0.25461426338E+01 -0.26345288879E+03  0.26357444364E+03  0.41800000000E+01 0.  1.
         -5    1    3    3    0  502 -0.13874197755E+03 -0.11733437860E+03 -0.59489792686E+03  0.62204317256E+03  0.41800000000E+01 0.  1.
        -11    1    1    2    0    0 -0.40977618696E+01  0.40400363575E+02 -0.12202964142E+03  0.12860876492E+03  0.00000000000E+00 0.  1.
         11    1    1    2    0    0  0.13650669228E+03  0.79480157663E+02 -0.69116064009E+03  0.70898110194E+03  0.00000000000E+00 0. -1.
</event>
<event>
 7    1  0.4394360E-006  0.1042432E+03  0.7561462E-02  0.1271618E+00
          3   -1    0    0  501    0  0.00000000000E+00  0.00000000000E+00  0.18663337617E+03  0.18663337617E+03  0.00000000000E+00 0. -1.
         -3   -1    0    0    0  501 -0.00000000000E+00 -0.00000000000E+00 -0.80449671651E+02  0.80449671651E+02  0.00000000000E+00 0.  1.
         23    2    1    2    0    0 -0.44026840996E+02  0.29662495380E+02  0.18930480531E+02  0.13727305265E+03  0.12516909175E+03 0.  0.
          5    1    3    3  502    0 -0.77944256555E+02  0.52917441906E+02  0.17496695185E+02  0.95912301245E+02  0.41800000000E+01 0. -1.
         -5    1    3    3    0  502  0.33917415559E+02 -0.23254946526E+02  0.14337853461E+01  0.41360751402E+02  0.41800000000E+01 0. -1.
        -11    1    1    2    0    0 -0.36447088570E+01 -0.24644668510E+02 -0.54001150344E+01  0.25491269702E+02  0.00000000000E+00 0.  1.
         11    1    1    2    0    0  0.47671549853E+02 -0.50178268696E+01  0.92653339019E+02  0.10431872547E+03  0.00000000000E+00 0. -1.
</event>
<event>
 7    1  0.4394360E-006  0.1157915E+03  0.7561462E-02  0.1250206E+00
         -2   -1    0    0    0  501 -0.00000000000E+00  0.00000000000E+00  0.89067877766E+02  0.89067877766E+02  0.00000000000E+00 0.  1.
          2   -1    0    0  501    0  0.00000000000E+00 -0.00000000000E+00 -0.43101060163E+03  0.43101060163E+03  0.00000000000E+00 0. -1.
         23    2    1    2    0    0  0.73670147434E+02 -0.34722328776E+02  0.78695348307E+01  0.14947147276E+03  0.12508741285E+03 0.  0.
          5    1    3    3  502    0 -0.20272654603E+02 -0.12079370411E+02  0.40781268124E+02  0.47301965540E+02  0.41800000000E+01 0.  1.
         -5    1    3    3    0  502  0.93942802037E+02 -0.22642958365E+02 -0.32911733293E+02  0.10216950722E+03  0.41800000000E+01 0.  1.
        -11    1    1    2    0    0 -0.23570488619E+02  0.52648174013E+02 -0.10232314738E+03  0.11746243931E+03  0.00000000000E+00 0.  1.
         11    1    1    2    0    0 -0.50099658815E+02 -0.17925845237E+02 -0.24748911132E+03  0.25314456732E+03  0.00000000000E+00 0. -1.
</event>
<event>
 7    1  0.4394360E-006  0.1416849E+03  0.7561462E-02  0.1211080E+00
          1   -1    0    0  501    0  0.00000000000E+00  0.00000000000E+00  0.34675270415E+03  0.34675270415E+03  0.00000000000E+00 0. -1.
         -1   -1    0    0    0  501 -0.00000000000E+00 -0.00000000000E+00 -0.80923867557E+02  0.80923867557E+02  0.00000000000E+00 0.  1.
         23    2    1    2    0    0  0.16159699841E+02 -0.12119680343E+03  0.98596821743E+02  0.20079387609E+03  0.12508815434E+03 0.  0.
          5    1    3    3  502    0  0.52592049653E+02 -0.99552186259E+02  0.10920813310E+03  0.15690905076E+03  0.41800000000E+01 0.  1.
         -5    1    3    3    0  502 -0.36432349812E+02 -0.21644617172E+02 -0.10611311354E+02  0.43884825327E+02  0.41800000000E+01 0.  1.
        -11    1    1    2    0    0  0.92413945234E+01  0.73516426611E+02  0.30979576488E+02  0.80310662516E+02  0.00000000000E+00 0. -1.
         11    1    1    2    0    0 -0.25401094365E+02  0.47680376820E+02  0.13625243837E+03  0.14657203311E+03  0.00000000000E+00 0.  1.
</event>
<event>
 7    1  0.4394360E-006  0.9824548E+02  0.7561462E-02  0.1284029E+00
         -1   -1    0    0    0  501 -0.00000000000E+00  0.00000000000E+00  0.53417157054E+02  0.53417157054E+02  0.00000000000E+00 0.  1.
          1   -1    0    0  501    0  0.00000000000E+00 -0.00000000000E+00 -0.32775157982E+03  0.32775157982E+03  0.00000000000E+00 0. -1.
         23    2    1    2    0    0  0.18612528738E+02 -0.57571587070E+02 -0.90871537126E+02  0.16602885090E+03  0.12508808579E+03 0.  0.
          5    1    3    3  502    0  0.23125096780E+02 -0.71640412365E+02 -0.15655509600E+01  0.75412479967E+02  0.41800000000E+01 0.  1.
         -5    1    3    3    0  502 -0.45125680430E+01  0.14068825296E+02 -0.89305986166E+02  0.90616370930E+02  0.41800000000E+01 0.  1.
        -11    1    1    2    0    0  0.16456825875E+02 -0.16798374249E+02 -0.15597540358E+02  0.28218712949E+02  0.00000000000E+00 0.  1.
         11    1    1    2    0    0 -0.35069354612E+02  0.74369961318E+02 -0.16786534528E+03  0.18692117303E+03  0.00000000000E+00 0. -1.
</event>
<event>
 7    1  0.4394360E-006  0.9687385E+02  0.7561462E-02  0.1287011E+00
         -2   -1    0    0    0  501 -0.00000000000E+00  0.00000000000E+00  0.26108491479E+03  0.26108491479E+03  0.00000000000E+00 0.  1.
          2   -1    0    0  501    0  0.00000000000E+00 -0.00000000000E+00 -0.59051787646E+02  0.59051787646E+02  0.00000000000E+00 0. -1.
         23    2    1    2    0    0 -0.25096052020E+02 -0.46609325028E+02  0.12492262514E+03  0.18454075633E+03  0.12508951783E+03 0.  0.
          5    1    3    3  502    0 -0.52391212073E+02 -0.27053058573E+02  0.43064750962E+01  0.59268247893E+02  0.41800000000E+01 0.  1.
         -5    1    3    3    0  502  0.27295160052E+02 -0.19556266455E+02  0.12061615004E+03  0.12527250844E+03  0.41800000000E+01 0.  1.
        -11    1    1    2    0    0  0.43627576687E+02 -0.69016271820E+01  0.63504901694E+02  0.77355481025E+02  0.00000000000E+00 0. -1.
         11    1    1    2    0    0 -0.18531524666E+02  0.53510952210E+02  0.13605600315E+02  0.58240465081E+02  0.00000000000E+00 0.  1.
</event>
<event>
 7    1  0.4394360E-006  0.1044105E+03  0.7561462E-02  0.1271285E+00
          2   -1    0    0  501    0  0.00000000000E+00  0.00000000000E+00  0.22061196415E+03  0.22061196415E+03  0.00000000000E+00 0. -1.
         -2   -1    0    0    0  501 -0.00000000000E+00 -0.00000000000E+00 -0.67640522555E+02  0.67640522555E+02  0.00000000000E+00 0.  1.
         23    2    1    2    0    0  0.48889241962E+02  0.97589623627E+01  0.52611016970E+02  0.14457192737E+03  0.12509087797E+03 0.  0.
          5    1    3    3  502    0  0.76047438419E+02  0.37196890324E+02  0.61518283311E+02  0.10473200619E+03  0.41800000000E+01 0.  1.
         -5    1    3    3    0  502 -0.27158196457E+02 -0.27437927961E+02 -0.89072663407E+01  0.39839921176E+02  0.41800000000E+01 0.  1.
        -11    1    1    2    0    0 -0.44278373857E+02  0.24538548419E+02  0.96354405041E+02  0.10884340182E+03  0.00000000000E+00 0. -1.
         11    1    1    2    0    0 -0.46108681050E+01 -0.34297510782E+02  0.40060195830E+01  0.34837157510E+02  0.00000000000E+00 0.  1.
</event>
<event>
 7    1  0.4394360E-006  0.1786918E+03  0.7561462E-02  0.1169075E+00
          1   -1    0    0  501    0  0.00000000000E+00  0.00000000000E+00  0.33385346565E+03  0.33385346565E+03  0.00000000000E+00 0. -1.
         -1   -1    0    0    0  501 -0.00000000000E+00 -0.00000000000E+00 -0.13290347913E+03  0.13290347913E+03  0.00000000000E+00 0.  1.
         23    2    1    2    0    0 -0.16109246643E+03 -0.36237191748E+02  0.23834303289E+02  0.20840839277E+03  0.12490823574E+03 0.  0.
          5    1    3    3  502    0 -0.66225094924E+02 -0.35191908154E+02 -0.48171480137E+02  0.89231146444E+02  0.41800000000E+01 0. -1.
         -5    1    3    3    0  502 -0.94867371507E+02 -0.10452835935E+01  0.72005783426E+02  0.11917724632E+03  0.41800000000E+01 0. -1.
        -11    1    1    2    0    0  0.16770615135E+03  0.18919957974E+02  0.16604165289E+03  0.23675546140E+03  0.00000000000E+00 0. -1.
         11    1    1    2    0    0 -0.66136849225E+01  0.17317233773E+02  0.11074030347E+02  0.21593090606E+02  0.00000000000E+00 0.  1.
</event>
<event>
 7    1  0.4394360E-006  0.8303582E+02  0.7561462E-02  0.1320650E+00
          1   -1    0    0  501    0  0.00000000000E+00  0.00000000000E+00  0.10412272479E+03  0.10412272479E+03  0.00000000000E+00 0.  1.
         -1   -1    0    0    0  501 -0.00000000000E+00 -0.00000000000E+00 -0.11712943085E+03  0.11712943085E+03  0.00000000000E+00 0. -1.
         23    2    1    2    0    0 -0.25896760005E+01 -0.44656937854E+01 -0.28157549887E+02  0.12832836714E+03  0.12509465758E+03 0.  0.
          5    1    3    3  502    0  0.18616660428E+02  0.39574512009E+02  0.29276019421E+02  0.52794694424E+02  0.41800000000E+01 0.  1.
         -5    1    3    3    0  502 -0.21206336428E+02 -0.44040205794E+02 -0.57433569308E+02  0.75533672720E+02  0.41800000000E+01 0.  1.
        -11    1    1    2    0    0 -0.19844430773E+02  0.31944011719E+02 -0.20331765654E+02  0.42750462127E+02  0.00000000000E+00 0. -1.
         11    1    1    2    0    0  0.22434106774E+02 -0.27478317934E+02  0.35482609477E+02  0.50173326365E+02  0.00000000000E+00 0.  1.
</event>
<event>
 7    1  0.4394360E-006  0.8897502E+02  0.7561462E-02  0.1305353E+00
         -4   -1    0    0    0  501 -0.00000000000E+00  0.00000000000E+00  0.18697582650E+03  0.18697582650E+03  0.00000000000E+00 0.  1.
          4   -1    0    0  501    0  0.00000000000E+00 -0.00000000000E+00 -0.76536201431E+02  0.76536201431E+02  0.00000000000E+00 0. -1.
         23    2    1    2    0    0 -0.58878713166E+02 -0.41951883960E+02  0.91858813450E+02  0.17114441955E+03  0.12500282918E+03 0.  0.
          5    1    3    3  502    0 -0.75082622157E+02 -0.22609592291E+02  0.28956824988E+01  0.78577676159E+02  0.41800000000E+01 0.  1.
         -5    1    3    3    0  502  0.16203908991E+02 -0.19342291669E+02  0.88963130951E+02  0.92566743392E+02  0.41800000000E+01 0.  1.
        -11    1    1    2    0    0  0.51491493477E+02  0.29424258543E+02  0.36231317961E+02  0.69497261043E+02  0.00000000000E+00 0.  1.
         11    1    1    2    0    0  0.73872196887E+01  0.12527625417E+02 -0.17650506340E+02  0.22870347338E+02  0.00000000000E+00 0. -1.
</event>
<event>
 7    1  0.4394360E-006  0.1031179E+03  0.7561462E-02  0.1273873E+00
         -1   -1    0    0    0  501 -0.00000000000E+00  0.00000000000E+00  0.16615027134E+03  0.16615027134E+03  0.00000000000E+00 0.  1.
          1   -1    0    0  501    0  0.00000000000E+00 -0.00000000000E+00 -0.97430082206E+02  0.97430082206E+02  0.00000000000E+00 0. -1.
         23    2    1    2    0    0 -0.10328435346E+02  0.59847790563E+02  0.48422692089E+02  0.14724079912E+03  0.12508661481E+03 0.  0.
          5    1    3    3  502    0  0.48055529085E+02 -0.65526704668E+01  0.28847669668E+02  0.56585614878E+02  0.41800000000E+01 0.  1.
         -5    1    3    3    0  502 -0.58383964430E+02  0.66400461030E+02  0.19575022421E+02  0.90655184244E+02  0.41800000000E+01 0.  1.
        -11    1    1    2    0    0 -0.11978036093E+02 -0.18072735706E+02  0.54015724808E+02  0.58204773439E+02  0.00000000000E+00 0.  1.
         11    1    1    2    0    0  0.22306471439E+02 -0.41775054856E+02 -0.33718227764E+02  0.58134780983E+02  0.00000000000E+00 0. -1.
</event>
<event>
 7    1  0.4394360E-006  0.1370434E+03  0.7561462E-02  0.1217364E+00
         -2   -1    0    0    0  501 -0.00000000000E+00  0.00000000000E+00  0.43529405913E+02  0.43529405913E+02  0.00000000000E+00 0.  1.
          2   -1    0    0  501    0  0.00000000000E+00 -0.00000000000E+00 -0.63135899012E+03  0.63135899012E+03  0.00000000000E+00 0. -1.
         23    2    1    2    0    0 -0.65633696845E+02 -0.10897247559E+03 -0.32081856810E+03  0.36708798733E+03  0.12508498792E+03 0.  0.
          5    1    3    3  502    0 -0.19786049440E+02  0.74841252133E+01 -0.16862398565E+03  0.16999712003E+03  0.41800000000E+01 0.  1.
         -5    1    3    3    0  502 -0.45847647406E+02 -0.11645660081E+03 -0.15219458245E+03  0.19709086729E+03  0.41800000000E+01 0.  1.
        -11    1    1    2    0    0  0.53474332296E+02  0.92128759964E+02 -0.26652130973E+03  0.28702059363E+03  0.00000000000E+00 0. -1.
         11    1    1    2    0    0  0.12159364549E+02  0.16843715629E+02 -0.48970638066E+00  0.20779815080E+02  0.00000000000E+00 0.  1.
</event>
<event>
 7    1  0.8166863E-006  0.1722167E+03  0.7561462E-02  0.1175556E+00
          1   -1    0    0  501    0  0.00000000000E+00  0.00000000000E+00  0.11938841850E+04  0.11938841850E+04  0.00000000000E+00 0. -1.
         -1   -1    0    0    0  501 -0.00000000000E+00 -0.00000000000E+00 -0.27586325424E+02  0.27586325424E+02  0.00000000000E+00 0.  1.
         23    2    1    2    0    0 -0.14096354493E+03 -0.34493224347E+02  0.59213438226E+03  0.62235922204E+03  0.12508945229E+03 0.  0.
          5    1    3    3  502    0 -0.12818130504E+03 -0.70997470443E+02  0.52160709391E+03  0.54181410151E+03  0.41800000000E+01 0. -1.
         -5    1    3    3    0  502 -0.12782239890E+02  0.36504246096E+02  0.70527288348E+02  0.80545120531E+02  0.41800000000E+01 0. -1.
        -11    1    1    2    0    0  0.86599044485E+02  0.52979261562E+02  0.46293187601E+03  0.47393260965E+03  0.00000000000E+00 0. -1.
         11    1    1    2    0    0  0.54364500447E+02 -0.18486037215E+02  0.11123160128E+03  0.12517867871E+03  0.00000000000E+00 0.  1.
</event>
<event>
 7    1  0.4394360E-006  0.1132321E+03  0.7561462E-02  0.1254699E+00
          4   -1    0    0  501    0  0.00000000000E+00  0.00000000000E+00  0.30812775457E+03  0.30812775457E+03  0.00000000000E+00 0.  1.
         -4   -1    0    0    0  501 -0.00000000000E+00 -0.00000000000E+00 -0.60458014836E+02  0.60458014836E+02  0.00000000000E+00 0. -1.
         23    2    1    2    0    0 -0.68538224336E+02  0.43376644444E+02  0.10545368854E+03  0.18261070618E+03  0.12508864101E+03 0.  0.
          5    1    3    3  502    0 -0.62934597122E+02  0.75915609195E+02  0.35050915830E+02  0.10473768345E+03  0.41800000000E+01 0.  1.
         -5    1    3    3    0  502 -0.56036272145E+01 -0.32538964751E+02  0.70402772705E+02  0.77873022733E+02  0.41800000000E+01 0.  1.
        -11    1    1    2    0    0  0.18782651575E+02 -0.40502364936E+02  0.12582414454E+03  0.13351009293E+03  0.00000000000E+00 0.  1.
         11    1    1    2    0    0  0.49755572761E+02 -0.28742795076E+01  0.16391906658E+02  0.52464970289E+02  0.00000000000E+00 0. -1.
</event>
<event>
 7    1  0.4394360E-006  0.3313014E+03  0.7561462E-02  0.1070562E+00
         -2   -1    0    0    0  501 -0.00000000000E+00  0.00000000000E+00  0.53239553453E+02  0.53239553453E+02  0.00000000000E+00 0.  1.
          2   -1    0    0  501    0  0.00000000000E+00 -0.00000000000E+00 -0.21590152412E+04  0.21590152412E+04  0.00000000000E+00 0. -1.
         23    2    1    2    0    0 -0.19135298752E+03  0.25757065245E+03 -0.10927377897E+04  0.11457212551E+04  0.12507082212E+03 0.  0.
          5    1    3    3  502    0 -0.43942218655E+02  0.47626357459E+01 -0.24221198396E+03  0.24624727177E+03  0.41800000000E+01 0. -1.
         -5    1    3    3    0  502 -0.14741076887E+03  0.25280801670E+03 -0.85052580573E+03  0.89947398334E+03  0.41800000000E+01 0. -1.
        -11    1    1    2    0    0  0.22323595629E+02 -0.67877932947E+02 -0.13864733284E+03  0.15597704833E+03  0.00000000000E+00 0. -1.
         11    1    1    2    0    0  0.16902939189E+03 -0.18969271950E+03 -0.87439056519E+03  0.91055649118E+03  0.00000000000E+00 0.  1.
</event>
<event>
 7    1  0.4394360E-006  0.1436972E+03  0.7561462E-02  0.1208439E+00
          1   -1    0    0  501    0  0.00000000000E+00  0.00000000000E+00  0.20338467277E+03  0.20338467277E+03  0.00000000000E+00 0. -1.
         -1   -1    0    0    0  501 -0.00000000000E+00 -0.00000000000E+00 -0.20056924367E+03  0.20056924367E+03  0.00000000000E+00 0.  1.
         23    2    1    2    0    0 -0.93980271380E+02  0.60679634149E+02 -0.12609233124E+03  0.20991020480E+03  0.12509479874E+03 0.  0.
          5    1    3    3  502    0  0.93373464249E+01 -0.26111220758E+02 -0.43166296439E+02  0.51476047207E+02  0.41800000000E+01 0.  1.
         -5    1    3    3    0  502 -0.10331761781E+03  0.86790854908E+02 -0.82926034804E+02  0.15843415760E+03  0.41800000000E+01 0.  1.
        -11    1    1    2    0    0  0.62051324197E+02 -0.67515869138E+02  0.41341598839E+02  0.10058770906E+03  0.00000000000E+00 0.  1.
         11    1    1    2    0    0  0.31928947184E+02  0.68362349890E+01  0.87566161499E+02  0.93456002572E+02  0.00000000000E+00 0. -1.
</event>
<event>
 6    1  0.4394360E-006  0.5843366E+03  0.7561462E-02  0.9938446E-01
         -2   -1    0    0    0  501 -0.00000000000E+00  0.00000000000E+00  0.87663821043E+03  0.87663821043E+03  0.00000000000E+00 0.  1.
          2   -1    0    0  501    0  0.00000000000E+00 -0.00000000000E+00 -0.45788013980E+03  0.45788013980E+03  0.00000000000E+00 0. -1.
          5    1    1    2  502    0  0.41422208827E+03  0.29026589149E+03  0.37288143022E+03  0.62840453497E+03  0.41800000000E+01 0. -1.
         -5    1    1    2    0  502 -0.18748561703E+03 -0.36970546055E+03  0.13169375189E+03  0.43496402247E+03  0.41800000000E+01 0.  1.
        -11    1    1    2    0    0 -0.84248567590E+02 -0.18363724983E+01  0.35582046084E+01  0.84343667367E+02  0.00000000000E+00 0.  1.
         11    1    1    2    0    0 -0.14248790366E+03  0.81275941565E+02 -0.89375316101E+02  0.18680612542E+03  0.00000000000E+00 0. -1.
</event>
<event>
 7    1  0.4394360E-006  0.1306716E+03  0.7561462E-02  0.1226463E+00
         -1   -1    0    0    0  501 -0.00000000000E+00  0.00000000000E+00  0.27419761055E+03  0.27419761055E+03  0.00000000000E+00 0.  1.
          1   -1    0    0  501    0  0.00000000000E+00 -0.00000000000E+00 -0.89611166800E+02  0.89611166800E+02  0.00000000000E+00 0. -1.
         23    2    1    2    0    0 -0.19941914557E+02 -0.11077475088E+03  0.10952753001E+03  0.20078179370E+03  0.12509325906E+03 0.  0.
          5    1    3    3  502    0  0.37561320470E+02 -0.64818871279E+02  0.10206295273E+03  0.12667540246E+03  0.41800000000E+01 0. -1.
         -5    1    3    3    0  502 -0.57503235028E+02 -0.45955879603E+02  0.74645772820E+01  0.74106391241E+02  0.41800000000E+01 0. -1.
        -11    1    1    2    0    0  0.91444749496E+01  0.57637704234E+02  0.89562386572E+02  0.10689783655E+03  0.00000000000E+00 0. -1.
         11    1    1    2    0    0  0.10797439608E+02  0.53137046649E+02 -0.14503472836E+02  0.56129147089E+02  0.00000000000E+00 0.  1.
</event>
<event>
 6    1  0.4394360E-006  0.6575198E+02  0.7561462E-02  0.1375165E+00
          1   -1    0    0  501    0  0.00000000000E+00  0.00000000000E+00  0.19858122430E+03  0.19858122430E+03  0.00000000000E+00 0. -1.
         -1   -1    0    0    0  501 -0.00000000000E+00 -0.00000000000E+00 -0.16788533404E+03  0.16788533404E+03  0.00000000000E+00 0.  1.
          5    1    1    2  502    0  0.40067543563E+02  0.36751452770E+02  0.58859937154E+02  0.80237409789E+02  0.41800000000E+01 0. -1.
         -5    1    1    2    0  502 -0.31614718181E+02 -0.97349207362E+01 -0.13525697384E+03  0.13930606756E+03  0.41800000000E+01 0.  1.
        -11    1    1    2    0    0 -0.11552889851E+02  0.41762934060E+01 -0.15846384034E+02  0.20050400931E+02  0.00000000000E+00 0.  1.
         11    1    1    2    0    0  0.31000644681E+01 -0.31192825440E+02  0.12293931099E+03  0.12687268006E+03  0.00000000000E+00 0. -1.
</event>
<event>
 7    1  0.4394360E-006  0.3228004E+03  0.7561462E-02  0.1074368E+00
          1   -1    0    0  501    0  0.00000000000E+00  0.00000000000E+00  0.24745502674E+03  0.24745502674E+03  0.00000000000E+00 0. -1.
         -1   -1    0    0    0  501 -0.00000000000E+00 -0.00000000000E+00 -0.44316067503E+03  0.44316067503E+03  0.00000000000E+00 0.  1.
         23    2    1    2    0    0  0.30580364540E+03 -0.58669612718E+02 -0.13206125099E+03  0.36061900190E+03  0.12509155656E+03 0.  0.
          5    1    3    3  502    0  0.21641951865E+03  0.46503927404E+01 -0.12672461110E+03  0.25086975438E+03  0.41800000000E+01 0. -1.
         -5    1    3    3    0  502  0.89384126749E+02 -0.63320005458E+02 -0.53366398903E+01  0.10974924752E+03  0.41800000000E+01 0. -1.
        -11    1    1    2    0    0 -0.61320380366E+02 -0.16844237221E+02 -0.34814420662E+02  0.72498008675E+02  0.00000000000E+00 0.  1.
         11    1    1    2    0    0 -0.24448326504E+03  0.75513849939E+02 -0.28829976645E+02  0.25749869120E+03  0.00000000000E+00 0. -1.
</event>
<event>
 7    1  0.4394360E-006  0.3604945E+03  0.7561462E-02  0.1058388E+00
          1   -1    0    0  501    0  0.00000000000E+00  0.00000000000E+00  0.18014120248E+03  0.18014120248E+03  0.00000000000E+00 0. -1.
         -1   -1    0    0    0  501 -0.00000000000E+00 -0.00000000000E+00 -0.83895939747E+03  0.83895939747E+03  0.00000000000E+00 0.  1.
         23    2    1    2    0    0 -0.17398061032E+03 -0.30371191929E+03 -0.50184465378E+03  0.62450475224E+03  0.12509175178E+03 0.  0.
          5    1    3    3  502    0 -0.55972312744E+02 -0.23773729134E+02 -0.44629288279E+02  0.75546911010E+02  0.41800000000E+01 0. -1.
         -5    1    3    3    0  502 -0.11800829758E+03 -0.27993819016E+03 -0.45721536550E+03  0.54895784123E+03  0.41800000000E+01 0. -1.
        -11    1    1    2    0    0  0.59674177673E+01  0.59419669548E+02 -0.54633405342E+02  0.80938965790E+02  0.00000000000E+00 0.  1.
         11    1    1    2    0    0  0.16801319256E+03  0.24429224974E+03 -0.10234013587E+03  0.31365688191E+03  0.00000000000E+00 0. -1.
</event>
<event>
 7    1  0.4394360E-006  0.2525417E+03  0.7561462E-02  0.1111709E+00
          1   -1    0    0  501    0  0.00000000000E+00  0.00000000000E+00  0.20184272326E+03  0.20184272326E+03  0.00000000000E+00 0. -1.
         -1   -1    0    0    0  501 -0.00000000000E+00 -0.00000000000E+00 -0.41167155819E+03  0.41167155819E+03  0.00000000000E+00 0.  1.
         23    2    1    2    0    0  0.18229030687E+03  0.13990579732E+03 -0.25112513247E+03  0.36265203795E+03  0.12509708378E+03 0.  0.
          5    1    3    3  502    0  0.18117728644E+03  0.74522941564E+02 -0.18263862549E+03  0.26786791123E+03  0.41800000000E+01 0. -1.
         -5    1    3    3    0  502  0.11130204283E+01  0.65382855761E+02 -0.68486506974E+02  0.94784126727E+02  0.41800000000E+01 0. -1.
        -11    1    1    2    0    0 -0.14328860573E+02  0.10802096697E+02 -0.83662236333E+01  0.19798869570E+02  0.00000000000E+00 0.  1.
         11    1    1    2    0    0 -0.16796144630E+03 -0.15070789402E+03  0.49662521167E+02  0.23106337393E+03  0.00000000000E+00 0. -1.
</event>
<event>
 7    1  0.4394360E-006  0.1080644E+03  0.7561462E-02  0.1264197E+00
          4   -1    0    0  501    0  0.00000000000E+00  0.00000000000E+00  0.42833569236E+02  0.42833569236E+02  0.00000000000E+00 0. -1.
         -4   -1    0    0    0  501 -0.00000000000E+00 -0.00000000000E+00 -0.31521961128E+03  0.31521961128E+03  0.00000000000E+00 0.  1.
         23    2    1    2    0    0 -0.22837929436E+02 -0.35027922121E+02 -0.15434080870E+03  0.20299247328E+03  0.12504532230E+03 0.  0.
          5    1    3    3  502    0 -0.64461203050E+02 -0.48781075914E+02 -0.12868965739E+03  0.15203072185E+03  0.41800000000E+01 0.  1.
         -5    1    3    3    0  502  0.41623273613E+02  0.13753153793E+02 -0.25651151311E+02  0.50961751433E+02  0.41800000000E+01 0.  1.
        -11    1    1    2    0    0  0.12773203098E+02  0.61507146242E+02 -0.10811976689E+03  0.12504466301E+03  0.00000000000E+00 0.  1.
         11    1    1    2    0    0  0.10064726339E+02 -0.26479224122E+02 -0.99254664539E+01  0.30016044221E+02  0.00000000000E+00 0. -1.
</event>
<event>
 6    1  0.4394360E-006  0.1123654E+03  0.7561462E-02  0.1256251E+00
          2   -1    0    0  501    0  0.00000000000E+00  0.00000000000E+00  0.49600629230E+03  0.49600629230E+03  0.00000000000E+00 0. -1.
         -2   -1    0    0    0  501 -0.00000000000E+00 -0.00000000000E+00 -0.53769561571E+02  0.53769561571E+02  0.00000000000E+00 0.  1.
          5    1    1    2  502    0  0.27571777896E+02  0.50337949059E+02  0.26009833331E+03  0.26638830200E+03  0.41800000000E+01 0. -1.
         -5    1    1    2    0  502 -0.21582420091E+02 -0.74803642473E+02  0.38911063488E+00  0.77968003638E+02  0.41800000000E+01 0.  1.
        -11    1    1    2    0    0 -0.21373265764E+02 -0.27610480036E+02  0.37258452761E+02  0.51062191486E+02  0.00000000000E+00 0.  1.
         11    1    1    2    0    0  0.15383907958E+02  0.52076173450E+02  0.14449083402E+03  0.15435735675E+03  0.00000000000E+00 0. -1.
</event>
<event>
 7    1  0.4394360E-006  0.1107039E+03  0.7561462E-02  0.1259272E+00
          1   -1    0    0  501    0  0.00000000000E+00  0.00000000000E+00  0.49929216099E+03  0.49929216099E+03  0.00000000000E+00 0. -1.
         -1   -1    0    0    0  501 -0.00000000000E+00 -0.00000000000E+00 -0.42193831554E+02  0.42193831554E+02  0.00000000000E+00 0.  1.
         23    2    1    2    0    0 -0.36850045395E+02  0.68606778692E+02  0.14240093169E+03  0.20491951570E+03  0.12509662922E+03 0.  0.
          5    1    3    3  502    0  0.21993225636E+02  0.25862525686E+02 -0.10306956143E+02  0.35725032591E+02  0.41800000000E+01 0. -1.
         -5    1    3    3    0  502 -0.58843271030E+02  0.42744253006E+02  0.15270788783E+03  0.16919448311E+03  0.41800000000E+01 0. -1.
        -11    1    1    2    0    0 -0.97282195217E+01 -0.67045650085E+02  0.13666907672E+03  0.15253915557E+03  0.00000000000E+00 0. -1.
         11    1    1    2    0    0  0.46578264916E+02 -0.15611286073E+01  0.17802832103E+03  0.18402732127E+03  0.00000000000E+00 0.  1.
</event>
<event>
 7    1  0.4394360E-006  0.1906624E+03  0.7561462E-02  0.1157865E+00
          2   -1    0    0  501    0  0.00000000000E+00  0.00000000000E+00  0.35035062641E+03  0.35035062641E+03  0.00000000000E+00 0. -1.
         -2   -1    0    0    0  501 -0.00000000000E+00 -0.00000000000E+00 -0.14832408389E+03  0.14832408389E+03  0.00000000000E+00 0.  1.
         23    2    1    2    0    0 -0.18580100697E+03  0.20110756122E+02  0.26148620395E+02  0.22641902079E+03  0.12512140475E+03 0.  0.
          5    1    3    3  502    0 -0.10766897028E+03 -0.12434626901E+02  0.71883489155E+02  0.13012277095E+03  0.41800000000E+01 0.  1.
         -5    1    3    3    0  502 -0.78132036689E+02  0.32545383023E+02 -0.45734868759E+02  0.96296249843E+02  0.41800000000E+01 0.  1.
        -11    1    1    2    0    0  0.11592280172E+03 -0.22985757521E+02  0.16269410341E+03  0.20108657909E+03  0.00000000000E+00 0. -1.
         11    1    1    2    0    0  0.69878205248E+02  0.28750013982E+01  0.13183818711E+02  0.71169110417E+02  0.00000000000E+00 0.  1.
</event>
<event>
 7    1  0.4394360E-006  0.1476830E+03  0.7561462E-02  0.1203349E+00
         -2   -1    0    0    0  501 -0.00000000000E+00  0.00000000000E+00  0.13968694547E+04  0.13968694547E+04  0.00000000000E+00 0.  1.
          2   -1    0    0  501    0  0.00000000000E+00 -0.00000000000E+00 -0.19321323431E+02  0.19321323431E+02  0.00000000000E+00 0. -1.
         23    2    1    2    0    0  0.12146858446E+03 -0.13206459945E+02  0.70363909202E+03  0.72504103187E+03  0.12508996154E+03 0.  0.
          5    1    3    3  502    0  0.41014107081E+01 -0.28373573463E+02  0.36774764516E+03  0.36888708863E+03  0.41800000000E+01 0. -1.
         -5    1    3    3    0  502  0.11736717375E+03  0.15167113518E+02  0.33589144686E+03  0.35615394324E+03  0.41800000000E+01 0. -1.
        -11    1    1    2    0    0 -0.75047259215E+02 -0.33447143199E+02  0.28096334724E+03  0.29273060140E+03  0.00000000000E+00 0.  1.
         11    1    1    2    0    0 -0.46421325245E+02  0.46653603144E+02  0.39294569196E+03  0.39841914482E+03  0.00000000000E+00 0. -1.
</event>
<event>
 7    1  0.4394360E-006  0.1826439E+03  0.7561462E-02  0.1165269E+00
          2   -1    0    0  501    0  0.00000000000E+00  0.00000000000E+00  0.89701277884E+03  0.89701277884E+03  0.00000000000E+00 0. -1.
         -2   -1    0    0    0  501 -0.00000000000E+00 -0.00000000000E+00 -0.41982591489E+02  0.41982591489E+02  0.00000000000E+00 0.  1.
         23    2    1    2    0    0 -0.14851253568E+03 -0.38783911527E+02  0.33380416066E+03  0.38811429545E+03  0.12508926260E+03 0.  0.
          5    1    3    3  502    0 -0.16738939150E+03 -0.23534433485E+02  0.31352655541E+03  0.35621545628E+03  0.41800000000E+01 0. -1.
         -5    1    3    3    0  502  0.18876855818E+02 -0.15249478042E+02  0.20277605245E+02  0.31898839173E+02  0.41800000000E+01 0. -1.
        -11    1    1    2    0    0  0.36308910643E+02 -0.23494550181E+02  0.20683310559E+03  0.21130609184E+03  0.00000000000E+00 0. -1.
         11    1    1    2    0    0  0.11220362503E+03  0.62278461708E+02  0.31439292110E+03  0.33957498303E+03  0.00000000000E+00 0.  1.
</event>
<event>
 7    1  0.4394360E-006  0.1258578E+03  0.7561462E-02  0.1233735E+00
          3   -1    0    0  501    0  0.00000000000E+00  0.00000000000E+00  0.44918675783E+02  0.44918675783E+02  0.00000000000E+00 0. -1.
         -3   -1    0    0    0  501 -0.00000000000E+00 -0.00000000000E+00 -0.44863794437E+03  0.44863794437E+03  0.00000000000E+00 0.  1.
         23    2    1    2    0    0 -0.54925066541E+02 -0.61643874347E+02 -0.16734007317E+03  0.22464834482E+03  0.12508976202E+03 0.  0.
          5    1    3    3  502    0  0.15727266398E+02  0.26700507981E+02 -0.64634248485E+02  0.71800574594E+02  0.41800000000E+01 0.  1.
         -5    1    3    3    0  502 -0.70652332939E+02 -0.88344382328E+02 -0.10270582469E+03  0.15284777023E+03  0.41800000000E+01 0.  1.
        -11    1    1    2    0    0  0.45651305537E+02  0.75550146238E+00 -0.32804343242E+02  0.56220435921E+02  0.00000000000E+00 0. -1.
         11    1    1    2    0    0  0.92737610047E+01  0.60888372885E+02 -0.20357485217E+03  0.21268783941E+03  0.00000000000E+00 0.  1.
</event>
<event>
 7    1  0.4394360E-006  0.1155139E+03  0.7561462E-02  0.1250687E+00
          1   -1    0    0  501    0  0.00000000000E+00  0.00000000000E+00  0.15457787626E+02  0.15457787626E+02  0.00000000000E+00 0. -1.
         -1   -1    0    0    0  501 -0.00000000000E+00 -0.00000000000E+00 -0.11863151815E+04  0.11863151815E+04  0.00000000000E+00 0.  1.
         23    2    1    2    0    0  0.38944135361E+02 -0.28452067622E+02 -0.94008615312E+03  0.94959719141E+03  0.12508670919E+03 0.  0.
          5    1    3    3  502    0 -0.38133668099E+02  0.19616227938E+02 -0.29120575425E+03  0.29437601252E+03  0.41800000000E+01 0.  1.
         -5    1    3    3    0  502  0.77077803460E+02 -0.48068295561E+02 -0.64888039887E+03  0.65522117889E+03  0.41800000000E+01 0.  1.
        -11    1    1    2    0    0  0.22207257084E+02  0.28150032844E+02 -0.51425907387E+02  0.62691391490E+02  0.00000000000E+00 0.  1.
         11    1    1    2    0    0 -0.61151392446E+02  0.30203477811E+00 -0.17934533337E+03  0.18948438623E+03  0.00000000000E+00 0. -1.
</event>
<event>
 7    1  0.4394360E-006  0.1275513E+03  0.7561462E-02  0.1231135E+00
          1   -1    0    0  501    0  0.00000000000E+00  0.00000000000E+00  0.29376129882E+03  0.29376129882E+03  0.00000000000E+00 0. -1.
         -1   -1    0    0    0  501 -0.00000000000E+00 -0.00000000000E+00 -0.78543134110E+02  0.78543134110E+02  0.00000000000E+00 0.  1.
         23    2    1    2    0    0  0.25292550507E+02 -0.73793581088E+02  0.26697998825E+02  0.14980387009E+03  0.12507282132E+03 0.  0.
          5    1    3    3  502    0  0.75650504070E+02 -0.40594350629E+02  0.24171791440E+02  0.89289685689E+02  0.41800000000E+01 0. -1.
         -5    1    3    3    0  502 -0.50357953563E+02 -0.33199230458E+02  0.25262073848E+01  0.60514184402E+02  0.41800000000E+01 0. -1.
        -11    1    1    2    0    0 -0.38341847507E+02  0.83856829005E+02  0.18334971317E+03  0.20522958452E+03  0.00000000000E+00 0. -1.
         11    1    1    2    0    0  0.13049297000E+02 -0.10063247918E+02  0.51704527087E+01  0.17270978318E+02  0.00000000000E+00 0.  1.
</event>
<event>
 7    1  0.4394360E-006  0.1295961E+03  0.7561462E-02  0.1228056E+00
         -2   -1    0    0    0  501 -0.00000000000E+00  0.00000000000E+00  0.53693464401E+02  0.53693464401E+02  0.00000000000E+00 0. -1.
          2   -1    0    0  501    0  0.00000000000E+00 -0.00000000000E+00 -0.47721712985E+03  0.47721712985E+03  0.00000000000E+00 0.  1.
         23    2    1    2    0    0  0.99249844280E+02  0.15872755960E+02 -0.12538836415E+03  0.20364924639E+03  0.12509315616E+03 0.  0.
          5    1    3    3  502    0  0.77346308150E+02 -0.22756124919E+02 -0.11765615052E+02  0.81585505474E+02  0.41800000000E+01 0. -1.
         -5    1    3    3    0  502  0.21903536130E+02  0.38628880879E+02 -0.11362274910E+03  0.12206374091E+03  0.41800000000E+01 0. -1.
        -11    1    1    2    0    0 -0.37357228181E+01 -0.36042911185E+02 -0.10045610580E+03  0.10679174249E+03  0.00000000000E+00 0.  1.
         11    1    1    2    0    0 -0.95514121462E+02  0.20170155225E+02 -0.19767919550E+03  0.22046960537E+03  0.00000000000E+00 0. -1.
</event>
<event>
 7    1  0.4394360E-006  0.1262248E+03  0.7561462E-02  0.1233167E+00
          2   -1    0    0  501    0  0.00000000000E+00  0.00000000000E+00  0.19918909306E+03  0.19918909306E+03  0.00000000000E+00 0.  1.
         -2   -1    0    0    0  501 -0.00000000000E+00 -0.00000000000E+00 -0.91696408394E+02  0.91696408394E+02  0.00000000000E+00 0. -1.
         23    2    1    2    0    0 -0.18698688133E+01  0.82244431746E+02  0.53893929792E+02  0.15911954170E+03  0.12508728920E+03 0.  0.
          5    1    3    3  502    0 -0.39295651467E+02  0.99912969951E+02  0.31976780572E+02  0.11210145710E+03  0.41800000000E+01 0.  1.
         -5    1    3    3    0  502  0.37425782654E+02 -0.17668538205E+02  0.21917149220E+02  0.47018084600E+02  0.41800000000E+01 0.  1.
        -11    1    1    2    0    0  0.31774213235E+02 -0.51543101474E+02 -0.31732089641E+01  0.60633004143E+02  0.00000000000E+00 0. -1.
         11    1    1    2    0    0 -0.29904344422E+02 -0.30701330272E+02  0.56771963840E+02  0.71132955612E+02  0.00000000000E+00 0.  1.
</event>
<event>
 7    1  0.5911615E-006  0.1706415E+03  0.7561462E-02  0.1177181E+00
          1   -1    0    0  501    0  0.00000000000E+00  0.00000000000E+00  0.41385241324E+02  0.41385241324E+02  0.00000000000E+00 0. -1.
         -1   -1    0    0    0  501 -0.00000000000E+00 -0.00000000000E+00 -0.81698860946E+03  0.81698860946E+03  0.00000000000E+00 0.  1.
         23    2    1    2    0    0  0.12170744113E+03  0.83742888531E+02 -0.42111943626E+03  0.46348132709E+03  0.12509112023E+03 0.  0.
          5    1    3    3  502    0 -0.11297745175E+02  0.28134472665E+02 -0.17951062102E+03  0.18210085958E+03  0.41800000000E+01 0.  1.
         -5    1    3    3    0  502  0.13300518630E+03  0.55608415866E+02 -0.24160881523E+03  0.28138046751E+03  0.41800000000E+01 0.  1.
        -11    1    1    2    0    0 -0.99714671142E+02 -0.98348095528E+02 -0.24438469785E+03  0.28167222809E+03  0.00000000000E+00 0. -1.
         11    1    1    2    0    0 -0.21992769985E+02  0.14605206997E+02 -0.11009923403E+03  0.11322029560E+03  0.00000000000E+00 0.  1.
</event>
<event>
 7    1  0.4394360E-006  0.1383606E+03  0.7561462E-02  0.1215552E+00
          2   -1    0    0  501    0  0.00000000000E+00  0.00000000000E+00  0.61577893198E+03  0.61577893198E+03  0.00000000000E+00 0. -1.
         -2   -1    0    0    0  501 -0.00000000000E+00 -0.00000000000E+00 -0.33155448034E+02  0.33155448034E+02  0.00000000000E+00 0.  1.
         23    2    1    2    0    0  0.71017490163E+02 -0.60248572947E+02  0.31296634749E+03  0.34966902074E+03  0.12508842854E+03 0.  0.
          5    1    3    3  502    0  0.10172798293E+03 -0.69762200303E+02  0.24244680982E+03  0.27205380919E+03  0.41800000000E+01 0. -1.
         -5    1    3    3    0  502 -0.30710492765E+02  0.95136273561E+01  0.70519537668E+02  0.77615211552E+02  0.41800000000E+01 0. -1.
        -11    1    1    2    0    0 -0.50569927319E+02  0.78561025387E+02  0.15175208893E+03  0.17820731958E+03  0.00000000000E+00 0.  1.
         11    1    1    2    0    0 -0.20447562843E+02 -0.18312452440E+02  0.11790504753E+03  0.12105803969E+03  0.00000000000E+00 0. -1.
</event>
<event>
 7    1  0.4394360E-006  0.6751513E+02  0.7561462E-02  0.1368753E+00
          1   -1    0    0  501    0  0.00000000000E+00  0.00000000000E+00  0.51812887248E+02  0.51812887248E+02  0.00000000000E+00 0. -1.
         -1   -1    0    0    0  501 -0.00000000000E+00 -0.00000000000E+00 -0.30410379486E+03  0.30410379486E+03  0.00000000000E+00 0.  1.
         23    2    1    2    0    0 -0.16789251571E+02  0.52477680611E+02 -0.19160898675E+03  0.23536725742E+03  0.12509179083E+03 0.  0.
          5    1    3    3  502    0 -0.36262489719E+02  0.40024641090E+02 -0.13648409869E+02  0.55863150170E+02  0.41800000000E+01 0.  1.
         -5    1    3    3    0  502  0.19473238147E+02  0.12453039521E+02 -0.17796057688E+03  0.17950410725E+03  0.41800000000E+01 0.  1.
        -11    1    1    2    0    0 -0.34385569529E+00 -0.24911111924E+02 -0.79307022607E+02  0.83128127423E+02  0.00000000000E+00 0.  1.
         11    1    1    2    0    0  0.17133107266E+02 -0.27566568687E+02  0.18625101744E+02  0.37421297262E+02  0.00000000000E+00 0. -1.
</event>
<event>
 7    1  0.4394360E-006  0.1034644E+03  0.7561462E-02  0.1273175E+00
         -4   -1    0    0    0  501 -0.00000000000E+00  0.00000000000E+00  0.93277549182E+02  0.93277549182E+02  0.00000000000E+00 0.  1.
          4   -1    0    0  501    0  0.00000000000E+00 -0.00000000000E+00 -0.18911719028E+03  0.18911719028E+03  0.00000000000E+00 0. -1.
         23    2    1    2    0    0  0.15446505993E+02 -0.36477290054E+00  0.28368575437E+02  0.12919817663E+03  0.12509462485E+03 0.  0.
          5    1    3    3  502    0  0.62358398774E+02 -0.22583165109E+02  0.37536444554E+02  0.76321859999E+02  0.41800000000E+01 0. -1.
         -5    1    3    3    0  502 -0.46911892781E+02  0.22218392209E+02 -0.91678691161E+01  0.52876316634E+02  0.41800000000E+01 0. -1.
        -11    1    1    2    0    0 -0.35754521240E+02  0.33851012980E+02 -0.81768268001E+02  0.95448030471E+02  0.00000000000E+00 0. -1.
         11    1    1    2    0    0  0.20308015247E+02 -0.33486240080E+02 -0.42439948534E+02  0.57748532358E+02  0.00000000000E+00 0.  1.
</event>
<event>
 7    1  0.4394360E-006  0.1410592E+03  0.7561462E-02  0.1211911E+00
         -4   -1    0    0    0  501 -0.00000000000E+00  0.00000000000E+00  0.24751755355E+02  0.24751755355E+02  0.00000000000E+00 0. -1.
          4   -1    0    0  501    0  0.00000000000E+00 -0.00000000000E+00 -0.11138400594E+04  0.11138400594E+04  0.00000000000E+00 0.  1.
         23    2    1    2    0    0  0.12224236701E+03 -0.23026004115E+02 -0.52463998399E+03  0.55350482720E+03  0.12508831991E+03 0.  0.
          5    1    3    3  502    0  0.13390503615E+02 -0.13343899507E+02 -0.32742733569E+03  0.32799923445E+03  0.41800000000E+01 0. -1.
         -5    1    3    3    0  502  0.10885186339E+03 -0.96821046082E+01 -0.19721264830E+03  0.22550559275E+03  0.41800000000E+01 0. -1.
        -11    1    1    2    0    0 -0.12616164469E+03  0.42810428208E+02 -0.47053847409E+03  0.48903573382E+03  0.00000000000E+00 0.  1.
         11    1    1    2    0    0  0.39192776866E+01 -0.19784424093E+02 -0.93909845920E+02  0.96051253688E+02  0.00000000000E+00 0. -1.
</event>
<event>
 7    1  0.4394360E-006  0.1391343E+03  0.7561462E-02  0.1214499E+00
         -1   -1    0    0    0  501 -0.00000000000E+00  0.00000000000E+00  0.41706994940E+02  0.41706994940E+02  0.00000000000E+00 0.  1.
          1   -1    0    0  501    0  0.00000000000E+00 -0.00000000000E+00 -0.66887920972E+03  0.66887920972E+03  0.00000000000E+00 0. -1.
         23    2    1    2    0    0  0.50187919646E+02 -0.11327669277E+03 -0.27963277377E+03  0.33044343883E+03  0.12509173313E+03 0.  0.
          5    1    3    3  502    0  0.15458673403E+02  0.90451444592E+01  0.46672785576E+01  0.18974749294E+02  0.41800000000E+01 0.  1.
         -5    1    3    3    0  502  0.34729246243E+02 -0.12232183723E+03 -0.28430005233E+03  0.31146868954E+03  0.41800000000E+01 0.  1.
        -11    1    1    2    0    0 -0.85788801471E+01  0.76919390655E+02 -0.29088059964E+03  0.30100118453E+03  0.00000000000E+00 0. -1.
         11    1    1    2    0    0 -0.41609039499E+02  0.36357302113E+02 -0.56658841370E+02  0.79141581298E+02  0.00000000000E+00 0.  1.
</event>
<event>
 6    1  0.4394360E-006  0.2059861E+03  0.7561462E-02  0.1144785E+00
          1   -1    0    0  501    0  0.00000000000E+00  0.00000000000E+00  0.25928657484E+03  0.25928657484E+03  0.00000000000E+00 0. -1.
         -1   -1    0    0    0  501 -0.00000000000E+00 -0.00000000000E+00 -0.27570339266E+03  0.27570339266E+03  0.00000000000E+00 0.  1.
          5    1    1    2  502    0 -0.40044633184E+02 -0.70816931974E+02 -0.17975951360E+00  0.81462354585E+02  0.41800000000E+01 0. -1.
         -5    1    1    2    0  502  0.15433133986E+02 -0.11742543331E+03 -0.15802943727E+03  0.19752895853E+03  0.41800000000E+01 0.  1.
        -11    1    1    2    0    0 -0.20145107967E+02  0.15486342637E+03  0.11576875955E+03  0.19439884745E+03  0.00000000000E+00 0. -1.
         11    1    1    2    0    0  0.44756607165E+02  0.33378938915E+02  0.26023619415E+02  0.61599806944E+02  0.00000000000E+00 0.  1.
</event>
<event>
 7    1  0.4394360E-006  0.1080348E+03  0.7561462E-02  0.1264253E+00
          2   -1    0    0  501    0  0.00000000000E+00  0.00000000000E+00  0.83863389733E+03  0.83863389733E+03  0.00000000000E+00 0.  1.
         -2   -1    0    0    0  501 -0.00000000000E+00 -0.00000000000E+00 -0.20903039417E+02  0.20903039417E+02  0.00000000000E+00 0. -1.
         23    2    1    2    0    0  0.31031588672E+02 -0.61395449892E+02  0.35550822147E+03  0.38312146025E+03  0.12515429280E+03 0.  0.
          5    1    3    3  502    0 -0.66869718561E+01 -0.62944288941E+02  0.33296500637E+03  0.33895407796E+03  0.41800000000E+01 0. -1.
         -5    1    3    3    0  502  0.37718560528E+02  0.15488390492E+01  0.22543215103E+02  0.44167382285E+02  0.41800000000E+01 0. -1.
        -11    1    1    2    0    0 -0.51872899944E+02  0.73944185330E+02  0.38489371233E+03  0.39535011077E+03  0.00000000000E+00 0. -1.
         11    1    1    2    0    0  0.20841311272E+02 -0.12548735438E+02  0.77328924113E+02  0.81065365731E+02  0.00000000000E+00 0.  1.
</event>
<event>
 7    1  0.4394360E-006  0.1308635E+03  0.7561462E-02  0.1226180E+00
          2   -1    0    0  501    0  0.00000000000E+00  0.00000000000E+00  0.58461974260E+02  0.58461974260E+02  0.00000000000E+00 0. -1.
         -2   -1    0    0    0  501 -0.00000000000E+00 -0.00000000000E+00 -0.43961824281E+03  0.43961824281E+03  0.00000000000E+00 0.  1.
         23    2    1    2    0    0  0.10590346427E+03 -0.10441168176E+02 -0.28129818934E+03  0.32573045574E+03  0.12508835570E+03 0.  0.
          5    1    3    3  502    0  0.11455749457E+03 -0.36507650977E+02 -0.15392536938E+03  0.19536304636E+03  0.41800000000E+01 0. -1.
         -5    1    3    3    0  502 -0.86540302942E+01  0.26066482800E+02 -0.12737281995E+03  0.13036740938E+03  0.41800000000E+01 0. -1.
        -11    1    1    2    0    0 -0.25559628918E+02  0.20369502409E+02  0.11523993598E+02  0.34655644378E+02  0.00000000000E+00 0. -1.
         11    1    1    2    0    0 -0.80343835355E+02 -0.99283342327E+01 -0.11138207281E+03  0.13769411695E+03  0.00000000000E+00 0.  1.
</event>
<event>
 6    1  0.4394360E-006  0.8308505E+02  0.7561462E-02  0.1320518E+00
          1   -1    0    0  501    0  0.00000000000E+00  0.00000000000E+00  0.37346556206E+03  0.37346556206E+03  0.00000000000E+00 0. -1.
         -1   -1    0    0    0  501 -0.00000000000E+00 -0.00000000000E+00 -0.79253688583E+02  0.79253688583E+02  0.00000000000E+00 0.  1.
          5    1    1    2  502    0  0.11713881005E+02 -0.27633648021E+02  0.73534549322E+02  0.79533866089E+02  0.41800000000E+01 0. -1.
         -5    1    1    2    0  502  0.23604245391E+02 -0.12625531589E+02 -0.63301131518E+02  0.68855428979E+02  0.41800000000E+01 0.  1.
        -11    1    1    2    0    0 -0.56488009312E+02 -0.70668152746E+01  0.13203377720E+03  0.14378370351E+03  0.00000000000E+00 0. -1.
         11    1    1    2    0    0  0.21169882915E+02  0.47325994885E+02  0.15194467847E+03  0.16054625206E+03  0.00000000000E+00 0.  1.
</event>
<event>
 7    1  0.4394360E-006  0.1600497E+03  0.7561462E-02  0.1188641E+00
          2   -1    0    0  501    0  0.00000000000E+00  0.00000000000E+00  0.17099465374E+03  0.17099465374E+03  0.00000000000E+00 0. -1.
         -2   -1    0    0    0  501 -0.00000000000E+00 -0.00000000000E+00 -0.18881810985E+03  0.18881810985E+03  0.00000000000E+00 0.  1.
         23    2    1    2    0    0  0.13116952688E+03 -0.11644323202E+02 -0.64534631177E+02  0.19276844317E+03  0.12511562259E+03 0.  0.
          5    1    3    3  502    0 -0.15143534624E+02 -0.11533615804E+02 -0.39806807065E+02  0.44321611243E+02  0.41800000000E+01 0.  1.
         -5    1    3    3    0  502  0.14631306151E+03 -0.11070739737E+00 -0.24727824112E+02  0.14844683193E+03  0.41800000000E+01 0.  1.
        -11    1    1    2    0    0 -0.55193427855E+02 -0.34744717438E+02 -0.26183409153E+01  0.65271475986E+02  0.00000000000E+00 0.  1.
         11    1    1    2    0    0 -0.75976099029E+02  0.46389040640E+02  0.49329515982E+02  0.10177284442E+03  0.00000000000E+00 0. -1.
</event>
<event>
 7    1  0.4394360E-006  0.8009894E+02  0.7561462E-02  0.1328771E+00
          2   -1    0    0  501    0  0.00000000000E+00  0.00000000000E+00  0.38719452322E+02  0.38719452322E+02  0.00000000000E+00 0. -1.
         -2   -1    0    0    0  501 -0.00000000000E+00 -0.00000000000E+00 -0.31797664268E+03  0.31797664268E+03  0.00000000000E+00 0.  1.
         23    2    1    2    0    0  0.37748178941E+01  0.20144445037E+02 -0.14217415448E+03  0.19047678702E+03  0.12509143965E+03 0.  0.
          5    1    3    3  502    0  0.32266140714E+02 -0.24029750058E+02 -0.13028862373E+03  0.13642261762E+03  0.41800000000E+01 0. -1.
         -5    1    3    3    0  502 -0.28491322820E+02  0.44174195095E+02 -0.11885530753E+02  0.54054169400E+02  0.41800000000E+01 0. -1.
        -11    1    1    2    0    0  0.30070591240E+02 -0.98472054794E+01 -0.83660020833E+01  0.32729159844E+02  0.00000000000E+00 0. -1.
         11    1    1    2    0    0 -0.33845409134E+02 -0.10297239558E+02 -0.12871703380E+03  0.13349014814E+03  0.00000000000E+00 0.  1.
</event>
<event>
 6    1  0.4394360E-006  0.1450912E+03  0.7561462E-02  0.1206638E+00
          2   -1    0    0  501    0  0.00000000000E+00  0.00000000000E+00  0.76264774860E+03  0.76264774860E+03  0.00000000000E+00 0. -1.
         -2   -1    0    0    0  501 -0.00000000000E+00 -0.00000000000E+00 -0.80857740502E+02  0.80857740502E+02  0.00000000000E+00 0.  1.
          5    1    1    2  502    0 -0.65278842102E+02 -0.19373403607E+02  0.10604118233E+03  0.12609068460E+03  0.41800000000E+01 0. -1.
         -5    1    1    2    0  502  0.26420380694E+02  0.93928263098E+02 -0.27504352317E+02  0.10146189886E+03  0.41800000000E+01 0.  1.
        -11    1    1    2    0    0 -0.29617374571E+02 -0.32353289481E+02  0.19937408290E+03  0.20414198282E+03  0.00000000000E+00 0.  1.
         11    1    1    2    0    0  0.68475835979E+02 -0.42201570009E+02  0.40387909518E+03  0.41181092281E+03  0.00000000000E+00 0. -1.
</event>
<event>
 7    1  0.4394360E-006  0.7488491E+02  0.7561462E-02  0.1344228E+00
          1   -1    0    0  501    0  0.00000000000E+00  0.00000000000E+00  0.73227467065E+02  0.73227467065E+02  0.00000000000E+00 0. -1.
         -1   -1    0    0    0  501 -0.00000000000E+00 -0.00000000000E+00 -0.24627702556E+03  0.24627702556E+03  0.00000000000E+00 0.  1.
         23    2    1    2    0    0  0.12963338314E+02 -0.21146164736E+02 -0.18563294721E+03  0.22521705761E+03  0.12509166049E+03 0.  0.
          5    1    3    3  502    0 -0.35850600747E+02  0.63767352962E+01 -0.61778665149E+01  0.37169433163E+02  0.41800000000E+01 0.  1.
         -5    1    3    3    0  502  0.48813939061E+02 -0.27522900033E+02 -0.17945508070E+03  0.18804762445E+03  0.41800000000E+01 0.  1.
        -11    1    1    2    0    0  0.19826911736E+02  0.54053945213E+01 -0.31204285851E+02  0.37363513947E+02  0.00000000000E+00 0.  1.
         11    1    1    2    0    0 -0.32790250050E+02  0.15740770215E+02  0.43787674570E+02  0.56923921066E+02  0.00000000000E+00 0. -1.
</event>
<event>
 7    1  0.4394360E-006  0.1084290E+03  0.7561462E-02  0.1263507E+00
          2   -1    0    0  501    0  0.00000000000E+00  0.00000000000E+00  0.29804093194E+03  0.29804093194E+03  0.00000000000E+00 0. -1.
         -2   -1    0    0    0  501 -0.00000000000E+00 -0.00000000000E+00 -0.66685624992E+02  0.66685624992E+02  0.00000000000E+00 0.  1.
         23    2    1    2    0    0  0.21100205864E+02  0.16582479104E+02  0.13874350362E+02  0.12868644835E+03  0.12508999596E+03 0.  0.
          5    1    3    3  502    0 -0.45310403253E+02 -0.19887869368E+02  0.17673508555E+02  0.52710390775E+02  0.41800000000E+01 0.  1.
         -5    1    3    3    0  502  0.66410609118E+02  0.36470348472E+02 -0.37991581931E+01  0.75976057571E+02  0.41800000000E+01 0.  1.
        -11    1    1    2    0    0  0.30751824588E+02 -0.23906252523E+02  0.10415513423E+03  0.11120016012E+03  0.00000000000E+00 0.  1.
         11    1    1    2    0    0 -0.51852030453E+02  0.73237734192E+01  0.11332582236E+03  0.12483994846E+03  0.00000000000E+00 0. -1.
</event>
<event>
 7    1  0.4394360E-006  0.1631422E+03  0.7561462E-02  0.1185194E+00
          3   -1    0    0  501    0  0.00000000000E+00  0.00000000000E+00  0.15994498134E+03  0.15994498134E+03  0.00000000000E+00 0. -1.
         -3   -1    0    0    0  501 -0.00000000000E+00 -0.00000000000E+00 -0.18016816541E+03  0.18016816541E+03  0.00000000000E+00 0.  1.
         23    2    1    2    0    0  0.11021893382E+03  0.57868339043E+02 -0.48572906568E+02  0.18304075695E+03  0.12509050090E+03 0.  0.
          5    1    3    3  502    0  0.94700759925E+02 -0.16805788883E+02 -0.45789959180E+02  0.10660610317E+03  0.41800000000E+01 0. -1.
         -5    1    3    3    0  502  0.15518173895E+02  0.74674127926E+02 -0.27829473874E+01  0.76434653782E+02  0.41800000000E+01 0. -1.
        -11    1    1    2    0    0 -0.67855574121E+02 -0.80755248755E+02  0.27105350557E+02  0.10890587298E+03  0.00000000000E+00 0.  1.
         11    1    1    2    0    0 -0.42363359699E+02  0.22886909712E+02  0.12443719394E+01  0.48166516821E+02  0.00000000000E+00 0. -1.
</event>
<event>
 7    1  0.4394360E-006  0.1144959E+03  0.7561462E-02  0.1252464E+00
         -1   -1    0    0    0  501 -0.00000000000E+00  0.00000000000E+00  0.92474918198E+02  0.92474918198E+02  0.00000000000E+00 0.  1.
          1   -1    0    0  501    0  0.00000000000E+00 -0.00000000000E+00 -0.23790954147E+03  0.23790954147E+03  0.00000000000E+00 0. -1.
         23    2    1    2    0    0 -0.13356826580E+02 -0.72563921255E+02 -0.84702665405E+00  0.14523370285E+03  0.12509269965E+03 0.  0.
          5    1    3    3  502    0 -0.25621844400E+02  0.27403777351E+02 -0.19857906958E+02  0.42652723152E+02  0.41800000000E+01 0. -1.
         -5    1    3    3    0  502  0.12265017820E+02 -0.99967698606E+02  0.19010880304E+02  0.10258097970E+03  0.41800000000E+01 0. -1.
        -11    1    1    2    0    0 -0.15811082842E+02  0.45772675953E+01  0.58808746238E+01  0.17479313648E+02  0.00000000000E+00 0.  1.
         11    1    1    2    0    0  0.29167909421E+02  0.67986653660E+02 -0.15046847124E+03  0.16767144317E+03  0.00000000000E+00 0. -1.
</event>
<event>
 6    1  0.4394360E-006  0.1145309E+03  0.7561462E-02  0.1252402E+00
         -2   -1    0    0    0  501 -0.00000000000E+00  0.00000000000E+00  0.15004219395E+03  0.15004219395E+03  0.00000000000E+00 0.  1.
          2   -1    0    0  501    0  0.00000000000E+00 -0.00000000000E+00 -0.31038938196E+03  0.31038938196E+03  0.00000000000E+00 0. -1.
          5    1    1    2  502    0 -0.41123552486E+02 -0.76851492112E+02  0.10349472071E+03  0.13537329140E+03  0.41800000000E+01 0. -1.
         -5    1    1    2    0  502  0.57534882830E+02  0.40216929648E+02 -0.43489145701E+02  0.82682781560E+02  0.41800000000E+01 0.  1.
        -11    1    1    2    0    0 -0.38761607779E+02  0.20006599996E+02 -0.20688506539E+03  0.21143357482E+03  0.00000000000E+00 0. -1.
         11    1    1    2    0    0  0.22350277435E+02  0.16627962468E+02 -0.13467697626E+02  0.30941928133E+02  0.00000000000E+00 0.  1.
</event>
<event>
 7    1  0.4394360E-006  0.8901373E+02  0.7561462E-02  0.1305258E+00
         -2   -1    0    0    0  501 -0.00000000000E+00  0.00000000000E+00  0.10501902270E+03  0.10501902270E+03  0.00000000000E+00 0.  1.
          2   -1    0    0  501    0  0.00000000000E+00 -0.00000000000E+00 -0.15647524896E+03  0.15647524896E+03  0.00000000000E+00 0. -1.
         23    2    1    2    0    0  0.40408116074E+02 -0.52933845248E+02 -0.24775114899E+02  0.14386687955E+03  0.12509622255E+03 0.  0.
          5    1    3    3  502    0 -0.18467061994E+02 -0.47531825095E+02 -0.56842709170E+02  0.76477923359E+02  0.41800000000E+01 0. -1.
         -5    1    3    3    0  502  0.58875178068E+02 -0.54020201531E+01  0.32067594272E+02  0.67388956192E+02  0.41800000000E+01 0. -1.
        -11    1    1    2    0    0 -0.57161426524E+01  0.15670934815E+02  0.34327626152E+02  0.38165932479E+02  0.00000000000E+00 0.  1.
         11    1    1    2    0    0 -0.34691973422E+02  0.37262910433E+02 -0.61008737513E+02  0.79461459631E+02  0.00000000000E+00 0. -1.
</event>
<event>
 7    1  0.4394360E-006  0.8855666E+02  0.7561462E-02  0.1306385E+00
         -1   -1    0    0    0  501 -0.00000000000E+00  0.00000000000E+00  0.15741456994E+03  0.15741456994E+03  0.00000000000E+00 0.  1.
          1   -1    0    0  501    0  0.00000000000E+00 -0.00000000000E+00 -0.87848548610E+02  0.87848548610E+02  0.00000000000E+00 0. -1.
         23    2    1    2    0    0  0.25710774918E+02  0.40265891044E+01  0.81896928472E+02  0.15176336023E+03  0.12509097988E+03 0.  0.
          5    1    3    3  502    0  0.60166383364E+02  0.39536348234E+02  0.70430010759E+02  0.10080166335E+03  0.41800000000E+01 0. -1.
         -5    1    3    3    0  502 -0.34455608446E+02 -0.35509759130E+02  0.11466917712E+02  0.50961696878E+02  0.41800000000E+01 0. -1.
        -11    1    1    2    0    0 -0.26725115269E+02 -0.23654131300E+02  0.30132350330E+02  0.46708759886E+02  0.00000000000E+00 0.  1.
         11    1    1    2    0    0  0.10143403510E+01  0.19627542196E+02 -0.42463257474E+02  0.46790998432E+02  0.00000000000E+00 0. -1.
</event>
<event>
 7    1  0.4394360E-006  0.9285352E+02  0.7561462E-02  0.1296085E+00
          2   -1    0    0  501    0  0.00000000000E+00  0.00000000000E+00  0.56809313060E+03  0.56809313060E+03  0.00000000000E+00 0. -1.
         -2   -1    0    0    0  501 -0.00000000000E+00 -0.00000000000E+00 -0.25268269101E+02  0.25268269101E+02  0.00000000000E+00 0.  1.
         23    2    1    2    0    0 -0.17668992627E+02 -0.41141452827E+02  0.25150403879E+03  0.28444118526E+03  0.12509074267E+03 0.  0.
          5    1    3    3  502    0 -0.46010446953E+02 -0.56487875376E+02  0.23853768894E+03  0.24945048154E+03  0.41800000000E+01 0. -1.
         -5    1    3    3    0  502  0.28341454326E+02  0.15346422549E+02  0.12966349845E+02  0.34990703718E+02  0.41800000000E+01 0. -1.
        -11    1    1    2    0    0  0.25607096560E+02  0.57005859577E+02  0.28207708766E+03  0.28891672642E+03  0.00000000000E+00 0. -1.
         11    1    1    2    0    0 -0.79381039333E+01 -0.15864406750E+02  0.92437350497E+01  0.20003488027E+02  0.00000000000E+00 0.  1.
</event>
<event>
 7    1  0.4394360E-006  0.1248152E+03  0.7561462E-02  0.1235358E+00
         -1   -1    0    0    0  501 -0.00000000000E+00  0.00000000000E+00  0.23150403125E+03  0.23150403125E+03  0.00000000000E+00 0.  1.
          1   -1    0    0  501    0  0.00000000000E+00 -0.00000000000E+00 -0.13146520652E+03  0.13146520652E+03  0.00000000000E+00 0. -1.
         23    2    1    2    0    0 -0.10080789703E+03 -0.66713308859E+02  0.11979402191E+03  0.21121321792E+03  0.12509003979E+03 0.  0.
          5    1    3    3  502    0 -0.63804011454E+02 -0.25992573242E+02  0.13700600857E+03  0.15341018390E+03  0.41800000000E+01 0.  1.
         -5    1    3    3    0  502 -0.37003885573E+02 -0.40720735618E+02 -0.17211986656E+02  0.57803034015E+02  0.41800000000E+01 0.  1.
        -11    1    1    2    0    0  0.60563183825E+02  0.58800686110E+02 -0.52383920875E+02  0.99345332494E+02  0.00000000000E+00 0. -1.
         11    1    1    2    0    0  0.40244713202E+02  0.79126227497E+01  0.32628723698E+02  0.52410687361E+02  0.00000000000E+00 0.  1.
</event>
<event>
 7    1  0.4394360E-006  0.8608046E+02  0.7561462E-02  0.1312631E+00
         -2   -1    0    0    0  501 -0.00000000000E+00  0.00000000000E+00  0.10344726477E+02  0.10344726477E+02  0.00000000000E+00 0.  1.
          2   -1    0    0  501    0  0.00000000000E+00 -0.00000000000E+00 -0.11499367580E+04  0.11499367580E+04  0.00000000000E+00 0. -1.
         23    2    1    2    0    0 -0.28373836874E+02 -0.19057064702E+02 -0.62259702035E+03  0.63595789098E+03  0.12508854071E+03 0.  0.
          5    1    3    3  502    0 -0.54867298344E+02 -0.72104623918E+01 -0.58797508998E+03  0.59058834228E+03  0.41800000000E+01 0. -1.
         -5    1    3    3    0  502  0.26493461470E+02 -0.11846602311E+02 -0.34621930369E+02  0.45369548702E+02  0.41800000000E+01 0. -1.
        -11    1    1    2    0    0  0.50596097425E+02 -0.91679763271E+01 -0.30905300129E+03  0.31330141154E+03  0.00000000000E+00 0.  1.
         11    1    1    2    0    0 -0.22222260551E+02  0.28225041029E+02 -0.20794200985E+03  0.21102218193E+03  0.00000000000E+00 0. -1.
</event>
<event>
 6    1  0.4394360E-006  0.1286380E+03  0.7561462E-02  0.1229491E+00
          3   -1    0    0  501    0  0.00000000000E+00  0.00000000000E+00  0.38155856572E+02  0.38155856572E+02  0.00000000000E+00 0. -1.
         -3   -1    0    0    0  501 -0.00000000000E+00 -0.00000000000E+00 -0.69641234676E+03  0.69641234676E+03  0.00000000000E+00 0.  1.
          5    1    1    2  502    0  0.37880341794E+02 -0.64386913442E+02 -0.79781438605E+02  0.10937616405E+03  0.41800000000E+01 0. -1.
         -5    1    1    2    0  502 -0.77228994763E+02  0.61181107908E+02 -0.46220613115E+03  0.47260916799E+03  0.41800000000E+01 0.  1.
        -11    1    1    2    0    0  0.47981361774E+01  0.35932351528E+02 -0.92577917798E+02  0.99422466581E+02  0.00000000000E+00 0.  1.
         11    1    1    2    0    0  0.34550516791E+02 -0.32726545993E+02 -0.23691002643E+02  0.53160404714E+02  0.00000000000E+00 0. -1.
</event>
<event>
 7    1  0.4394360E-006  0.1310134E+03  0.7561462E-02  0.1225960E+00
          2   -1    0    0  501    0  0.00000000000E+00  0.00000000000E+00  0.47327638200E+03  0.47327638200E+03  0.00000000000E+00 0. -1.
         -2   -1    0    0    0  501 -0.00000000000E+00 -0.00000000000E+00 -0.39404017110E+02  0.39404017110E+02  0.00000000000E+00 0.  1.
         23    2    1    2    0    0 -0.56501983891E+02  0.60285993011E+02  0.22567692809E+03  0.27093256887E+03  0.12508999108E+03 0.  0.
          5    1    3    3  502    0 -0.87234632583E+02  0.63134366976E+01  0.12694356560E+03  0.15421375377E+03  0.41800000000E+01 0.  1.
         -5    1    3    3    0  502  0.30732648692E+02  0.53972556314E+02  0.98733362487E+02  0.11671881510E+03  0.41800000000E+01 0.  1.
        -11    1    1    2    0    0  0.62941640189E+02 -0.12719213808E+02  0.16544549541E+03  0.17747011134E+03  0.00000000000E+00 0.  1.
         11    1    1    2    0    0 -0.64396562976E+01 -0.47566779203E+02  0.42749941395E+02  0.64277718894E+02  0.00000000000E+00 0. -1.
</event>
<event>
 7    1  0.4394360E-006  0.1375579E+03  0.7561462E-02  0.1216653E+00
          2   -1    0    0  501    0  0.00000000000E+00  0.00000000000E+00  0.57141344191E+03  0.57141344191E+03  0.00000000000E+00 0. -1.
         -2   -1    0    0    0  501 -0.00000000000E+00 -0.00000000000E+00 -0.33353468470E+02  0.33353468470E+02  0.00000000000E+00 0.  1.
         23    2    1    2    0    0  0.66750570441E+02  0.52137073500E+02  0.29445696832E+03  0.33095225871E+03  0.12510227123E+03 0.  0.
          5    1    3    3  502    0  0.78014714652E+02 -0.16989134740E+02  0.13809615925E+03  0.15957113775E+03  0.41800000000E+01 0.  1.
         -5    1    3    3    0  502 -0.11264144211E+02  0.69126208240E+02  0.15636080907E+03  0.17138112097E+03  0.41800000000E+01 0.  1.
        -11    1    1    2    0    0 -0.68402352840E+02  0.43019660690E+01  0.13070633218E+03  0.14758568378E+03  0.00000000000E+00 0.  1.
         11    1    1    2    0    0  0.16517823989E+01 -0.56439039569E+02  0.11289667293E+03  0.12622896788E+03  0.00000000000E+00 0. -1.
</event>
<event>
 7    1  0.4394360E-006  0.1168415E+03  0.7561462E-02  0.1248401E+00
          2   -1    0    0  501    0  0.00000000000E+00  0.00000000000E+00  0.23317864114E+02  0.23317864114E+02  0.00000000000E+00 0. -1.
         -2   -1    0    0    0  501 -0.00000000000E+00 -0.00000000000E+00 -0.83129423826E+03  0.83129423826E+03  0.00000000000E+00 0.  1.
         23    2    1    2    0    0  0.66235384511E+02  0.98161472942E+01 -0.68230270899E+03  0.69689902957E+03  0.12509111806E+03 0.  0.
          5    1    3    3  502    0  0.34554804825E+02  0.65523263250E+02 -0.28815570908E+03  0.29755422638E+03  0.41800000000E+01 0.  1.
         -5    1    3    3    0  502  0.31680579686E+02 -0.55707115956E+02 -0.39414699991E+03  0.39934480319E+03  0.41800000000E+01 0.  1.
        -11    1    1    2    0    0 -0.60466756895E+02 -0.34704886687E+02 -0.90537651659E+02  0.11427039957E+03  0.00000000000E+00 0.  1.
         11    1    1    2    0    0 -0.57686276160E+01  0.24888739393E+02 -0.35136013497E+02  0.43442673233E+02  0.00000000000E+00 0. -1.
</event>
<event>
 7    1  0.4394360E-006  0.7569069E+02  0.7561462E-02  0.1341745E+00
          1   -1    0    0  501    0  0.00000000000E+00  0.00000000000E+00  0.25650218290E+02  0.25650218290E+02  0.00000000000E+00 0.  1.
         -1   -1    0    0    0  501 -0.00000000000E+00 -0.00000000000E+00 -0.53664304212E+03  0.53664304212E+03  0.00000000000E+00 0. -1.
         23    2    1    2    0    0 -0.42599291395E+02 -0.70748244054E+01 -0.30929377770E+03  0.33641510560E+03  0.12509088530E+03 0.  0.
          5    1    3    3  502    0 -0.23935413875E+01 -0.96911771289E+01  0.98964090582E+01  0.14664899139E+02  0.41800000000E+01 0. -1.
         -5    1    3    3    0  502 -0.40205750008E+02  0.26163527235E+01 -0.31919018676E+03  0.32175020646E+03  0.41800000000E+01 0. -1.
        -11    1    1    2    0    0 -0.96677958369E+01 -0.32874205606E+02 -0.89212656530E+02  0.95567137426E+02  0.00000000000E+00 0. -1.
         11    1    1    2    0    0  0.52267087232E+02  0.39949030011E+02 -0.11248638960E+03  0.13031101739E+03  0.00000000000E+00 0.  1.
</event>
<event>
 7    1  0.4394360E-006  0.8619213E+02  0.7561462E-02  0.1312344E+00
         -1   -1    0    0    0  501 -0.00000000000E+00  0.00000000000E+00  0.16013828355E+03  0.16013828355E+03  0.00000000000E+00 0.  1.
          1   -1    0    0  501    0  0.00000000000E+00 -0.00000000000E+00 -0.91856912540E+02  0.91856912540E+02  0.00000000000E+00 0. -1.
         23    2    1    2    0    0 -0.33298198170E+02 -0.27630092150E+02  0.32638071881E+02  0.13632895577E+03  0.12509255953E+03 0.  0.
          5    1    3    3  502    0 -0.19875569598E+02 -0.75992045918E+02  0.34586429798E+02  0.85927427728E+02  0.41800000000E+01 0.  1.
         -5    1    3    3    0  502 -0.13422628572E+02  0.48361953768E+02 -0.19483579175E+01  0.50401528039E+02  0.41800000000E+01 0.  1.
        -11    1    1    2    0    0  0.18798994122E+02  0.13768349686E+02 -0.35101950096E+02  0.42132131843E+02  0.00000000000E+00 0. -1.
         11    1    1    2    0    0  0.14499204049E+02  0.13861742464E+02  0.70745249226E+02  0.73534108482E+02  0.00000000000E+00 0.  1.
</event>
<event>
 7    1  0.4394360E-006  0.1296030E+03  0.7561462E-02  0.1228046E+00
          2   -1    0    0  501    0  0.00000000000E+00  0.00000000000E+00  0.20422172485E+03  0.20422172485E+03  0.00000000000E+00 0. -1.
         -2   -1    0    0    0  501 -0.00000000000E+00 -0.00000000000E+00 -0.10213840338E+03  0.10213840338E+03  0.00000000000E+00 0.  1.
         23    2    1    2    0    0  0.67989502919E+02 -0.64781522159E+02  0.85837367981E+02  0.17539183769E+03  0.12072706766E+03 0.  0.
          5    1    3    3  502    0 -0.15622180107E+02 -0.39132288636E+02  0.76372139603E+02  0.87324479000E+02  0.41800000000E+01 0. -1.
         -5    1    3    3    0  502  0.83611683026E+02 -0.25649233523E+02  0.94652283790E+01  0.88067358692E+02  0.41800000000E+01 0.  1.
        -11    1    1    2    0    0 -0.20610309188E+02 -0.22178815710E+02 -0.17048503744E+01  0.30324762586E+02  0.00000000000E+00 0.  1.
         11    1    1    2    0    0 -0.47379193731E+02  0.86960337868E+02  0.17950803862E+02  0.10064352796E+03  0.00000000000E+00 0. -1.
</event>
<event>
 7    1  0.4394360E-006  0.8822440E+02  0.7561462E-02  0.1307209E+00
          1   -1    0    0  501    0  0.00000000000E+00  0.00000000000E+00  0.29773538850E+03  0.29773538850E+03  0.00000000000E+00 0. -1.
         -1   -1    0    0    0  501 -0.00000000000E+00 -0.00000000000E+00 -0.53372727518E+02  0.53372727518E+02  0.00000000000E+00 0.  1.
         23    2    1    2    0    0  0.23379509303E+02  0.15295646034E+02  0.56141310057E+02  0.13993051459E+03  0.12509254165E+03 0.  0.
          5    1    3    3  502    0 -0.38602614563E+02  0.21540921226E+02  0.63046706492E+02  0.77113764905E+02  0.41800000000E+01 0.  1.
         -5    1    3    3    0  502  0.61982123866E+02 -0.62452751914E+01 -0.69053964352E+01  0.62816749686E+02  0.41800000000E+01 0.  1.
        -11    1    1    2    0    0 -0.12415526913E+02 -0.40373681223E+02  0.17636023069E+03  0.18134803670E+03  0.00000000000E+00 0. -1.
         11    1    1    2    0    0 -0.10963982389E+02  0.25078035189E+02  0.11861120233E+02  0.29829564730E+02  0.00000000000E+00 0.  1.
</event>
<event>
 7    1  0.4394360E-006  0.1102920E+03  0.7561462E-02  0.1260030E+00
         -1   -1    0    0    0  501 -0.00000000000E+00  0.00000000000E+00  0.34806005584E+03  0.34806005584E+03  0.00000000000E+00 0.  1.
          1   -1    0    0  501    0  0.00000000000E+00 -0.00000000000E+00 -0.40923785592E+02  0.40923785592E+02  0.00000000000E+00 0. -1.
         23    2    1    2    0    0  0.19127760790E+02  0.44577482643E+02  0.18871400337E+03  0.23154507086E+03  0.12508845502E+03 0.  0.
          5    1    3    3  502    0  0.30031612221E+02  0.76879490099E+02  0.17684808291E+03  0.19520520116E+03  0.41800000000E+01 0. -1.
         -5    1    3    3    0  502 -0.10903851431E+02 -0.32302007456E+02  0.11865920463E+02  0.36339869705E+02  0.41800000000E+01 0. -1.
        -11    1    1    2    0    0  0.30421252373E+02 -0.44668989136E+02  0.57513505420E+02  0.78921318362E+02  0.00000000000E+00 0.  1.
         11    1    1    2    0    0 -0.49549013163E+02  0.91506492736E-01  0.60908761454E+02  0.78517452205E+02  0.00000000000E+00 0. -1.
</event>
<event>
 7    1  0.4394360E-006  0.7959247E+02  0.7561462E-02  0.1330212E+00
         -1   -1    0    0    0  501 -0.00000000000E+00  0.00000000000E+00  0.12631263146E+03  0.12631263146E+03  0.00000000000E+00 0.  1.
          1   -1    0    0  501    0  0.00000000000E+00 -0.00000000000E+00 -0.11233962848E+03  0.11233962848E+03  0.00000000000E+00 0. -1.
         23    2    1    2    0    0 -0.40318821669E+01 -0.48438320334E+02  0.51555519260E+01  0.13430028626E+03  0.12508980863E+03 0.  0.
          5    1    3    3  502    0  0.83802609507E+01 -0.68967787583E+02  0.48327739156E+02  0.84733861412E+02  0.41800000000E+01 0.  1.
         -5    1    3    3    0  502 -0.12412143118E+02  0.20529467249E+02 -0.43172187230E+02  0.49566424852E+02  0.41800000000E+01 0.  1.
        -11    1    1    2    0    0  0.17213739445E+02  0.24434742943E+01 -0.35249720577E+02  0.39304277032E+02  0.00000000000E+00 0. -1.
         11    1    1    2    0    0 -0.13181857278E+02  0.45994846040E+02  0.44067171627E+02  0.65047696644E+02  0.00000000000E+00 0.  1.
</event>
<event>
 7    1  0.4394360E-006  0.1127751E+03  0.7561462E-02  0.1255515E+00
          1   -1    0    0  501    0  0.00000000000E+00  0.00000000000E+00  0.11052339174E+03  0.11052339174E+03  0.00000000000E+00 0. -1.
         -1   -1    0    0    0  501 -0.00000000000E+00 -0.00000000000E+00 -0.27412038417E+03  0.27412038417E+03  0.00000000000E+00 0.  1.
         23    2    1    2    0    0 -0.70518441249E+02 -0.65798231821E+02 -0.19303027377E+03  0.24940729983E+03  0.12506421049E+03 0.  0.
          5    1    3    3  502    0 -0.34582845965E+02  0.14335817213E+02 -0.14377632520E+03  0.14862904486E+03  0.41800000000E+01 0.  1.
         -5    1    3    3    0  502 -0.35935595284E+02 -0.80134049034E+02 -0.49253948578E+02  0.10077825496E+03  0.41800000000E+01 0.  1.
        -11    1    1    2    0    0  0.49201891325E+02  0.28124999127E+02  0.59778844144E+02  0.82373247435E+02  0.00000000000E+00 0. -1.
         11    1    1    2    0    0  0.21316549924E+02  0.37673232695E+02 -0.30345562798E+02  0.52863228655E+02  0.00000000000E+00 0.  1.
</event>
<event>
 7    1  0.4394360E-006  0.7488292E+02  0.7561462E-02  0.1344234E+00
         -1   -1    0    0    0  501 -0.00000000000E+00  0.00000000000E+00  0.80155245062E+02  0.80155245062E+02  0.00000000000E+00 0.  1.
          1   -1    0    0  501    0  0.00000000000E+00 -0.00000000000E+00 -0.17237863242E+03  0.17237863242E+03  0.00000000000E+00 0. -1.
         23    2    1    2    0    0  0.31145675398E+02 -0.28548516626E+02 -0.40771110236E+02  0.13816889632E+03  0.12507313694E+03 0.  0.
          5    1    3    3  502    0 -0.30884475706E+01 -0.10185711993E+02 -0.81167062406E+02  0.81968601652E+02  0.41800000000E+01 0. -1.
         -5    1    3    3    0  502  0.34234122968E+02 -0.18362804633E+02  0.40395952170E+02  0.56200294671E+02  0.41800000000E+01 0. -1.
        -11    1    1    2    0    0 -0.52697247003E+02  0.47209053321E+02 -0.23793162339E+02  0.74644551920E+02  0.00000000000E+00 0.  1.
         11    1    1    2    0    0  0.21551571605E+02 -0.18660536695E+02 -0.27659114786E+02  0.39720429242E+02  0.00000000000E+00 0. -1.
</event>
<event>
 7    1  0.4394360E-006  0.2010250E+03  0.7561462E-02  0.1148877E+00
         -2   -1    0    0    0  501 -0.00000000000E+00  0.00000000000E+00  0.30587844052E+03  0.30587844052E+03  0.00000000000E+00 0.  1.
          2   -1    0    0  501    0  0.00000000000E+00 -0.00000000000E+00 -0.14405165174E+03  0.14405165174E+03  0.00000000000E+00 0. -1.
         23    2    1    2    0    0  0.30916023809E+01 -0.17662808159E+03  0.12623434692E+03  0.25057869339E+03  0.12509010363E+03 0.  0.
          5    1    3    3  502    0 -0.98559452204E+01  0.14977933760E+02  0.31295775737E+02  0.36309449663E+02  0.41800000000E+01 0.  1.
         -5    1    3    3    0  502  0.12947547601E+02 -0.19160601535E+03  0.94938571185E+02  0.21426924372E+03  0.41800000000E+01 0.  1.
        -11    1    1    2    0    0  0.28845946885E+02  0.14005949411E+03  0.44967729430E+02  0.14990279261E+03  0.00000000000E+00 0. -1.
         11    1    1    2    0    0 -0.31937549266E+02  0.36568587481E+02 -0.93752875744E+01  0.49448606255E+02  0.00000000000E+00 0.  1.
</event>
<event>
 7    1  0.4394360E-006  0.1274902E+03  0.7561462E-02  0.1231228E+00
         -1   -1    0    0    0  501 -0.00000000000E+00  0.00000000000E+00  0.71363749999E+02  0.71363749999E+02  0.00000000000E+00 0.  1.
          1   -1    0    0  501    0  0.00000000000E+00 -0.00000000000E+00 -0.30055122038E+03  0.30055122038E+03  0.00000000000E+00 0. -1.
         23    2    1    2    0    0  0.75207627029E+02 -0.62150210071E+02 -0.10669791976E+03  0.19118381495E+03  0.12509184324E+03 0.  0.
          5    1    3    3  502    0  0.69294089874E+02 -0.94004040091E+02 -0.52966986186E+02  0.12830200494E+03  0.41800000000E+01 0.  1.
         -5    1    3    3    0  502  0.59135371553E+01  0.31853830020E+02 -0.53730933573E+02  0.62881810018E+02  0.41800000000E+01 0.  1.
        -11    1    1    2    0    0 -0.64871805294E+02  0.29604204308E+02 -0.22039902187E+02  0.74635898355E+02  0.00000000000E+00 0.  1.
         11    1    1    2    0    0 -0.10335821735E+02  0.32546005763E+02 -0.10044964844E+03  0.10609525707E+03  0.00000000000E+00 0. -1.
</event>
<event>
 6    1  0.4394360E-006  0.1169291E+03  0.7561462E-02  0.1248251E+00
          2   -1    0    0  501    0  0.00000000000E+00  0.00000000000E+00  0.40663297994E+03  0.40663297994E+03  0.00000000000E+00 0.  1.
         -2   -1    0    0    0  501 -0.00000000000E+00 -0.00000000000E+00 -0.39315894801E+02  0.39315894801E+02  0.00000000000E+00 0. -1.
          5    1    1    2  502    0  0.71872836716E+02  0.24155630939E+02  0.56621739494E+02  0.94724299664E+02  0.41800000000E+01 0. -1.
         -5    1    1    2    0  502 -0.65744068334E+02 -0.11576280455E+02  0.92897187234E+02  0.11447118671E+03  0.41800000000E+01 0.  1.
        -11    1    1    2    0    0 -0.35464857648E+02 -0.38170960694E+02  0.14695538195E+03  0.15591876940E+03  0.00000000000E+00 0.  1.
         11    1    1    2    0    0  0.29336089266E+02  0.25591610211E+02  0.70842776466E+02  0.80834618970E+02  0.00000000000E+00 0. -1.
</event>
<event>
 7    1  0.4394360E-006  0.2529360E+03  0.7561462E-02  0.1111463E+00
         -1   -1    0    0    0  501 -0.00000000000E+00  0.00000000000E+00  0.17729422471E+03  0.17729422471E+03  0.00000000000E+00 0.  1.
          1   -1    0    0  501    0  0.00000000000E+00 -0.00000000000E+00 -0.37704180724E+03  0.37704180724E+03  0.00000000000E+00 0. -1.
         23    2    1    2    0    0  0.14816358034E+03 -0.18123675348E+03 -0.78799383859E+02  0.27555830949E+03  0.12216313553E+03 0.  0.
          5    1    3    3  502    0  0.35727326019E+01  0.16321422600E+02 -0.14212418813E+02  0.22329767183E+02  0.41800000000E+01 0. -1.
         -5    1    3    3    0  502  0.14459084774E+03 -0.19755817608E+03 -0.64586965046E+02  0.25322854231E+03  0.41800000000E+01 0.  1.
        -11    1    1    2    0    0 -0.24242744292E+02  0.80573331170E+02 -0.10841297940E+02  0.84836938227E+02  0.00000000000E+00 0.  1.
         11    1    1    2    0    0 -0.12392083605E+03  0.10066342231E+03 -0.11010690074E+03  0.19394078423E+03  0.00000000000E+00 0. -1.
</event>
<event>
 7    1  0.4394360E-006  0.1614511E+03  0.7561462E-02  0.1187068E+00
          1   -1    0    0  501    0  0.00000000000E+00  0.00000000000E+00  0.15432388139E+03  0.15432388139E+03  0.00000000000E+00 0. -1.
         -1   -1    0    0    0  501 -0.00000000000E+00 -0.00000000000E+00 -0.19417260547E+03  0.19417260547E+03  0.00000000000E+00 0.  1.
         23    2    1    2    0    0  0.12145027068E+03  0.29642724792E+02 -0.72002394889E+02  0.19094686010E+03  0.12508996415E+03 0.  0.
          5    1    3    3  502    0  0.21352340866E+02 -0.41879217474E+02  0.21488268558E+01  0.47242789646E+02  0.41800000000E+01 0. -1.
         -5    1    3    3    0  502  0.10009792981E+03  0.71521942266E+02 -0.74151221744E+02  0.14370407045E+03  0.41800000000E+01 0. -1.
        -11    1    1    2    0    0 -0.11425095600E+03 -0.54607858999E+02  0.35088189078E+02  0.13140197953E+03  0.00000000000E+00 0. -1.
         11    1    1    2    0    0 -0.71993146749E+01  0.24965134207E+02 -0.29345182712E+01  0.26147647222E+02  0.00000000000E+00 0.  1.
</event>
<event>
 7    1  0.4394360E-006  0.1260034E+03  0.7561462E-02  0.1233509E+00
         -2   -1    0    0    0  501 -0.00000000000E+00  0.00000000000E+00  0.10756732087E+03  0.10756732087E+03  0.00000000000E+00 0.  1.
          2   -1    0    0  501    0  0.00000000000E+00 -0.00000000000E+00 -0.20761020709E+03  0.20761020709E+03  0.00000000000E+00 0. -1.
         23    2    1    2    0    0  0.75543824046E+02  0.82402582493E+02 -0.48308734711E+02  0.17457877624E+03  0.12508781040E+03 0.  0.
          5    1    3    3  502    0  0.41108126142E+02  0.78343897903E+02 -0.85817409358E+02  0.12332779298E+03  0.41800000000E+01 0.  1.
         -5    1    3    3    0  502  0.34435697904E+02  0.40586845891E+01  0.37508674647E+02  0.51250983254E+02  0.41800000000E+01 0.  1.
        -11    1    1    2    0    0  0.17610692005E+01 -0.40575896458E+02 -0.28713887318E+02  0.49739240676E+02  0.00000000000E+00 0.  1.
         11    1    1    2    0    0 -0.77304893247E+02 -0.41826686035E+02 -0.23020264191E+02  0.90859511048E+02  0.00000000000E+00 0. -1.
</event>
<event>
 7    1  0.7903559E-006  0.2728782E+03  0.7561462E-02  0.1099644E+00
         -2   -1    0    0    0  501 -0.00000000000E+00  0.00000000000E+00  0.67578276482E+02  0.67578276482E+02  0.00000000000E+00 0. -1.
          2   -1    0    0  501    0  0.00000000000E+00 -0.00000000000E+00 -0.14003266285E+04  0.14003266285E+04  0.00000000000E+00 0.  1.
         23    2    1    2    0    0  0.11220322635E+02 -0.26487100449E+03 -0.41284099701E+03  0.50632748794E+03  0.12508913450E+03 0.  0.
          5    1    3    3  502    0 -0.46865506434E+01 -0.63074455930E+02 -0.23709585358E+02  0.67675457779E+02  0.41800000000E+01 0. -1.
         -5    1    3    3    0  502  0.15906873278E+02 -0.20179654856E+03 -0.38913141165E+03  0.43865203016E+03  0.41800000000E+01 0. -1.
        -11    1    1    2    0    0 -0.50769035952E+02  0.15758293315E+03 -0.53152673590E+03  0.55671406198E+03  0.00000000000E+00 0. -1.
         11    1    1    2    0    0  0.39548713317E+02  0.10728807134E+03 -0.38838061912E+03  0.40486335507E+03  0.00000000000E+00 0.  1.
</event>
<event>
 7    1  0.4394360E-006  0.1032246E+03  0.7561462E-02  0.1273658E+00
         -1   -1    0    0    0  501 -0.00000000000E+00  0.00000000000E+00  0.30435854425E+03  0.30435854425E+03  0.00000000000E+00 0.  1.
          1   -1    0    0  501    0  0.00000000000E+00 -0.00000000000E+00 -0.52561846660E+02  0.52561846660E+02  0.00000000000E+00 0. -1.
         23    2    1    2    0    0 -0.38293407725E+02  0.34081473054E+02  0.19983836477E+03  0.23951542792E+03  0.12167307137E+03 0.  0.
          5    1    3    3  502    0  0.22219245663E+02 -0.17509144517E+02  0.49958803297E+01  0.29029230783E+02  0.41800000000E+01 0. -1.
         -5    1    3    3    0  502 -0.60512653388E+02  0.51590617572E+02  0.19484248444E+03  0.21048619714E+03  0.41800000000E+01 0.  1.
        -11    1    1    2    0    0  0.35592224234E+02 -0.61293448465E+02  0.16760342086E+02  0.72832700880E+02  0.00000000000E+00 0. -1.
         11    1    1    2    0    0  0.27011834913E+01  0.27211975411E+02  0.35197990730E+02  0.44572262108E+02  0.00000000000E+00 0.  1.
</event>
<event>
 7    1  0.4394360E-006  0.9942711E+02  0.7561462E-02  0.1281505E+00
         -2   -1    0    0    0  501 -0.00000000000E+00  0.00000000000E+00  0.45907297648E+02  0.45907297648E+02  0.00000000000E+00 0.  1.
          2   -1    0    0  501    0  0.00000000000E+00 -0.00000000000E+00 -0.25637808306E+03  0.25637808306E+03  0.00000000000E+00 0. -1.
         23    2    1    2    0    0 -0.24219045237E+02 -0.76733720230E+01 -0.95798816860E+02  0.15321022536E+03  0.11683542721E+03 0.  0.
          5    1    3    3  502    0 -0.25738930263E+02 -0.60676512195E+02 -0.58721494993E+02  0.88373174875E+02  0.41800000000E+01 0. -1.
         -5    1    3    3    0  502  0.15198850264E+01  0.53003140172E+02 -0.37077321866E+02  0.64837050483E+02  0.41800000000E+01 0.  1.
        -11    1    1    2    0    0  0.25185158843E+02  0.40007033318E+02 -0.24436066096E+02  0.53216315798E+02  0.00000000000E+00 0.  1.
         11    1    1    2    0    0 -0.96611360613E+00 -0.32333661295E+02 -0.90235902456E+02  0.95858839552E+02  0.00000000000E+00 0. -1.
</event>
<event>
 6    1  0.4394360E-006  0.1261977E+03  0.7561462E-02  0.1233209E+00
         -1   -1    0    0    0  501 -0.00000000000E+00  0.00000000000E+00  0.43562183955E+02  0.43562183955E+02  0.00000000000E+00 0.  1.
          1   -1    0    0  501    0  0.00000000000E+00 -0.00000000000E+00 -0.67982306180E+03  0.67982306180E+03  0.00000000000E+00 0. -1.
          5    1    1    2  502    0  0.10257981067E+02 -0.42301195397E+02 -0.17365549854E+03  0.17907630184E+03  0.41800000000E+01 0. -1.
         -5    1    1    2    0  502  0.66362094362E+02 -0.45158253950E+02 -0.22893420936E+02  0.83574975861E+02  0.41800000000E+01 0.  1.
        -11    1    1    2    0    0 -0.74226870071E+02  0.47208286579E+02 -0.36893052431E+03  0.37927296546E+03  0.00000000000E+00 0. -1.
         11    1    1    2    0    0 -0.23932053581E+01  0.40251162768E+02 -0.70781434064E+02  0.81461002598E+02  0.00000000000E+00 0.  1.
</event>
<event>
 7    1  0.4394360E-006  0.1217565E+03  0.7561462E-02  0.1240227E+00
         -4   -1    0    0    0  501 -0.00000000000E+00  0.00000000000E+00  0.14131613229E+03  0.14131613229E+03  0.00000000000E+00 0.  1.
          4   -1    0    0  501    0  0.00000000000E+00 -0.00000000000E+00 -0.12742225562E+03  0.12742225562E+03  0.00000000000E+00 0. -1.
         23    2    1    2    0    0 -0.49463454755E+01 -0.72688730306E+02  0.29242172262E+02  0.14768551600E+03  0.12509112339E+03 0.  0.
          5    1    3    3  502    0  0.52704592438E+02 -0.50097317014E+02  0.42354861710E+02  0.84255100418E+02  0.41800000000E+01 0.  1.
         -5    1    3    3    0  502 -0.57650937913E+02 -0.22591413292E+02 -0.13112689448E+02  0.63430415586E+02  0.41800000000E+01 0.  1.
        -11    1    1    2    0    0 -0.26926914718E+02  0.71853438482E+02 -0.34203149072E+02  0.84010896700E+02  0.00000000000E+00 0. -1.
         11    1    1    2    0    0  0.31873260194E+02  0.83529182367E+00  0.18854853472E+02  0.37041975208E+02  0.00000000000E+00 0.  1.
</event>
<event>
 7    1  0.4394360E-006  0.8916892E+02  0.7561462E-02  0.1304877E+00
         -1   -1    0    0    0  501 -0.00000000000E+00  0.00000000000E+00  0.12342457890E+03  0.12342457890E+03  0.00000000000E+00 0.  1.
          1   -1    0    0  501    0  0.00000000000E+00 -0.00000000000E+00 -0.13467595631E+03  0.13467595631E+03  0.00000000000E+00 0. -1.
         23    2    1    2    0    0 -0.20915142526E+02 -0.59446431704E+02  0.21142934102E+02  0.14165828488E+03  0.12509486234E+03 0.  0.
          5    1    3    3  502    0  0.32216043232E+01 -0.34108803536E+02  0.71964169422E+02  0.79812926858E+02  0.41800000000E+01 0. -1.
         -5    1    3    3    0  502 -0.24136746850E+02 -0.25337628168E+02 -0.50821235320E+02  0.61845358024E+02  0.41800000000E+01 0. -1.
        -11    1    1    2    0    0 -0.31572645860E+02  0.33379316773E+01  0.29211870899E+01  0.31882708300E+02  0.00000000000E+00 0.  1.
         11    1    1    2    0    0  0.52487788387E+02  0.56108500027E+02 -0.35315498602E+02  0.84559542019E+02  0.00000000000E+00 0. -1.
</event>
<event>
 7    1  0.4394360E-006  0.2193225E+03  0.7561462E-02  0.1134389E+00
          2   -1    0    0  501    0  0.00000000000E+00  0.00000000000E+00  0.12633430622E+03  0.12633430622E+03  0.00000000000E+00 0.  1.
         -2   -1    0    0    0  501 -0.00000000000E+00 -0.00000000000E+00 -0.62570450506E+03  0.62570450506E+03  0.00000000000E+00 0. -1.
         23    2    1    2    0    0 -0.17742649552E+03  0.95374391858E+02 -0.47310838346E+03  0.52920420071E+03  0.12509639332E+03 0.  0.
          5    1    3    3  502    0 -0.42570378604E+02 -0.30362706059E+02 -0.95219655607E+02  0.10871240163E+03  0.41800000000E+01 0.  1.
         -5    1    3    3    0  502 -0.13485611691E+03  0.12573709792E+03 -0.37788872785E+03  0.42049179908E+03  0.41800000000E+01 0.  1.
        -11    1    1    2    0    0  0.11545624942E+03 -0.68205727020E+02 -0.60369575771E+02  0.14706002994E+03  0.00000000000E+00 0. -1.
         11    1    1    2    0    0  0.61970246097E+02 -0.27168664838E+02  0.34107760380E+02  0.75774580622E+02  0.00000000000E+00 0.  1.
</event>
<event>
 7    1  0.4394360E-006  0.1321190E+03  0.7561462E-02  0.1224345E+00
         -2   -1    0    0    0  501 -0.00000000000E+00  0.00000000000E+00  0.24570505280E+02  0.24570505280E+02  0.00000000000E+00 0.  1.
          2   -1    0    0  501    0  0.00000000000E+00 -0.00000000000E+00 -0.89364718686E+03  0.89364718686E+03  0.00000000000E+00 0. -1.
         23    2    1    2    0    0 -0.99139106091E+02  0.15352978875E+02 -0.42537304907E+03  0.45459128835E+03  0.12508689881E+03 0.  0.
          5    1    3    3  502    0 -0.10279436185E+03 -0.34159190377E+02 -0.25505148373E+03  0.27713221189E+03  0.41800000000E+01 0. -1.
         -5    1    3    3    0  502  0.36552557553E+01  0.49512169252E+02 -0.17032156534E+03  0.17745907646E+03  0.41800000000E+01 0. -1.
        -11    1    1    2    0    0  0.32920000145E+02  0.11049334331E+02 -0.37080040324E+02  0.50801019568E+02  0.00000000000E+00 0.  1.
         11    1    1    2    0    0  0.66219105946E+02 -0.26402313206E+02 -0.40662359219E+03  0.41282538422E+03  0.00000000000E+00 0. -1.
</event>
<event>
 7    1  0.4394360E-006  0.1175190E+03  0.7561462E-02  0.1247247E+00
          2   -1    0    0  501    0  0.00000000000E+00  0.00000000000E+00  0.11881533307E+03  0.11881533307E+03  0.00000000000E+00 0. -1.
         -2   -1    0    0    0  501 -0.00000000000E+00 -0.00000000000E+00 -0.14524382503E+03  0.14524382503E+03  0.00000000000E+00 0.  1.
         23    2    1    2    0    0  0.46667697996E+02  0.56552580276E+02 -0.41174018379E+01  0.14505391382E+03  0.12509043346E+03 0.  0.
          5    1    3    3  502    0  0.60568454954E+02 -0.11616042607E+02 -0.32455506968E+02  0.69816205238E+02  0.41800000000E+01 0. -1.
         -5    1    3    3    0  502 -0.13900756957E+02  0.68168622883E+02  0.28338105130E+02  0.75237708578E+02  0.41800000000E+01 0. -1.
        -11    1    1    2    0    0 -0.15370825528E+02 -0.68367773687E+02 -0.40490927726E+02  0.80931637723E+02  0.00000000000E+00 0.  1.
         11    1    1    2    0    0 -0.31296872468E+02  0.11815193412E+02  0.18179837597E+02  0.38073606563E+02  0.00000000000E+00 0. -1.
</event>
<event>
 7    1  0.4394360E-006  0.9752532E+02  0.7561462E-02  0.1285588E+00
         -2   -1    0    0    0  501 -0.00000000000E+00  0.00000000000E+00  0.90913497034E+03  0.90913497034E+03  0.00000000000E+00 0.  1.
          2   -1    0    0  501    0  0.00000000000E+00 -0.00000000000E+00 -0.49621238777E+02  0.49621238777E+02  0.00000000000E+00 0. -1.
         23    2    1    2    0    0  0.62835327051E+02 -0.51271356736E+02  0.81667201177E+03  0.83016706118E+03  0.12508854591E+03 0.  0.
          5    1    3    3  502    0  0.62243776797E+02 -0.40510867585E+02  0.81511705441E+03  0.81850394192E+03  0.41800000000E+01 0.  1.
         -5    1    3    3    0  502  0.59155025356E+00 -0.10760489151E+02  0.15549573516E+01  0.11663119258E+02  0.41800000000E+01 0.  1.
        -11    1    1    2    0    0 -0.52997925538E+02  0.70091211655E+02  0.55437862293E+02  0.10389857861E+03  0.00000000000E+00 0.  1.
         11    1    1    2    0    0 -0.98374015126E+01 -0.18819854919E+02 -0.12596142497E+02  0.24690569323E+02  0.00000000000E+00 0. -1.
</event>
<event>
 7    1  0.4394360E-006  0.1102464E+03  0.7561462E-02  0.1260114E+00
         -2   -1    0    0    0  501 -0.00000000000E+00  0.00000000000E+00  0.19818424340E+03  0.19818424340E+03  0.00000000000E+00 0. -1.
          2   -1    0    0  501    0  0.00000000000E+00 -0.00000000000E+00 -0.68988159568E+02  0.68988159568E+02  0.00000000000E+00 0.  1.
         23    2    1    2    0    0  0.22284762342E+02 -0.13061917083E+02  0.10441057953E+03  0.16497150047E+03  0.12508717975E+03 0.  0.
          5    1    3    3  502    0 -0.17845203088E+02 -0.60116677927E+02  0.35092581600E+02  0.71982136128E+02  0.41800000000E+01 0. -1.
         -5    1    3    3    0  502  0.40129965430E+02  0.47054760844E+02  0.69317997930E+02  0.92989364340E+02  0.41800000000E+01 0. -1.
        -11    1    1    2    0    0 -0.49633377271E+02 -0.19332040537E+02  0.34659090121E+00  0.53266500316E+02  0.00000000000E+00 0. -1.
         11    1    1    2    0    0  0.27348614929E+02  0.32393957620E+02  0.24438913397E+02  0.48934402181E+02  0.00000000000E+00 0.  1.
</event>
<event>
 7    1  0.4394360E-006  0.7551327E+02  0.7561462E-02  0.1342289E+00
          1   -1    0    0  501    0  0.00000000000E+00  0.00000000000E+00  0.74727685439E+02  0.74727685439E+02  0.00000000000E+00 0. -1.
         -1   -1    0    0    0  501 -0.00000000000E+00 -0.00000000000E+00 -0.21850817841E+03  0.21850817841E+03  0.00000000000E+00 0.  1.
         23    2    1    2    0    0  0.60126637114E+02  0.11886751507E+02 -0.99231242310E+02  0.17102783949E+03  0.12508866887E+03 0.  0.
          5    1    3    3  502    0  0.63297777431E+00  0.15837265027E+02  0.26871709111E+02  0.31476670328E+02  0.41800000000E+01 0. -1.
         -5    1    3    3    0  502  0.59493659340E+02 -0.39505135200E+01 -0.12610295142E+03  0.13955116917E+03  0.41800000000E+01 0. -1.
        -11    1    1    2    0    0 -0.38882317530E+02 -0.28238893871E+02  0.20200303233E+02  0.52127938711E+02  0.00000000000E+00 0. -1.
         11    1    1    2    0    0 -0.21244319584E+02  0.16352142364E+02 -0.64749553896E+02  0.70080085646E+02  0.00000000000E+00 0.  1.
</event>
<event>
 7    1  0.4394360E-006  0.2577174E+03  0.7561462E-02  0.1108522E+00
          1   -1    0    0  501    0  0.00000000000E+00  0.00000000000E+00  0.76817057291E+03  0.76817057291E+03  0.00000000000E+00 0. -1.
         -1   -1    0    0    0  501 -0.00000000000E+00 -0.00000000000E+00 -0.12668603053E+03  0.12668603053E+03  0.00000000000E+00 0.  1.
         23    2    1    2    0    0 -0.17308989872E+03  0.15678905683E+03  0.74959216894E+02  0.27533521457E+03  0.12509066634E+03 0.  0.
          5    1    3    3  502    0 -0.22091985215E+02 -0.21510046821E+02  0.11665061170E+02  0.33230768530E+02  0.41800000000E+01 0. -1.
         -5    1    3    3    0  502 -0.15099791350E+03  0.17829910365E+03  0.63294155724E+02  0.24210444604E+03  0.41800000000E+01 0. -1.
        -11    1    1    2    0    0  0.14404741778E+03 -0.72060352755E+02  0.35669320055E+03  0.39137244707E+03  0.00000000000E+00 0.  1.
         11    1    1    2    0    0  0.29042480938E+02 -0.84728704073E+02  0.20983212493E+03  0.22814894180E+03  0.00000000000E+00 0. -1.
</event>
<event>
 7    1  0.4394360E-006  0.1438134E+03  0.7561462E-02  0.1208288E+00
         -1   -1    0    0    0  501 -0.00000000000E+00  0.00000000000E+00  0.42927065193E+02  0.42927065193E+02  0.00000000000E+00 0.  1.
          1   -1    0    0  501    0  0.00000000000E+00 -0.00000000000E+00 -0.58823801970E+03  0.58823801970E+03  0.00000000000E+00 0. -1.
         23    2    1    2    0    0  0.79688599820E+02 -0.69611035505E+02 -0.20463397899E+03  0.26214225239E+03  0.12509007127E+03 0.  0.
          5    1    3    3  502    0 -0.14533618472E+02  0.17061479361E+02 -0.26304866941E+01  0.22950207060E+02  0.41800000000E+01 0.  1.
         -5    1    3    3    0  502  0.94222218292E+02 -0.86672514865E+02 -0.20200349229E+03  0.23919204533E+03  0.41800000000E+01 0.  1.
        -11    1    1    2    0    0 -0.87165289733E+02  0.23850923120E+02 -0.26789045079E+03  0.28272238662E+03  0.00000000000E+00 0. -1.
         11    1    1    2    0    0  0.74766899131E+01  0.45760112384E+02 -0.72786524728E+02  0.86300445882E+02  0.00000000000E+00 0.  1.
</event>
<event>
 7    1  0.4394360E-006  0.1041229E+03  0.7561462E-02  0.1271857E+00
          1   -1    0    0  501    0  0.00000000000E+00  0.00000000000E+00  0.37161339489E+03  0.37161339489E+03  0.00000000000E+00 0. -1.
         -1   -1    0    0    0  501 -0.00000000000E+00 -0.00000000000E+00 -0.61116136130E+02  0.61116136130E+02  0.00000000000E+00 0.  1.
         23    2    1    2    0    0  0.34013692128E+02  0.15060031462E+02  0.16971463864E+02  0.12367373586E+03  0.11671943521E+03 0.  0.
          5    1    3    3  502    0 -0.42190640429E+02 -0.65704533687E+01  0.99255496762E+01  0.44036461411E+02  0.41800000000E+01 0. -1.
         -5    1    3    3    0  502  0.76204332557E+02  0.21630484831E+02  0.70459141880E+01  0.79637274446E+02  0.41800000000E+01 0.  1.
        -11    1    1    2    0    0 -0.13000696635E+02  0.31966971007E+02  0.19343438644E+03  0.19648859306E+03  0.00000000000E+00 0. -1.
         11    1    1    2    0    0 -0.21012995493E+02 -0.47027002470E+02  0.10009140846E+03  0.11256720210E+03  0.00000000000E+00 0.  1.
</event>
<event>
 7    1  0.4394360E-006  0.1101598E+03  0.7561462E-02  0.1260274E+00
          1   -1    0    0  501    0  0.00000000000E+00  0.00000000000E+00  0.41148968459E+03  0.41148968459E+03  0.00000000000E+00 0. -1.
         -1   -1    0    0    0  501 -0.00000000000E+00 -0.00000000000E+00 -0.31320380192E+02  0.31320380192E+02  0.00000000000E+00 0.  1.
         23    2    1    2    0    0 -0.19078121208E+02 -0.23686636592E+02  0.19804691365E+03  0.23621854326E+03  0.12510630963E+03 0.  0.
          5    1    3    3  502    0 -0.29973100279E+02 -0.70680038692E+02  0.93870858853E+02  0.12133946247E+03  0.41800000000E+01 0. -1.
         -5    1    3    3    0  502  0.10894979070E+02  0.46993402100E+02  0.10417605480E+03  0.11487908079E+03  0.41800000000E+01 0. -1.
        -11    1    1    2    0    0 -0.30916573891E+02  0.31813706139E+02  0.62084489463E+02  0.76304850903E+02  0.00000000000E+00 0.  1.
         11    1    1    2    0    0  0.49994695099E+02 -0.81270695470E+01  0.12003790129E+03  0.13028667063E+03  0.00000000000E+00 0. -1.
</event>
<event>
 6    1  0.4394360E-006  0.1382255E+03  0.7561462E-02  0.1215737E+00
         -2   -1    0    0    0  501 -0.00000000000E+00  0.00000000000E+00  0.72497643568E+02  0.72497643568E+02  0.00000000000E+00 0.  1.
          2   -1    0    0  501    0  0.00000000000E+00 -0.00000000000E+00 -0.69298992672E+03  0.69298992672E+03  0.00000000000E+00 0. -1.
          5    1    1    2  502    0  0.14506980986E+02 -0.67180029235E+02 -0.28774120260E+03  0.29586497072E+03  0.41800000000E+01 0. -1.
         -5    1    1    2    0  502 -0.69644617852E+02 -0.19593702827E+02  0.33048281421E+02  0.79648900125E+02  0.41800000000E+01 0.  1.
        -11    1    1    2    0    0  0.79270390423E+02  0.63071434788E+02 -0.27835104189E+03  0.29621124760E+03  0.00000000000E+00 0.  1.
         11    1    1    2    0    0 -0.24132753557E+02  0.23702297274E+02 -0.87448320076E+02  0.93762451837E+02  0.00000000000E+00 0. -1.
</event>
<event>
 7    1  0.4394360E-006  0.8861949E+02  0.7561462E-02  0.1306230E+00
         -2   -1    0    0    0  501 -0.00000000000E+00  0.00000000000E+00  0.62984304154E+02  0.62984304154E+02  0.00000000000E+00 0.  1.
          2   -1    0    0  501    0  0.00000000000E+00 -0.00000000000E+00 -0.22998413154E+03  0.22998413154E+03  0.00000000000E+00 0. -1.
         23    2    1    2    0    0  0.51612684693E+02 -0.10079414182E+01 -0.10261893025E+03  0.16982571234E+03  0.12508094402E+03 0.  0.
          5    1    3    3  502    0  0.13666624390E+02  0.47585212794E+02  0.40878771480E+00  0.49686704522E+02  0.41800000000E+01 0. -1.
         -5    1    3    3    0  502  0.37946060303E+02 -0.48593154212E+02 -0.10302771797E+03  0.12013900781E+03  0.41800000000E+01 0. -1.
        -11    1    1    2    0    0 -0.23619173784E+02 -0.19846886570E+02  0.16546289223E+02  0.35007770049E+02  0.00000000000E+00 0.  1.
         11    1    1    2    0    0 -0.27993510909E+02  0.20854827988E+02 -0.80927186361E+02  0.88134953315E+02  0.00000000000E+00 0. -1.
</event>
<event>
 7    1  0.4394360E-006  0.1091095E+03  0.7561462E-02  0.1262228E+00
          2   -1    0    0  501    0  0.00000000000E+00  0.00000000000E+00  0.14795364384E+03  0.14795364384E+03  0.00000000000E+00 0. -1.
         -2   -1    0    0    0  501 -0.00000000000E+00 -0.00000000000E+00 -0.85013573350E+02  0.85013573350E+02  0.00000000000E+00 0.  1.
         23    2    1    2    0    0 -0.72151867731E+01 -0.28379883896E+02  0.17165713305E+02  0.12961145425E+03  0.12508793159E+03 0.  0.
          5    1    3    3  502    0  0.44992845225E+02 -0.53671861341E+02  0.12469886282E+02  0.71260053924E+02  0.41800000000E+01 0. -1.
         -5    1    3    3    0  502 -0.52208031998E+02  0.25291977446E+02  0.46958270234E+01  0.58351400323E+02  0.41800000000E+01 0. -1.
        -11    1    1    2    0    0 -0.23722945593E+02  0.47803502009E+02  0.39254262941E+02  0.66248397044E+02  0.00000000000E+00 0. -1.
         11    1    1    2    0    0  0.30938132366E+02 -0.19423618114E+02  0.65200942437E+01  0.37107365898E+02  0.00000000000E+00 0.  1.
</event>
<event>
 7    1  0.4394360E-006  0.1376159E+03  0.7561462E-02  0.1216573E+00
          2   -1    0    0  501    0  0.00000000000E+00  0.00000000000E+00  0.76611076898E+03  0.76611076898E+03  0.00000000000E+00 0. -1.
         -2   -1    0    0    0  501 -0.00000000000E+00 -0.00000000000E+00 -0.26569919330E+02  0.26569919330E+02  0.00000000000E+00 0.  1.
         23    2    1    2    0    0 -0.38251730273E+02 -0.79748208614E+02  0.36034779771E+03  0.39155918182E+03  0.12508031782E+03 0.  0.
          5    1    3    3  502    0 -0.26998550529E+02  0.30554649340E+02  0.76342501507E+02  0.86649629331E+02  0.41800000000E+01 0.  1.
         -5    1    3    3    0  502 -0.11253179744E+02 -0.11030285795E+03  0.28400529620E+03  0.30490955249E+03  0.41800000000E+01 0.  1.
        -11    1    1    2    0    0 -0.25820110080E+02  0.40877538572E+02  0.87650462939E+02  0.10010122326E+03  0.00000000000E+00 0. -1.
         11    1    1    2    0    0  0.64071840352E+02  0.38870670041E+02  0.29154258900E+03  0.30102028323E+03  0.00000000000E+00 0.  1.
</event>
<event>
 7    1  0.4394360E-006  0.7733220E+02  0.7561462E-02  0.1336797E+00
         -1   -1    0    0    0  501 -0.00000000000E+00  0.00000000000E+00  0.82913507559E+02  0.82913507559E+02  0.00000000000E+00 0.  1.
          1   -1    0    0  501    0  0.00000000000E+00 -0.00000000000E+00 -0.20498469720E+03  0.20498469720E+03  0.00000000000E+00 0. -1.
         23    2    1    2    0    0 -0.23817168826E+02  0.65189363360E+02 -0.89779348644E+02  0.16889340372E+03  0.12509092593E+03 0.  0.
          5    1    3    3  502    0  0.67714321971E+01  0.46940369071E+01 -0.99811979844E+02  0.10023866518E+03  0.41800000000E+01 0.  1.
         -5    1    3    3    0  502 -0.30588601023E+02  0.60495326453E+02  0.10032631199E+02  0.68654738540E+02  0.41800000000E+01 0.  1.
        -11    1    1    2    0    0 -0.87678449031E+01 -0.90760632088E+01  0.27822212954E+02  0.30550377432E+02  0.00000000000E+00 0.  1.
         11    1    1    2    0    0  0.32585013729E+02 -0.56113300151E+02 -0.60114053951E+02  0.88454423609E+02  0.00000000000E+00 0. -1.
</event>
<event>
 7    1  0.4394360E-006  0.1263299E+03  0.7561462E-02  0.1233005E+00
         -1   -1    0    0    0  501 -0.00000000000E+00  0.00000000000E+00  0.46461367607E+03  0.46461367607E+03  0.00000000000E+00 0.  1.
          1   -1    0    0  501    0  0.00000000000E+00 -0.00000000000E+00 -0.49526964978E+02  0.49526964978E+02  0.00000000000E+00 0. -1.
         23    2    1    2    0    0 -0.10517706523E+02 -0.73521350418E+02  0.35277049793E+03  0.38160443735E+03  0.12513557160E+03 0.  0.
          5    1    3    3  502    0  0.71430981230E+01  0.34587248772E+02  0.97893499126E+02  0.10415330623E+03  0.41800000000E+01 0. -1.
         -5    1    3    3    0  502 -0.17660804646E+02 -0.10810859919E+03  0.25487699880E+03  0.27745113112E+03  0.41800000000E+01 0. -1.
        -11    1    1    2    0    0  0.41581461539E+02  0.61345619881E+02  0.65648874321E+02  0.99005442890E+02  0.00000000000E+00 0.  1.
         11    1    1    2    0    0 -0.31063755016E+02  0.12175730537E+02 -0.33326611592E+01  0.33530760805E+02  0.00000000000E+00 0. -1.
</event>
<event>
 7    1  0.4394360E-006  0.1552754E+03  0.7561462E-02  0.1194136E+00
         -2   -1    0    0    0  501 -0.00000000000E+00  0.00000000000E+00  0.46350157588E+02  0.46350157588E+02  0.00000000000E+00 0.  1.
          2   -1    0    0  501    0  0.00000000000E+00 -0.00000000000E+00 -0.65964819434E+03  0.65964819434E+03  0.00000000000E+00 0. -1.
         23    2    1    2    0    0 -0.79532885524E+02  0.10458340286E+03 -0.40386504691E+03  0.44274060426E+03  0.12509635691E+03 0.  0.
          5    1    3    3  502    0  0.15903615260E+02  0.77976453088E+02 -0.14370746628E+03  0.16432455836E+03  0.41800000000E+01 0. -1.
         -5    1    3    3    0  502 -0.95436500784E+02  0.26606949770E+02 -0.26015758063E+03  0.27841604590E+03  0.41800000000E+01 0. -1.
        -11    1    1    2    0    0  0.34813750536E+02 -0.38537393645E+02 -0.16275889561E+03  0.17084374743E+03  0.00000000000E+00 0. -1.
         11    1    1    2    0    0  0.44719134988E+02 -0.66046009213E+02 -0.46674094225E+02  0.92414000232E+02  0.00000000000E+00 0.  1.
</event>
<event>
 7    1  0.4394360E-006  0.1043873E+03  0.7561462E-02  0.1271332E+00
          1   -1    0    0  501    0  0.00000000000E+00  0.00000000000E+00  0.39754643278E+03  0.39754643278E+03  0.00000000000E+00 0. -1.
         -1   -1    0    0    0  501 -0.00000000000E+00 -0.00000000000E+00 -0.47170095319E+02  0.47170095319E+02  0.00000000000E+00 0.  1.
         23    2    1    2    0    0  0.26942751634E+02 -0.50568210441E+02  0.11917688429E+03  0.18202190307E+03  0.12508312306E+03 0.  0.
          5    1    3    3  502    0  0.58413112322E+02 -0.39156984880E+02  0.14341589091E+02  0.71892383002E+02  0.41800000000E+01 0.  1.
         -5    1    3    3    0  502 -0.31470360689E+02 -0.11411225561E+02  0.10483529520E+03  0.11012952007E+03  0.41800000000E+01 0.  1.
        -11    1    1    2    0    0 -0.21694771288E+02 -0.22546463490E+02  0.15031113333E+03  0.15353319810E+03  0.00000000000E+00 0. -1.
         11    1    1    2    0    0 -0.52479803455E+01  0.73114673930E+02  0.80888319840E+02  0.10916142692E+03  0.00000000000E+00 0.  1.
</event>
<event>
 7    1  0.4394360E-006  0.6807199E+02  0.7561462E-02  0.1366775E+00
          2   -1    0    0  501    0  0.00000000000E+00  0.00000000000E+00  0.22465442148E+02  0.22465442148E+02  0.00000000000E+00 0. -1.
         -2   -1    0    0    0  501 -0.00000000000E+00 -0.00000000000E+00 -0.56420020530E+03  0.56420020530E+03  0.00000000000E+00 0.  1.
         23    2    1    2    0    0  0.98210437459E+01 -0.20282545785E+02 -0.36088728408E+03  0.38261541586E+03  0.12508832911E+03 0.  0.
          5    1    3    3  502    0 -0.21056709206E+02  0.44529842806E+00 -0.17608300352E+01  0.21544284989E+02  0.41800000000E+01 0. -1.
         -5    1    3    3    0  502  0.30877752952E+02 -0.20727844213E+02 -0.35912645405E+03  0.36107113087E+03  0.41800000000E+01 0. -1.
        -11    1    1    2    0    0  0.31337857348E+02  0.17739513676E+02 -0.14501672334E+03  0.14942088775E+03  0.00000000000E+00 0.  1.
         11    1    1    2    0    0 -0.41158901094E+02  0.25430321091E+01 -0.35830755731E+02  0.54629343835E+02  0.00000000000E+00 0. -1.
</event>
<event>
 7    1  0.4394360E-006  0.1172438E+03  0.7561462E-02  0.1247714E+00
         -2   -1    0    0    0  501 -0.00000000000E+00  0.00000000000E+00  0.20090475441E+02  0.20090475441E+02  0.00000000000E+00 0.  1.
          2   -1    0    0  501    0  0.00000000000E+00 -0.00000000000E+00 -0.79777748178E+03  0.79777748178E+03  0.00000000000E+00 0. -1.
         23    2    1    2    0    0  0.12057167785E+02 -0.45000042248E+02 -0.28380413158E+03  0.31362874936E+03  0.12509127958E+03 0.  0.
          5    1    3    3  502    0  0.35628535742E+02 -0.81605686215E+02 -0.17593749697E+03  0.19723173127E+03  0.41800000000E+01 0.  1.
         -5    1    3    3    0  502 -0.23571367957E+02  0.36605643968E+02 -0.10786663461E+03  0.11639701809E+03  0.41800000000E+01 0.  1.
        -11    1    1    2    0    0  0.32787519106E+02  0.46311370511E+02 -0.26691729937E+03  0.27288204256E+03  0.00000000000E+00 0. -1.
         11    1    1    2    0    0 -0.44844686891E+02 -0.13113282635E+01 -0.22696557539E+03  0.23135716530E+03  0.00000000000E+00 0.  1.
</event>
<event>
 7    1  0.4394360E-006  0.9104782E+02  0.7561462E-02  0.1300334E+00
          2   -1    0    0  501    0  0.00000000000E+00  0.00000000000E+00  0.23596019894E+03  0.23596019894E+03  0.00000000000E+00 0. -1.
         -2   -1    0    0    0  501 -0.00000000000E+00 -0.00000000000E+00 -0.72044367888E+02  0.72044367888E+02  0.00000000000E+00 0.  1.
         23    2    1    2    0    0  0.39983547686E+02 -0.25969465943E+02  0.26015232895E+02  0.13637077118E+03  0.12508835934E+03 0.  0.
          5    1    3    3  502    0 -0.18525439468E+02 -0.99361877625E+01  0.62076418986E+02  0.65672474667E+02  0.41800000000E+01 0.  1.
         -5    1    3    3    0  502  0.58508987154E+02 -0.16033278180E+02 -0.36061186091E+02  0.70698296509E+02  0.41800000000E+01 0.  1.
        -11    1    1    2    0    0 -0.27082244847E+01 -0.31356444707E+02  0.61613449069E+02  0.69186546458E+02  0.00000000000E+00 0. -1.
         11    1    1    2    0    0 -0.37275323202E+02  0.57325910650E+02  0.76287149091E+02  0.10244724920E+03  0.00000000000E+00 0.  1.
</event>
<event>
 7    1  0.4394360E-006  0.5880899E+02  0.7561462E-02  0.1402899E+00
         -1   -1    0    0    0  501 -0.00000000000E+00  0.00000000000E+00  0.63245238804E+02  0.63245238804E+02  0.00000000000E+00 0.  1.
          1   -1    0    0  501    0  0.00000000000E+00 -0.00000000000E+00 -0.21433493470E+03  0.21433493470E+03  0.00000000000E+00 0. -1.
         23    2    1    2    0    0  0.14759861864E+02  0.11638767048E+02 -0.41162657398E+02  0.13302322447E+03  0.12508996548E+03 0.  0.
          5    1    3    3  502    0 -0.63402903868E+01  0.10277739525E+01  0.43940999483E+02  0.44604253576E+02  0.41800000000E+01 0.  1.
         -5    1    3    3    0  502  0.21100152250E+02  0.10610993096E+02 -0.85103656881E+02  0.88418970894E+02  0.41800000000E+01 0.  1.
        -11    1    1    2    0    0  0.40312618260E+01 -0.46335781555E+02 -0.87696387064E+02  0.99266872764E+02  0.00000000000E+00 0. -1.
         11    1    1    2    0    0 -0.18791123690E+02  0.34697014507E+02 -0.22230651428E+02  0.45290076266E+02  0.00000000000E+00 0.  1.
</event>
<event>
 7    1  0.4394360E-006  0.1129393E+03  0.7561462E-02  0.1255222E+00
         -2   -1    0    0    0  501 -0.00000000000E+00  0.00000000000E+00  0.95007146879E+02  0.95007146879E+02  0.00000000000E+00 0.  1.
          2   -1    0    0  501    0  0.00000000000E+00 -0.00000000000E+00 -0.23010898978E+03  0.23010898978E+03  0.00000000000E+00 0. -1.
         23    2    1    2    0    0  0.49599235480E+02 -0.44894857935E+02  0.90821050368E+01  0.14214668258E+03  0.12509021667E+03 0.  0.
          5    1    3    3  502    0 -0.37365297597E+02 -0.30533840822E+02 -0.14952726146E+02  0.50690603854E+02  0.41800000000E+01 0.  1.
         -5    1    3    3    0  502  0.86964533077E+02 -0.14361017113E+02  0.24034831183E+02  0.91456078725E+02  0.41800000000E+01 0.  1.
        -11    1    1    2    0    0 -0.90423943999E+01 -0.14615076413E+02  0.44976864073E+01  0.17764980666E+02  0.00000000000E+00 0.  1.
         11    1    1    2    0    0 -0.40556841080E+02  0.59509934348E+02 -0.14868163434E+03  0.16520447341E+03  0.00000000000E+00 0. -1.
</event>
<event>
 7    1  0.4394360E-006  0.9344119E+02  0.7561462E-02  0.1294726E+00
         -2   -1    0    0    0  501 -0.00000000000E+00  0.00000000000E+00  0.34303414094E+02  0.34303414094E+02  0.00000000000E+00 0. -1.
          2   -1    0    0  501    0  0.00000000000E+00 -0.00000000000E+00 -0.42692266820E+03  0.42692266820E+03  0.00000000000E+00 0.  1.
         23    2    1    2    0    0 -0.88493963012E+01  0.21908973748E+02 -0.12849030010E+03  0.18087486340E+03  0.12509054339E+03 0.  0.
          5    1    3    3  502    0 -0.20989959353E+02  0.60888565278E+02 -0.24421713389E+02  0.69006436368E+02  0.41800000000E+01 0.  1.
         -5    1    3    3    0  502  0.12140563052E+02 -0.38979591530E+02 -0.10406858671E+03  0.11186842704E+03  0.41800000000E+01 0.  1.
        -11    1    1    2    0    0  0.37089011466E+02 -0.34249397276E+02 -0.22473117170E+03  0.23033175100E+03  0.00000000000E+00 0.  1.
         11    1    1    2    0    0 -0.28239615165E+02  0.12340423528E+02 -0.39397782302E+02  0.50019467888E+02  0.00000000000E+00 0. -1.
</event>
<event>
 7    1  0.8768722E-006  0.9804325E+02  0.7561462E-02  0.1284465E+00
          1   -1    0    0  501    0  0.00000000000E+00  0.00000000000E+00  0.97081687670E+02  0.97081687670E+02  0.00000000000E+00 0. -1.
         -1   -1    0    0    0  501 -0.00000000000E+00 -0.00000000000E+00 -0.17416412061E+03  0.17416412061E+03  0.00000000000E+00 0.  1.
         23    2    1    2    0    0 -0.91961228642E+01  0.65102238028E+02 -0.70594218351E+02  0.15796793417E+03  0.12508978571E+03 0.  0.
          5    1    3    3  502    0  0.11326097816E+02 -0.14359184564E+02 -0.73385480321E+02  0.75745414350E+02  0.41800000000E+01 0.  1.
         -5    1    3    3    0  502 -0.20522220680E+02  0.79461422592E+02  0.27912619701E+01  0.82222519819E+02  0.41800000000E+01 0.  1.
        -11    1    1    2    0    0  0.30586829464E+02 -0.67025064717E+02  0.22652191259E+02  0.77078111068E+02  0.00000000000E+00 0. -1.
         11    1    1    2    0    0 -0.21390706600E+02  0.19228266891E+01 -0.29140405849E+02  0.36199763043E+02  0.00000000000E+00 0.  1.
</event>
<event>
 7    1  0.4394360E-006  0.9808036E+02  0.7561462E-02  0.1284385E+00
          2   -1    0    0  501    0  0.00000000000E+00  0.00000000000E+00  0.30426899894E+03  0.30426899894E+03  0.00000000000E+00 0. -1.
         -2   -1    0    0    0  501 -0.00000000000E+00 -0.00000000000E+00 -0.50884050122E+02  0.50884050122E+02  0.00000000000E+00 0.  1.
         23    2    1    2    0    0  0.45540939822E+02  0.41437763007E+02  0.12164299867E+03  0.18503028517E+03  0.12509245342E+03 0.  0.
          5    1    3    3  502    0 -0.26822062716E+02 -0.23542261858E+02  0.10823835135E+02  0.37527176136E+02  0.41800000000E+01 0. -1.
         -5    1    3    3    0  502  0.72363002538E+02  0.64980024865E+02  0.11081916353E+03  0.14750310903E+03  0.41800000000E+01 0. -1.
        -11    1    1    2    0    0 -0.35459128973E+02 -0.38586721076E+02  0.14444436871E+03  0.15365695729E+03  0.00000000000E+00 0. -1.
         11    1    1    2    0    0 -0.10081810849E+02 -0.28510419313E+01 -0.12702418557E+02  0.16465806609E+02  0.00000000000E+00 0.  1.
</event>
<event>
 7    1  0.4394360E-006  0.1464919E+03  0.7561462E-02  0.1204851E+00
         -2   -1    0    0    0  501 -0.00000000000E+00  0.00000000000E+00  0.10932527323E+03  0.10932527323E+03  0.00000000000E+00 0.  1.
          2   -1    0    0  501    0  0.00000000000E+00 -0.00000000000E+00 -0.26781289455E+03  0.26781289455E+03  0.00000000000E+00 0. -1.
         23    2    1    2    0    0 -0.11777973489E+03  0.56074549643E+02 -0.11065248054E+03  0.21191048007E+03  0.12508260889E+03 0.  0.
          5    1    3    3  502    0 -0.69924071004E+02 -0.90180174282E+01 -0.11034323726E+03  0.13101069710E+03  0.41800000000E+01 0. -1.
         -5    1    3    3    0  502 -0.47855663883E+02  0.65092567071E+02 -0.30924327758E+00  0.80899782973E+02  0.41800000000E+01 0. -1.
        -11    1    1    2    0    0  0.94484266805E+02 -0.17052130852E+02  0.42472509327E+01  0.96104583557E+02  0.00000000000E+00 0.  1.
         11    1    1    2    0    0  0.23295468082E+02 -0.39022418792E+02 -0.52082391707E+02  0.69123104151E+02  0.00000000000E+00 0. -1.
</event>
<event>
 6    1  0.4394360E-006  0.1537567E+03  0.7561462E-02  0.1195931E+00
          1   -1    0    0  501    0  0.00000000000E+00  0.00000000000E+00  0.36786207405E+03  0.36786207405E+03  0.00000000000E+00 0. -1.
         -1   -1    0    0    0  501 -0.00000000000E+00 -0.00000000000E+00 -0.94843631227E+02  0.94843631227E+02  0.00000000000E+00 0.  1.
          5    1    1    2  502    0 -0.60949213571E+02 -0.32316124429E+02  0.29765980394E+02  0.75250412104E+02  0.41800000000E+01 0. -1.
         -5    1    1    2    0  502  0.10537422085E+03 -0.45764098227E+02  0.20726709545E+01  0.11497759552E+03  0.41800000000E+01 0.  1.
        -11    1    1    2    0    0 -0.28630666965E+02 -0.12683102206E+02  0.36976944828E+02  0.48454830732E+02  0.00000000000E+00 0.  1.
         11    1    1    2    0    0 -0.15794340314E+02  0.90763324862E+02  0.20420284664E+03  0.22402286692E+03  0.00000000000E+00 0. -1.
</event>
<event>
 7    1  0.4394360E-006  0.1003707E+03  0.7561462E-02  0.1279518E+00
          2   -1    0    0  501    0  0.00000000000E+00  0.00000000000E+00  0.28678551623E+03  0.28678551623E+03  0.00000000000E+00 0. -1.
         -2   -1    0    0    0  501 -0.00000000000E+00 -0.00000000000E+00 -0.54352565638E+02  0.54352565638E+02  0.00000000000E+00 0.  1.
         23    2    1    2    0    0 -0.45932516689E+02  0.20226707255E+02  0.81864516148E+02  0.15769719279E+03  0.12509072641E+03 0.  0.
          5    1    3    3  502    0 -0.29544164917E+02  0.66949216754E+02  0.79234600917E+02  0.10793817530E+03  0.41800000000E+01 0.  1.
         -5    1    3    3    0  502 -0.16388351772E+02 -0.46722509500E+02  0.26299152318E+01  0.49759017493E+02  0.41800000000E+01 0.  1.
        -11    1    1    2    0    0  0.41118873397E+02  0.13812208247E+02  0.14133980623E+03  0.14784613513E+03  0.00000000000E+00 0.  1.
         11    1    1    2    0    0  0.48136432921E+01 -0.34038915501E+02  0.92286282165E+01  0.35594753953E+02  0.00000000000E+00 0. -1.
</event>
<event>
 7    1  0.4394360E-006  0.1138371E+03  0.7561462E-02  0.1253625E+00
          1   -1    0    0  501    0  0.00000000000E+00  0.00000000000E+00  0.46445754517E+03  0.46445754517E+03  0.00000000000E+00 0. -1.
         -1   -1    0    0    0  501 -0.00000000000E+00 -0.00000000000E+00 -0.30154932087E+02  0.30154932087E+02  0.00000000000E+00 0.  1.
         23    2    1    2    0    0  0.83201185188E+01  0.37655917069E+02  0.19145188245E+03  0.23164454656E+03  0.12457198801E+03 0.  0.
          5    1    3    3  502    0 -0.93548974239E+01  0.81120992238E+02  0.10380437246E+03  0.13213988659E+03  0.41800000000E+01 0. -1.
         -5    1    3    3    0  502  0.17675015943E+02 -0.43465075170E+02  0.87647509990E+02  0.99504659969E+02  0.41800000000E+01 0. -1.
        -11    1    1    2    0    0 -0.13998212975E+02  0.28843052273E+02  0.55634662839E+02  0.64211271130E+02  0.00000000000E+00 0.  1.
         11    1    1    2    0    0  0.56780944566E+01 -0.66498969342E+02  0.18721606780E+03  0.19875665957E+03  0.00000000000E+00 0. -1.
</event>
<event>
 7    1  0.4394360E-006  0.1482542E+03  0.7561462E-02  0.1202635E+00
         -2   -1    0    0    0  501 -0.00000000000E+00  0.00000000000E+00  0.23890221028E+03  0.23890221028E+03  0.00000000000E+00 0.  1.
          2   -1    0    0  501    0  0.00000000000E+00 -0.00000000000E+00 -0.15301606470E+03  0.15301606470E+03  0.00000000000E+00 0. -1.
         23    2    1    2    0    0 -0.20259867958E+02 -0.11509904697E+03  0.15560269089E+03  0.23133816209E+03  0.12508754920E+03 0.  0.
          5    1    3    3  502    0 -0.72778444474E+02 -0.57243987002E+02  0.90589570317E+02  0.12960524171E+03  0.41800000000E+01 0.  1.
         -5    1    3    3    0  502  0.52518576516E+02 -0.57855059969E+02  0.65013120574E+02  0.10173292038E+03  0.41800000000E+01 0.  1.
        -11    1    1    2    0    0  0.33146188593E+02  0.10177036891E+03 -0.84900634193E+02  0.13661623437E+03  0.00000000000E+00 0.  1.
         11    1    1    2    0    0 -0.12886320635E+02  0.13328678058E+02  0.15184088885E+02  0.23963878516E+02  0.00000000000E+00 0. -1.
</event>
<event>
 7    1  0.4394360E-006  0.1064205E+03  0.7561462E-02  0.1267346E+00
          2   -1    0    0  501    0  0.00000000000E+00  0.00000000000E+00  0.48953479428E+02  0.48953479428E+02  0.00000000000E+00 0. -1.
         -2   -1    0    0    0  501 -0.00000000000E+00 -0.00000000000E+00 -0.45545273023E+03  0.45545273023E+03  0.00000000000E+00 0.  1.
         23    2    1    2    0    0 -0.21982827569E+02  0.21274269878E+02 -0.39010848868E+03  0.41081488376E+03  0.12509355106E+03 0.  0.
          5    1    3    3  502    0  0.52327008313E+02  0.11180500344E+02 -0.16251459406E+03  0.17114784565E+03  0.41800000000E+01 0.  1.
         -5    1    3    3    0  502 -0.74309835882E+02  0.10093769535E+02 -0.22759389462E+03  0.23966703811E+03  0.41800000000E+01 0.  1.
        -11    1    1    2    0    0 -0.16935152158E+02  0.20750379901E+02 -0.23808161332E+02  0.35835822729E+02  0.00000000000E+00 0.  1.
         11    1    1    2    0    0  0.38917979727E+02 -0.42024649779E+02  0.74173992066E+01  0.57755503167E+02  0.00000000000E+00 0. -1.
</event>
<event>
 7    1  0.4394360E-006  0.1215622E+03  0.7561462E-02  0.1240542E+00
          2   -1    0    0  501    0  0.00000000000E+00  0.00000000000E+00  0.49828388714E+03  0.49828388714E+03  0.00000000000E+00 0. -1.
         -2   -1    0    0    0  501 -0.00000000000E+00 -0.00000000000E+00 -0.39674903632E+02  0.39674903632E+02  0.00000000000E+00 0.  1.
         23    2    1    2    0    0  0.75515239557E+02 -0.39361674766E+02  0.19840057804E+03  0.24952444775E+03  0.12509103809E+03 0.  0.
          5    1    3    3  502    0  0.13541440156E+02  0.37611702066E+02  0.10909315521E+03  0.11626177208E+03  0.41800000000E+01 0. -1.
         -5    1    3    3    0  502  0.61973799401E+02 -0.76973376832E+02  0.89307422828E+02  0.13326267566E+03  0.41800000000E+01 0. -1.
        -11    1    1    2    0    0 -0.47431559723E+02 -0.88277896607E+01  0.44510960252E+02  0.65642275331E+02  0.00000000000E+00 0.  1.
         11    1    1    2    0    0 -0.28083679834E+02  0.48189464427E+02  0.21569744522E+03  0.22279206770E+03  0.00000000000E+00 0. -1.
</event>
<event>
 7    1  0.4394360E-006  0.3126587E+03  0.7561462E-02  0.1079078E+00
          1   -1    0    0  501    0  0.00000000000E+00  0.00000000000E+00  0.11501440704E+04  0.11501440704E+04  0.00000000000E+00 0. -1.
         -1   -1    0    0    0  501 -0.00000000000E+00 -0.00000000000E+00 -0.96311439957E+02  0.96311439957E+02  0.00000000000E+00 0.  1.
         23    2    1    2    0    0 -0.30131965254E+03 -0.21186715857E+02  0.37663276373E+03  0.49874038032E+03  0.12508924140E+03 0.  0.
          5    1    3    3  502    0 -0.24090935946E+03 -0.43081154070E+02  0.21890438525E+03  0.32837464517E+03  0.41800000000E+01 0. -1.
         -5    1    3    3    0  502 -0.60410293079E+02  0.21894438213E+02  0.15772837848E+03  0.17036573515E+03  0.41800000000E+01 0. -1.
        -11    1    1    2    0    0  0.11669625799E+03 -0.37268517074E+02  0.28903899051E+03  0.31392753468E+03  0.00000000000E+00 0.  1.
         11    1    1    2    0    0  0.18462339455E+03  0.58455232931E+02  0.38816087622E+03  0.43378759537E+03  0.00000000000E+00 0. -1.
</event>
<event>
 7    1  0.4394360E-006  0.1041208E+03  0.7561462E-02  0.1271862E+00
          4   -1    0    0  501    0  0.00000000000E+00  0.00000000000E+00  0.46003760385E+02  0.46003760385E+02  0.00000000000E+00 0. -1.
         -4   -1    0    0    0  501 -0.00000000000E+00 -0.00000000000E+00 -0.25676519248E+03  0.25676519248E+03  0.00000000000E+00 0.  1.
         23    2    1    2    0    0 -0.14585057233E+02 -0.67811063876E+01 -0.13337634878E+03  0.18355783543E+03  0.12508205801E+03 0.  0.
          5    1    3    3  502    0 -0.35891237595E+02  0.51592036201E+02 -0.56457151981E+02  0.84586059994E+02  0.41800000000E+01 0.  1.
         -5    1    3    3    0  502  0.21306180363E+02 -0.58373142589E+02 -0.76919196801E+02  0.98971775440E+02  0.41800000000E+01 0.  1.
        -11    1    1    2    0    0 -0.28324813573E+02 -0.17866616575E+02 -0.87789617085E+01  0.34620531776E+02  0.00000000000E+00 0. -1.
         11    1    1    2    0    0  0.42909870806E+02  0.24647722962E+02 -0.68606121604E+02  0.84590585654E+02  0.00000000000E+00 0.  1.
</event>
<event>
 7    1  0.4394360E-006  0.1303259E+03  0.7561462E-02  0.1226973E+00
         -1   -1    0    0    0  501 -0.00000000000E+00  0.00000000000E+00  0.15815600181E+03  0.15815600181E+03  0.00000000000E+00 0.  1.
          1   -1    0    0  501    0  0.00000000000E+00 -0.00000000000E+00 -0.15469347787E+03  0.15469347787E+03  0.00000000000E+00 0. -1.
         23    2    1    2    0    0  0.59283722926E+02  0.66726939015E+02  0.69295571631E+02  0.16857277511E+03  0.12509140685E+03 0.  0.
          5    1    3    3  502    0 -0.30561590846E+01  0.79809237362E+02  0.85134591939E+01  0.80428887000E+02  0.41800000000E+01 0.  1.
         -5    1    3    3    0  502  0.62339882011E+02 -0.13082298347E+02  0.60782112437E+02  0.88143888112E+02  0.41800000000E+01 0.  1.
        -11    1    1    2    0    0 -0.77268540103E+02 -0.48471739319E+02 -0.22523336289E+02  0.93953379289E+02  0.00000000000E+00 0.  1.
         11    1    1    2    0    0  0.17984817176E+02 -0.18255199695E+02 -0.43309711407E+02  0.50323325277E+02  0.00000000000E+00 0. -1.
</event>
<event>
 6    1  0.4394360E-006  0.1643555E+03  0.7561462E-02  0.1183865E+00
          3   -1    0    0  501    0  0.00000000000E+00  0.00000000000E+00  0.99152506000E+02  0.99152506000E+02  0.00000000000E+00 0. -1.
         -3   -1    0    0    0  501 -0.00000000000E+00 -0.00000000000E+00 -0.36558002245E+03  0.36558002245E+03  0.00000000000E+00 0.  1.
          5    1    1    2  502    0 -0.11979954615E+03  0.13365146235E+02 -0.40505230490E+02  0.12723483992E+03  0.41800000000E+01 0. -1.
         -5    1    1    2    0  502  0.98088779167E+02  0.58536777535E+02 -0.17527516973E+03  0.20925300582E+03  0.41800000000E+01 0.  1.
        -11    1    1    2    0    0 -0.25439685454E+01 -0.69357202283E+02  0.28379720084E+01  0.69461841104E+02  0.00000000000E+00 0.  1.
         11    1    1    2    0    0  0.24254735530E+02 -0.25447214882E+01 -0.53485088241E+02  0.58782841605E+02  0.00000000000E+00 0. -1.
</event>
<event>
 7    1  0.4394360E-006  0.7411430E+02  0.7561462E-02  0.1346636E+00
         -2   -1    0    0    0  501 -0.00000000000E+00  0.00000000000E+00  0.20231031196E+03  0.20231031196E+03  0.00000000000E+00 0.  1.
          2   -1    0    0  501    0  0.00000000000E+00 -0.00000000000E+00 -0.68792576919E+02  0.68792576919E+02  0.00000000000E+00 0. -1.
         23    2    1    2    0    0  0.35389621368E+02  0.32220770769E+02  0.85853847950E+02  0.15909499743E+03  0.12509888740E+03 0.  0.
          5    1    3    3  502    0  0.25416441483E+02  0.70244657652E+01  0.11559809695E+03  0.11864118609E+03  0.41800000000E+01 0.  1.
         -5    1    3    3    0  502  0.99731798845E+01  0.25196305003E+02 -0.29744249004E+02  0.40453811337E+02  0.41800000000E+01 0.  1.
        -11    1    1    2    0    0 -0.65111480924E+01  0.27240714688E+02 -0.37581820719E+01  0.28259078518E+02  0.00000000000E+00 0. -1.
         11    1    1    2    0    0 -0.28878473275E+02 -0.59461485457E+02  0.51422069166E+02  0.83748812939E+02  0.00000000000E+00 0.  1.
</event>
<event>
 7    1  0.4394360E-006  0.1078310E+03  0.7561462E-02  0.1264640E+00
          2   -1    0    0  501    0  0.00000000000E+00  0.00000000000E+00  0.79219409615E+03  0.79219409615E+03  0.00000000000E+00 0. -1.
         -2   -1    0    0    0  501 -0.00000000000E+00 -0.00000000000E+00 -0.21415923504E+02  0.21415923504E+02  0.00000000000E+00 0.  1.
         23    2    1    2    0    0  0.47413014183E+02  0.54260846528E+02  0.40831049342E+03  0.43304071847E+03  0.12495827878E+03 0.  0.
          5    1    3    3  502    0  0.64789057203E+01 -0.16601494740E+02  0.28127566080E+03  0.28187063629E+03  0.41800000000E+01 0. -1.
         -5    1    3    3    0  502  0.40934108463E+02  0.70862341269E+02  0.12703483262E+03  0.15117008217E+03  0.41800000000E+01 0. -1.
        -11    1    1    2    0    0 -0.58266365784E+02  0.18189211932E+01  0.20173247989E+03  0.20998635979E+03  0.00000000000E+00 0.  1.
         11    1    1    2    0    0  0.10853351601E+02 -0.56079767722E+02  0.16073519934E+03  0.17058294139E+03  0.00000000000E+00 0. -1.
</event>
<event>
 7    1  0.4394360E-006  0.6720442E+02  0.7561462E-02  0.1369866E+00
          1   -1    0    0  501    0  0.00000000000E+00  0.00000000000E+00  0.20271441343E+03  0.20271441343E+03  0.00000000000E+00 0. -1.
         -1   -1    0    0    0  501 -0.00000000000E+00 -0.00000000000E+00 -0.60972033480E+02  0.60972033480E+02  0.00000000000E+00 0.  1.
         23    2    1    2    0    0  0.12636180622E+02 -0.17797832806E+02  0.31206999779E+02  0.11783640418E+03  0.11151280376E+03 0.  0.
          5    1    3    3  502    0 -0.14087642910E+02  0.27842923843E+02 -0.25254189989E+02  0.40360086755E+02  0.41800000000E+01 0. -1.
         -5    1    3    3    0  502  0.26723823533E+02 -0.45640756650E+02  0.56461189768E+02  0.77476317425E+02  0.41800000000E+01 0.  1.
        -11    1    1    2    0    0  0.87372104569E+01  0.25653750927E+02  0.11862733419E+03  0.12168359873E+03  0.00000000000E+00 0. -1.
         11    1    1    2    0    0 -0.21373391079E+02 -0.78559181205E+01 -0.80919540175E+01  0.24166443999E+02  0.00000000000E+00 0.  1.
</event>
<event>
 7    1  0.4394360E-006  0.9821719E+02  0.7561462E-02  0.1284090E+00
          1   -1    0    0  501    0  0.00000000000E+00  0.00000000000E+00  0.40788460061E+03  0.40788460061E+03  0.00000000000E+00 0. -1.
         -1   -1    0    0    0  501 -0.00000000000E+00 -0.00000000000E+00 -0.31738755626E+02  0.31738755626E+02  0.00000000000E+00 0.  1.
         23    2    1    2    0    0 -0.13862654426E+01  0.26111314445E+02  0.16795687707E+03  0.21104775974E+03  0.12509165385E+03 0.  0.
          5    1    3    3  502    0 -0.58460347031E+02 -0.23064849126E+01  0.11057545678E+03  0.12516922980E+03  0.41800000000E+01 0. -1.
         -5    1    3    3    0  502  0.57074081589E+02  0.28417799358E+02  0.57381420294E+02  0.85878529939E+02  0.41800000000E+01 0. -1.
        -11    1    1    2    0    0 -0.24734756145E+02  0.12149815836E+02  0.15755147144E+03  0.15994340355E+03  0.00000000000E+00 0.  1.
         11    1    1    2    0    0  0.26121021587E+02 -0.38261130282E+02  0.50637496466E+02  0.68632192939E+02  0.00000000000E+00 0. -1.
</event>
<event>
 7    1  0.4394360E-006  0.1075191E+03  0.7561462E-02  0.1265234E+00
          4   -1    0    0  501    0  0.00000000000E+00  0.00000000000E+00  0.81047743998E+02  0.81047743998E+02  0.00000000000E+00 0. -1.
         -4   -1    0    0    0  501 -0.00000000000E+00 -0.00000000000E+00 -0.24116467060E+03  0.24116467060E+03  0.00000000000E+00 0.  1.
         23    2    1    2    0    0 -0.44090373355E+02  0.76935756898E+02 -0.84959229350E+02  0.17529498691E+03  0.12508872880E+03 0.  0.
          5    1    3    3  502    0  0.96311588089E+01  0.20434697493E+02  0.29098152077E+02  0.37074397311E+02  0.41800000000E+01 0.  1.
         -5    1    3    3    0  502 -0.53721532164E+02  0.56501059405E+02 -0.11405738143E+03  0.13822058960E+03  0.41800000000E+01 0.  1.
        -11    1    1    2    0    0 -0.19162651576E+02 -0.28396398910E+02  0.40917995052E+01  0.34500804479E+02  0.00000000000E+00 0. -1.
         11    1    1    2    0    0  0.63253024931E+02 -0.48539357988E+02 -0.79249496753E+02  0.11241662320E+03  0.00000000000E+00 0.  1.
</event>
<event>
 7    1  0.4394360E-006  0.1523688E+03  0.7561462E-02  0.1197592E+00
         -2   -1    0    0    0  501 -0.00000000000E+00  0.00000000000E+00  0.16496327243E+03  0.16496327243E+03  0.00000000000E+00 0.  1.
          2   -1    0    0  501    0  0.00000000000E+00 -0.00000000000E+00 -0.16083153507E+03  0.16083153507E+03  0.00000000000E+00 0. -1.
         23    2    1    2    0    0  0.79161267702E+01  0.10985566492E+03  0.52005278603E+02  0.17465092032E+03  0.12516973592E+03 0.  0.
          5    1    3    3  502    0 -0.29162411216E+02  0.11933236374E+03  0.19885470401E+02  0.12451330691E+03  0.41800000000E+01 0.  1.
         -5    1    3    3    0  502  0.37078537987E+02 -0.94766988254E+01  0.32119808202E+02  0.50137613413E+02  0.41800000000E+01 0.  1.
        -11    1    1    2    0    0 -0.46957369379E+01 -0.12639115961E+03 -0.41127110025E+02  0.13299704641E+03  0.00000000000E+00 0.  1.
         11    1    1    2    0    0 -0.32203898323E+01  0.16535494697E+02 -0.67464312207E+01  0.18146840765E+02  0.00000000000E+00 0. -1.
</event>
<event>
 7    1  0.4394360E-006  0.9823110E+02  0.7561462E-02  0.1284060E+00
         -2   -1    0    0    0  501 -0.00000000000E+00  0.00000000000E+00  0.85322220145E+02  0.85322220145E+02  0.00000000000E+00 0. -1.
          2   -1    0    0  501    0  0.00000000000E+00 -0.00000000000E+00 -0.15628844086E+03  0.15628844086E+03  0.00000000000E+00 0.  1.
         23    2    1    2    0    0 -0.16357108699E+02  0.17977887871E+02 -0.73338664435E+01  0.12763733544E+03  0.12508694713E+03 0.  0.
          5    1    3    3  502    0 -0.23922770719E+02 -0.51020371376E+02  0.60338452635E+01  0.56826551389E+02  0.41800000000E+01 0.  1.
         -5    1    3    3    0  502  0.75656620198E+01  0.68998259247E+02 -0.13367711707E+02  0.70810784046E+02  0.41800000000E+01 0.  1.
        -11    1    1    2    0    0  0.39513109012E+02 -0.24336249920E+02 -0.47898304648E+00  0.46408708975E+02  0.00000000000E+00 0. -1.
         11    1    1    2    0    0 -0.23156000313E+02  0.63583620490E+01 -0.63153371230E+02  0.67564616599E+02  0.00000000000E+00 0.  1.
</event>
<event>
 7    1  0.4394360E-006  0.1575709E+03  0.7561462E-02  0.1191467E+00
         -1   -1    0    0    0  501 -0.00000000000E+00  0.00000000000E+00  0.24904071420E+03  0.24904071420E+03  0.00000000000E+00 0.  1.
          1   -1    0    0  501    0  0.00000000000E+00 -0.00000000000E+00 -0.11898354028E+03  0.11898354028E+03  0.00000000000E+00 0. -1.
         23    2    1    2    0    0 -0.12090958254E+03  0.13422188223E+02  0.12508765192E+03  0.21469465481E+03  0.12509033478E+03 0.  0.
          5    1    3    3  502    0  0.15370703633E+02 -0.16533282602E+02  0.52617786270E+02  0.57408290305E+02  0.41800000000E+01 0.  1.
         -5    1    3    3    0  502 -0.13628028617E+03  0.29955470825E+02  0.72469865649E+02  0.15728636450E+03  0.41800000000E+01 0.  1.
        -11    1    1    2    0    0  0.11043607848E+03 -0.45049395037E+02 -0.20196266650E+01  0.11928811473E+03  0.00000000000E+00 0.  1.
         11    1    1    2    0    0  0.10473504060E+02  0.31627206814E+02  0.69891486589E+01  0.34041484943E+02  0.00000000000E+00 0. -1.
</event>
<event>
 6    1  0.4394360E-006  0.2064771E+03  0.7561462E-02  0.1144387E+00
          3   -1    0    0  501    0  0.00000000000E+00  0.00000000000E+00  0.53164865774E+03  0.53164865774E+03  0.00000000000E+00 0. -1.
         -3   -1    0    0    0  501 -0.00000000000E+00 -0.00000000000E+00 -0.13439994484E+03  0.13439994484E+03  0.00000000000E+00 0.  1.
          5    1    1    2  502    0 -0.95414195472E+02  0.39348453056E+02  0.11900579396E+03  0.15758179099E+03  0.41800000000E+01 0. -1.
         -5    1    1    2    0  502  0.18610012224E+03 -0.24155148030E+02 -0.14240137208E+02  0.18824712636E+03  0.41800000000E+01 0.  1.
        -11    1    1    2    0    0  0.13920396652E+02  0.61044425597E+01  0.98872330872E+01  0.18132816660E+02  0.00000000000E+00 0.  1.
         11    1    1    2    0    0 -0.10460632342E+03 -0.21297747586E+02  0.28259582306E+03  0.30208686857E+03  0.00000000000E+00 0. -1.
</event>
<event>
 7    1  0.4394360E-006  0.1286587E+03  0.7561462E-02  0.1229460E+00
          2   -1    0    0  501    0  0.00000000000E+00  0.00000000000E+00  0.10532952415E+04  0.10532952415E+04  0.00000000000E+00 0. -1.
         -2   -1    0    0    0  501 -0.00000000000E+00 -0.00000000000E+00 -0.16207515730E+02  0.16207515730E+02  0.00000000000E+00 0.  1.
         23    2    1    2    0    0 -0.20573163684E+02  0.55642384356E+02  0.48383479660E+03  0.50325265316E+03  0.12509113682E+03 0.  0.
          5    1    3    3  502    0 -0.38528320030E+02  0.90755253168E+02  0.35378942850E+03  0.36729467671E+03  0.41800000000E+01 0. -1.
         -5    1    3    3    0  502  0.17955156346E+02 -0.35112868812E+02  0.13004536809E+03  0.13595797644E+03  0.41800000000E+01 0. -1.
        -11    1    1    2    0    0 -0.30684041487E+02 -0.60146270024E+02  0.35920973658E+03  0.36550064166E+03  0.00000000000E+00 0. -1.
         11    1    1    2    0    0  0.51257205172E+02  0.45038856675E+01  0.19404319264E+03  0.20074946246E+03  0.00000000000E+00 0.  1.
</event>
<event>
 7    1  0.4394360E-006  0.9134537E+02  0.7561462E-02  0.1299626E+00
         -4   -1    0    0    0  501 -0.00000000000E+00  0.00000000000E+00  0.47161997755E+02  0.47161997755E+02  0.00000000000E+00 0.  1.
          4   -1    0    0  501    0  0.00000000000E+00 -0.00000000000E+00 -0.32089854298E+03  0.32089854298E+03  0.00000000000E+00 0. -1.
         23    2    1    2    0    0 -0.56367464230E+02  0.27699856004E+01 -0.20606977556E+03  0.24758106771E+03  0.12508664535E+03 0.  0.
          5    1    3    3  502    0 -0.56246895007E+02 -0.20207475143E+02 -0.24848734875E+02  0.64861292575E+02  0.41800000000E+01 0.  1.
         -5    1    3    3    0  502 -0.12056922316E+00  0.22977460744E+02 -0.18122104068E+03  0.18271977513E+03  0.41800000000E+01 0.  1.
        -11    1    1    2    0    0 -0.76398003176E+01 -0.29193277423E+02 -0.24598212145E+02  0.38931812651E+02  0.00000000000E+00 0. -1.
         11    1    1    2    0    0  0.64007264548E+02  0.26423291822E+02 -0.43068557525E+02  0.81547660376E+02  0.00000000000E+00 0.  1.
</event>
<event>
 7    1  0.4394360E-006  0.1427719E+03  0.7561462E-02  0.1209647E+00
          2   -1    0    0  501    0  0.00000000000E+00  0.00000000000E+00  0.55290270320E+03  0.55290270320E+03  0.00000000000E+00 0. -1.
         -2   -1    0    0    0  501 -0.00000000000E+00 -0.00000000000E+00 -0.53738496403E+02  0.53738496403E+02  0.00000000000E+00 0.  1.
         23    2    1    2    0    0  0.85549868236E+02 -0.68867911864E+02  0.13064176387E+03  0.21160564913E+03  0.12509240999E+03 0.  0.
          5    1    3    3  502    0  0.52732168550E+02  0.24047833978E+02  0.15786228998E+02  0.60213431600E+02  0.41800000000E+01 0.  1.
         -5    1    3    3    0  502  0.32817699686E+02 -0.92915745842E+02  0.11485553487E+03  0.15139221753E+03  0.41800000000E+01 0.  1.
        -11    1    1    2    0    0  0.11574741768E+02  0.53107638296E+01  0.54347519075E+01  0.13846132591E+02  0.00000000000E+00 0.  1.
         11    1    1    2    0    0 -0.97124610004E+02  0.63557148035E+02  0.36308769103E+03  0.38118941789E+03  0.00000000000E+00 0. -1.
</event>
<event>
 7    1  0.4394360E-006  0.1572545E+03  0.7561462E-02  0.1191832E+00
          1   -1    0    0  501    0  0.00000000000E+00  0.00000000000E+00  0.65009682153E+02  0.65009682153E+02  0.00000000000E+00 0. -1.
         -1   -1    0    0    0  501 -0.00000000000E+00 -0.00000000000E+00 -0.49718788154E+03  0.49718788154E+03  0.00000000000E+00 0.  1.
         23    2    1    2    0    0 -0.11411282428E+03  0.76116156398E+02 -0.16462761449E+03  0.24812097582E+03  0.12508541585E+03 0.  0.
          5    1    3    3  502    0  0.95055629476E+01  0.49424287500E+02 -0.84208954100E+02  0.98192343247E+02  0.41800000000E+01 0. -1.
         -5    1    3    3    0  502 -0.12361838722E+03  0.26691868899E+02 -0.80418660387E+02  0.14992863257E+03  0.41800000000E+01 0. -1.
        -11    1    1    2    0    0  0.63738538349E+02 -0.37072628789E+02 -0.22666302443E+03  0.23835500355E+03  0.00000000000E+00 0.  1.
         11    1    1    2    0    0  0.50374285928E+02 -0.39043527609E+02 -0.40887560470E+02  0.75721584321E+02  0.00000000000E+00 0. -1.
</event>
<event>
 7    1  0.4394360E-006  0.1151552E+03  0.7561462E-02  0.1251310E+00
          2   -1    0    0  501    0  0.00000000000E+00  0.00000000000E+00  0.31335578907E+03  0.31335578907E+03  0.00000000000E+00 0. -1.
         -2   -1    0    0    0  501 -0.00000000000E+00 -0.00000000000E+00 -0.74331894102E+02  0.74331894102E+02  0.00000000000E+00 0.  1.
         23    2    1    2    0    0 -0.67209660237E+02  0.89105843194E+02  0.13529212863E+03  0.21542500828E+03  0.12508790670E+03 0.  0.
          5    1    3    3  502    0 -0.62503205274E+02  0.79118838582E+02  0.15935567301E+03  0.18862169602E+03  0.41800000000E+01 0.  1.
         -5    1    3    3    0  502 -0.47064549630E+01  0.99870046123E+01 -0.24063544388E+02  0.26803312257E+02  0.41800000000E+01 0.  1.
        -11    1    1    2    0    0  0.18428850652E+02 -0.55168078655E+02  0.96124875819E+02  0.11235270887E+03  0.00000000000E+00 0. -1.
         11    1    1    2    0    0  0.48780809585E+02 -0.33937764539E+02  0.76068905213E+01  0.59909966025E+02  0.00000000000E+00 0.  1.
</event>
<event>
 7    1  0.4394360E-006  0.1712486E+03  0.7561462E-02  0.1176552E+00
          1   -1    0    0  501    0  0.00000000000E+00  0.00000000000E+00  0.42473760258E+03  0.42473760258E+03  0.00000000000E+00 0. -1.
         -1   -1    0    0    0  501 -0.00000000000E+00 -0.00000000000E+00 -0.10736663650E+03  0.10736663650E+03  0.00000000000E+00 0.  1.
         23    2    1    2    0    0 -0.14103190328E+03 -0.34303124833E+02  0.24128713092E+02  0.19311382387E+03  0.12507618502E+03 0.  0.
          5    1    3    3  502    0 -0.83710247537E+02  0.27374570515E+02 -0.29758091120E+02  0.93057987517E+02  0.41800000000E+01 0.  1.
         -5    1    3    3    0  502 -0.57321655744E+02 -0.61677695348E+02  0.53886804211E+02  0.10005583636E+03  0.41800000000E+01 0.  1.
        -11    1    1    2    0    0  0.54382101928E+02  0.58682095195E+02  0.14204802915E+03  0.16302957980E+03  0.00000000000E+00 0.  1.
         11    1    1    2    0    0  0.86649801353E+02 -0.24378970362E+02  0.15119422385E+03  0.17596083540E+03  0.00000000000E+00 0. -1.
</event>
<event>
 7    1  0.4394360E-006  0.6795329E+02  0.7561462E-02  0.1367195E+00
          1   -1    0    0  501    0  0.00000000000E+00  0.00000000000E+00  0.11491507044E+03  0.11491507044E+03  0.00000000000E+00 0. -1.
         -1   -1    0    0    0  501 -0.00000000000E+00 -0.00000000000E+00 -0.23499401391E+03  0.23499401391E+03  0.00000000000E+00 0.  1.
         23    2    1    2    0    0 -0.40533839700E+02  0.50923376405E+00 -0.18976045886E+03  0.23086710418E+03  0.12508931434E+03 0.  0.
          5    1    3    3  502    0 -0.27352438054E+02 -0.27897723408E+02 -0.19493200468E+03  0.19885270349E+03  0.41800000000E+01 0.  1.
         -5    1    3    3    0  502 -0.13181401646E+02  0.28406957172E+02  0.51715458126E+01  0.32014400685E+02  0.41800000000E+01 0.  1.
        -11    1    1    2    0    0 -0.60044956930E+01  0.14845663948E+02 -0.14520724245E+02  0.21617102933E+02  0.00000000000E+00 0.  1.
         11    1    1    2    0    0  0.46538335393E+02 -0.15354897712E+02  0.84202239642E+02  0.97424877242E+02  0.00000000000E+00 0. -1.
</event>
<event>
 7    1  0.4394360E-006  0.2012747E+03  0.7561462E-02  0.1148668E+00
          2   -1    0    0  501    0  0.00000000000E+00  0.00000000000E+00  0.55996901919E+03  0.55996901919E+03  0.00000000000E+00 0. -1.
         -2   -1    0    0    0  501 -0.00000000000E+00 -0.00000000000E+00 -0.92230255898E+02  0.92230255898E+02  0.00000000000E+00 0.  1.
         23    2    1    2    0    0 -0.39895431139E+01  0.19804521953E+03  0.21579270188E+03  0.31851585145E+03  0.12509209410E+03 0.  0.
          5    1    3    3  502    0 -0.19963723104E+02  0.58464254689E+02  0.15206642656E+03  0.16418979811E+03  0.41800000000E+01 0.  1.
         -5    1    3    3    0  502  0.15974179990E+02  0.13958096485E+03  0.63726275322E+02  0.15432605334E+03  0.41800000000E+01 0.  1.
        -11    1    1    2    0    0  0.14878078723E+02 -0.15345844336E+03  0.12432289838E+03  0.19805815844E+03  0.00000000000E+00 0.  1.
         11    1    1    2    0    0 -0.10888535609E+02 -0.44586776178E+02  0.12762316302E+03  0.13562526519E+03  0.00000000000E+00 0. -1.
</event>
<event>
 7    1  0.4394360E-006  0.1166951E+03  0.7561462E-02  0.1248651E+00
          4   -1    0    0  501    0  0.00000000000E+00  0.00000000000E+00  0.12890097479E+03  0.12890097479E+03  0.00000000000E+00 0. -1.
         -4   -1    0    0    0  501 -0.00000000000E+00 -0.00000000000E+00 -0.17560643491E+03  0.17560643491E+03  0.00000000000E+00 0.  1.
         23    2    1    2    0    0 -0.48341932612E+02 -0.88565446780E+02  0.31229992301E+01  0.16074214704E+03  0.12508998320E+03 0.  0.
          5    1    3    3  502    0  0.22982111823E+02 -0.79878991350E+01  0.39921144603E+02  0.46937769257E+02  0.41800000000E+01 0.  1.
         -5    1    3    3    0  502 -0.71324044436E+02 -0.80577547645E+02 -0.36798145373E+02  0.11380437778E+03  0.41800000000E+01 0.  1.
        -11    1    1    2    0    0  0.29792759864E+02  0.49665810259E+02 -0.74299997905E+02  0.94206108813E+02  0.00000000000E+00 0.  1.
         11    1    1    2    0    0  0.18549172749E+02  0.38899636521E+02  0.24471538551E+02  0.49559153849E+02  0.00000000000E+00 0. -1.
</event>
<event>
 7    1  0.4394360E-006  0.1538978E+03  0.7561462E-02  0.1195764E+00
          2   -1    0    0  501    0  0.00000000000E+00  0.00000000000E+00  0.18385098091E+03  0.18385098091E+03  0.00000000000E+00 0. -1.
         -2   -1    0    0    0  501 -0.00000000000E+00 -0.00000000000E+00 -0.16789111261E+03  0.16789111261E+03  0.00000000000E+00 0.  1.
         23    2    1    2    0    0  0.13087300148E+03 -0.43305276283E+02  0.54003291920E+01  0.18622794030E+03  0.12509433529E+03 0.  0.
          5    1    3    3  502    0  0.66299570996E+02 -0.49222538996E+02  0.59346715988E+02  0.10177424310E+03  0.41800000000E+01 0.  1.
         -5    1    3    3    0  502  0.64573430484E+02  0.59172627127E+01 -0.53946386796E+02  0.84453697201E+02  0.41800000000E+01 0.  1.
        -11    1    1    2    0    0  0.10442177864E+02 -0.38991932828E+01  0.12185529844E+02  0.16514536760E+02  0.00000000000E+00 0. -1.
         11    1    1    2    0    0 -0.14131517934E+03  0.47204469566E+02 -0.16259907298E+01  0.14899961646E+03  0.00000000000E+00 0.  1.
</event>
<event>
 7    1  0.4394360E-006  0.9839669E+02  0.7561462E-02  0.1283704E+00
         -1   -1    0    0    0  501 -0.00000000000E+00  0.00000000000E+00  0.12702508822E+03  0.12702508822E+03  0.00000000000E+00 0.  1.
          1   -1    0    0  501    0  0.00000000000E+00 -0.00000000000E+00 -0.15465486878E+03  0.15465486878E+03  0.00000000000E+00 0. -1.
         23    2    1    2    0    0  0.18151099080E+02 -0.49100779880E+02  0.40528437440E+02  0.14152864593E+03  0.12508978534E+03 0.  0.
          5    1    3    3  502    0  0.24136066351E+02  0.11796423113E+02 -0.34945490367E+02  0.44276009239E+02  0.41800000000E+01 0.  1.
         -5    1    3    3    0  502 -0.59849672707E+01 -0.60897202993E+02  0.75473927807E+02  0.97252636695E+02  0.41800000000E+01 0.  1.
        -11    1    1    2    0    0 -0.53254360434E+02  0.74037472894E+01 -0.66638459730E+02  0.85624334709E+02  0.00000000000E+00 0. -1.
         11    1    1    2    0    0  0.35103261354E+02  0.41697032591E+02 -0.15197582691E+01  0.54526976349E+02  0.00000000000E+00 0.  1.
</event>
<event>
 7    1  0.4394360E-006  0.1456296E+03  0.7561462E-02  0.1205949E+00
         -4   -1    0    0    0  501 -0.00000000000E+00  0.00000000000E+00  0.35318349517E+02  0.35318349517E+02  0.00000000000E+00 0.  1.
          4   -1    0    0  501    0  0.00000000000E+00 -0.00000000000E+00 -0.86499589949E+03  0.86499589949E+03  0.00000000000E+00 0. -1.
         23    2    1    2    0    0 -0.26664838907E+02 -0.10697795997E+03 -0.23031812116E+03  0.28434125450E+03  0.12509282363E+03 0.  0.
          5    1    3    3  502    0 -0.61520590395E+02 -0.37644645559E+02 -0.17389270885E+03  0.18830307744E+03  0.41800000000E+01 0. -1.
         -5    1    3    3    0  502  0.34855751488E+02 -0.69333314410E+02 -0.56425412307E+02  0.96038177059E+02  0.41800000000E+01 0. -1.
        -11    1    1    2    0    0 -0.26535651289E+02  0.74223879598E+02 -0.36629472849E+03  0.37468006781E+03  0.00000000000E+00 0.  1.
         11    1    1    2    0    0  0.53200490196E+02  0.32754080371E+02 -0.23306470032E+03  0.24129292670E+03  0.00000000000E+00 0. -1.
</event>
<event>
 7    1  0.4394360E-006  0.2438756E+03  0.7561462E-02  0.1117238E+00
         -1   -1    0    0    0  501 -0.00000000000E+00  0.00000000000E+00  0.21163038272E+03  0.21163038272E+03  0.00000000000E+00 0.  1.
          1   -1    0    0  501    0  0.00000000000E+00 -0.00000000000E+00 -0.36556045639E+03  0.36556045639E+03  0.00000000000E+00 0. -1.
         23    2    1    2    0    0  0.53071396303E+02 -0.22327077666E+03  0.39298399742E+02  0.26430978679E+03  0.12509550893E+03 0.  0.
          5    1    3    3  502    0 -0.70140895971E+01  0.10560420433E+02  0.17292314878E+02  0.21845285222E+02  0.41800000000E+01 0.  1.
         -5    1    3    3    0  502  0.60085485901E+02 -0.23383119709E+03  0.22006084864E+02  0.24246450156E+03  0.41800000000E+01 0.  1.
        -11    1    1    2    0    0  0.33161500691E-01  0.82253850288E+02 -0.22726169730E+02  0.85335665331E+02  0.00000000000E+00 0. -1.
         11    1    1    2    0    0 -0.53104557804E+02  0.14101692637E+03 -0.17050230368E+03  0.22754538700E+03  0.00000000000E+00 0.  1.
</event>
<event>
 7    1  0.4394360E-006  0.1120358E+03  0.7561462E-02  0.1256846E+00
         -1   -1    0    0    0  501 -0.00000000000E+00  0.00000000000E+00  0.21703624277E+02  0.21703624277E+02  0.00000000000E+00 0.  1.
          1   -1    0    0  501    0  0.00000000000E+00 -0.00000000000E+00 -0.69216434660E+03  0.69216434660E+03  0.00000000000E+00 0. -1.
         23    2    1    2    0    0 -0.32679962443E+02  0.33191755684E+02 -0.27144788914E+03  0.30256075606E+03  0.12525726327E+03 0.  0.
          5    1    3    3  502    0 -0.14161904848E+02 -0.45629488365E+02 -0.14138608678E+03  0.14929871966E+03  0.41800000000E+01 0.  1.
         -5    1    3    3    0  502 -0.18518057595E+02  0.78821244048E+02 -0.13006180235E+03  0.15326203640E+03  0.41800000000E+01 0.  1.
        -11    1    1    2    0    0  0.58267693151E+02 -0.74505017069E+01 -0.30346177023E+03  0.30909493693E+03  0.00000000000E+00 0. -1.
         11    1    1    2    0    0 -0.25587730708E+02 -0.25741253977E+02 -0.95551062956E+02  0.10221227789E+03  0.00000000000E+00 0.  1.
</event>
<event>
 7    1  0.6585290E-006  0.2369006E+03  0.7561462E-02  0.1121875E+00
          1   -1    0    0  501    0  0.00000000000E+00  0.00000000000E+00  0.55529066675E+03  0.55529066675E+03  0.00000000000E+00 0. -1.
         -1   -1    0    0    0  501 -0.00000000000E+00 -0.00000000000E+00 -0.10455071729E+03  0.10455071729E+03  0.00000000000E+00 0.  1.
         23    2    1    2    0    0 -0.13153657409E+03 -0.16864080521E+03  0.20280443040E+03  0.32018519977E+03  0.12508930272E+03 0.  0.
          5    1    3    3  502    0 -0.10590693985E+03 -0.38210181800E+02  0.11393686682E+03  0.16023538910E+03  0.41800000000E+01 0. -1.
         -5    1    3    3    0  502 -0.25629634245E+02 -0.13043062341E+03  0.88867563586E+02  0.15994981067E+03  0.41800000000E+01 0. -1.
        -11    1    1    2    0    0  0.97191394631E+02  0.60037830750E+02  0.15556251419E+03  0.19300363761E+03  0.00000000000E+00 0.  1.
         11    1    1    2    0    0  0.34345179461E+02  0.10860297446E+03  0.92373004867E+02  0.14665254666E+03  0.00000000000E+00 0. -1.
</event>
<event>
 7    1  0.4394360E-006  0.1087138E+03  0.7561462E-02  0.1262970E+00
         -1   -1    0    0    0  501 -0.00000000000E+00  0.00000000000E+00  0.32976689564E+03  0.32976689564E+03  0.00000000000E+00 0.  1.
          1   -1    0    0  501    0  0.00000000000E+00 -0.00000000000E+00 -0.45879419561E+02  0.45879419561E+02  0.00000000000E+00 0. -1.
         23    2    1    2    0    0  0.11790419231E+02  0.57250296971E+02  0.15936600977E+03  0.21086781079E+03  0.12510434871E+03 0.  0.
          5    1    3    3  502    0 -0.26233678308E+02 -0.13673864613E+02 -0.25723349896E+01  0.29987826836E+02  0.41800000000E+01 0. -1.
         -5    1    3    3    0  502  0.38024097539E+02  0.70924161584E+02  0.16193834476E+03  0.18087998395E+03  0.41800000000E+01 0. -1.
        -11    1    1    2    0    0  0.26172281124E+02  0.11378727851E+02  0.24056580334E+02  0.37325364085E+02  0.00000000000E+00 0.  1.
         11    1    1    2    0    0 -0.37962700354E+02 -0.68629024822E+02  0.10046488598E+03  0.12745314033E+03  0.00000000000E+00 0. -1.
</event>
<event>
 7    1  0.4394360E-006  0.1177338E+03  0.7561462E-02  0.1246883E+00
          2   -1    0    0  501    0  0.00000000000E+00  0.00000000000E+00  0.44801932657E+03  0.44801932657E+03  0.00000000000E+00 0.  1.
         -2   -1    0    0    0  501 -0.00000000000E+00 -0.00000000000E+00 -0.61171602167E+02  0.61171602167E+02  0.00000000000E+00 0. -1.
         23    2    1    2    0    0  0.27561953166E+02  0.10910640176E+03  0.12420086543E+03  0.20913918192E+03  0.12509785878E+03 0.  0.
          5    1    3    3  502    0 -0.38711900257E+01  0.77484895269E+02  0.14126115346E+03  0.16121749590E+03  0.41800000000E+01 0. -1.
         -5    1    3    3    0  502  0.31433143192E+02  0.31621506491E+02 -0.17060288024E+02  0.47921686022E+02  0.41800000000E+01 0. -1.
        -11    1    1    2    0    0 -0.22002799675E+02 -0.67016492776E+02  0.24344167242E+03  0.25345449565E+03  0.00000000000E+00 0.  1.
         11    1    1    2    0    0 -0.55591534918E+01 -0.42089908984E+02  0.19205186553E+02  0.46597251167E+02  0.00000000000E+00 0. -1.
</event>
<event>
 7    1  0.4394360E-006  0.1293561E+03  0.7561462E-02  0.1228414E+00
         -2   -1    0    0    0  501 -0.00000000000E+00  0.00000000000E+00  0.11264269310E+03  0.11264269310E+03  0.00000000000E+00 0.  1.
          2   -1    0    0  501    0  0.00000000000E+00 -0.00000000000E+00 -0.19107950575E+03  0.19107950575E+03  0.00000000000E+00 0. -1.
         23    2    1    2    0    0 -0.58848219163E+02 -0.75454156767E+02 -0.17108781698E+02  0.15842039543E+03  0.12509144097E+03 0.  0.
          5    1    3    3  502    0  0.19277197031E+01 -0.93610438539E+02 -0.62469302863E+01  0.93931500812E+02  0.41800000000E+01 0.  1.
         -5    1    3    3    0  502 -0.60775938866E+02  0.18156281772E+02 -0.10861851412E+02  0.64488894617E+02  0.41800000000E+01 0.  1.
        -11    1    1    2    0    0  0.31559194960E+02  0.64892340984E+02 -0.82184768468E+02  0.10936788776E+03  0.00000000000E+00 0. -1.
         11    1    1    2    0    0  0.27289024203E+02  0.10561815783E+02  0.20856737516E+02  0.35933915656E+02  0.00000000000E+00 0.  1.
</event>
<event>
 7    1  0.4394360E-006  0.1418771E+03  0.7561462E-02  0.1210825E+00
          1   -1    0    0  501    0  0.00000000000E+00  0.00000000000E+00  0.47431527877E+03  0.47431527877E+03  0.00000000000E+00 0. -1.
         -1   -1    0    0    0  501 -0.00000000000E+00 -0.00000000000E+00 -0.56251688502E+02  0.56251688502E+02  0.00000000000E+00 0.  1.
         23    2    1    2    0    0 -0.10651078456E+03 -0.43681126329E+02  0.15933274176E+03  0.23299534120E+03  0.12508924174E+03 0.  0.
          5    1    3    3  502    0 -0.99414056371E+02 -0.82250057482E+02  0.10835150557E+03  0.16854004782E+03  0.41800000000E+01 0.  1.
         -5    1    3    3    0  502 -0.70967281942E+01  0.38568931152E+02  0.50981236193E+02  0.64455293383E+02  0.41800000000E+01 0.  1.
        -11    1    1    2    0    0  0.13755506017E+02  0.74163278346E+01 -0.43908124873E+01  0.16232532108E+02  0.00000000000E+00 0.  1.
         11    1    1    2    0    0  0.92755278548E+02  0.36264798495E+02  0.26312166099E+03  0.28133909396E+03  0.00000000000E+00 0. -1.
</event>
<event>
 7    1  0.4394360E-006  0.1006333E+03  0.7561462E-02  0.1278970E+00
         -1   -1    0    0    0  501 -0.00000000000E+00  0.00000000000E+00  0.23291662625E+02  0.23291662625E+02  0.00000000000E+00 0.  1.
          1   -1    0    0  501    0  0.00000000000E+00 -0.00000000000E+00 -0.63206282791E+03  0.63206282791E+03  0.00000000000E+00 0. -1.
         23    2    1    2    0    0 -0.49199486645E+02 -0.10577979225E+02 -0.40369944663E+03  0.42561909330E+03  0.12508351705E+03 0.  0.
          5    1    3    3  502    0 -0.60011593566E+02 -0.47546196736E+02 -0.35601832489E+03  0.36418203174E+03  0.41800000000E+01 0.  1.
         -5    1    3    3    0  502  0.10812106920E+02  0.36968217510E+02 -0.47681121736E+02  0.61437061550E+02  0.41800000000E+01 0.  1.
        -11    1    1    2    0    0  0.29768191872E+02  0.40442032007E+02 -0.50905987092E+02  0.71506102691E+02  0.00000000000E+00 0.  1.
         11    1    1    2    0    0  0.19431294773E+02 -0.29864052781E+02 -0.15416573157E+03  0.15822929455E+03  0.00000000000E+00 0. -1.
</event>
<event>
 7    1  0.4394360E-006  0.1206291E+03  0.7561462E-02  0.1242063E+00
         -2   -1    0    0    0  501 -0.00000000000E+00  0.00000000000E+00  0.77753641919E+02  0.77753641919E+02  0.00000000000E+00 0.  1.
          2   -1    0    0  501    0  0.00000000000E+00 -0.00000000000E+00 -0.31257090124E+03  0.31257090124E+03  0.00000000000E+00 0. -1.
         23    2    1    2    0    0  0.58758826483E+02  0.92149145480E+02 -0.92286223460E+02  0.19002228450E+03  0.12509059462E+03 0.  0.
          5    1    3    3  502    0  0.28112462696E+02  0.17601523899E+02  0.29054022516E+02  0.44291453202E+02  0.41800000000E+01 0.  1.
         -5    1    3    3    0  502  0.30646363786E+02  0.74547621581E+02 -0.12134024598E+03  0.14573083130E+03  0.41800000000E+01 0.  1.
        -11    1    1    2    0    0  0.10034785865E+02 -0.38760287611E+02 -0.92454765193E+01  0.41091795521E+02  0.00000000000E+00 0.  1.
         11    1    1    2    0    0 -0.68793612348E+02 -0.53388857869E+02 -0.13328555935E+03  0.15921046314E+03  0.00000000000E+00 0. -1.
</event>
<event>
 7    1  0.4394360E-006  0.1202320E+03  0.7561462E-02  0.1242715E+00
          2   -1    0    0  501    0  0.00000000000E+00  0.00000000000E+00  0.69367490715E+03  0.69367490715E+03  0.00000000000E+00 0.  1.
         -2   -1    0    0    0  501 -0.00000000000E+00 -0.00000000000E+00 -0.24055031985E+02  0.24055031985E+02  0.00000000000E+00 0. -1.
         23    2    1    2    0    0 -0.69825432435E+02 -0.65909014378E+01  0.36029761844E+03  0.38779116139E+03  0.12509428442E+03 0.  0.
          5    1    3    3  502    0  0.14341844817E+02 -0.36163806593E+02  0.42881038405E+02  0.58049679368E+02  0.41800000000E+01 0. -1.
         -5    1    3    3    0  502 -0.84167277252E+02  0.29572905155E+02  0.31741658004E+03  0.32974148202E+03  0.41800000000E+01 0. -1.
        -11    1    1    2    0    0  0.32606082260E+02  0.46926859121E+02  0.19367246859E+03  0.20192650098E+03  0.00000000000E+00 0. -1.
         11    1    1    2    0    0  0.37219350175E+02 -0.40335957683E+02  0.11564978813E+03  0.12801227677E+03  0.00000000000E+00 0.  1.
</event>
<event>
 6    1  0.4394360E-006  0.1215098E+03  0.7561462E-02  0.1240627E+00
         -2   -1    0    0    0  501 -0.00000000000E+00  0.00000000000E+00  0.13626699673E+03  0.13626699673E+03  0.00000000000E+00 0.  1.
          2   -1    0    0  501    0  0.00000000000E+00 -0.00000000000E+00 -0.18772309810E+03  0.18772309810E+03  0.00000000000E+00 0. -1.
          5    1    1    2  502    0 -0.54657573258E+01  0.48844226995E+02 -0.50853217905E+02  0.70845996253E+02  0.41800000000E+01 0. -1.
         -5    1    1    2    0  502 -0.70107747511E+02 -0.13322208652E+02  0.77221473854E+02  0.10522930166E+03  0.41800000000E+01 0.  1.
        -11    1    1    2    0    0  0.19725878558E+02  0.30131918807E+02 -0.77709979811E+01  0.36843333528E+02  0.00000000000E+00 0.  1.
         11    1    1    2    0    0  0.55847626279E+02 -0.65653937149E+02 -0.70053359336E+02  0.11107146338E+03  0.00000000000E+00 0. -1.
</event>
<event>
 7    1  0.4394360E-006  0.1257469E+03  0.7561462E-02  0.1233907E+00
          2   -1    0    0  501    0  0.00000000000E+00  0.00000000000E+00  0.27723738343E+03  0.27723738343E+03  0.00000000000E+00 0. -1.
         -2   -1    0    0    0  501 -0.00000000000E+00 -0.00000000000E+00 -0.72281176220E+02  0.72281176220E+02  0.00000000000E+00 0.  1.
         23    2    1    2    0    0  0.24764420238E+01 -0.65995449340E+02  0.35789702159E+02  0.14591172784E+03  0.12509115653E+03 0.  0.
          5    1    3    3  502    0  0.57518843357E+02 -0.61842683757E+02  0.11053268833E+02  0.85279434961E+02  0.41800000000E+01 0. -1.
         -5    1    3    3    0  502 -0.55042401333E+02 -0.41527655835E+01  0.24736433326E+02  0.60632292882E+02  0.41800000000E+01 0. -1.
        -11    1    1    2    0    0  0.17253559698E+02 -0.18213100318E+02  0.24553537103E+02  0.35103825001E+02  0.00000000000E+00 0. -1.
         11    1    1    2    0    0 -0.19730001722E+02  0.84208549658E+02  0.14461296794E+03  0.16850300680E+03  0.00000000000E+00 0.  1.
</event>
<event>
 7    1  0.4394360E-006  0.8629786E+02  0.7561462E-02  0.1312073E+00
          3   -1    0    0  501    0  0.00000000000E+00  0.00000000000E+00  0.36084846944E+03  0.36084846944E+03  0.00000000000E+00 0. -1.
         -3   -1    0    0    0  501 -0.00000000000E+00 -0.00000000000E+00 -0.32020916911E+02  0.32020916911E+02  0.00000000000E+00 0.  1.
         23    2    1    2    0    0 -0.29384345857E+02 -0.15232413120E+02  0.16065221396E+03  0.19885123633E+03  0.11241536438E+03 0.  0.
          5    1    3    3  502    0 -0.61103352944E+02 -0.82101223585E+01  0.15329378849E+03  0.16528001646E+03  0.41800000000E+01 0. -1.
         -5    1    3    3    0  502  0.31719007088E+02 -0.70222907616E+01  0.73584254654E+01  0.33571219869E+02  0.41800000000E+01 0.  1.
        -11    1    1    2    0    0 -0.23579777982E+02  0.49587231905E+01  0.86246116235E+01  0.25592553429E+02  0.00000000000E+00 0. -1.
         11    1    1    2    0    0  0.52964123838E+02  0.10273689930E+02  0.15955072695E+03  0.16842559659E+03  0.00000000000E+00 0.  1.
</event>
<event>
 7    1  0.4394360E-006  0.9187793E+02  0.7561462E-02  0.1298367E+00
          1   -1    0    0  501    0  0.00000000000E+00  0.00000000000E+00  0.16078656788E+03  0.16078656788E+03  0.00000000000E+00 0. -1.
         -1   -1    0    0    0  501 -0.00000000000E+00 -0.00000000000E+00 -0.75322868864E+02  0.75322868864E+02  0.00000000000E+00 0.  1.
         23    2    1    2    0    0 -0.15136012506E+02  0.63338868482E+00  0.38788766276E+02  0.13183629946E+03  0.12508693541E+03 0.  0.
          5    1    3    3  502    0 -0.31419698929E+02 -0.49592080372E+02  0.50546900825E+02  0.77582430352E+02  0.41800000000E+01 0. -1.
         -5    1    3    3    0  502  0.16283686423E+02  0.50225469057E+02 -0.11758134549E+02  0.54253869111E+02  0.41800000000E+01 0. -1.
        -11    1    1    2    0    0  0.12374387591E+01 -0.34918388364E+02  0.56104823557E+02  0.66095206535E+02  0.00000000000E+00 0. -1.
         11    1    1    2    0    0  0.13898573747E+02  0.34284999679E+02 -0.94298908156E+01  0.38177930745E+02  0.00000000000E+00 0.  1.
</event>
<event>
 7    1  0.4394360E-006  0.1353629E+03  0.7561462E-02  0.1219708E+00
          1   -1    0    0  501    0  0.00000000000E+00  0.00000000000E+00  0.28427524174E+03  0.28427524174E+03  0.00000000000E+00 0. -1.
         -1   -1    0    0    0  501 -0.00000000000E+00 -0.00000000000E+00 -0.71783037536E+02  0.71783037536E+02  0.00000000000E+00 0.  1.
         23    2    1    2    0    0  0.88837276062E+02  0.39432332493E+01  0.80227952379E+02  0.17318371059E+03  0.12509381505E+03 0.  0.
          5    1    3    3  502    0  0.10397399666E+03 -0.30908564300E+02  0.35195400939E+02  0.11411450379E+03  0.41800000000E+01 0. -1.
         -5    1    3    3    0  502 -0.15136720594E+02  0.34851797549E+02  0.45032551439E+02  0.59069206799E+02  0.41800000000E+01 0. -1.
        -11    1    1    2    0    0  0.11792522264E+02 -0.18835488457E+02  0.11653171556E+02  0.25092541005E+02  0.00000000000E+00 0. -1.
         11    1    1    2    0    0 -0.10062979833E+03  0.14892255208E+02  0.12061108027E+03  0.15778202769E+03  0.00000000000E+00 0.  1.
</event>
<event>
 7    1  0.4394360E-006  0.9315173E+02  0.7561462E-02  0.1295394E+00
          2   -1    0    0  501    0  0.00000000000E+00  0.00000000000E+00  0.89469432506E+02  0.89469432506E+02  0.00000000000E+00 0. -1.
         -2   -1    0    0    0  501 -0.00000000000E+00 -0.00000000000E+00 -0.12755391207E+03  0.12755391207E+03  0.00000000000E+00 0.  1.
         23    2    1    2    0    0 -0.38843361671E+01  0.45893884188E+02 -0.46492527348E+02  0.14117216889E+03  0.12508672790E+03 0.  0.
          5    1    3    3  502    0 -0.87187566162E+01 -0.42994625082E+02 -0.12693585033E+02  0.45860157041E+02  0.41800000000E+01 0. -1.
         -5    1    3    3    0  502  0.48344204491E+01  0.88888509270E+02 -0.33798942316E+02  0.95312011850E+02  0.41800000000E+01 0. -1.
        -11    1    1    2    0    0  0.14748276455E+02 -0.18579713914E+02 -0.22853929880E+02  0.32939634765E+02  0.00000000000E+00 0.  1.
         11    1    1    2    0    0 -0.10863940288E+02 -0.27314170274E+02  0.31261977666E+02  0.42911540918E+02  0.00000000000E+00 0. -1.
</event>
<event>
 7    1  0.4394360E-006  0.1122261E+03  0.7561462E-02  0.1256502E+00
          1   -1    0    0  501    0  0.00000000000E+00  0.00000000000E+00  0.11675949952E+03  0.11675949952E+03  0.00000000000E+00 0. -1.
         -1   -1    0    0    0  501 -0.00000000000E+00 -0.00000000000E+00 -0.13409529709E+03  0.13409529709E+03  0.00000000000E+00 0.  1.
         23    2    1    2    0    0 -0.39253969946E+02  0.42181919322E+02 -0.29771544794E+02  0.14090821352E+03  0.12509432954E+03 0.  0.
          5    1    3    3  502    0 -0.39335814302E+02 -0.26629378611E+02  0.24088782906E+02  0.53424450900E+02  0.41800000000E+01 0. -1.
         -5    1    3    3    0  502  0.81844356593E-01  0.68811297933E+02 -0.53860327701E+02  0.87483762617E+02  0.41800000000E+01 0. -1.
        -11    1    1    2    0    0  0.25481517794E+02 -0.71246447394E+02  0.57953692393E+00  0.75668354537E+02  0.00000000000E+00 0.  1.
         11    1    1    2    0    0  0.13772452152E+02  0.29064528072E+02  0.11856210297E+02  0.34278228556E+02  0.00000000000E+00 0. -1.
</event>
<event>
 7    1  0.4394360E-006  0.2553082E+03  0.7561462E-02  0.1109995E+00
         -2   -1    0    0    0  501 -0.00000000000E+00  0.00000000000E+00  0.82687224584E+02  0.82687224584E+02  0.00000000000E+00 0.  1.
          2   -1    0    0  501    0  0.00000000000E+00 -0.00000000000E+00 -0.84712819740E+03  0.84712819740E+03  0.00000000000E+00 0. -1.
         23    2    1    2    0    0  0.12918175921E+03  0.19659912523E+03 -0.48367242464E+03  0.55220073391E+03  0.12508994050E+03 0.  0.
          5    1    3    3  502    0  0.14442504690E+03  0.12066359650E+03 -0.35927134327E+03  0.40560037992E+03  0.41800000000E+01 0. -1.
         -5    1    3    3    0  502 -0.15243287692E+02  0.75935528738E+02 -0.12440108137E+03  0.14660035399E+03  0.41800000000E+01 0. -1.
        -11    1    1    2    0    0 -0.57513292746E+02 -0.14644775250E+03 -0.22250948941E+03  0.27251641406E+03  0.00000000000E+00 0. -1.
         11    1    1    2    0    0 -0.71668466466E+02 -0.50151372729E+02 -0.58259058763E+02  0.10509827401E+03  0.00000000000E+00 0.  1.
</event>
<event>
 7    1  0.4394360E-006  0.1056767E+03  0.7561462E-02  0.1268792E+00
          2   -1    0    0  501    0  0.00000000000E+00  0.00000000000E+00  0.44110354017E+03  0.44110354017E+03  0.00000000000E+00 0. -1.
         -2   -1    0    0    0  501 -0.00000000000E+00 -0.00000000000E+00 -0.41045294450E+02  0.41045294450E+02  0.00000000000E+00 0.  1.
         23    2    1    2    0    0 -0.52106202790E+00  0.62014069332E+02  0.13169206523E+03  0.19193008375E+03  0.12509332797E+03 0.  0.
          5    1    3    3  502    0 -0.40961584215E+02  0.19712174333E+02  0.12476123985E+03  0.13285051964E+03  0.41800000000E+01 0.  1.
         -5    1    3    3    0  502  0.40440522187E+02  0.42301894998E+02  0.69308253790E+01  0.59079564112E+02  0.41800000000E+01 0.  1.
        -11    1    1    2    0    0  0.22743988620E+01 -0.84473657268E+02  0.23689235136E+03  0.25151333523E+03  0.00000000000E+00 0. -1.
         11    1    1    2    0    0 -0.17533368341E+01  0.22459587937E+02  0.31473829123E+02  0.38705415642E+02  0.00000000000E+00 0.  1.
</event>
<event>
 7    1  0.4394360E-006  0.9330534E+02  0.7561462E-02  0.1295039E+00
          2   -1    0    0  501    0  0.00000000000E+00  0.00000000000E+00  0.13942740702E+03  0.13942740702E+03  0.00000000000E+00 0. -1.
         -2   -1    0    0    0  501 -0.00000000000E+00 -0.00000000000E+00 -0.12729416205E+03  0.12729416205E+03  0.00000000000E+00 0.  1.
         23    2    1    2    0    0  0.72791820161E+02  0.13809575847E+02 -0.13549129380E+02  0.14601184396E+03  0.12508607517E+03 0.  0.
          5    1    3    3  502    0  0.33112523410E+02 -0.34814328920E+02 -0.53083807289E+02  0.71720566792E+02  0.41800000000E+01 0.  1.
         -5    1    3    3    0  502  0.39679296751E+02  0.48623904767E+02  0.39534677909E+02  0.74291277165E+02  0.41800000000E+01 0.  1.
        -11    1    1    2    0    0 -0.30833262768E+02  0.13715599975E+01  0.57941790289E+02  0.65649237098E+02  0.00000000000E+00 0. -1.
         11    1    1    2    0    0 -0.41958557394E+02 -0.15181135845E+02 -0.32259415933E+02  0.55060488015E+02  0.00000000000E+00 0.  1.
</event>
<event>
 7    1  0.4394360E-006  0.1836216E+03  0.7561462E-02  0.1164343E+00
         -1   -1    0    0    0  501 -0.00000000000E+00  0.00000000000E+00  0.11967224259E+03  0.11967224259E+03  0.00000000000E+00 0.  1.
          1   -1    0    0  501    0  0.00000000000E+00 -0.00000000000E+00 -0.38961018722E+03  0.38961018722E+03  0.00000000000E+00 0. -1.
         23    2    1    2    0    0  0.99614989498E+02  0.12042034760E+03 -0.34589849311E+02  0.20323625935E+03  0.12523702804E+03 0.  0.
          5    1    3    3  502    0  0.66805113980E+02  0.22947908282E+02  0.35044983474E+02  0.78962985095E+02  0.41800000000E+01 0.  1.
         -5    1    3    3    0  502  0.32809875518E+02  0.97472439314E+02 -0.69634832784E+02  0.12427327426E+03  0.41800000000E+01 0.  1.
        -11    1    1    2    0    0 -0.11915015819E+02 -0.10356329369E+03 -0.14880473182E+03  0.18168701554E+03  0.00000000000E+00 0. -1.
         11    1    1    2    0    0 -0.87699973679E+02 -0.16857053907E+02 -0.86543363493E+02  0.12435915493E+03  0.00000000000E+00 0.  1.
</event>
<event>
 7    1  0.4394360E-006  0.1183382E+03  0.7561462E-02  0.1245864E+00
         -2   -1    0    0    0  501 -0.00000000000E+00  0.00000000000E+00  0.61040812819E+02  0.61040812819E+02  0.00000000000E+00 0.  1.
          2   -1    0    0  501    0  0.00000000000E+00 -0.00000000000E+00 -0.26642544140E+03  0.26642544140E+03  0.00000000000E+00 0. -1.
         23    2    1    2    0    0  0.54720161983E+01 -0.63296814735E+02 -0.91731090567E+02  0.16762414450E+03  0.12508729402E+03 0.  0.
          5    1    3    3  502    0 -0.50591617827E+02 -0.36288065219E+02 -0.84198082212E+02  0.10480040515E+03  0.41800000000E+01 0.  1.
         -5    1    3    3    0  502  0.56063634025E+02 -0.27008749517E+02 -0.75330083548E+01  0.62823739346E+02  0.41800000000E+01 0.  1.
        -11    1    1    2    0    0  0.42413400096E+02  0.18288916465E+02 -0.54324534706E+02  0.71305932742E+02  0.00000000000E+00 0. -1.
         11    1    1    2    0    0 -0.47885416294E+02  0.45007898270E+02 -0.59329003305E+02  0.88536176976E+02  0.00000000000E+00 0.  1.
</event>
<event>
 7    1  0.4394360E-006  0.1081694E+03  0.7561462E-02  0.1263998E+00
          1   -1    0    0  501    0  0.00000000000E+00  0.00000000000E+00  0.60010296349E+03  0.60010296349E+03  0.00000000000E+00 0. -1.
         -1   -1    0    0    0  501 -0.00000000000E+00 -0.00000000000E+00 -0.26947576606E+02  0.26947576606E+02  0.00000000000E+00 0.  1.
         23    2    1    2    0    0 -0.52841914299E+02 -0.27216449743E+02  0.24457404278E+03  0.28106475069E+03  0.12509168092E+03 0.  0.
          5    1    3    3  502    0 -0.70968155392E+02 -0.57939667866E+02  0.11774040350E+03  0.14924395870E+03  0.41800000000E+01 0.  1.
         -5    1    3    3    0  502  0.18126241093E+02  0.30723218124E+02  0.12683363928E+03  0.13182079199E+03  0.41800000000E+01 0.  1.
        -11    1    1    2    0    0  0.67045429074E+02  0.12391776480E+02  0.31265269097E+03  0.32000054821E+03  0.00000000000E+00 0. -1.
         11    1    1    2    0    0 -0.14203514776E+02  0.14824673263E+02  0.15928653138E+02  0.25985241198E+02  0.00000000000E+00 0.  1.
</event>
<event>
 7    1  0.4394360E-006  0.1930054E+03  0.7561462E-02  0.1155778E+00
         -2   -1    0    0    0  501 -0.00000000000E+00  0.00000000000E+00  0.51863130128E+02  0.51863130128E+02  0.00000000000E+00 0. -1.
          2   -1    0    0  501    0  0.00000000000E+00 -0.00000000000E+00 -0.74508704929E+03  0.74508704929E+03  0.00000000000E+00 0.  1.
         23    2    1    2    0    0  0.17737426111E+02 -0.16727123447E+03 -0.31565498300E+03  0.37891730500E+03  0.12508386613E+03 0.  0.
          5    1    3    3  502    0 -0.47939983611E+02 -0.10728721403E+03 -0.14742682224E+03  0.18857605531E+03  0.41800000000E+01 0. -1.
         -5    1    3    3    0  502  0.65677409722E+02 -0.59984020435E+02 -0.16822816077E+03  0.19034124968E+03  0.41800000000E+01 0. -1.
        -11    1    1    2    0    0  0.92237397692E+01  0.14240307488E+03 -0.30406007365E+03  0.33588129079E+03  0.00000000000E+00 0. -1.
         11    1    1    2    0    0 -0.26961165880E+02  0.24868159591E+02 -0.73508862502E+02  0.82151583633E+02  0.00000000000E+00 0.  1.
</event>
<event>
 7    1  0.4394360E-006  0.1142445E+03  0.7561462E-02  0.1252906E+00
         -1   -1    0    0    0  501 -0.00000000000E+00  0.00000000000E+00  0.84463415495E+02  0.84463415495E+02  0.00000000000E+00 0.  1.
          1   -1    0    0  501    0  0.00000000000E+00 -0.00000000000E+00 -0.17330619576E+03  0.17330619576E+03  0.00000000000E+00 0. -1.
         23    2    1    2    0    0 -0.27684367469E+02 -0.43494324315E+02 -0.49176526831E+02  0.14395812535E+03  0.12508969027E+03 0.  0.
          5    1    3    3  502    0 -0.22871546769E+02  0.37344369011E+02 -0.44744390903E+02  0.62747449874E+02  0.41800000000E+01 0. -1.
         -5    1    3    3    0  502 -0.48128207001E+01 -0.80838693326E+02 -0.44321359283E+01  0.81210675472E+02  0.41800000000E+01 0. -1.
        -11    1    1    2    0    0  0.84043995889E+00  0.67434743131E+02 -0.38858086865E+02  0.77833809076E+02  0.00000000000E+00 0. -1.
         11    1    1    2    0    0  0.26843927510E+02 -0.23940418816E+02 -0.80816657084E+00  0.35977676835E+02  0.00000000000E+00 0.  1.
</event>
<event>
 7    1  0.4394360E-006  0.1502792E+03  0.7561462E-02  0.1200130E+00
         -1   -1    0    0    0  501 -0.00000000000E+00  0.00000000000E+00  0.34617504845E+02  0.34617504845E+02  0.00000000000E+00 0.  1.
          1   -1    0    0  501    0  0.00000000000E+00 -0.00000000000E+00 -0.68269258456E+03  0.68269258456E+03  0.00000000000E+00 0. -1.
         23    2    1    2    0    0 -0.55787165852E+02  0.90376940342E+02 -0.33930798989E+03  0.37690529349E+03  0.12508992382E+03 0.  0.
          5    1    3    3  502    0 -0.93938597178E+02  0.63622302579E+02 -0.27380672089E+03  0.29641162297E+03  0.41800000000E+01 0.  1.
         -5    1    3    3    0  502  0.38151431326E+02  0.26754637763E+02 -0.65501268993E+02  0.80493670520E+02  0.41800000000E+01 0.  1.
        -11    1    1    2    0    0 -0.20681841705E+02 -0.49244204956E+02 -0.15323545380E+03  0.16227703041E+03  0.00000000000E+00 0.  1.
         11    1    1    2    0    0  0.76469007557E+02 -0.41132735386E+02 -0.15553163603E+03  0.17812776550E+03  0.00000000000E+00 0. -1.
</event>
<event>
 7    1  0.4394360E-006  0.1222708E+03  0.7561462E-02  0.1239397E+00
          2   -1    0    0  501    0  0.00000000000E+00  0.00000000000E+00  0.66917330189E+03  0.66917330189E+03  0.00000000000E+00 0. -1.
         -2   -1    0    0    0  501 -0.00000000000E+00 -0.00000000000E+00 -0.31819148708E+02  0.31819148708E+02  0.00000000000E+00 0.  1.
         23    2    1    2    0    0  0.31702361506E+02  0.93013314710E+02  0.31573342422E+03  0.35354183924E+03  0.12509084893E+03 0.  0.
          5    1    3    3  502    0  0.56944973707E+02  0.23942885101E+02  0.55716340932E+02  0.83293305999E+02  0.41800000000E+01 0. -1.
         -5    1    3    3    0  502 -0.25242612201E+02  0.69070429609E+02  0.26001708328E+03  0.27024853324E+03  0.41800000000E+01 0. -1.
        -11    1    1    2    0    0 -0.38468289822E+02 -0.39889488311E+02  0.65530665920E+02  0.85821027583E+02  0.00000000000E+00 0.  1.
         11    1    1    2    0    0  0.67659283155E+01 -0.53123826399E+02  0.25609006305E+03  0.26162958378E+03  0.00000000000E+00 0. -1.
</event>
<event>
 7    1  0.4394360E-006  0.1028261E+03  0.7561462E-02  0.1274463E+00
          2   -1    0    0  501    0  0.00000000000E+00  0.00000000000E+00  0.49740666194E+03  0.49740666194E+03  0.00000000000E+00 0. -1.
         -2   -1    0    0    0  501 -0.00000000000E+00 -0.00000000000E+00 -0.26750406372E+02  0.26750406372E+02  0.00000000000E+00 0.  1.
         23    2    1    2    0    0 -0.31643288463E+02 -0.26080624333E+02  0.25105212061E+03  0.28347304489E+03  0.12509317825E+03 0.  0.
          5    1    3    3  502    0  0.21029793630E+02 -0.63233522425E+02  0.13683308610E+03  0.15225470905E+03  0.41800000000E+01 0.  1.
         -5    1    3    3    0  502 -0.52673082094E+02  0.37152898093E+02  0.11421903451E+03  0.13121833583E+03  0.41800000000E+01 0.  1.
        -11    1    1    2    0    0  0.14230992777E+01  0.40695792453E+02  0.36999221868E+02  0.55019225310E+02  0.00000000000E+00 0.  1.
         11    1    1    2    0    0  0.30220189186E+02 -0.14615168120E+02  0.18260491309E+03  0.18566479811E+03  0.00000000000E+00 0. -1.
</event>
<event>
 7    1  0.9923512E-006  0.2269685E+03  0.7561462E-02  0.1128792E+00
          3   -1    0    0  501    0  0.00000000000E+00  0.00000000000E+00  0.12340418678E+04  0.12340418678E+04  0.00000000000E+00 0. -1.
         -3   -1    0    0    0  501 -0.00000000000E+00 -0.00000000000E+00 -0.45138026219E+02  0.45138026219E+02  0.00000000000E+00 0.  1.
         23    2    1    2    0    0 -0.10958510036E+03 -0.17777011190E+03  0.57879026708E+03  0.62789858525E+03  0.12508938081E+03 0.  0.
          5    1    3    3  502    0 -0.67971841639E+01 -0.12950248258E+03  0.30226807670E+03  0.32893853119E+03  0.41800000000E+01 0. -1.
         -5    1    3    3    0  502 -0.10278791619E+03 -0.48267629326E+02  0.27652219037E+03  0.29896005406E+03  0.41800000000E+01 0. -1.
        -11    1    1    2    0    0  0.93402636636E+02  0.12967979647E+03  0.33062735474E+03  0.36722656473E+03  0.00000000000E+00 0.  1.
         11    1    1    2    0    0  0.16182463722E+02  0.48090315436E+02  0.27948621975E+03  0.28405474402E+03  0.00000000000E+00 0. -1.
</event>
<event>
 7    1  0.4394360E-006  0.1361029E+03  0.7561462E-02  0.1218671E+00
         -1   -1    0    0    0  501 -0.00000000000E+00  0.00000000000E+00  0.36052880544E+02  0.36052880544E+02  0.00000000000E+00 0.  1.
          1   -1    0    0  501    0  0.00000000000E+00 -0.00000000000E+00 -0.66276381936E+03  0.66276381936E+03  0.00000000000E+00 0. -1.
         23    2    1    2    0    0  0.50978412392E+02  0.68920165541E+02 -0.19111058526E+03  0.24396951875E+03  0.12509629305E+03 0.  0.
          5    1    3    3  502    0  0.23899637365E+02  0.10249443411E+03 -0.15583722989E+03  0.18809310543E+03  0.41800000000E+01 0. -1.
         -5    1    3    3    0  502  0.27078775028E+02 -0.33574268571E+02 -0.35273355376E+02  0.55876413329E+02  0.41800000000E+01 0. -1.
        -11    1    1    2    0    0 -0.60641463623E+01  0.21631087981E+02 -0.34218526248E+02  0.40933914752E+02  0.00000000000E+00 0.  1.
         11    1    1    2    0    0 -0.44914266030E+02 -0.90551253522E+02 -0.40138182730E+03  0.41391326639E+03  0.00000000000E+00 0. -1.
</event>
<event>
 7    1  0.4394360E-006  0.1087249E+03  0.7561462E-02  0.1262950E+00
         -4   -1    0    0    0  501 -0.00000000000E+00  0.00000000000E+00  0.45802961540E+02  0.45802961540E+02  0.00000000000E+00 0.  1.
          4   -1    0    0  501    0  0.00000000000E+00 -0.00000000000E+00 -0.41872851867E+03  0.41872851867E+03  0.00000000000E+00 0. -1.
         23    2    1    2    0    0 -0.16375547470E+02 -0.25116872255E+02 -0.70191254065E+02  0.14655354548E+03  0.12510840786E+03 0.  0.
          5    1    3    3  502    0  0.25756471759E+02 -0.65270779453E+02 -0.39073664249E+02  0.80423218822E+02  0.41800000000E+01 0. -1.
         -5    1    3    3    0  502 -0.42132019229E+02  0.40153907198E+02 -0.31117589816E+02  0.66130326655E+02  0.41800000000E+01 0. -1.
        -11    1    1    2    0    0 -0.33062685375E+02  0.21060155335E+02 -0.72079982310E+02  0.82049955251E+02  0.00000000000E+00 0.  1.
         11    1    1    2    0    0  0.49438232844E+02  0.40567169203E+01 -0.23065432075E+03  0.23592797948E+03  0.00000000000E+00 0. -1.
</event>
<event>
 7    1  0.4394360E-006  0.9002019E+02  0.7561462E-02  0.1302803E+00
          4   -1    0    0  501    0  0.00000000000E+00  0.00000000000E+00  0.47635512013E+02  0.47635512013E+02  0.00000000000E+00 0. -1.
         -4   -1    0    0    0  501 -0.00000000000E+00 -0.00000000000E+00 -0.31932080380E+03  0.31932080380E+03  0.00000000000E+00 0.  1.
         23    2    1    2    0    0 -0.14971785641E+02 -0.17328326538E+02 -0.24593025657E+03  0.27686196480E+03  0.12508569539E+03 0.  0.
          5    1    3    3  502    0  0.46466713890E+02  0.11672967695E+01 -0.17504509382E+03  0.18115953012E+03  0.41800000000E+01 0.  1.
         -5    1    3    3    0  502 -0.61438499531E+02 -0.18495623307E+02 -0.70885162750E+02  0.95702434683E+02  0.41800000000E+01 0.  1.
        -11    1    1    2    0    0 -0.96480657898E+01 -0.21233314496E+02 -0.36297583012E+02  0.43144563394E+02  0.00000000000E+00 0.  1.
         11    1    1    2    0    0  0.24619851431E+02  0.38561641034E+02  0.10542547793E+02  0.46949787621E+02  0.00000000000E+00 0. -1.
</event>
<event>
 7    1  0.4394360E-006  0.1073270E+03  0.7561462E-02  0.1265602E+00
         -3   -1    0    0    0  501 -0.00000000000E+00  0.00000000000E+00  0.30170194610E+02  0.30170194610E+02  0.00000000000E+00 0.  1.
          3   -1    0    0  501    0  0.00000000000E+00 -0.00000000000E+00 -0.42856614743E+03  0.42856614743E+03  0.00000000000E+00 0. -1.
         23    2    1    2    0    0 -0.31477579098E+02 -0.50957051347E+01 -0.20378350316E+03  0.24123048158E+03  0.12509046682E+03 0.  0.
          5    1    3    3  502    0 -0.30574700705E+02  0.54304504381E+02 -0.14343667800E+03  0.15644597954E+03  0.41800000000E+01 0. -1.
         -5    1    3    3    0  502 -0.90287839268E+00 -0.59400209516E+02 -0.60346825160E+02  0.84784502044E+02  0.41800000000E+01 0. -1.
        -11    1    1    2    0    0 -0.29247681440E+02 -0.84061415814E+01 -0.36051246865E+02  0.47178199271E+02  0.00000000000E+00 0.  1.
         11    1    1    2    0    0  0.60725260538E+02  0.13501846716E+02 -0.15856120280E+03  0.17032766118E+03  0.00000000000E+00 0. -1.
</event>
<event>
 7    1  0.4394360E-006  0.1329217E+03  0.7561462E-02  0.1223184E+00
         -1   -1    0    0    0  501 -0.00000000000E+00  0.00000000000E+00  0.61945794711E+03  0.61945794711E+03  0.00000000000E+00 0.  1.
          1   -1    0    0  501    0  0.00000000000E+00 -0.00000000000E+00 -0.47622869682E+02  0.47622869682E+02  0.00000000000E+00 0. -1.
         23    2    1    2    0    0  0.71962529911E+01  0.12533095974E+03  0.38747459314E+03  0.42607990087E+03  0.12509151076E+03 0.  0.
          5    1    3    3  502    0  0.56938591453E+01  0.81372500669E+02  0.36943545706E+03  0.37835688606E+03  0.41800000000E+01 0.  1.
         -5    1    3    3    0  502  0.15023938458E+01  0.43958459074E+02  0.18039136081E+02  0.47723014804E+02  0.41800000000E+01 0.  1.
        -11    1    1    2    0    0  0.19274894865E+02 -0.10120810551E+02  0.81322051094E+02  0.84185677953E+02  0.00000000000E+00 0.  1.
         11    1    1    2    0    0 -0.26471147856E+02 -0.11521014919E+03  0.10303843319E+03  0.15681523797E+03  0.00000000000E+00 0. -1.
</event>
<event>
 7    1  0.4394360E-006  0.2409119E+03  0.7561462E-02  0.1119187E+00
          1   -1    0    0  501    0  0.00000000000E+00  0.00000000000E+00  0.52996878870E+03  0.52996878870E+03  0.00000000000E+00 0. -1.
         -1   -1    0    0    0  501 -0.00000000000E+00 -0.00000000000E+00 -0.20406170687E+03  0.20406170687E+03  0.00000000000E+00 0.  1.
         23    2    1    2    0    0  0.24739137901E+02 -0.23007225056E+03 -0.64601989490E+02  0.27086225150E+03  0.12509067440E+03 0.  0.
          5    1    3    3  502    0 -0.31721115662E+02 -0.39939797092E+02 -0.50630520278E+02  0.71988461258E+02  0.41800000000E+01 0.  1.
         -5    1    3    3    0  502  0.56460253563E+02 -0.19013245347E+03 -0.13971469212E+02  0.19887379024E+03  0.41800000000E+01 0.  1.
        -11    1    1    2    0    0 -0.80991623770E+01  0.16153635551E+03  0.33971983727E+03  0.37625677192E+03  0.00000000000E+00 0. -1.
         11    1    1    2    0    0 -0.16639975524E+02  0.68535895044E+02  0.50789234055E+02  0.86911472148E+02  0.00000000000E+00 0.  1.
</event>
<event>
 7    1  0.4394360E-006  0.1110567E+03  0.7561462E-02  0.1258625E+00
         -1   -1    0    0    0  501 -0.00000000000E+00  0.00000000000E+00  0.94482137832E+02  0.94482137832E+02  0.00000000000E+00 0.  1.
          1   -1    0    0  501    0  0.00000000000E+00 -0.00000000000E+00 -0.28491106846E+03  0.28491106846E+03  0.00000000000E+00 0. -1.
         23    2    1    2    0    0 -0.95532958868E+02 -0.31009074903E+01 -0.92310421876E+01  0.15769237756E+03  0.12508202086E+03 0.  0.
          5    1    3    3  502    0 -0.70117499362E+02  0.19627022592E+02  0.50554725217E+02  0.88740838256E+02  0.41800000000E+01 0. -1.
         -5    1    3    3    0  502 -0.25415459506E+02 -0.22727930082E+02 -0.59785767405E+02  0.68951539300E+02  0.41800000000E+01 0. -1.
        -11    1    1    2    0    0  0.47701368698E+02  0.33379516752E+02 -0.43061532873E+02  0.72414834997E+02  0.00000000000E+00 0.  1.
         11    1    1    2    0    0  0.47831590170E+02 -0.30278609262E+02 -0.13813635556E+03  0.14928599373E+03  0.00000000000E+00 0. -1.
</event>
<event>
 7    1  0.4394360E-006  0.1226120E+03  0.7561462E-02  0.1238849E+00
         -2   -1    0    0    0  501 -0.00000000000E+00  0.00000000000E+00  0.34362921942E+02  0.34362921942E+02  0.00000000000E+00 0.  1.
          2   -1    0    0  501    0  0.00000000000E+00 -0.00000000000E+00 -0.54170991347E+03  0.54170991347E+03  0.00000000000E+00 0. -1.
         23    2    1    2    0    0  0.56716779848E+02  0.10979110618E+02 -0.15363201223E+03  0.20636658984E+03  0.12508812987E+03 0.  0.
          5    1    3    3  502    0  0.14872353868E+00 -0.52489692704E+02 -0.59652960806E+02  0.79568449097E+02  0.41800000000E+01 0. -1.
         -5    1    3    3    0  502  0.56568056309E+02  0.63468803322E+02 -0.93979051424E+02  0.12679814074E+03  0.41800000000E+01 0. -1.
        -11    1    1    2    0    0 -0.71755718328E+02 -0.34429229268E+02 -0.25448966436E+03  0.26664441530E+03  0.00000000000E+00 0.  1.
         11    1    1    2    0    0  0.15038938480E+02  0.23450118650E+02 -0.99225314933E+02  0.10306183027E+03  0.00000000000E+00 0. -1.
</event>
<event>
 7    1  0.4394360E-006  0.8900231E+02  0.7561462E-02  0.1305286E+00
          2   -1    0    0  501    0  0.00000000000E+00  0.00000000000E+00  0.37138160874E+03  0.37138160874E+03  0.00000000000E+00 0. -1.
         -2   -1    0    0    0  501 -0.00000000000E+00 -0.00000000000E+00 -0.40618268414E+02  0.40618268414E+02  0.00000000000E+00 0.  1.
         23    2    1    2    0    0 -0.36304028109E+02  0.29023863588E+02  0.13462774872E+03  0.18955920626E+03  0.12509074641E+03 0.  0.
          5    1    3    3  502    0 -0.81461903029E+02  0.26110727018E+02  0.70326518606E+02  0.11082013955E+03  0.41800000000E+01 0. -1.
         -5    1    3    3    0  502  0.45157874921E+02  0.29131365703E+01  0.64301230118E+02  0.78739066712E+02  0.41800000000E+01 0. -1.
        -11    1    1    2    0    0  0.97742933353E+01 -0.44044372036E+01 -0.90852800977E+01  0.14052693398E+02  0.00000000000E+00 0.  1.
         11    1    1    2    0    0  0.26529734773E+02 -0.24619426384E+02  0.20522087170E+03  0.20838797750E+03  0.00000000000E+00 0. -1.
</event>
<event>
 7    1  0.4394360E-006  0.1403239E+03  0.7561462E-02  0.1212894E+00
         -1   -1    0    0    0  501 -0.00000000000E+00  0.00000000000E+00  0.13977311391E+03  0.13977311391E+03  0.00000000000E+00 0.  1.
          1   -1    0    0  501    0  0.00000000000E+00 -0.00000000000E+00 -0.17459004866E+03  0.17459004866E+03  0.00000000000E+00 0. -1.
         23    2    1    2    0    0 -0.35846326986E+02  0.87547183898E+02  0.34001856226E+02  0.16047716785E+03  0.12508927455E+03 0.  0.
          5    1    3    3  502    0  0.27426490039E+02 -0.76526316716E+01 -0.18921436657E+02  0.34442245753E+02  0.41800000000E+01 0.  1.
         -5    1    3    3    0  502 -0.63272817025E+02  0.95199815570E+02  0.52923292883E+02  0.12603492210E+03  0.41800000000E+01 0.  1.
        -11    1    1    2    0    0 -0.19889979114E+02  0.12118963408E+02 -0.89527307139E+01  0.24952593663E+02  0.00000000000E+00 0. -1.
         11    1    1    2    0    0  0.55736306100E+02 -0.99666147306E+02 -0.59866060255E+02  0.12893340105E+03  0.00000000000E+00 0.  1.
</event>
<event>
 7    1  0.4394360E-006  0.1971131E+03  0.7561462E-02  0.1152198E+00
          2   -1    0    0  501    0  0.00000000000E+00  0.00000000000E+00  0.15298761806E+04  0.15298761806E+04  0.00000000000E+00 0. -1.
         -2   -1    0    0    0  501 -0.00000000000E+00 -0.00000000000E+00 -0.27971450959E+02  0.27971450959E+02  0.00000000000E+00 0.  1.
         23    2    1    2    0    0  0.21960782962E+02 -0.16702971394E+03  0.58666704322E+03  0.62305697183E+03  0.12506226134E+03 0.  0.
          5    1    3    3  502    0  0.32021433263E+02 -0.18240630945E+03  0.56364959157E+03  0.59330916763E+03  0.41800000000E+01 0. -1.
         -5    1    3    3    0  502 -0.10060650301E+02  0.15376595514E+02  0.23017451658E+02  0.29747804203E+02  0.41800000000E+01 0. -1.
        -11    1    1    2    0    0  0.20108442033E+02  0.24382613752E+01  0.90775068664E+02  0.93007567705E+02  0.00000000000E+00 0.  1.
         11    1    1    2    0    0 -0.42069224995E+02  0.16459145256E+03  0.82446261771E+03  0.84178309199E+03  0.00000000000E+00 0. -1.
</event>
<event>
 7    1  0.4394360E-006  0.9845276E+02  0.7561462E-02  0.1283584E+00
          2   -1    0    0  501    0  0.00000000000E+00  0.00000000000E+00  0.23172141214E+03  0.23172141214E+03  0.00000000000E+00 0. -1.
         -2   -1    0    0    0  501 -0.00000000000E+00 -0.00000000000E+00 -0.85427683617E+02  0.85427683617E+02  0.00000000000E+00 0.  1.
         23    2    1    2    0    0  0.65976765796E+02 -0.32846386019E+02  0.22913898508E+02  0.14698454946E+03  0.12509033670E+03 0.  0.
          5    1    3    3  502    0  0.41472693104E+02 -0.40369062110E+02  0.71384869891E+02  0.91994116651E+02  0.41800000000E+01 0. -1.
         -5    1    3    3    0  502  0.24504072693E+02  0.75226760912E+01 -0.48470971383E+02  0.54990432813E+02  0.41800000000E+01 0. -1.
        -11    1    1    2    0    0 -0.56829317521E+02 -0.19259779789E+02  0.42543422561E+02  0.73555783257E+02  0.00000000000E+00 0.  1.
         11    1    1    2    0    0 -0.91474482752E+01  0.52106165808E+02  0.80836407457E+02  0.96608763038E+02  0.00000000000E+00 0. -1.
</event>
<event>
 6    1  0.4394360E-006  0.1126451E+03  0.7561462E-02  0.1255748E+00
          2   -1    0    0  501    0  0.00000000000E+00  0.00000000000E+00  0.77828598487E+02  0.77828598487E+02  0.00000000000E+00 0. -1.
         -2   -1    0    0    0  501 -0.00000000000E+00 -0.00000000000E+00 -0.18440096611E+03  0.18440096611E+03  0.00000000000E+00 0.  1.
          5    1    1    2  502    0  0.48283731616E+02  0.33618119593E+02 -0.69728686467E+01  0.59393518173E+02  0.41800000000E+01 0. -1.
         -5    1    1    2    0  502 -0.44517647207E+02 -0.64435061296E+02 -0.64265728100E+02  0.10139651989E+03  0.41800000000E+01 0.  1.
        -11    1    1    2    0    0 -0.37658575252E+02 -0.56648339462E+01 -0.34879836578E+02  0.51641665672E+02  0.00000000000E+00 0.  1.
         11    1    1    2    0    0  0.33892490843E+02  0.36481775649E+02 -0.45393429533E+00  0.49797860861E+02  0.00000000000E+00 0. -1.
</event>
<event>
 7    1  0.4394360E-006  0.1046634E+03  0.7561462E-02  0.1270784E+00
          2   -1    0    0  501    0  0.00000000000E+00  0.00000000000E+00  0.24676047695E+03  0.24676047695E+03  0.00000000000E+00 0. -1.
         -2   -1    0    0    0  501 -0.00000000000E+00 -0.00000000000E+00 -0.70261782001E+02  0.70261782001E+02  0.00000000000E+00 0.  1.
         23    2    1    2    0    0  0.17130890170E+02  0.13501025055E+02  0.11779821983E+02  0.12752422175E+03  0.12509163782E+03 0.  0.
          5    1    3    3  502    0  0.11844663811E+02 -0.55860447851E+02  0.38089719075E+01  0.57381759836E+02  0.41800000000E+01 0.  1.
         -5    1    3    3    0  502  0.52862263587E+01  0.69361472906E+02  0.79708500752E+01  0.70142461916E+02  0.41800000000E+01 0.  1.
        -11    1    1    2    0    0 -0.17447118660E+02 -0.46354148748E+02  0.50852475326E+02  0.70986500846E+02  0.00000000000E+00 0.  1.
         11    1    1    2    0    0  0.31622849046E+00  0.32853123693E+02  0.11386639764E+03  0.11851153635E+03  0.00000000000E+00 0. -1.
</event>
<event>
 7    1  0.4394360E-006  0.1408588E+03  0.7561462E-02  0.1212178E+00
          1   -1    0    0  501    0  0.00000000000E+00  0.00000000000E+00  0.92848591804E+03  0.92848591804E+03  0.00000000000E+00 0. -1.
         -1   -1    0    0    0  501 -0.00000000000E+00 -0.00000000000E+00 -0.29034825245E+02  0.29034825245E+02  0.00000000000E+00 0.  1.
         23    2    1    2    0    0  0.77245646224E+02  0.73211400378E+02  0.31581822933E+03  0.35719908034E+03  0.12854271668E+03 0.  0.
          5    1    3    3  502    0 -0.15628173445E+02  0.50274703776E+02  0.43129709064E+02  0.68186727806E+02  0.41800000000E+01 0. -1.
         -5    1    3    3    0  502  0.92873819669E+02  0.22936696602E+02  0.27268852027E+03  0.28901235253E+03  0.41800000000E+01 0.  1.
        -11    1    1    2    0    0 -0.66551702600E+02 -0.79592126629E+01  0.19737901622E+03  0.20844892475E+03  0.00000000000E+00 0.  1.
         11    1    1    2    0    0 -0.10693943624E+02 -0.65252187715E+02  0.38625384724E+03  0.39187273820E+03  0.00000000000E+00 0. -1.
</event>
<event>
 7    1  0.4394360E-006  0.4636496E+02  0.7561462E-02  0.1465996E+00
          2   -1    0    0  501    0  0.00000000000E+00  0.00000000000E+00  0.44877426835E+03  0.44877426835E+03  0.00000000000E+00 0. -1.
         -2   -1    0    0    0  501 -0.00000000000E+00 -0.00000000000E+00 -0.28275219255E+02  0.28275219255E+02  0.00000000000E+00 0.  1.
         23    2    1    2    0    0 -0.18149650190E+02 -0.35076044114E+01  0.20942070241E+03  0.24463496977E+03  0.12509006654E+03 0.  0.
          5    1    3    3  502    0  0.22284988194E+01 -0.48985089970E+01  0.22078491608E+03  0.22089004768E+03  0.41800000000E+01 0. -1.
         -5    1    3    3    0  502 -0.20378149009E+02  0.13909045856E+01 -0.11364213670E+02  0.23744922087E+02  0.41800000000E+01 0. -1.
        -11    1    1    2    0    0 -0.17559895052E+02  0.19237104413E+02  0.10511979946E+02  0.28087680979E+02  0.00000000000E+00 0.  1.
         11    1    1    2    0    0  0.35709545241E+02 -0.15729500002E+02  0.20056636674E+03  0.20432683686E+03  0.00000000000E+00 0. -1.
</event>
<event>
 7    1  0.4394360E-006  0.8361605E+02  0.7561462E-02  0.1319092E+00
         -2   -1    0    0    0  501 -0.00000000000E+00  0.00000000000E+00  0.48235328446E+02  0.48235328446E+02  0.00000000000E+00 0.  1.
          2   -1    0    0  501    0  0.00000000000E+00 -0.00000000000E+00 -0.38061681903E+03  0.38061681903E+03  0.00000000000E+00 0. -1.
         23    2    1    2    0    0 -0.20182671475E+02 -0.41281229233E+02 -0.76246171524E+02  0.15353718257E+03  0.12509479463E+03 0.  0.
          5    1    3    3  502    0 -0.32249887896E+02 -0.52111862404E+02 -0.10419643262E+03  0.12095482811E+03  0.41800000000E+01 0. -1.
         -5    1    3    3    0  502  0.12067216422E+02  0.10830633171E+02  0.27950261092E+02  0.32582354460E+02  0.41800000000E+01 0. -1.
        -11    1    1    2    0    0  0.49532353258E+02  0.27178372174E+02 -0.21783955446E+03  0.22504708268E+03  0.00000000000E+00 0.  1.
         11    1    1    2    0    0 -0.29349681783E+02  0.14102857058E+02 -0.38295764603E+02  0.50267882236E+02  0.00000000000E+00 0. -1.
</event>
<event>
 7    1  0.4394360E-006  0.1325235E+03  0.7561462E-02  0.1223759E+00
          1   -1    0    0  501    0  0.00000000000E+00  0.00000000000E+00  0.44424304240E+03  0.44424304240E+03  0.00000000000E+00 0. -1.
         -1   -1    0    0    0  501 -0.00000000000E+00 -0.00000000000E+00 -0.48117996408E+02  0.48117996408E+02  0.00000000000E+00 0.  1.
         23    2    1    2    0    0 -0.66400397654E+01  0.90085946913E+02  0.14946761171E+03  0.21481903191E+03  0.12508829506E+03 0.  0.
          5    1    3    3  502    0  0.38358944863E+00  0.11668176094E+03  0.14574851475E+03  0.18674817918E+03  0.41800000000E+01 0.  1.
         -5    1    3    3    0  502 -0.70236292140E+01 -0.26595814024E+02  0.37190969648E+01  0.28070852733E+02  0.41800000000E+01 0.  1.
        -11    1    1    2    0    0  0.35556648848E+02 -0.83577145214E+02  0.14031216394E+03  0.16714340498E+03  0.00000000000E+00 0.  1.
         11    1    1    2    0    0 -0.28916609082E+02 -0.65088016987E+01  0.10634527034E+03  0.11039860191E+03  0.00000000000E+00 0. -1.
</event>
<event>
 6    1  0.4394360E-006  0.1429768E+03  0.7561462E-02  0.1209379E+00
          1   -1    0    0  501    0  0.00000000000E+00  0.00000000000E+00  0.84652947301E+03  0.84652947301E+03  0.00000000000E+00 0. -1.
         -1   -1    0    0    0  501 -0.00000000000E+00 -0.00000000000E+00 -0.27520865492E+02  0.27520865492E+02  0.00000000000E+00 0.  1.
          5    1    1    2  502    0  0.10517813497E+03  0.71776704604E+01  0.38669262406E+03  0.40082741540E+03  0.41800000000E+01 0. -1.
         -5    1    1    2    0  502 -0.87529414184E+02  0.25965325741E+02  0.16485625317E+03  0.18849576413E+03  0.41800000000E+01 0.  1.
        -11    1    1    2    0    0 -0.40903568837E+02  0.81071144940E+01  0.68366749062E+02  0.80080207457E+02  0.00000000000E+00 0.  1.
         11    1    1    2    0    0  0.23254848049E+02 -0.41250110696E+02  0.19909298123E+03  0.20464695152E+03  0.00000000000E+00 0. -1.
</event>
<event>
 7    1  0.4394360E-006  0.1100060E+03  0.7561462E-02  0.1260559E+00
          2   -1    0    0  501    0  0.00000000000E+00  0.00000000000E+00  0.14110362281E+03  0.14110362281E+03  0.00000000000E+00 0. -1.
         -2   -1    0    0    0  501 -0.00000000000E+00 -0.00000000000E+00 -0.11152688588E+03  0.11152688588E+03  0.00000000000E+00 0.  1.
         23    2    1    2    0    0  0.58638066360E+02 -0.18471513607E+02  0.12590545404E+02  0.13994804280E+03  0.12508922099E+03 0.  0.
          5    1    3    3  502    0 -0.18935439528E+02 -0.49004451000E+02 -0.96207804889E+01  0.53572557388E+02  0.41800000000E+01 0.  1.
         -5    1    3    3    0  502  0.77573505889E+02  0.30532937392E+02  0.22211325893E+02  0.86375485409E+02  0.41800000000E+01 0.  1.
        -11    1    1    2    0    0  0.53297974202E+01 -0.11891501952E+02  0.36894970432E+02  0.39128677494E+02  0.00000000000E+00 0. -1.
         11    1    1    2    0    0 -0.63967863781E+02  0.30363015560E+02 -0.19908778901E+02  0.73553788399E+02  0.00000000000E+00 0.  1.
</event>
<event>
 7    1  0.4394360E-006  0.2065213E+03  0.7561462E-02  0.1144351E+00
         -1   -1    0    0    0  501 -0.00000000000E+00  0.00000000000E+00  0.17588204956E+03  0.17588204956E+03  0.00000000000E+00 0.  1.
          1   -1    0    0  501    0  0.00000000000E+00 -0.00000000000E+00 -0.25456592684E+03  0.25456592684E+03  0.00000000000E+00 0. -1.
         23    2    1    2    0    0 -0.16058462171E+03 -0.84846717284E+02 -0.40565553269E+02  0.22423237700E+03  0.12509280003E+03 0.  0.
          5    1    3    3  502    0  0.47125941825E+01 -0.48369355299E+02 -0.23213297510E+02  0.54019743217E+02  0.41800000000E+01 0.  1.
         -5    1    3    3    0  502 -0.16529721589E+03 -0.36477361985E+02 -0.17352255760E+02  0.17021263378E+03  0.41800000000E+01 0.  1.
        -11    1    1    2    0    0  0.63674784804E+02  0.73689480348E+02 -0.47237175877E+02  0.10824032760E+03  0.00000000000E+00 0.  1.
         11    1    1    2    0    0  0.96909836905E+02  0.11157236935E+02  0.91188518684E+01  0.97975271801E+02  0.00000000000E+00 0. -1.
</event>
<event>
 7    1  0.4394360E-006  0.9182733E+02  0.7561462E-02  0.1298486E+00
          4   -1    0    0  501    0  0.00000000000E+00  0.00000000000E+00  0.21310616336E+03  0.21310616336E+03  0.00000000000E+00 0. -1.
         -4   -1    0    0    0  501 -0.00000000000E+00 -0.00000000000E+00 -0.13445123718E+03  0.13445123718E+03  0.00000000000E+00 0.  1.
         23    2    1    2    0    0 -0.29361114610E+02  0.19264442351E+02 -0.94367068182E+02  0.14947229318E+03  0.11047003703E+03 0.  0.
          5    1    3    3  502    0 -0.14729485743E+01  0.52598819882E+02 -0.89442536206E+01  0.53537626986E+02  0.41800000000E+01 0. -1.
         -5    1    3    3    0  502 -0.27888166036E+02 -0.33334377531E+02 -0.85422814561E+02  0.95934666194E+02  0.41800000000E+01 0.  1.
        -11    1    1    2    0    0  0.41453471814E+02 -0.43520792311E+02  0.73538156369E+02  0.94975313271E+02  0.00000000000E+00 0.  1.
         11    1    1    2    0    0 -0.12092357204E+02  0.24256349960E+02  0.99483837989E+02  0.10310979409E+03  0.00000000000E+00 0. -1.
</event>
<event>
 7    1  0.4394360E-006  0.6373313E+02  0.7561462E-02  0.1382801E+00
          1   -1    0    0  501    0  0.00000000000E+00  0.00000000000E+00  0.54532783915E+03  0.54532783915E+03  0.00000000000E+00 0. -1.
         -1   -1    0    0    0  501 -0.00000000000E+00 -0.00000000000E+00 -0.30512014664E+02  0.30512014664E+02  0.00000000000E+00 0.  1.
         23    2    1    2    0    0  0.31287759373E+02 -0.78366456941E+01  0.13392352122E+03  0.18607305318E+03  0.12508930683E+03 0.  0.
          5    1    3    3  502    0  0.22660468811E+02  0.10252994003E+02 -0.19130737677E+02  0.31655619672E+02  0.41800000000E+01 0.  1.
         -5    1    3    3    0  502  0.86272905613E+01 -0.18089639697E+02  0.15305425889E+03  0.15441743351E+03  0.41800000000E+01 0.  1.
        -11    1    1    2    0    0  0.79497046963E+01  0.33800347157E+02  0.19114892037E+03  0.19427704711E+03  0.00000000000E+00 0. -1.
         11    1    1    2    0    0 -0.39237464069E+02 -0.25963701463E+02  0.18974338290E+03  0.19548975353E+03  0.00000000000E+00 0.  1.
</event>
<event>
 7    1  0.4394360E-006  0.1094360E+03  0.7561462E-02  0.1261618E+00
          2   -1    0    0  501    0  0.00000000000E+00  0.00000000000E+00  0.15826805361E+03  0.15826805361E+03  0.00000000000E+00 0. -1.
         -2   -1    0    0    0  501 -0.00000000000E+00 -0.00000000000E+00 -0.10142977330E+03  0.10142977330E+03  0.00000000000E+00 0.  1.
         23    2    1    2    0    0 -0.24962469292E+02  0.58582771908E+02  0.15165963041E+02  0.14118237688E+03  0.12508953221E+03 0.  0.
          5    1    3    3  502    0 -0.51095024686E+02 -0.20597183484E+02  0.16586269629E+02  0.57684679555E+02  0.41800000000E+01 0.  1.
         -5    1    3    3    0  502  0.26132555394E+02  0.79179955392E+02 -0.14203065883E+01  0.83497697322E+02  0.41800000000E+01 0.  1.
        -11    1    1    2    0    0  0.20795846959E+02  0.60382077463E+00  0.54040591024E+02  0.57906971329E+02  0.00000000000E+00 0. -1.
         11    1    1    2    0    0  0.41666223334E+01 -0.59186592683E+02 -0.12368273759E+02  0.60608478704E+02  0.00000000000E+00 0.  1.
</event>
<event>
 6    1  0.4394360E-006  0.1140045E+03  0.7561462E-02  0.1253329E+00
         -4   -1    0    0    0  501 -0.00000000000E+00  0.00000000000E+00  0.30192819887E+02  0.30192819887E+02  0.00000000000E+00 0.  1.
          4   -1    0    0  501    0  0.00000000000E+00 -0.00000000000E+00 -0.60825681152E+03  0.60825681152E+03  0.00000000000E+00 0. -1.
          5    1    1    2  502    0  0.13296934553E+02  0.56049603710E+02 -0.21592638537E+03  0.22351743297E+03  0.41800000000E+01 0. -1.
         -5    1    1    2    0  502 -0.37340315460E+02 -0.81041665077E+02 -0.75811724855E+02  0.11716202739E+03  0.41800000000E+01 0.  1.
        -11    1    1    2    0    0  0.46233979206E+02  0.33567076909E+02 -0.18157403472E+03  0.19035088539E+03  0.00000000000E+00 0. -1.
         11    1    1    2    0    0 -0.22190598298E+02 -0.85750155422E+01 -0.10475184669E+03  0.10741928565E+03  0.00000000000E+00 0.  1.
</event>
<event>
 7    1  0.4394360E-006  0.8723750E+02  0.7561462E-02  0.1309683E+00
          2   -1    0    0  501    0  0.00000000000E+00  0.00000000000E+00  0.24041584783E+03  0.24041584783E+03  0.00000000000E+00 0. -1.
         -2   -1    0    0    0  501 -0.00000000000E+00 -0.00000000000E+00 -0.64707105140E+02  0.64707105140E+02  0.00000000000E+00 0.  1.
         23    2    1    2    0    0 -0.42805488272E+02  0.41302604162E+01  0.49677526839E+02  0.14129332862E+03  0.12508628687E+03 0.  0.
          5    1    3    3  502    0 -0.58090815211E+02  0.30999768206E+02  0.75881524300E+02  0.10055350104E+03  0.41800000000E+01 0. -1.
         -5    1    3    3    0  502  0.15285326939E+02 -0.26869507790E+02 -0.26203997461E+02  0.40739827582E+02  0.41800000000E+01 0. -1.
        -11    1    1    2    0    0  0.33361669100E+02 -0.33001717706E+02  0.12490803070E+03  0.13343211933E+03  0.00000000000E+00 0. -1.
         11    1    1    2    0    0  0.94438191720E+01  0.28871457289E+02  0.11231851539E+01  0.30397505020E+02  0.00000000000E+00 0.  1.
</event>
<event>
 7    1  0.4394360E-006  0.1508105E+03  0.7561462E-02  0.1199481E+00
          2   -1    0    0  501    0  0.00000000000E+00  0.00000000000E+00  0.18902989411E+03  0.18902989411E+03  0.00000000000E+00 0. -1.
         -2   -1    0    0    0  501 -0.00000000000E+00 -0.00000000000E+00 -0.17315711986E+03  0.17315711986E+03  0.00000000000E+00 0.  1.
         23    2    1    2    0    0 -0.11838307941E+03 -0.83042027369E+02  0.83374959721E+01  0.19138378469E+03  0.12509079663E+03 0.  0.
          5    1    3    3  502    0 -0.10610497043E+03 -0.43439234649E+02 -0.45396872417E+02  0.12338387368E+03  0.41800000000E+01 0. -1.
         -5    1    3    3    0  502 -0.12278108976E+02 -0.39602792720E+02  0.53734368389E+02  0.67999911010E+02  0.41800000000E+01 0. -1.
        -11    1    1    2    0    0  0.51631685798E+02  0.28214597440E+02  0.47505886756E+02  0.75622111604E+02  0.00000000000E+00 0. -1.
         11    1    1    2    0    0  0.66751393614E+02  0.54827429929E+02 -0.39970608478E+02  0.95181117687E+02  0.00000000000E+00 0.  1.
</event>
<event>
 7    1  0.4394360E-006  0.1176798E+03  0.7561462E-02  0.1246974E+00
         -2   -1    0    0    0  501 -0.00000000000E+00  0.00000000000E+00  0.39477970827E+02  0.39477970827E+02  0.00000000000E+00 0. -1.
          2   -1    0    0  501    0  0.00000000000E+00 -0.00000000000E+00 -0.57106787763E+03  0.57106787763E+03  0.00000000000E+00 0.  1.
         23    2    1    2    0    0  0.85639965208E+02  0.14334520618E+02 -0.17668051562E+03  0.23324795387E+03  0.12509564846E+03 0.  0.
          5    1    3    3  502    0  0.15991099105E+02  0.31883267485E+02 -0.15352040618E+03  0.15766497870E+03  0.41800000000E+01 0.  1.
         -5    1    3    3    0  502  0.69648866103E+02 -0.17548746867E+02 -0.23160109438E+02  0.75582975167E+02  0.41800000000E+01 0.  1.
        -11    1    1    2    0    0 -0.98762172969E+02  0.10593605305E+02 -0.28999525890E+03  0.30653456815E+03  0.00000000000E+00 0. -1.
         11    1    1    2    0    0  0.13122207762E+02 -0.24928125924E+02 -0.64914132282E+02  0.70763326438E+02  0.00000000000E+00 0.  1.
</event>
<event>
 7    1  0.4394360E-006  0.1769689E+03  0.7561462E-02  0.1170769E+00
          2   -1    0    0  501    0  0.00000000000E+00  0.00000000000E+00  0.80192389419E+03  0.80192389419E+03  0.00000000000E+00 0.  1.
         -2   -1    0    0    0  501 -0.00000000000E+00 -0.00000000000E+00 -0.46414107435E+02  0.46414107435E+02  0.00000000000E+00 0. -1.
         23    2    1    2    0    0 -0.11245743489E+03 -0.11127445191E+03  0.36964685474E+03  0.42108784781E+03  0.12508996780E+03 0.  0.
          5    1    3    3  502    0 -0.11816592865E+03 -0.83230107917E+02  0.36393290262E+03  0.39160575528E+03  0.41800000000E+01 0.  1.
         -5    1    3    3    0  502  0.57084937627E+01 -0.28044343998E+02  0.57139521206E+01  0.29482092533E+02  0.41800000000E+01 0.  1.
        -11    1    1    2    0    0  0.75967865717E+02  0.14963855816E+02  0.20476108946E+03  0.21891125452E+03  0.00000000000E+00 0.  1.
         11    1    1    2    0    0  0.36489569171E+02  0.96310596098E+02  0.18110184256E+03  0.20833889929E+03  0.00000000000E+00 0. -1.
</event>
<event>
 6    1  0.4394360E-006  0.1536776E+03  0.7561462E-02  0.1196026E+00
         -2   -1    0    0    0  501 -0.00000000000E+00  0.00000000000E+00  0.16013608837E+03  0.16013608837E+03  0.00000000000E+00 0.  1.
          2   -1    0    0  501    0  0.00000000000E+00 -0.00000000000E+00 -0.23134645268E+03  0.23134645268E+03  0.00000000000E+00 0. -1.
          5    1    1    2  502    0 -0.51326550412E+02  0.55765343366E+02 -0.10231931024E+03  0.12740055708E+03  0.41800000000E+01 0. -1.
         -5    1    1    2    0  502  0.84463117460E+02 -0.93964207208E+02  0.78032031844E+02  0.14855894736E+03  0.41800000000E+01 0.  1.
        -11    1    1    2    0    0  0.32233679520E+02  0.16092695468E+02 -0.21658720357E+02  0.42036711460E+02  0.00000000000E+00 0.  1.
         11    1    1    2    0    0 -0.65370246568E+02  0.22106168375E+02 -0.25264365561E+02  0.73486325149E+02  0.00000000000E+00 0. -1.
</event>
<event>
 7    1  0.4394360E-006  0.1509285E+03  0.7561462E-02  0.1199337E+00
         -1   -1    0    0    0  501 -0.00000000000E+00  0.00000000000E+00  0.14915031512E+03  0.14915031512E+03  0.00000000000E+00 0.  1.
          1   -1    0    0  501    0  0.00000000000E+00 -0.00000000000E+00 -0.16699783280E+03  0.16699783280E+03  0.00000000000E+00 0. -1.
         23    2    1    2    0    0 -0.94638507384E+02  0.59588713100E+02  0.17476154302E+02  0.16870091930E+03  0.12508925771E+03 0.  0.
          5    1    3    3  502    0  0.14931620412E+02 -0.24872076839E+02  0.49881700698E+01  0.29730922203E+02  0.41800000000E+01 0. -1.
         -5    1    3    3    0  502 -0.10957012780E+03  0.84460789939E+02  0.12487984232E+02  0.13896999709E+03  0.41800000000E+01 0. -1.
        -11    1    1    2    0    0  0.37040169774E+02 -0.66508547190E+02  0.57839418524E+01  0.76346676480E+02  0.00000000000E+00 0.  1.
         11    1    1    2    0    0  0.57598337610E+02  0.69198340899E+01 -0.41107613842E+02  0.71100552143E+02  0.00000000000E+00 0. -1.
</event>
<event>
 7    1  0.4394360E-006  0.1409760E+03  0.7561462E-02  0.1212022E+00
          1   -1    0    0  501    0  0.00000000000E+00  0.00000000000E+00  0.48565720686E+03  0.48565720686E+03  0.00000000000E+00 0. -1.
         -1   -1    0    0    0  501 -0.00000000000E+00 -0.00000000000E+00 -0.76741513475E+02  0.76741513475E+02  0.00000000000E+00 0.  1.
         23    2    1    2    0    0  0.52630492233E+02 -0.94348757101E+02  0.44223325810E+02  0.17109684684E+03  0.12508705678E+03 0.  0.
          5    1    3    3  502    0  0.70315587643E+02 -0.10864016171E+03  0.60407830877E+02  0.14287597780E+03  0.41800000000E+01 0. -1.
         -5    1    3    3    0  502 -0.17685095410E+02  0.14291404606E+02 -0.16184505067E+02  0.28220869043E+02  0.41800000000E+01 0. -1.
        -11    1    1    2    0    0 -0.67341633064E+02  0.53714429883E+02  0.30915668109E+03  0.32093299766E+03  0.00000000000E+00 0.  1.
         11    1    1    2    0    0  0.14711140830E+02  0.40634327219E+02  0.55535686483E+02  0.70368875835E+02  0.00000000000E+00 0. -1.
</event>
<event>
 7    1  0.4394360E-006  0.1095830E+03  0.7561462E-02  0.1261344E+00
          1   -1    0    0  501    0  0.00000000000E+00  0.00000000000E+00  0.60001796805E+02  0.60001796805E+02  0.00000000000E+00 0. -1.
         -1   -1    0    0    0  501 -0.00000000000E+00 -0.00000000000E+00 -0.32482676848E+03  0.32482676848E+03  0.00000000000E+00 0.  1.
         23    2    1    2    0    0  0.67177306674E+01 -0.78628375377E+02 -0.19732545581E+03  0.24660072372E+03  0.12508809739E+03 0.  0.
          5    1    3    3  502    0  0.14624363819E+02  0.12290639566E+02 -0.13405275891E+03  0.13547157048E+03  0.41800000000E+01 0. -1.
         -5    1    3    3    0  502 -0.79066331516E+01 -0.90919014943E+02 -0.63272696903E+02  0.11112915324E+03  0.41800000000E+01 0. -1.
        -11    1    1    2    0    0 -0.38141736594E+02  0.23507432276E+02 -0.59192792731E+02  0.74237309717E+02  0.00000000000E+00 0.  1.
         11    1    1    2    0    0  0.31424005927E+02  0.55120943101E+02 -0.83067231302E+01  0.63990531846E+02  0.00000000000E+00 0. -1.
</event>
<event>
 7    1  0.4394360E-006  0.1095993E+03  0.7561462E-02  0.1261314E+00
          3   -1    0    0  501    0  0.00000000000E+00  0.00000000000E+00  0.86490704896E+02  0.86490704896E+02  0.00000000000E+00 0. -1.
         -3   -1    0    0    0  501 -0.00000000000E+00 -0.00000000000E+00 -0.22442739775E+03  0.22442739775E+03  0.00000000000E+00 0.  1.
         23    2    1    2    0    0  0.21295456273E+02  0.72788472655E+02 -0.12522581330E+03  0.19256355340E+03  0.12509020573E+03 0.  0.
          5    1    3    3  502    0  0.68473946734E+02  0.65448555950E+02 -0.62246154530E+02  0.11342068158E+03  0.41800000000E+01 0. -1.
         -5    1    3    3    0  502 -0.47178490461E+02  0.73399167055E+01 -0.62979658774E+02  0.79142871812E+02  0.41800000000E+01 0. -1.
        -11    1    1    2    0    0 -0.13285948037E+02 -0.28442969897E+02  0.38803233193E+02  0.49912021178E+02  0.00000000000E+00 0. -1.
         11    1    1    2    0    0 -0.80095082356E+01 -0.44345502759E+02 -0.51514112746E+02  0.68442528074E+02  0.00000000000E+00 0.  1.
</event>
<event>
 7    1  0.4394360E-006  0.9541533E+02  0.7561462E-02  0.1290243E+00
         -1   -1    0    0    0  501 -0.00000000000E+00  0.00000000000E+00  0.67161264427E+02  0.67161264427E+02  0.00000000000E+00 0.  1.
          1   -1    0    0  501    0  0.00000000000E+00 -0.00000000000E+00 -0.21704838308E+03  0.21704838308E+03  0.00000000000E+00 0. -1.
         23    2    1    2    0    0 -0.39038593289E+02 -0.39279830646E+02 -0.79097129332E+02  0.15802242383E+03  0.12509122153E+03 0.  0.
          5    1    3    3  502    0 -0.52007037931E+02  0.16644968447E+02 -0.83975454545E+02  0.10025535564E+03  0.41800000000E+01 0. -1.
         -5    1    3    3    0  502  0.12968444642E+02 -0.55924799093E+02  0.48783252130E+01  0.57767068187E+02  0.41800000000E+01 0. -1.
        -11    1    1    2    0    0  0.24771601387E+02  0.53129598509E+02 -0.83914707697E+02  0.10236241811E+03  0.00000000000E+00 0. -1.
         11    1    1    2    0    0  0.14266991902E+02 -0.13849767863E+02  0.13124718379E+02  0.23824805567E+02  0.00000000000E+00 0.  1.
</event>
<event>
 6    1  0.4394360E-006  0.1538995E+03  0.7561462E-02  0.1195762E+00
         -2   -1    0    0    0  501 -0.00000000000E+00  0.00000000000E+00  0.11301740017E+03  0.11301740017E+03  0.00000000000E+00 0.  1.
          2   -1    0    0  501    0  0.00000000000E+00 -0.00000000000E+00 -0.27549773024E+03  0.27549773024E+03  0.00000000000E+00 0. -1.
          5    1    1    2  502    0  0.41722809034E+02 -0.53470480172E+02 -0.66418712650E+02  0.95020012806E+02  0.41800000000E+01 0. -1.
         -5    1    1    2    0  502 -0.10138435070E+03  0.78628043149E+02  0.22733706673E+02  0.13036659678E+03  0.41800000000E+01 0.  1.
        -11    1    1    2    0    0  0.50175050570E+02 -0.58350651251E+02 -0.76188926659E+02  0.10829167441E+03  0.00000000000E+00 0. -1.
         11    1    1    2    0    0  0.94864910951E+01  0.33193088273E+02 -0.42606397437E+02  0.54836846417E+02  0.00000000000E+00 0.  1.
</event>
<event>
 7    1  0.4394360E-006  0.1474817E+03  0.7561462E-02  0.1203602E+00
         -2   -1    0    0    0  501 -0.00000000000E+00  0.00000000000E+00  0.73665870817E+02  0.73665870817E+02  0.00000000000E+00 0.  1.
          2   -1    0    0  501    0  0.00000000000E+00 -0.00000000000E+00 -0.43977678762E+03  0.43977678762E+03  0.00000000000E+00 0. -1.
         23    2    1    2    0    0 -0.61904839564E+02  0.11506161102E+03 -0.85761416566E+02  0.19198803143E+03  0.11150336384E+03 0.  0.
          5    1    3    3  502    0  0.17535037221E+02  0.69531983784E+02 -0.67417628212E+02  0.98512858516E+02  0.41800000000E+01 0. -1.
         -5    1    3    3    0  502 -0.79439876785E+02  0.45529627237E+02 -0.18343788354E+02  0.93475172913E+02  0.41800000000E+01 0.  1.
        -11    1    1    2    0    0  0.15627777466E+02 -0.43813206358E+02 -0.19707396475E+03  0.20248943691E+03  0.00000000000E+00 0. -1.
         11    1    1    2    0    0  0.46277062098E+02 -0.71248404662E+02 -0.83275535489E+02  0.11896519009E+03  0.00000000000E+00 0.  1.
</event>
<event>
 7    1  0.4394360E-006  0.1125489E+03  0.7561462E-02  0.1255921E+00
         -2   -1    0    0    0  501 -0.00000000000E+00  0.00000000000E+00  0.92795952273E+03  0.92795952273E+03  0.00000000000E+00 0.  1.
          2   -1    0    0  501    0  0.00000000000E+00 -0.00000000000E+00 -0.14839775557E+02  0.14839775557E+02  0.00000000000E+00 0. -1.
         23    2    1    2    0    0 -0.23829430149E+02  0.24642605861E+02  0.64579219647E+03  0.65868903940E+03  0.12509432379E+03 0.  0.
          5    1    3    3  502    0 -0.63821305583E+02  0.50330556499E+02  0.37565260365E+03  0.38436789017E+03  0.41800000000E+01 0. -1.
         -5    1    3    3    0  502  0.39991875434E+02 -0.25687950638E+02  0.27013959282E+03  0.27432114923E+03  0.41800000000E+01 0. -1.
        -11    1    1    2    0    0 -0.34285584247E+02 -0.13358287534E+02  0.93597407452E+02  0.10057047188E+03  0.00000000000E+00 0.  1.
         11    1    1    2    0    0  0.58115014396E+02 -0.11284318327E+02  0.17373014325E+03  0.18353978700E+03  0.00000000000E+00 0. -1.
</event>
<event>
 7    1  0.4394360E-006  0.5999213E+02  0.7561462E-02  0.1397865E+00
         -2   -1    0    0    0  501 -0.00000000000E+00  0.00000000000E+00  0.10352318095E+03  0.10352318095E+03  0.00000000000E+00 0.  1.
          2   -1    0    0  501    0  0.00000000000E+00 -0.00000000000E+00 -0.15174323901E+03  0.15174323901E+03  0.00000000000E+00 0. -1.
         23    2    1    2    0    0  0.27813604642E+02  0.31683647584E+02  0.20971533080E+02  0.13365396687E+03  0.12508448159E+03 0.  0.
          5    1    3    3  502    0  0.28172792622E+02  0.22283101082E+02  0.72547439410E+02  0.81060756244E+02  0.41800000000E+01 0.  1.
         -5    1    3    3    0  502 -0.35918798014E+00  0.94005465022E+01 -0.51575906330E+02  0.52593210629E+02  0.41800000000E+01 0.  1.
        -11    1    1    2    0    0  0.30459712844E+01  0.16242510364E+02  0.13389212824E+02  0.21268946942E+02  0.00000000000E+00 0.  1.
         11    1    1    2    0    0 -0.30859575926E+02 -0.47926157949E+02 -0.82580803968E+02  0.10034350615E+03  0.00000000000E+00 0. -1.
</event>
<event>
 7    1  0.4394360E-006  0.1663329E+03  0.7561462E-02  0.1181727E+00
          1   -1    0    0  501    0  0.00000000000E+00  0.00000000000E+00  0.38390866628E+03  0.38390866628E+03  0.00000000000E+00 0. -1.
         -1   -1    0    0    0  501 -0.00000000000E+00 -0.00000000000E+00 -0.80054516307E+02  0.80054516307E+02  0.00000000000E+00 0.  1.
         23    2    1    2    0    0 -0.85499845549E+02  0.10449409833E+03  0.13076187951E+03  0.22577786963E+03  0.12509091536E+03 0.  0.
          5    1    3    3  502    0 -0.11313391520E+03  0.56498912621E+02  0.75045165617E+02  0.14710764487E+03  0.41800000000E+01 0.  1.
         -5    1    3    3    0  502  0.27634069650E+02  0.47995185713E+02  0.55716713896E+02  0.78670224764E+02  0.41800000000E+01 0.  1.
        -11    1    1    2    0    0  0.16885095064E+02 -0.73313320576E+02  0.39925876988E+02  0.85170564531E+02  0.00000000000E+00 0.  1.
         11    1    1    2    0    0  0.68614750485E+02 -0.31180777758E+02  0.13316639347E+03  0.15301474842E+03  0.00000000000E+00 0. -1.
</event>
<event>
 7    1  0.4394360E-006  0.1185200E+03  0.7561462E-02  0.1245559E+00
         -2   -1    0    0    0  501 -0.00000000000E+00  0.00000000000E+00  0.30122141721E+03  0.30122141721E+03  0.00000000000E+00 0.  1.
          2   -1    0    0  501    0  0.00000000000E+00 -0.00000000000E+00 -0.14076436477E+03  0.14076436477E+03  0.00000000000E+00 0. -1.
         23    2    1    2    0    0  0.55007666838E+02  0.46102777733E+02  0.25353948424E+03  0.29169003673E+03  0.12509795337E+03 0.  0.
          5    1    3    3  502    0  0.49164751476E+02  0.86872492478E+02  0.20384373648E+03  0.22701044918E+03  0.41800000000E+01 0.  1.
         -5    1    3    3    0  502  0.58429153627E+01 -0.40769714745E+02  0.49695747760E+02  0.64679587550E+02  0.41800000000E+01 0.  1.
        -11    1    1    2    0    0 -0.80495276876E+01 -0.48066211516E+02 -0.31676353685E+01  0.48838401892E+02  0.00000000000E+00 0.  1.
         11    1    1    2    0    0 -0.46958139151E+02  0.19634337831E+01 -0.89914796424E+02  0.10145734336E+03  0.00000000000E+00 0. -1.
</event>
<event>
 7    1  0.4394360E-006  0.5744155E+02  0.7561462E-02  0.1408893E+00
         -2   -1    0    0    0  501 -0.00000000000E+00  0.00000000000E+00  0.25762295626E+02  0.25762295626E+02  0.00000000000E+00 0.  1.
          2   -1    0    0  501    0  0.00000000000E+00 -0.00000000000E+00 -0.44860581370E+03  0.44860581370E+03  0.00000000000E+00 0. -1.
         23    2    1    2    0    0  0.12972861607E+02 -0.35274064447E+01 -0.23739728955E+03  0.26867426951E+03  0.12509057630E+03 0.  0.
          5    1    3    3  502    0  0.39034891398E+01 -0.15338868235E+02 -0.24887547152E+03  0.24941329321E+03  0.41800000000E+01 0.  1.
         -5    1    3    3    0  502  0.90693724667E+01  0.11811461790E+02  0.11478181975E+02  0.19260976300E+02  0.41800000000E+01 0.  1.
        -11    1    1    2    0    0 -0.23862283464E+02  0.39120491218E+02 -0.13787968274E+03  0.14529497004E+03  0.00000000000E+00 0. -1.
         11    1    1    2    0    0  0.10889421858E+02 -0.35593084773E+02 -0.47566545781E+02  0.60398869771E+02  0.00000000000E+00 0.  1.
</event>
<event>
 7    1  0.4394360E-006  0.8967954E+02  0.7561462E-02  0.1303630E+00
          2   -1    0    0  501    0  0.00000000000E+00  0.00000000000E+00  0.66828194695E+02  0.66828194695E+02  0.00000000000E+00 0. -1.
         -2   -1    0    0    0  501 -0.00000000000E+00 -0.00000000000E+00 -0.19365590104E+03  0.19365590104E+03  0.00000000000E+00 0.  1.
         23    2    1    2    0    0 -0.18610558680E+02 -0.28766499403E+02 -0.89332948979E+02  0.15748255950E+03  0.12508603596E+03 0.  0.
          5    1    3    3  502    0 -0.56372440820E+02 -0.54686502756E+02 -0.76534789975E+02  0.10974293665E+03  0.41800000000E+01 0. -1.
         -5    1    3    3    0  502  0.37761882139E+02  0.25920003353E+02 -0.12798159004E+02  0.47739622856E+02  0.41800000000E+01 0. -1.
        -11    1    1    2    0    0 -0.52585404641E+01  0.30342810344E+02 -0.61707671688E+02  0.68965028330E+02  0.00000000000E+00 0.  1.
         11    1    1    2    0    0  0.23869099145E+02 -0.15763109413E+01  0.24212914321E+02  0.34036507901E+02  0.00000000000E+00 0. -1.
</event>
<event>
 7    1  0.4394360E-006  0.5921965E+02  0.7561462E-02  0.1401136E+00
         -1   -1    0    0    0  501 -0.00000000000E+00  0.00000000000E+00  0.24191541657E+03  0.24191541657E+03  0.00000000000E+00 0.  1.
          1   -1    0    0  501    0  0.00000000000E+00 -0.00000000000E+00 -0.58436643744E+02  0.58436643744E+02  0.00000000000E+00 0. -1.
         23    2    1    2    0    0 -0.46567423843E+02  0.96534229652E+01  0.79400437191E+02  0.15560760682E+03  0.12509030472E+03 0.  0.
          5    1    3    3  502    0 -0.65592319039E+01  0.18019993743E+01 -0.34053927296E+02  0.34977322499E+02  0.41800000000E+01 0.  1.
         -5    1    3    3    0  502 -0.40008191939E+02  0.78514235909E+01  0.11345436449E+03  0.12063028432E+03  0.41800000000E+01 0.  1.
        -11    1    1    2    0    0  0.37751706122E+02  0.16995611982E+02  0.10868157753E+03  0.11630016095E+03  0.00000000000E+00 0.  1.
         11    1    1    2    0    0  0.88157177217E+01 -0.26649034947E+02 -0.46032418943E+01  0.28444292547E+02  0.00000000000E+00 0. -1.
</event>
<event>
 7    1  0.4394360E-006  0.1321215E+03  0.7561462E-02  0.1224341E+00
         -3   -1    0    0    0  501 -0.00000000000E+00  0.00000000000E+00  0.30839373794E+03  0.30839373794E+03  0.00000000000E+00 0.  1.
          3   -1    0    0  501    0  0.00000000000E+00 -0.00000000000E+00 -0.75492006444E+02  0.75492006444E+02  0.00000000000E+00 0. -1.
         23    2    1    2    0    0  0.72579692538E+02 -0.70438251161E+02  0.16939910294E+03  0.23360779394E+03  0.12508871379E+03 0.  0.
          5    1    3    3  502    0  0.10617045160E+03 -0.65243786408E+02  0.14666819205E+03  0.19250440882E+03  0.41800000000E+01 0.  1.
         -5    1    3    3    0  502 -0.33590759058E+02 -0.51944647537E+01  0.22730910891E+02  0.41103385118E+02  0.41800000000E+01 0.  1.
        -11    1    1    2    0    0 -0.39753142489E+02  0.18447417663E+02 -0.18679802932E+02  0.47639842504E+02  0.00000000000E+00 0. -1.
         11    1    1    2    0    0 -0.32826550049E+02  0.51990833498E+02  0.82182431488E+02  0.10263810794E+03  0.00000000000E+00 0.  1.
</event>
<event>
 7    1  0.4394360E-006  0.6575984E+02  0.7561462E-02  0.1375136E+00
          1   -1    0    0  501    0  0.00000000000E+00  0.00000000000E+00  0.19358380946E+03  0.19358380946E+03  0.00000000000E+00 0. -1.
         -1   -1    0    0    0  501 -0.00000000000E+00 -0.00000000000E+00 -0.93509198918E+02  0.93509198918E+02  0.00000000000E+00 0.  1.
         23    2    1    2    0    0 -0.14994520361E+02 -0.47657513556E+02 -0.92301895168E+01  0.13501406867E+03  0.12509007994E+03 0.  0.
          5    1    3    3  502    0 -0.38441883220E+02 -0.18581407868E+02  0.49363972109E+02  0.65401232757E+02  0.41800000000E+01 0. -1.
         -5    1    3    3    0  502  0.23447362858E+02 -0.29076105688E+02 -0.58594161625E+02  0.69612835911E+02  0.41800000000E+01 0. -1.
        -11    1    1    2    0    0  0.14130170958E+02  0.28066094286E+02  0.12377910239E+03  0.12770526053E+03  0.00000000000E+00 0. -1.
         11    1    1    2    0    0  0.86434940324E+00  0.19591419270E+02 -0.14474302327E+02  0.24373679180E+02  0.00000000000E+00 0.  1.
</event>
<event>
 7    1  0.4394360E-006  0.6985462E+02  0.7561462E-02  0.1360588E+00
         -1   -1    0    0    0  501 -0.00000000000E+00  0.00000000000E+00  0.35065695739E+03  0.35065695739E+03  0.00000000000E+00 0.  1.
          1   -1    0    0  501    0  0.00000000000E+00 -0.00000000000E+00 -0.54642077155E+02  0.54642077155E+02  0.00000000000E+00 0. -1.
         23    2    1    2    0    0 -0.30982420307E+02 -0.24494472952E+02  0.27374006417E+03  0.30354660250E+03  0.12508807931E+03 0.  0.
          5    1    3    3  502    0 -0.28451405028E+02 -0.32346534424E+02  0.16779837292E+02  0.46419996520E+02  0.41800000000E+01 0. -1.
         -5    1    3    3    0  502 -0.25310152782E+01  0.78520614720E+01  0.25696022688E+03  0.25712660598E+03  0.41800000000E+01 0. -1.
        -11    1    1    2    0    0  0.38097388748E+02 -0.19372165260E+02  0.35311280201E+02  0.55439862245E+02  0.00000000000E+00 0.  1.
         11    1    1    2    0    0 -0.71149684418E+01  0.43866638212E+02 -0.13036464135E+02  0.46312569796E+02  0.00000000000E+00 0. -1.
</event>
<event>
 7    1  0.4394360E-006  0.1218673E+03  0.7561462E-02  0.1240048E+00
          1   -1    0    0  501    0  0.00000000000E+00  0.00000000000E+00  0.10684528111E+02  0.10684528111E+02  0.00000000000E+00 0. -1.
         -1   -1    0    0    0  501 -0.00000000000E+00 -0.00000000000E+00 -0.14011593805E+04  0.14011593805E+04  0.00000000000E+00 0.  1.
         23    2    1    2    0    0 -0.38563730883E+02 -0.56558893158E+02 -0.79444243464E+03  0.80497729210E+03  0.11028866262E+03 0.  0.
          5    1    3    3  502    0 -0.76571468897E+02 -0.27175414151E+02 -0.47553666378E+03  0.48244614620E+03  0.41800000000E+01 0. -1.
         -5    1    3    3    0  502  0.38007738015E+02 -0.29383479006E+02 -0.31890577086E+03  0.32253114590E+03  0.41800000000E+01 0.  1.
        -11    1    1    2    0    0  0.49729223597E+02  0.76532960983E+02 -0.47909048960E+03  0.48770686588E+03  0.00000000000E+00 0.  1.
         11    1    1    2    0    0 -0.11165492714E+02 -0.19974067826E+02 -0.11694192818E+03  0.11915975067E+03  0.00000000000E+00 0. -1.
</event>
<event>
 7    1  0.4394360E-006  0.1558370E+03  0.7561462E-02  0.1193479E+00
         -2   -1    0    0    0  501 -0.00000000000E+00  0.00000000000E+00  0.41359946823E+03  0.41359946823E+03  0.00000000000E+00 0.  1.
          2   -1    0    0  501    0  0.00000000000E+00 -0.00000000000E+00 -0.69675105012E+02  0.69675105012E+02  0.00000000000E+00 0. -1.
         23    2    1    2    0    0 -0.83035479395E+02  0.99730226345E+02  0.16760132442E+03  0.24613533306E+03  0.12510551286E+03 0.  0.
          5    1    3    3  502    0 -0.77941043652E+02 -0.15325757478E+01  0.83791285698E+02  0.11452339077E+03  0.41800000000E+01 0. -1.
         -5    1    3    3    0  502 -0.50944357433E+01  0.10126280209E+03  0.83810038720E+02  0.13161194229E+03  0.41800000000E+01 0. -1.
        -11    1    1    2    0    0  0.28095507428E+02 -0.53071325497E+02  0.14795807541E+03  0.15967941385E+03  0.00000000000E+00 0.  1.
         11    1    1    2    0    0  0.54939971968E+02 -0.46658900849E+02  0.28364963392E+02  0.77459826339E+02  0.00000000000E+00 0. -1.
</event>
<event>
 7    1  0.4394360E-006  0.1516221E+03  0.7561462E-02  0.1198494E+00
         -1   -1    0    0    0  501 -0.00000000000E+00  0.00000000000E+00  0.18359070032E+03  0.18359070032E+03  0.00000000000E+00 0.  1.
          1   -1    0    0  501    0  0.00000000000E+00 -0.00000000000E+00 -0.15209819781E+03  0.15209819781E+03  0.00000000000E+00 0. -1.
         23    2    1    2    0    0  0.10234382750E+03 -0.74472164588E+02  0.25272065477E+02  0.17973833334E+03  0.12508728493E+03 0.  0.
          5    1    3    3  502    0 -0.22570682001E+02 -0.24789579704E+02  0.29965612134E+02  0.45159376197E+02  0.41800000000E+01 0. -1.
         -5    1    3    3    0  502  0.12491450950E+03 -0.49682584884E+02 -0.46935466573E+01  0.13457895714E+03  0.41800000000E+01 0. -1.
        -11    1    1    2    0    0 -0.10422188537E+03  0.59777857418E+02  0.33654271141E+02  0.12477260754E+03  0.00000000000E+00 0.  1.
         11    1    1    2    0    0  0.18780578715E+01  0.14694307171E+02 -0.27433834110E+02  0.31177957254E+02  0.00000000000E+00 0. -1.
</event>
<event>
 7    1  0.4394360E-006  0.1096023E+03  0.7561462E-02  0.1261308E+00
          1   -1    0    0  501    0  0.00000000000E+00  0.00000000000E+00  0.23824035327E+03  0.23824035327E+03  0.00000000000E+00 0. -1.
         -1   -1    0    0    0  501 -0.00000000000E+00 -0.00000000000E+00 -0.11165995603E+03  0.11165995603E+03  0.00000000000E+00 0.  1.
         23    2    1    2    0    0  0.48279004399E+02  0.71809175905E+02 -0.22064801857E+02  0.15369559171E+03  0.12509220367E+03 0.  0.
          5    1    3    3  502    0  0.47609859291E+02  0.21720337365E+02  0.45508142205E+02  0.69476148166E+02  0.41800000000E+01 0.  1.
         -5    1    3    3    0  502  0.66914510794E+00  0.50088838540E+02 -0.67572944062E+02  0.84219443543E+02  0.41800000000E+01 0.  1.
        -11    1    1    2    0    0 -0.39551894148E+02  0.43429192076E+01  0.93985751767E+02  0.10206142667E+03  0.00000000000E+00 0. -1.
         11    1    1    2    0    0 -0.87271102507E+01 -0.76152095113E+02  0.54659447335E+02  0.94143290926E+02  0.00000000000E+00 0.  1.
</event>
<event>
 7    1  0.4394360E-006  0.1092998E+03  0.7561462E-02  0.1261872E+00
         -2   -1    0    0    0  501 -0.00000000000E+00  0.00000000000E+00  0.62205057545E+03  0.62205057545E+03  0.00000000000E+00 0.  1.
          2   -1    0    0  501    0  0.00000000000E+00 -0.00000000000E+00 -0.19751330376E+02  0.19751330376E+02  0.00000000000E+00 0. -1.
         23    2    1    2    0    0  0.61382445949E+01  0.21900195288E+02  0.35096910372E+03  0.37328773115E+03  0.12508845613E+03 0.  0.
          5    1    3    3  502    0 -0.58209609216E+02  0.22765861243E+02  0.17093352649E+03  0.18205050376E+03  0.41800000000E+01 0. -1.
         -5    1    3    3    0  502  0.64347853811E+02 -0.86566595503E+00  0.18003557724E+03  0.19123722739E+03  0.41800000000E+01 0. -1.
        -11    1    1    2    0    0 -0.46646900606E+02 -0.20450798836E+02  0.17265524448E+03  0.18001111620E+03  0.00000000000E+00 0. -1.
         11    1    1    2    0    0  0.40508656011E+02 -0.14493964517E+01  0.78674896871E+02  0.88503058475E+02  0.00000000000E+00 0.  1.
</event>
<event>
 7    1  0.4394360E-006  0.1729392E+03  0.7561462E-02  0.1174817E+00
         -4   -1    0    0    0  501 -0.00000000000E+00  0.00000000000E+00  0.65627588768E+02  0.65627588768E+02  0.00000000000E+00 0. -1.
          4   -1    0    0  501    0  0.00000000000E+00 -0.00000000000E+00 -0.49968671883E+03  0.49968671883E+03  0.00000000000E+00 0.  1.
         23    2    1    2    0    0  0.90657069404E+02  0.10709536625E+03 -0.17457258867E+03  0.25653716923E+03  0.12509040241E+03 0.  0.
          5    1    3    3  502    0 -0.26595268372E+02  0.48769732791E+02 -0.39034066875E+02  0.68021510664E+02  0.41800000000E+01 0.  1.
         -5    1    3    3    0  502  0.11725233778E+03  0.58325633456E+02 -0.13553852180E+03  0.18851565856E+03  0.41800000000E+01 0.  1.
        -11    1    1    2    0    0 -0.54419562059E+02 -0.97640894733E+01 -0.13965959783E+03  0.15020529100E+03  0.00000000000E+00 0.  1.
         11    1    1    2    0    0 -0.36237507345E+02 -0.97331276774E+02 -0.11982694356E+03  0.15857184738E+03  0.00000000000E+00 0. -1.
</event>
<event>
 7    1  0.4394360E-006  0.1111914E+03  0.7561462E-02  0.1258379E+00
         -2   -1    0    0    0  501 -0.00000000000E+00  0.00000000000E+00  0.43665519656E+02  0.43665519656E+02  0.00000000000E+00 0. -1.
          2   -1    0    0  501    0  0.00000000000E+00 -0.00000000000E+00 -0.33481518227E+03  0.33481518227E+03  0.00000000000E+00 0.  1.
         23    2    1    2    0    0 -0.61569986943E+01 -0.49780536667E+02 -0.12908905808E+03  0.18662174158E+03  0.12509068332E+03 0.  0.
          5    1    3    3  502    0 -0.43383633469E+02  0.25411666629E+02 -0.54679323456E+02  0.74398879477E+02  0.41800000000E+01 0.  1.
         -5    1    3    3    0  502  0.37226634775E+02 -0.75192203296E+02 -0.74409734620E+02  0.11222286211E+03  0.41800000000E+01 0.  1.
        -11    1    1    2    0    0 -0.23496545946E+02  0.53118619825E+02 -0.52454621852E+02  0.78263419278E+02  0.00000000000E+00 0. -1.
         11    1    1    2    0    0  0.29653544640E+02 -0.33380831586E+01 -0.10960598268E+03  0.11359554106E+03  0.00000000000E+00 0.  1.
</event>
<event>
 7    1  0.4394360E-006  0.3672392E+03  0.7561462E-02  0.1055754E+00
         -1   -1    0    0    0  501 -0.00000000000E+00  0.00000000000E+00  0.16578157062E+04  0.16578157062E+04  0.00000000000E+00 0.  1.
          1   -1    0    0  501    0  0.00000000000E+00 -0.00000000000E+00 -0.11967536674E+03  0.11967536674E+03  0.00000000000E+00 0. -1.
         23    2    1    2    0    0  0.32280206088E+03  0.14516361538E+03  0.12693383337E+04  0.13236841968E+04  0.12508557761E+03 0.  0.
          5    1    3    3  502    0  0.30266023979E+03  0.97077309313E+02  0.11551375414E+04  0.11980765571E+04  0.41800000000E+01 0. -1.
         -5    1    3    3    0  502  0.20141821087E+02  0.48086306065E+02  0.11420079227E+03  0.12560763967E+03  0.41800000000E+01 0. -1.
        -11    1    1    2    0    0 -0.21130799875E+03 -0.48648168451E+02  0.17879038235E+03  0.28104041605E+03  0.00000000000E+00 0.  1.
         11    1    1    2    0    0 -0.11149406212E+03 -0.96515446927E+02  0.90011623419E+02  0.17276646010E+03  0.00000000000E+00 0. -1.
</event>
<event>
 7    1  0.4394360E-006  0.8322690E+02  0.7561462E-02  0.1320136E+00
          1   -1    0    0  501    0  0.00000000000E+00  0.00000000000E+00  0.29606521495E+03  0.29606521495E+03  0.00000000000E+00 0. -1.
         -1   -1    0    0    0  501 -0.00000000000E+00 -0.00000000000E+00 -0.48088316681E+02  0.48088316681E+02  0.00000000000E+00 0.  1.
         23    2    1    2    0    0  0.31920811668E+02 -0.34778186596E+02  0.11730043414E+03  0.17788244564E+03  0.12511719362E+03 0.  0.
          5    1    3    3  502    0  0.92293817167E+01  0.20152179498E+02  0.11612087250E+03  0.11829125604E+03  0.41800000000E+01 0.  1.
         -5    1    3    3    0  502  0.22691429952E+02 -0.54930366094E+02  0.11795616333E+01  0.59591189601E+02  0.41800000000E+01 0.  1.
        -11    1    1    2    0    0 -0.46292919705E+02 -0.42462358691E+00  0.22237151916E+02  0.51358598553E+02  0.00000000000E+00 0.  1.
         11    1    1    2    0    0  0.14372108036E+02  0.35202810183E+02  0.10843931222E+03  0.11491248744E+03  0.00000000000E+00 0. -1.
</event>
<event>
 7    1  0.4394360E-006  0.9782280E+02  0.7561462E-02  0.1284942E+00
          3   -1    0    0  501    0  0.00000000000E+00  0.00000000000E+00  0.52369213640E+02  0.52369213640E+02  0.00000000000E+00 0. -1.
         -3   -1    0    0    0  501 -0.00000000000E+00 -0.00000000000E+00 -0.28595409839E+03  0.28595409839E+03  0.00000000000E+00 0.  1.
         23    2    1    2    0    0 -0.13920883820E+02 -0.49339162044E+02 -0.18670015154E+03  0.23050645641E+03  0.12509250954E+03 0.  0.
          5    1    3    3  502    0  0.54727501222E+02 -0.32977702340E+02 -0.98282405177E+02  0.11730103072E+03  0.41800000000E+01 0.  1.
         -5    1    3    3    0  502 -0.68648385042E+02 -0.16361459703E+02 -0.88417746363E+02  0.11320542568E+03  0.41800000000E+01 0.  1.
        -11    1    1    2    0    0 -0.10598265080E+02  0.20401400970E+02 -0.62655437851E+02  0.66740124937E+02  0.00000000000E+00 0.  1.
         11    1    1    2    0    0  0.24519148900E+02  0.28937761073E+02  0.15770704642E+02  0.41076730684E+02  0.00000000000E+00 0. -1.
</event>
<event>
 7    1  0.4394360E-006  0.1290845E+03  0.7561462E-02  0.1228820E+00
         -2   -1    0    0    0  501 -0.00000000000E+00  0.00000000000E+00  0.18152432361E+02  0.18152432361E+02  0.00000000000E+00 0.  1.
          2   -1    0    0  501    0  0.00000000000E+00 -0.00000000000E+00 -0.13679054536E+04  0.13679054536E+04  0.00000000000E+00 0. -1.
         23    2    1    2    0    0 -0.11477781867E+03  0.11467138531E+02 -0.80602009439E+03  0.82378470663E+03  0.12508959743E+03 0.  0.
          5    1    3    3  502    0 -0.26474153987E+02  0.29612547021E+02 -0.56521644570E+03  0.56662587892E+03  0.41800000000E+01 0. -1.
         -5    1    3    3    0  502 -0.88303664682E+02 -0.18145408490E+02 -0.24080364869E+03  0.25715882771E+03  0.41800000000E+01 0. -1.
        -11    1    1    2    0    0  0.89682627235E+02  0.15647285962E+02 -0.48041653822E+03  0.48896611476E+03  0.00000000000E+00 0.  1.
         11    1    1    2    0    0  0.25095191434E+02 -0.27114424493E+02 -0.63316388671E+02  0.73307064619E+02  0.00000000000E+00 0. -1.
</event>
<event>
 7    1  0.4394360E-006  0.8732358E+02  0.7561462E-02  0.1309466E+00
          3   -1    0    0  501    0  0.00000000000E+00  0.00000000000E+00  0.27539667702E+02  0.27539667702E+02  0.00000000000E+00 0. -1.
         -3   -1    0    0    0  501 -0.00000000000E+00 -0.00000000000E+00 -0.59066991365E+03  0.59066991365E+03  0.00000000000E+00 0.  1.
         23    2    1    2    0    0 -0.34168177305E+02  0.55807583239E+02 -0.34902295354E+03  0.37649280079E+03  0.12509139166E+03 0.  0.
          5    1    3    3  502    0 -0.23847348558E+02  0.15428014312E+02 -0.40579875819E+01  0.28994125648E+02  0.41800000000E+01 0.  1.
         -5    1    3    3    0  502 -0.10320828748E+02  0.40379568927E+02 -0.34496496595E+03  0.34749867515E+03  0.41800000000E+01 0.  1.
        -11    1    1    2    0    0  0.56074781375E+02 -0.15503052755E+02 -0.73042529582E+02  0.93380602262E+02  0.00000000000E+00 0.  1.
         11    1    1    2    0    0 -0.21906604070E+02 -0.40304530484E+02 -0.14106476282E+03  0.14833617829E+03  0.00000000000E+00 0. -1.
</event>
<event>
 7    1  0.4394360E-006  0.1100887E+03  0.7561462E-02  0.1260406E+00
          1   -1    0    0  501    0  0.00000000000E+00  0.00000000000E+00  0.56706293176E+02  0.56706293176E+02  0.00000000000E+00 0. -1.
         -1   -1    0    0    0  501 -0.00000000000E+00 -0.00000000000E+00 -0.25521112170E+03  0.25521112170E+03  0.00000000000E+00 0.  1.
         23    2    1    2    0    0 -0.26486070648E+02 -0.17190243189E+01 -0.16978366467E+03  0.21131349429E+03  0.12297330237E+03 0.  0.
          5    1    3    3  502    0  0.16356145021E+02 -0.53853605443E+02 -0.94994163679E+02  0.11049478645E+03  0.41800000000E+01 0. -1.
         -5    1    3    3    0  502 -0.42842215669E+02  0.52134581124E+02 -0.74789500992E+02  0.10081870784E+03  0.41800000000E+01 0.  1.
        -11    1    1    2    0    0  0.59462053177E+02 -0.11571371846E+02 -0.21815903362E+02  0.64386070341E+02  0.00000000000E+00 0.  1.
         11    1    1    2    0    0 -0.32975982529E+02  0.13290396165E+02 -0.69052604910E+01  0.36217850245E+02  0.00000000000E+00 0. -1.
</event>
<event>
 7    1  0.4394360E-006  0.2579438E+03  0.7561462E-02  0.1108385E+00
          2   -1    0    0  501    0  0.00000000000E+00  0.00000000000E+00  0.12545193947E+04  0.12545193947E+04  0.00000000000E+00 0. -1.
         -2   -1    0    0    0  501 -0.00000000000E+00 -0.00000000000E+00 -0.85493379578E+02  0.85493379578E+02  0.00000000000E+00 0.  1.
         23    2    1    2    0    0 -0.23804086661E+03  0.24042755581E+02  0.19531593863E+03  0.33322196410E+03  0.12508818172E+03 0.  0.
          5    1    3    3  502    0 -0.24881213153E+03  0.14866184083E+02  0.16342546502E+03  0.29808360445E+03  0.41800000000E+01 0.  1.
         -5    1    3    3    0  502  0.10771264914E+02  0.91765714982E+01  0.31890473609E+02  0.35138359656E+02  0.41800000000E+01 0.  1.
        -11    1    1    2    0    0  0.85400507380E+02  0.29088972961E+02  0.26684193453E+03  0.28168072890E+03  0.00000000000E+00 0.  1.
         11    1    1    2    0    0  0.15264035923E+03 -0.53131728542E+02  0.70686814194E+03  0.72511008125E+03  0.00000000000E+00 0. -1.
</event>
<event>
 7    1  0.4394360E-006  0.1262512E+03  0.7561462E-02  0.1233127E+00
         -1   -1    0    0    0  501 -0.00000000000E+00  0.00000000000E+00  0.54007622069E+02  0.54007622069E+02  0.00000000000E+00 0.  1.
          1   -1    0    0  501    0  0.00000000000E+00 -0.00000000000E+00 -0.42694806902E+03  0.42694806902E+03  0.00000000000E+00 0. -1.
         23    2    1    2    0    0  0.86480321171E+02  0.48279205120E+02 -0.14524569817E+03  0.21576284847E+03  0.12509023282E+03 0.  0.
          5    1    3    3  502    0  0.95257154618E+02  0.38689898197E+02 -0.41226073999E+02  0.11085077945E+03  0.41800000000E+01 0.  1.
         -5    1    3    3    0  502 -0.87768334463E+01  0.95893069231E+01 -0.10401962417E+03  0.10491206901E+03  0.41800000000E+01 0.  1.
        -11    1    1    2    0    0 -0.87359257344E+02  0.30086906881E+00 -0.14562775413E+03  0.16982100324E+03  0.00000000000E+00 0.  1.
         11    1    1    2    0    0  0.87893617279E+00 -0.48580074189E+02 -0.82066994650E+02  0.95371839385E+02  0.00000000000E+00 0. -1.
</event>
<event>
 7    1  0.4394360E-006  0.1337908E+03  0.7561462E-02  0.1221937E+00
          2   -1    0    0  501    0  0.00000000000E+00  0.00000000000E+00  0.27075335783E+03  0.27075335783E+03  0.00000000000E+00 0.  1.
         -2   -1    0    0    0  501 -0.00000000000E+00 -0.00000000000E+00 -0.93923795852E+02  0.93923795852E+02  0.00000000000E+00 0. -1.
         23    2    1    2    0    0 -0.76264881203E+01  0.84109445750E+02  0.32729140042E+01  0.15096446361E+03  0.12508794954E+03 0.  0.
          5    1    3    3  502    0 -0.28994005518E+02  0.11131081899E+03 -0.47946505870E+01  0.11520074590E+03  0.41800000000E+01 0.  1.
         -5    1    3    3    0  502  0.21367517397E+02 -0.27201373243E+02  0.80675645912E+01  0.35763717710E+02  0.41800000000E+01 0.  1.
        -11    1    1    2    0    0  0.42709945843E+02 -0.26733396032E+02  0.40575244662E+02  0.64692846719E+02  0.00000000000E+00 0. -1.
         11    1    1    2    0    0 -0.35083457722E+02 -0.57376049718E+02  0.13298140331E+03  0.14901984336E+03  0.00000000000E+00 0.  1.
</event>
<event>
 7    1  0.4394360E-006  0.1149283E+03  0.7561462E-02  0.1251706E+00
         -2   -1    0    0    0  501 -0.00000000000E+00  0.00000000000E+00  0.14623112020E+02  0.14623112020E+02  0.00000000000E+00 0.  1.
          2   -1    0    0  501    0  0.00000000000E+00 -0.00000000000E+00 -0.96568435787E+03  0.96568435787E+03  0.00000000000E+00 0. -1.
         23    2    1    2    0    0  0.34354255652E+02 -0.20707436824E+02 -0.59989927053E+03  0.61411398723E+03  0.12509133345E+03 0.  0.
          5    1    3    3  502    0 -0.40971201560E+02  0.17166317288E+02 -0.15579664121E+03  0.16205982728E+03  0.41800000000E+01 0. -1.
         -5    1    3    3    0  502  0.75325457212E+02 -0.37873754112E+02 -0.44410262932E+03  0.45205415994E+03  0.41800000000E+01 0. -1.
        -11    1    1    2    0    0 -0.43796700657E+02 -0.27490492465E+02 -0.22364452252E+03  0.22954465931E+03  0.00000000000E+00 0. -1.
         11    1    1    2    0    0  0.94424450053E+01  0.48197929288E+02 -0.12751745280E+03  0.13664882336E+03  0.00000000000E+00 0.  1.
</event>
<event>
 7    1  0.4394360E-006  0.1222932E+03  0.7561462E-02  0.1239361E+00
         -1   -1    0    0    0  501 -0.00000000000E+00  0.00000000000E+00  0.52795795022E+02  0.52795795022E+02  0.00000000000E+00 0.  1.
          1   -1    0    0  501    0  0.00000000000E+00 -0.00000000000E+00 -0.32077801014E+03  0.32077801014E+03  0.00000000000E+00 0. -1.
         23    2    1    2    0    0  0.20909113696E+02 -0.37515338620E+02 -0.12626440654E+03  0.18285565028E+03  0.12509555073E+03 0.  0.
          5    1    3    3  502    0 -0.54193539276E+01  0.39632926559E+02 -0.78706358830E+02  0.88387225236E+02  0.41800000000E+01 0.  1.
         -5    1    3    3    0  502  0.26328467624E+02 -0.77148265180E+02 -0.47558047709E+02  0.94468425040E+02  0.41800000000E+01 0.  1.
        -11    1    1    2    0    0  0.46490844748E+02  0.29031565252E+02 -0.37855149516E+02  0.66612632219E+02  0.00000000000E+00 0.  1.
         11    1    1    2    0    0 -0.67399958444E+02  0.84837733688E+01 -0.10386265906E+03  0.12410552267E+03  0.00000000000E+00 0. -1.
</event>
<event>
 6    1  0.4394360E-006  0.2031822E+03  0.7561462E-02  0.1147082E+00
          2   -1    0    0  501    0  0.00000000000E+00  0.00000000000E+00  0.17975387109E+04  0.17975387109E+04  0.00000000000E+00 0. -1.
         -2   -1    0    0    0  501 -0.00000000000E+00 -0.00000000000E+00 -0.36695728343E+02  0.36695728343E+02  0.00000000000E+00 0.  1.
          5    1    1    2  502    0  0.10500826818E+03 -0.10512113726E+03  0.84619069615E+03  0.85914687716E+03  0.41800000000E+01 0. -1.
         -5    1    1    2    0  502  0.25359642210E+02 -0.45402899562E+02  0.23137502688E+02  0.57073208884E+02  0.41800000000E+01 0.  1.
        -11    1    1    2    0    0 -0.75986167160E+02  0.12305046561E+03  0.75193442999E+03  0.76571581001E+03  0.00000000000E+00 0.  1.
         11    1    1    2    0    0 -0.54381743234E+02  0.27473571203E+02  0.13958035375E+03  0.15229854321E+03  0.00000000000E+00 0. -1.
</event>
<event>
 7    1  0.4394360E-006  0.1616376E+03  0.7561462E-02  0.1186860E+00
          1   -1    0    0  501    0  0.00000000000E+00  0.00000000000E+00  0.46122809818E+02  0.46122809818E+02  0.00000000000E+00 0. -1.
         -1   -1    0    0    0  501 -0.00000000000E+00 -0.00000000000E+00 -0.70144985280E+03  0.70144985280E+03  0.00000000000E+00 0.  1.
         23    2    1    2    0    0 -0.62939663207E+02  0.12871969473E+03 -0.34514772730E+03  0.39408607121E+03  0.12508683721E+03 0.  0.
          5    1    3    3  502    0 -0.11283156401E+02 -0.11510542599E+02  0.13559748849E+01  0.16706683608E+02  0.41800000000E+01 0. -1.
         -5    1    3    3    0  502 -0.51656506806E+02  0.14023023733E+03 -0.34650370218E+03  0.37737938760E+03  0.41800000000E+01 0. -1.
        -11    1    1    2    0    0  0.27235542913E+02 -0.41650597182E+01 -0.12160856353E+03  0.12469067826E+03  0.00000000000E+00 0.  1.
         11    1    1    2    0    0  0.35704120294E+02 -0.12455463501E+03 -0.18857075215E+03  0.22879591315E+03  0.00000000000E+00 0. -1.
</event>
<event>
 7    1  0.4394360E-006  0.2382595E+03  0.7561462E-02  0.1120958E+00
         -3   -1    0    0    0  501 -0.00000000000E+00  0.00000000000E+00  0.19274620612E+03  0.19274620612E+03  0.00000000000E+00 0.  1.
          3   -1    0    0  501    0  0.00000000000E+00 -0.00000000000E+00 -0.43534647596E+03  0.43534647596E+03  0.00000000000E+00 0. -1.
         23    2    1    2    0    0  0.14928286721E+02  0.21274909201E+03  0.52451509431E+02  0.25275042690E+03  0.12508632043E+03 0.  0.
          5    1    3    3  502    0  0.45100363950E+02  0.17496231849E+02  0.10785131329E+01  0.48567443292E+02  0.41800000000E+01 0. -1.
         -5    1    3    3    0  502 -0.30172077229E+02  0.19525286016E+03  0.51372996298E+02  0.20418298361E+03  0.41800000000E+01 0. -1.
        -11    1    1    2    0    0  0.25113608598E+02 -0.16482719780E+02 -0.24825008772E+02  0.38969917227E+02  0.00000000000E+00 0.  1.
         11    1    1    2    0    0 -0.40041895318E+02 -0.19626637223E+03 -0.27022677049E+03  0.33637233795E+03  0.00000000000E+00 0. -1.
</event>
<event>
 7    1  0.4394360E-006  0.9590169E+02  0.7561462E-02  0.1289158E+00
          3   -1    0    0  501    0  0.00000000000E+00  0.00000000000E+00  0.56478018682E+02  0.56478018682E+02  0.00000000000E+00 0. -1.
         -3   -1    0    0    0  501 -0.00000000000E+00 -0.00000000000E+00 -0.25832963049E+03  0.25832963049E+03  0.00000000000E+00 0.  1.
         23    2    1    2    0    0  0.44576832840E+02 -0.20826220399E+02 -0.97089756113E+02  0.16581203033E+03  0.12508550347E+03 0.  0.
          5    1    3    3  502    0  0.33772264708E+02  0.50153679855E+02 -0.30725577804E+02  0.67952122836E+02  0.41800000000E+01 0.  1.
         -5    1    3    3    0  502  0.10804568132E+02 -0.70979900255E+02 -0.66364178309E+02  0.97859907497E+02  0.41800000000E+01 0.  1.
        -11    1    1    2    0    0 -0.34301686751E+02  0.29947967932E+02 -0.12007661387E+03  0.12842071366E+03  0.00000000000E+00 0.  1.
         11    1    1    2    0    0 -0.10275146090E+02 -0.91217475327E+01  0.15314758178E+02  0.20574905182E+02  0.00000000000E+00 0. -1.
</event>
<event>
 7    1  0.4394360E-006  0.2024739E+03  0.7561462E-02  0.1147668E+00
          2   -1    0    0  501    0  0.00000000000E+00  0.00000000000E+00  0.73629763649E+03  0.73629763649E+03  0.00000000000E+00 0. -1.
         -2   -1    0    0    0  501 -0.00000000000E+00 -0.00000000000E+00 -0.62571346111E+02  0.62571346111E+02  0.00000000000E+00 0.  1.
         23    2    1    2    0    0 -0.10487398027E+03 -0.13906816241E+03  0.23328194759E+03  0.31686602552E+03  0.12508039625E+03 0.  0.
          5    1    3    3  502    0  0.90185938401E+01 -0.86895444532E+02  0.76988492193E+02  0.11651975646E+03  0.41800000000E+01 0.  1.
         -5    1    3    3    0  502 -0.11389257411E+03 -0.52172717877E+02  0.15629345539E+03  0.20034626906E+03  0.41800000000E+01 0.  1.
        -11    1    1    2    0    0  0.24308268320E+02  0.99420976934E+02  0.18784318737E+03  0.21391700635E+03  0.00000000000E+00 0.  1.
         11    1    1    2    0    0  0.80565711954E+02  0.39647185474E+02  0.25260115542E+03  0.26808595073E+03  0.00000000000E+00 0. -1.
</event>
<event>
 7    1  0.4394360E-006  0.9400197E+02  0.7561462E-02  0.1293440E+00
          2   -1    0    0  501    0  0.00000000000E+00  0.00000000000E+00  0.56189782546E+03  0.56189782546E+03  0.00000000000E+00 0. -1.
         -2   -1    0    0    0  501 -0.00000000000E+00 -0.00000000000E+00 -0.23572075016E+02  0.23572075016E+02  0.00000000000E+00 0.  1.
         23    2    1    2    0    0 -0.16775879957E+02 -0.23102218591E+02  0.30597168396E+03  0.33178531551E+03  0.12509069331E+03 0.  0.
          5    1    3    3  502    0 -0.36825181642E+02  0.28466646444E+02  0.44636517921E+02  0.64624570365E+02  0.41800000000E+01 0.  1.
         -5    1    3    3    0  502  0.20049301685E+02 -0.51568865035E+02  0.26133516604E+03  0.26716074515E+03  0.41800000000E+01 0.  1.
        -11    1    1    2    0    0  0.40488222508E+02  0.39806787446E+02  0.20861283305E+03  0.21620173589E+03  0.00000000000E+00 0. -1.
         11    1    1    2    0    0 -0.23712342551E+02 -0.16704568855E+02  0.23741233440E+02  0.37482849080E+02  0.00000000000E+00 0.  1.
</event>
<event>
 7    1  0.4394360E-006  0.1240816E+03  0.7561462E-02  0.1236512E+00
         -2   -1    0    0    0  501 -0.00000000000E+00  0.00000000000E+00  0.83066205793E+02  0.83066205793E+02  0.00000000000E+00 0.  1.
          2   -1    0    0  501    0  0.00000000000E+00 -0.00000000000E+00 -0.21354894399E+03  0.21354894399E+03  0.00000000000E+00 0. -1.
         23    2    1    2    0    0 -0.56331140273E+02  0.49106604522E+02 -0.52046486899E+02  0.15472874090E+03  0.12508992962E+03 0.  0.
          5    1    3    3  502    0 -0.74930427407E+02 -0.14700579332E+02 -0.13114647673E+02  0.77589576411E+02  0.41800000000E+01 0.  1.
         -5    1    3    3    0  502  0.18599287134E+02  0.63807183853E+02 -0.38931839226E+02  0.77139164493E+02  0.41800000000E+01 0.  1.
        -11    1    1    2    0    0  0.24566943934E+02 -0.65064987101E+02 -0.18113097542E+02  0.71868432454E+02  0.00000000000E+00 0.  1.
         11    1    1    2    0    0  0.31764196339E+02  0.15958382579E+02 -0.60323153756E+02  0.70017976425E+02  0.00000000000E+00 0. -1.
</event>
<event>
 7    1  0.4394360E-006  0.9730595E+02  0.7561462E-02  0.1286065E+00
          2   -1    0    0  501    0  0.00000000000E+00  0.00000000000E+00  0.46353589492E+03  0.46353589492E+03  0.00000000000E+00 0.  1.
         -2   -1    0    0    0  501 -0.00000000000E+00 -0.00000000000E+00 -0.29687414189E+02  0.29687414189E+02  0.00000000000E+00 0. -1.
         23    2    1    2    0    0 -0.45076468237E+02  0.41792503302E+01  0.22519924107E+03  0.26155634167E+03  0.12509063742E+03 0.  0.
          5    1    3    3  502    0 -0.20094825748E+02  0.51098446986E+02  0.18962511613E+03  0.19745888274E+03  0.41800000000E+01 0. -1.
         -5    1    3    3    0  502 -0.24981642488E+02 -0.46919196656E+02  0.35574124937E+02  0.64097458930E+02  0.41800000000E+01 0. -1.
        -11    1    1    2    0    0  0.74049285510E+01  0.32687809819E+02  0.14598070395E+03  0.14977880959E+03  0.00000000000E+00 0.  1.
         11    1    1    2    0    0  0.37671539686E+02 -0.36867060149E+02  0.62668535708E+02  0.81888157839E+02  0.00000000000E+00 0. -1.
</event>
<event>
 7    1  0.4394360E-006  0.9855758E+02  0.7561462E-02  0.1283359E+00
          1   -1    0    0  501    0  0.00000000000E+00  0.00000000000E+00  0.38444166639E+02  0.38444166639E+02  0.00000000000E+00 0. -1.
         -1   -1    0    0    0  501 -0.00000000000E+00 -0.00000000000E+00 -0.32513574494E+03  0.32513574494E+03  0.00000000000E+00 0.  1.
         23    2    1    2    0    0  0.53593301451E+01 -0.46817045296E+01 -0.21299688045E+03  0.24726128251E+03  0.12537874609E+03 0.  0.
          5    1    3    3  502    0  0.57973591556E+02  0.26883870581E+02 -0.10548058296E+03  0.12339896919E+03  0.41800000000E+01 0. -1.
         -5    1    3    3    0  502 -0.52614261411E+02 -0.31565575111E+02 -0.10751629748E+03  0.12386231332E+03  0.41800000000E+01 0. -1.
        -11    1    1    2    0    0  0.25768943951E+02 -0.19370921363E+02 -0.69679898329E+02  0.76776033356E+02  0.00000000000E+00 0.  1.
         11    1    1    2    0    0 -0.31128274096E+02  0.24052625893E+02 -0.40147995261E+01  0.39542595714E+02  0.00000000000E+00 0. -1.
</event>
<event>
 7    1  0.4394360E-006  0.1575908E+03  0.7561462E-02  0.1191444E+00
          3   -1    0    0  501    0  0.00000000000E+00  0.00000000000E+00  0.29539033023E+02  0.29539033023E+02  0.00000000000E+00 0. -1.
         -3   -1    0    0    0  501 -0.00000000000E+00 -0.00000000000E+00 -0.86548107774E+03  0.86548107774E+03  0.00000000000E+00 0.  1.
         23    2    1    2    0    0  0.10309126930E+03 -0.48463861899E+02 -0.51496696096E+03  0.54204701088E+03  0.12508970940E+03 0.  0.
          5    1    3    3  502    0  0.67558102243E+02  0.36382632722E+02 -0.24926206461E+03  0.26083872871E+03  0.41800000000E+01 0.  1.
         -5    1    3    3    0  502  0.35533167059E+02 -0.84846494621E+02 -0.26570489636E+03  0.28120828217E+03  0.41800000000E+01 0.  1.
        -11    1    1    2    0    0 -0.38936610665E+02 -0.26867543960E+02 -0.89411273936E+02  0.10115483417E+03  0.00000000000E+00 0.  1.
         11    1    1    2    0    0 -0.64154658637E+02  0.75331405858E+02 -0.23156380982E+03  0.25181826572E+03  0.00000000000E+00 0. -1.
</event>
<event>
 7    1  0.4394360E-006  0.1678933E+03  0.7561462E-02  0.1180063E+00
          2   -1    0    0  501    0  0.00000000000E+00  0.00000000000E+00  0.72249739150E+03  0.72249739150E+03  0.00000000000E+00 0. -1.
         -2   -1    0    0    0  501 -0.00000000000E+00 -0.00000000000E+00 -0.44451923905E+02  0.44451923905E+02  0.00000000000E+00 0.  1.
         23    2    1    2    0    0  0.36499707771E+00  0.13976483508E+03  0.41525872098E+03  0.45565533519E+03  0.12509051438E+03 0.  0.
          5    1    3    3  502    0 -0.49899344344E+02  0.29211663539E+02  0.20256237616E+03  0.21069469497E+03  0.41800000000E+01 0. -1.
         -5    1    3    3    0  502  0.50264341422E+02  0.11055317154E+03  0.21269634482E+03  0.24496064022E+03  0.41800000000E+01 0. -1.
        -11    1    1    2    0    0 -0.26896492898E+02 -0.12061810262E+03  0.24413760812E+03  0.27363355005E+03  0.00000000000E+00 0. -1.
         11    1    1    2    0    0  0.26531495820E+02 -0.19146732456E+02  0.18649138492E+02  0.37660430171E+02  0.00000000000E+00 0.  1.
</event>
<event>
 7    1  0.4394360E-006  0.3112416E+03  0.7561462E-02  0.1079752E+00
          1   -1    0    0  501    0  0.00000000000E+00  0.00000000000E+00  0.28215253300E+03  0.28215253300E+03  0.00000000000E+00 0. -1.
         -1   -1    0    0    0  501 -0.00000000000E+00 -0.00000000000E+00 -0.36420230437E+03  0.36420230437E+03  0.00000000000E+00 0.  1.
         23    2    1    2    0    0 -0.14127749685E+03 -0.26305299237E+03 -0.83860062988E+02  0.33441965467E+03  0.12509111622E+03 0.  0.
          5    1    3    3  502    0 -0.93110627678E+02 -0.63405612144E+02 -0.48949664137E+00  0.11272786987E+03  0.41800000000E+01 0. -1.
         -5    1    3    3    0  502 -0.48166869168E+02 -0.19964738023E+03 -0.83370566347E+02  0.22169178480E+03  0.41800000000E+01 0. -1.
        -11    1    1    2    0    0  0.76014958926E+02  0.19844121695E+03 -0.30290807670E+02  0.21465023549E+03  0.00000000000E+00 0.  1.
         11    1    1    2    0    0  0.65262537920E+02  0.64611775418E+02  0.32101099292E+02  0.97284947213E+02  0.00000000000E+00 0. -1.
</event>
<event>
 7    1  0.4394360E-006  0.7326775E+02  0.7561462E-02  0.1349321E+00
         -3   -1    0    0    0  501 -0.00000000000E+00  0.00000000000E+00  0.52802166259E+02  0.52802166259E+02  0.00000000000E+00 0.  1.
          3   -1    0    0  501    0  0.00000000000E+00 -0.00000000000E+00 -0.24450442523E+03  0.24450442523E+03  0.00000000000E+00 0. -1.
         23    2    1    2    0    0  0.24631283964E+02  0.18651048298E+02 -0.96460626653E+02  0.16096256816E+03  0.12509889728E+03 0.  0.
          5    1    3    3  502    0 -0.20243610094E+02 -0.50386165948E+01 -0.10689222741E+03  0.10898904572E+03  0.41800000000E+01 0.  1.
         -5    1    3    3    0  502  0.44874894058E+02  0.23689664893E+02  0.10431600759E+02  0.51973522431E+02  0.41800000000E+01 0.  1.
        -11    1    1    2    0    0 -0.47462148240E+02 -0.19930583524E+02 -0.10046769522E+03  0.11288773830E+03  0.00000000000E+00 0. -1.
         11    1    1    2    0    0  0.22830864276E+02  0.12795352261E+01  0.52260629056E+01  0.23456285032E+02  0.00000000000E+00 0.  1.
</event>
<event>
 7    1  0.4394360E-006  0.5844425E+02  0.7561462E-02  0.1404479E+00
         -1   -1    0    0    0  501 -0.00000000000E+00  0.00000000000E+00  0.46253462280E+02  0.46253462280E+02  0.00000000000E+00 0.  1.
          1   -1    0    0  501    0  0.00000000000E+00 -0.00000000000E+00 -0.30116839742E+03  0.30116839742E+03  0.00000000000E+00 0. -1.
         23    2    1    2    0    0  0.71028628293E+01 -0.79154176104E+01 -0.76198162774E+02  0.14685598753E+03  0.12508963413E+03 0.  0.
          5    1    3    3  502    0 -0.16667317846E+02 -0.12646352108E+02 -0.10605162516E+03  0.10817647297E+03  0.41800000000E+01 0. -1.
         -5    1    3    3    0  502  0.23770180675E+02  0.47309344979E+01  0.29853462381E+02  0.38679514561E+02  0.41800000000E+01 0. -1.
        -11    1    1    2    0    0  0.16113983650E+00  0.39018458912E+02 -0.15740373261E+03  0.16216781783E+03  0.00000000000E+00 0. -1.
         11    1    1    2    0    0 -0.72640026658E+01 -0.31103041302E+02 -0.21313039754E+02  0.38398054333E+02  0.00000000000E+00 0.  1.
</event>
<event>
 7    1  0.4394360E-006  0.8319764E+02  0.7561462E-02  0.1320214E+00
         -1   -1    0    0    0  501 -0.00000000000E+00  0.00000000000E+00  0.25081707677E+03  0.25081707677E+03  0.00000000000E+00 0.  1.
          1   -1    0    0  501    0  0.00000000000E+00 -0.00000000000E+00 -0.47524069088E+02  0.47524069088E+02  0.00000000000E+00 0. -1.
         23    2    1    2    0    0  0.24903409016E+01 -0.16084634755E+02  0.11943141558E+03  0.17371039900E+03  0.12508606006E+03 0.  0.
          5    1    3    3  502    0  0.31045250312E+02  0.17797512634E+02  0.12385082417E+03  0.12898472030E+03  0.41800000000E+01 0. -1.
         -5    1    3    3    0  502 -0.28554909410E+02 -0.33882147389E+02 -0.44194085894E+01  0.44725678702E+02  0.41800000000E+01 0. -1.
        -11    1    1    2    0    0  0.36298721959E+02 -0.11710167976E+02  0.15295280452E+02  0.41093440523E+02  0.00000000000E+00 0. -1.
         11    1    1    2    0    0 -0.38789062861E+02  0.27794802730E+02  0.68566311648E+02  0.83537306333E+02  0.00000000000E+00 0.  1.
</event>
<event>
 7    1  0.4394360E-006  0.9114643E+02  0.7561462E-02  0.1300099E+00
          1   -1    0    0  501    0  0.00000000000E+00  0.00000000000E+00  0.33846049059E+03  0.33846049059E+03  0.00000000000E+00 0. -1.
         -1   -1    0    0    0  501 -0.00000000000E+00 -0.00000000000E+00 -0.62156150203E+02  0.62156150203E+02  0.00000000000E+00 0.  1.
         23    2    1    2    0    0  0.13233847628E+02  0.37109029259E+02  0.29627786473E+02  0.13444931589E+03  0.12508636231E+03 0.  0.
          5    1    3    3  502    0  0.43784865900E+02  0.31652830551E+02  0.66689090460E+02  0.85929758234E+02  0.41800000000E+01 0.  1.
         -5    1    3    3    0  502 -0.30551018273E+02  0.54561987071E+01 -0.37061303987E+02  0.48519557655E+02  0.41800000000E+01 0.  1.
        -11    1    1    2    0    0  0.21435482064E+02 -0.54091229634E+02  0.11401799403E+03  0.12800564041E+03  0.00000000000E+00 0.  1.
         11    1    1    2    0    0 -0.34669329691E+02  0.16982200376E+02  0.13265855989E+03  0.13816168449E+03  0.00000000000E+00 0. -1.
</event>
<event>
 7    1  0.4394360E-006  0.1811809E+03  0.7561462E-02  0.1166665E+00
          2   -1    0    0  501    0  0.00000000000E+00  0.00000000000E+00  0.94357285969E+02  0.94357285969E+02  0.00000000000E+00 0. -1.
         -2   -1    0    0    0  501 -0.00000000000E+00 -0.00000000000E+00 -0.78130464940E+03  0.78130464940E+03  0.00000000000E+00 0.  1.
         23    2    1    2    0    0  0.14372163103E+03  0.78360848185E+02 -0.65458595489E+03  0.68624183098E+03  0.12509495787E+03 0.  0.
          5    1    3    3  502    0  0.80314987436E+00  0.53336083033E+02 -0.10547999816E+03  0.11827461779E+03  0.41800000000E+01 0.  1.
         -5    1    3    3    0  502  0.14291848116E+03  0.25024765152E+02 -0.54910595674E+03  0.56796721318E+03  0.41800000000E+01 0.  1.
        -11    1    1    2    0    0 -0.10662506200E+03 -0.57366122281E+02 -0.63417973886E+02  0.13668070546E+03  0.00000000000E+00 0.  1.
         11    1    1    2    0    0 -0.37096569031E+02 -0.20994725904E+02  0.31056565345E+02  0.52739398942E+02  0.00000000000E+00 0. -1.
</event>
<event>
 7    1  0.4394360E-006  0.1360186E+03  0.7561462E-02  0.1218789E+00
         -2   -1    0    0    0  501 -0.00000000000E+00  0.00000000000E+00  0.60712425034E+03  0.60712425034E+03  0.00000000000E+00 0.  1.
          2   -1    0    0  501    0  0.00000000000E+00 -0.00000000000E+00 -0.33920824146E+02  0.33920824146E+02  0.00000000000E+00 0. -1.
         23    2    1    2    0    0 -0.63131084618E+02  0.67771916764E+02  0.28536421387E+03  0.32505237365E+03  0.12509094495E+03 0.  0.
          5    1    3    3  502    0 -0.74100875316E+02  0.89958767577E+02  0.27342229551E+03  0.29725535095E+03  0.41800000000E+01 0.  1.
         -5    1    3    3    0  502  0.10969790697E+02 -0.22186850813E+02  0.11941918368E+02  0.27797022704E+02  0.41800000000E+01 0.  1.
        -11    1    1    2    0    0 -0.21010040864E+02  0.18652134124E+01  0.50539683695E+02  0.54764591354E+02  0.00000000000E+00 0. -1.
         11    1    1    2    0    0  0.84141125482E+02 -0.69637130176E+02  0.23729952862E+03  0.26122810948E+03  0.00000000000E+00 0.  1.
</event>
<event>
 7    1  0.4394360E-006  0.1331216E+03  0.7561462E-02  0.1222896E+00
         -2   -1    0    0    0  501 -0.00000000000E+00  0.00000000000E+00  0.76792400415E+02  0.76792400415E+02  0.00000000000E+00 0.  1.
          2   -1    0    0  501    0  0.00000000000E+00 -0.00000000000E+00 -0.32326728681E+03  0.32326728681E+03  0.00000000000E+00 0. -1.
         23    2    1    2    0    0  0.36529599038E+02  0.85765033274E+02 -0.50194973168E+02  0.16388138555E+03  0.12509005020E+03 0.  0.
          5    1    3    3  502    0  0.82762083840E+02  0.46120349194E+02 -0.27370513919E+02  0.98707986321E+02  0.41800000000E+01 0.  1.
         -5    1    3    3    0  502 -0.46232484802E+02  0.39644684080E+02 -0.22824459249E+02  0.65173399227E+02  0.41800000000E+01 0.  1.
        -11    1    1    2    0    0 -0.45095102812E+02 -0.30513911075E+02 -0.33181494596E+02  0.63762674429E+02  0.00000000000E+00 0.  1.
         11    1    1    2    0    0  0.85655037737E+01 -0.55251122199E+02 -0.16309841863E+03  0.17241562724E+03  0.00000000000E+00 0. -1.
</event>
<event>
 7    1  0.4394360E-006  0.9264092E+02  0.7561462E-02  0.1296579E+00
         -2   -1    0    0    0  501 -0.00000000000E+00  0.00000000000E+00  0.77547710961E+02  0.77547710961E+02  0.00000000000E+00 0.  1.
          2   -1    0    0  501    0  0.00000000000E+00 -0.00000000000E+00 -0.15823463021E+03  0.15823463021E+03  0.00000000000E+00 0. -1.
         23    2    1    2    0    0 -0.21176607363E+02 -0.51062958645E+01 -0.40343218011E+02  0.13322835853E+03  0.12509075633E+03 0.  0.
          5    1    3    3  502    0 -0.12807481251E+02  0.46098273075E+02 -0.60643690855E+02  0.77357688674E+02  0.41800000000E+01 0. -1.
         -5    1    3    3    0  502 -0.83691261115E+01 -0.51204568939E+02  0.20300472844E+02  0.55870669853E+02  0.41800000000E+01 0. -1.
        -11    1    1    2    0    0 -0.60965233121E+01 -0.35647699983E+02 -0.39435376099E+02  0.53507709712E+02  0.00000000000E+00 0. -1.
         11    1    1    2    0    0  0.27273130675E+02  0.40753995848E+02 -0.90832514434E+00  0.49046272936E+02  0.00000000000E+00 0.  1.
</event>
<event>
 7    1  0.4394360E-006  0.1029805E+03  0.7561462E-02  0.1274150E+00
          2   -1    0    0  501    0  0.00000000000E+00  0.00000000000E+00  0.44710624815E+02  0.44710624815E+02  0.00000000000E+00 0. -1.
         -2   -1    0    0    0  501 -0.00000000000E+00 -0.00000000000E+00 -0.30761521973E+03  0.30761521973E+03  0.00000000000E+00 0.  1.
         23    2    1    2    0    0 -0.37500822393E+02  0.32274757576E+01 -0.18507957425E+03  0.22654900746E+03  0.12511305166E+03 0.  0.
          5    1    3    3  502    0  0.12201568248E+02  0.52465498703E+02 -0.11684925109E+03  0.12873510283E+03  0.41800000000E+01 0.  1.
         -5    1    3    3    0  502 -0.49702390640E+02 -0.49238022945E+02 -0.68230323163E+02  0.97813904625E+02  0.41800000000E+01 0.  1.
        -11    1    1    2    0    0  0.55508106405E+02 -0.18212593238E+02 -0.17378912384E+02  0.60949774608E+02  0.00000000000E+00 0. -1.
         11    1    1    2    0    0 -0.18007284012E+02  0.14985117480E+02 -0.60446108281E+02  0.64827062479E+02  0.00000000000E+00 0.  1.
</event>
<event>
 7    1  0.4394360E-006  0.2197577E+03  0.7561462E-02  0.1134064E+00
         -1   -1    0    0    0  501 -0.00000000000E+00  0.00000000000E+00  0.20458711866E+03  0.20458711866E+03  0.00000000000E+00 0.  1.
          1   -1    0    0  501    0  0.00000000000E+00 -0.00000000000E+00 -0.39278529906E+03  0.39278529906E+03  0.00000000000E+00 0. -1.
         23    2    1    2    0    0 -0.18780965787E+03  0.84490641828E+02  0.73397662002E+02  0.25188286983E+03  0.12508647880E+03 0.  0.
          5    1    3    3  502    0 -0.94913924923E+02  0.10148237967E+03  0.73723380202E+02  0.15735290184E+03  0.41800000000E+01 0. -1.
         -5    1    3    3    0  502 -0.92895732949E+02 -0.16991737847E+02 -0.32571819967E+00  0.94529967986E+02  0.41800000000E+01 0. -1.
        -11    1    1    2    0    0  0.90646862970E+02 -0.42788017237E+02 -0.19846569194E+03  0.22234275131E+03  0.00000000000E+00 0. -1.
         11    1    1    2    0    0  0.97162794902E+02 -0.41702624591E+02 -0.63130150461E+02  0.12314679658E+03  0.00000000000E+00 0.  1.
</event>
<event>
 7    1  0.4394360E-006  0.1257331E+03  0.7561462E-02  0.1233928E+00
          1   -1    0    0  501    0  0.00000000000E+00  0.00000000000E+00  0.91273926697E+03  0.91273926697E+03  0.00000000000E+00 0. -1.
         -1   -1    0    0    0  501 -0.00000000000E+00 -0.00000000000E+00 -0.20245462226E+02  0.20245462226E+02  0.00000000000E+00 0.  1.
         23    2    1    2    0    0 -0.57747249403E+02  0.40667522542E+02  0.34969182330E+03  0.37805132052E+03  0.12509931040E+03 0.  0.
          5    1    3    3  502    0  0.10571505620E+02  0.65824975238E+02  0.21151203835E+03  0.22180960048E+03  0.41800000000E+01 0. -1.
         -5    1    3    3    0  502 -0.68318755023E+02 -0.25157452697E+02  0.13817978495E+03  0.15624172004E+03  0.41800000000E+01 0. -1.
        -11    1    1    2    0    0 -0.21745688873E+02 -0.20148169634E+02  0.90228642811E+02  0.94973847493E+02  0.00000000000E+00 0.  1.
         11    1    1    2    0    0  0.79492938276E+02 -0.20519352907E+02  0.45257333863E+03  0.45995956118E+03  0.00000000000E+00 0. -1.
</event>
<event>
 7    1  0.4394360E-006  0.9963628E+02  0.7561462E-02  0.1281063E+00
         -1   -1    0    0    0  501 -0.00000000000E+00  0.00000000000E+00  0.24006437376E+03  0.24006437376E+03  0.00000000000E+00 0.  1.
          1   -1    0    0  501    0  0.00000000000E+00 -0.00000000000E+00 -0.68981197391E+02  0.68981197391E+02  0.00000000000E+00 0. -1.
         23    2    1    2    0    0 -0.51937108478E+02  0.46465346366E+01  0.14972429195E+03  0.20195078628E+03  0.12509077887E+03 0.  0.
          5    1    3    3  502    0 -0.21929266164E+02  0.64582020853E+02  0.73235989979E+02  0.10016343025E+03  0.41800000000E+01 0. -1.
         -5    1    3    3    0  502 -0.30007842314E+02 -0.59935486217E+02  0.76488301972E+02  0.10178735603E+03  0.41800000000E+01 0. -1.
        -11    1    1    2    0    0  0.18012067586E+02  0.15980490366E+02 -0.32335086013E+02  0.40315858400E+02  0.00000000000E+00 0. -1.
         11    1    1    2    0    0  0.33925040891E+02 -0.20627025003E+02  0.53693970434E+02  0.66778926473E+02  0.00000000000E+00 0.  1.
</event>
<event>
 7    1  0.4394360E-006  0.1408611E+03  0.7561462E-02  0.1212175E+00
         -2   -1    0    0    0  501 -0.00000000000E+00  0.00000000000E+00  0.40715465484E+02  0.40715465484E+02  0.00000000000E+00 0. -1.
          2   -1    0    0  501    0  0.00000000000E+00 -0.00000000000E+00 -0.59617004638E+03  0.59617004638E+03  0.00000000000E+00 0.  1.
         23    2    1    2    0    0  0.60533137180E+01 -0.11076809784E+03 -0.30030576123E+03  0.34370884049E+03  0.12508398259E+03 0.  0.
          5    1    3    3  502    0  0.27115330384E+02 -0.11475808229E+03 -0.29944320605E+03  0.32185146363E+03  0.41800000000E+01 0.  1.
         -5    1    3    3    0  502 -0.21062016666E+02  0.39899844549E+01 -0.86255518537E+00  0.21857376865E+02  0.41800000000E+01 0.  1.
        -11    1    1    2    0    0  0.35539548418E+02  0.17177388740E+02 -0.97429438809E+02  0.10512191842E+03  0.00000000000E+00 0.  1.
         11    1    1    2    0    0 -0.41592862136E+02  0.93590709096E+02 -0.15771938086E+03  0.18805475295E+03  0.00000000000E+00 0. -1.
</event>
<event>
 7    1  0.4394360E-006  0.1809114E+03  0.7561462E-02  0.1166924E+00
          2   -1    0    0  501    0  0.00000000000E+00  0.00000000000E+00  0.45715144676E+03  0.45715144676E+03  0.00000000000E+00 0. -1.
         -2   -1    0    0    0  501 -0.00000000000E+00 -0.00000000000E+00 -0.74634276715E+02  0.74634276715E+02  0.00000000000E+00 0.  1.
         23    2    1    2    0    0 -0.14773029361E+03 -0.21806319229E+02  0.19009184231E+03  0.27217948521E+03  0.12508800283E+03 0.  0.
          5    1    3    3  502    0 -0.48498869222E+02  0.49200480150E+02  0.45005349574E+02  0.82557746172E+02  0.41800000000E+01 0.  1.
         -5    1    3    3    0  502 -0.99231424386E+02 -0.71006799378E+02  0.14508649273E+03  0.18962173904E+03  0.41800000000E+01 0.  1.
        -11    1    1    2    0    0  0.13784844243E+02  0.33340852533E+02  0.65165193723E+02  0.74485816444E+02  0.00000000000E+00 0. -1.
         11    1    1    2    0    0  0.13394544937E+03 -0.11534533304E+02  0.12726013402E+03  0.18512042182E+03  0.00000000000E+00 0.  1.
</event>
<event>
 7    1  0.4394360E-006  0.1277782E+03  0.7561462E-02  0.1230790E+00
          2   -1    0    0  501    0  0.00000000000E+00  0.00000000000E+00  0.84136450418E+03  0.84136450418E+03  0.00000000000E+00 0.  1.
         -2   -1    0    0    0  501 -0.00000000000E+00 -0.00000000000E+00 -0.27913906828E+02  0.27913906828E+02  0.00000000000E+00 0. -1.
         23    2    1    2    0    0 -0.79704452709E+02 -0.46688665652E+02  0.34353307773E+03  0.37708572565E+03  0.12508412255E+03 0.  0.
          5    1    3    3  502    0  0.14181740780E+02 -0.41608061207E+02  0.20436341879E+03  0.20907948697E+03  0.41800000000E+01 0. -1.
         -5    1    3    3    0  502 -0.93886193489E+02 -0.50806044454E+01  0.13916965894E+03  0.16800623869E+03  0.41800000000E+01 0. -1.
        -11    1    1    2    0    0  0.13875867164E+02 -0.19499643233E+02  0.16030427535E+02  0.28805388085E+02  0.00000000000E+00 0. -1.
         11    1    1    2    0    0  0.65828585545E+02  0.66188308884E+02  0.45388709209E+03  0.46338729727E+03  0.00000000000E+00 0.  1.
</event>
<event>
 7    1  0.4394360E-006  0.1502808E+03  0.7561462E-02  0.1200128E+00
         -1   -1    0    0    0  501 -0.00000000000E+00  0.00000000000E+00  0.33155520705E+02  0.33155520705E+02  0.00000000000E+00 0.  1.
          1   -1    0    0  501    0  0.00000000000E+00 -0.00000000000E+00 -0.89586361347E+03  0.89586361347E+03  0.00000000000E+00 0. -1.
         23    2    1    2    0    0 -0.12183774121E+03 -0.68904350160E+00 -0.31045149985E+03  0.35618667967E+03  0.12507560536E+03 0.  0.
          5    1    3    3  502    0 -0.40182259246E+02 -0.42241078442E+02 -0.40578229994E+02  0.71154675289E+02  0.41800000000E+01 0.  1.
         -5    1    3    3    0  502 -0.81655481965E+02  0.41552034940E+02 -0.26987326985E+03  0.28503200438E+03  0.41800000000E+01 0.  1.
        -11    1    1    2    0    0  0.73145659902E+02  0.43889526588E+02 -0.35535661197E+03  0.36545163808E+03  0.00000000000E+00 0. -1.
         11    1    1    2    0    0  0.48692081309E+02 -0.43200483087E+02 -0.19689998095E+03  0.20738081642E+03  0.00000000000E+00 0.  1.
</event>
<event>
 7    1  0.4394360E-006  0.9212183E+02  0.7561462E-02  0.1297793E+00
          2   -1    0    0  501    0  0.00000000000E+00  0.00000000000E+00  0.34216442022E+02  0.34216442022E+02  0.00000000000E+00 0. -1.
         -2   -1    0    0    0  501 -0.00000000000E+00 -0.00000000000E+00 -0.45059195076E+03  0.45059195076E+03  0.00000000000E+00 0.  1.
         23    2    1    2    0    0  0.17121128325E+02 -0.37247985811E+02 -0.31991256472E+03  0.34593608499E+03  0.12508868995E+03 0.  0.
          5    1    3    3  502    0 -0.60950800090E+01 -0.67229130934E+02 -0.28907633230E+03  0.29688298089E+03  0.41800000000E+01 0. -1.
         -5    1    3    3    0  502  0.23216208334E+02  0.29981145123E+02 -0.30836232420E+02  0.49053104104E+02  0.41800000000E+01 0. -1.
        -11    1    1    2    0    0  0.43608767094E+01  0.52139745681E+02 -0.16679418185E+02  0.54916056999E+02  0.00000000000E+00 0. -1.
         11    1    1    2    0    0 -0.21482005035E+02 -0.14891759870E+02 -0.79783525830E+02  0.83956250787E+02  0.00000000000E+00 0.  1.
</event>
<event>
 7    1  0.4394360E-006  0.1071112E+03  0.7561462E-02  0.1266015E+00
         -2   -1    0    0    0  501 -0.00000000000E+00  0.00000000000E+00  0.29773597321E+02  0.29773597321E+02  0.00000000000E+00 0.  1.
          2   -1    0    0  501    0  0.00000000000E+00 -0.00000000000E+00 -0.52778113958E+03  0.52778113958E+03  0.00000000000E+00 0. -1.
         23    2    1    2    0    0  0.53753560543E+02  0.17032588704E+02 -0.20937036794E+03  0.25032572863E+03  0.12508982810E+03 0.  0.
          5    1    3    3  502    0 -0.31377311778E+02 -0.35266260293E+01 -0.11435539096E+02  0.33841051106E+02  0.41800000000E+01 0. -1.
         -5    1    3    3    0  502  0.85130872321E+02  0.20559214733E+02 -0.19793482885E+03  0.21648467752E+03  0.41800000000E+01 0. -1.
        -11    1    1    2    0    0  0.10492725288E+01 -0.36515906844E+02 -0.52004001171E+02  0.63552565356E+02  0.00000000000E+00 0.  1.
         11    1    1    2    0    0 -0.54802833072E+02  0.19483318140E+02 -0.23663317315E+03  0.24367644291E+03  0.00000000000E+00 0. -1.
</event>
<event>
 7    1  0.4394360E-006  0.2243617E+03  0.7561462E-02  0.1130672E+00
          1   -1    0    0  501    0  0.00000000000E+00  0.00000000000E+00  0.88942359789E+02  0.88942359789E+02  0.00000000000E+00 0. -1.
         -1   -1    0    0    0  501 -0.00000000000E+00 -0.00000000000E+00 -0.71700395816E+03  0.71700395816E+03  0.00000000000E+00 0.  1.
         23    2    1    2    0    0 -0.64186923079E+02 -0.19349221436E+03 -0.48023220049E+03  0.53649797500E+03  0.12509161714E+03 0.  0.
          5    1    3    3  502    0  0.16111750110E+02  0.10658510825E+02 -0.39725235379E+02  0.44370700587E+02  0.41800000000E+01 0. -1.
         -5    1    3    3    0  502 -0.80298673189E+02 -0.20415072518E+03 -0.44050696511E+03  0.49212727441E+03  0.41800000000E+01 0. -1.
        -11    1    1    2    0    0  0.14915183513E+02  0.12085397712E+03 -0.13318660097E+03  0.18046278609E+03  0.00000000000E+00 0.  1.
         11    1    1    2    0    0  0.49271739566E+02  0.72638237234E+02 -0.14642796912E+02  0.88985556860E+02  0.00000000000E+00 0. -1.
</event>
<event>
 7    1  0.4394360E-006  0.1187112E+03  0.7561462E-02  0.1245238E+00
         -2   -1    0    0    0  501 -0.00000000000E+00  0.00000000000E+00  0.14409710579E+02  0.14409710579E+02  0.00000000000E+00 0.  1.
          2   -1    0    0  501    0  0.00000000000E+00 -0.00000000000E+00 -0.10184685756E+04  0.10184685756E+04  0.00000000000E+00 0. -1.
         23    2    1    2    0    0 -0.45918463537E+02  0.20632957750E+02 -0.63175855364E+03  0.64598704089E+03  0.12508462202E+03 0.  0.
          5    1    3    3  502    0 -0.67504541854E+02  0.59564119758E+02 -0.42299271418E+03  0.43248705897E+03  0.41800000000E+01 0.  1.
         -5    1    3    3    0  502  0.21586078317E+02 -0.38931162008E+02 -0.20876583946E+03  0.21349998192E+03  0.41800000000E+01 0.  1.
        -11    1    1    2    0    0 -0.10804739663E+02 -0.40938187193E+02 -0.19786954221E+03  0.20234879121E+03  0.00000000000E+00 0. -1.
         11    1    1    2    0    0  0.56723203200E+02  0.20305229443E+02 -0.17443076921E+03  0.18454245412E+03  0.00000000000E+00 0.  1.
</event>
<event>
 7    1  0.4394360E-006  0.1148551E+03  0.7561462E-02  0.1251834E+00
          1   -1    0    0  501    0  0.00000000000E+00  0.00000000000E+00  0.13697555608E+03  0.13697555608E+03  0.00000000000E+00 0. -1.
         -1   -1    0    0    0  501 -0.00000000000E+00 -0.00000000000E+00 -0.10320770021E+03  0.10320770021E+03  0.00000000000E+00 0.  1.
         23    2    1    2    0    0 -0.49391918846E+02 -0.14908863950E+02  0.21687867490E+02  0.13703200077E+03  0.12508225201E+03 0.  0.
          5    1    3    3  502    0 -0.17470711382E+02  0.53429415839E+02  0.24443290939E+02  0.61440012248E+02  0.41800000000E+01 0.  1.
         -5    1    3    3    0  502 -0.31921207464E+02 -0.68338279789E+02 -0.27554234484E+01  0.75591988523E+02  0.41800000000E+01 0.  1.
        -11    1    1    2    0    0  0.73018289917E+02  0.10591965515E+02  0.22257158046E+02  0.77066474424E+02  0.00000000000E+00 0.  1.
         11    1    1    2    0    0 -0.23626371071E+02  0.43168984357E+01 -0.10177169667E+02  0.26084781090E+02  0.00000000000E+00 0. -1.
</event>
<event>
 7    1  0.4394360E-006  0.1107826E+03  0.7561462E-02  0.1259127E+00
         -3   -1    0    0    0  501 -0.00000000000E+00  0.00000000000E+00  0.77657001176E+03  0.77657001176E+03  0.00000000000E+00 0.  1.
          3   -1    0    0  501    0  0.00000000000E+00 -0.00000000000E+00 -0.30916735131E+02  0.30916735131E+02  0.00000000000E+00 0. -1.
         23    2    1    2    0    0 -0.62716008198E+02  0.49147581643E+02  0.60181136404E+03  0.61982089616E+03  0.12510892437E+03 0.  0.
          5    1    3    3  502    0 -0.73691233502E+02  0.50186495332E+02  0.60143799601E+03  0.60802484954E+03  0.41800000000E+01 0.  1.
         -5    1    3    3    0  502  0.10975225304E+02 -0.10389136884E+01  0.37336802921E+00  0.11796046618E+02  0.41800000000E+01 0.  1.
        -11    1    1    2    0    0  0.29122767121E+02 -0.73479346768E+02  0.93048334144E+02  0.12208743774E+03  0.00000000000E+00 0. -1.
         11    1    1    2    0    0  0.33593241078E+02  0.24331765125E+02  0.50793578447E+02  0.65578413000E+02  0.00000000000E+00 0.  1.
</event>
<event>
 7    1  0.4394360E-006  0.8883036E+02  0.7561462E-02  0.1305709E+00
          2   -1    0    0  501    0  0.00000000000E+00  0.00000000000E+00  0.54302396503E+02  0.54302396503E+02  0.00000000000E+00 0. -1.
         -2   -1    0    0    0  501 -0.00000000000E+00 -0.00000000000E+00 -0.33121442690E+03  0.33121442690E+03  0.00000000000E+00 0.  1.
         23    2    1    2    0    0 -0.53576103917E+02  0.42398988399E+02 -0.21338104494E+03  0.25660575185E+03  0.12508784278E+03 0.  0.
          5    1    3    3  502    0 -0.15929470896E+02  0.14456239640E+01  0.14503736444E+02  0.21992467858E+02  0.41800000000E+01 0. -1.
         -5    1    3    3    0  502 -0.37646633021E+02  0.40953364435E+02 -0.22788478139E+03  0.23461328399E+03  0.41800000000E+01 0. -1.
        -11    1    1    2    0    0 -0.66338632681E+01 -0.44603106930E+02 -0.49671461139E+02  0.67087251705E+02  0.00000000000E+00 0.  1.
         11    1    1    2    0    0  0.60209967185E+02  0.22041185311E+01 -0.13859524318E+02  0.61823819853E+02  0.00000000000E+00 0. -1.
</event>
<event>
 7    1  0.5162441E-006  0.2259119E+03  0.7561462E-02  0.1129551E+00
         -2   -1    0    0    0  501 -0.00000000000E+00  0.00000000000E+00  0.27278316770E+02  0.27278316770E+02  0.00000000000E+00 0.  1.
          2   -1    0    0  501    0  0.00000000000E+00 -0.00000000000E+00 -0.19229052652E+04  0.19229052652E+04  0.00000000000E+00 0. -1.
         23    2    1    2    0    0  0.11647056129E+03 -0.15585210671E+03 -0.91971562608E+03  0.94835623954E+03  0.12508978143E+03 0.  0.
          5    1    3    3  502    0  0.13960572092E+03 -0.11666847672E+03 -0.79413572437E+03  0.81472100249E+03  0.41800000000E+01 0. -1.
         -5    1    3    3    0  502 -0.23135159633E+02 -0.39183629988E+02 -0.12557990171E+03  0.13363523706E+03  0.41800000000E+01 0. -1.
        -11    1    1    2    0    0 -0.12603405820E+03  0.83553292661E+02 -0.58886145352E+03  0.60796673263E+03  0.00000000000E+00 0. -1.
         11    1    1    2    0    0  0.95634969129E+01  0.72298814050E+02 -0.38704986887E+03  0.39386060983E+03  0.00000000000E+00 0.  1.
</event>
<event>
 7    1  0.4394360E-006  0.2112854E+03  0.7561462E-02  0.1140552E+00
         -2   -1    0    0    0  501 -0.00000000000E+00  0.00000000000E+00  0.74123028495E+03  0.74123028495E+03  0.00000000000E+00 0.  1.
          2   -1    0    0  501    0  0.00000000000E+00 -0.00000000000E+00 -0.71820125881E+02  0.71820125881E+02  0.00000000000E+00 0. -1.
         23    2    1    2    0    0  0.49443456878E+02  0.18355511222E+03  0.47279646118E+03  0.52472365150E+03  0.12514504422E+03 0.  0.
          5    1    3    3  502    0 -0.26995908172E+02  0.65960263531E+02  0.78036069177E+02  0.10576689423E+03  0.41800000000E+01 0.  1.
         -5    1    3    3    0  502  0.76439365049E+02  0.11759484869E+03  0.39476039200E+03  0.41895675727E+03  0.41800000000E+01 0.  1.
        -11    1    1    2    0    0 -0.75856655322E+02 -0.11913499342E+03  0.12932473502E+03  0.19150004152E+03  0.00000000000E+00 0. -1.
         11    1    1    2    0    0  0.26413198444E+02 -0.64420118798E+02  0.67288962872E+02  0.96826717812E+02  0.00000000000E+00 0.  1.
</event>
<event>
 7    1  0.4394360E-006  0.1721925E+03  0.7561462E-02  0.1175581E+00
          2   -1    0    0  501    0  0.00000000000E+00  0.00000000000E+00  0.11731898303E+04  0.11731898303E+04  0.00000000000E+00 0. -1.
         -2   -1    0    0    0  501 -0.00000000000E+00 -0.00000000000E+00 -0.27541245438E+02  0.27541245438E+02  0.00000000000E+00 0.  1.
         23    2    1    2    0    0 -0.13975207438E+03  0.27278940887E+02  0.57533383872E+03  0.60574809116E+03  0.12508773347E+03 0.  0.
          5    1    3    3  502    0 -0.83422169351E+02  0.77358582325E+02  0.35928188625E+03  0.37688798706E+03  0.41800000000E+01 0. -1.
         -5    1    3    3    0  502 -0.56329905032E+02 -0.50079641438E+02  0.21605195247E+03  0.22886010411E+03  0.41800000000E+01 0. -1.
        -11    1    1    2    0    0  0.56661034473E+02  0.19220945880E+02  0.11302192834E+03  0.12788226567E+03  0.00000000000E+00 0. -1.
         11    1    1    2    0    0  0.83091039911E+02 -0.46499886767E+02  0.45729281781E+03  0.46710071890E+03  0.00000000000E+00 0.  1.
</event>
<event>
 7    1  0.4394360E-006  0.1150221E+03  0.7561462E-02  0.1251542E+00
          2   -1    0    0  501    0  0.00000000000E+00  0.00000000000E+00  0.29392818882E+03  0.29392818882E+03  0.00000000000E+00 0. -1.
         -2   -1    0    0    0  501 -0.00000000000E+00 -0.00000000000E+00 -0.64921819589E+02  0.64921819589E+02  0.00000000000E+00 0.  1.
         23    2    1    2    0    0 -0.37677771482E+02 -0.64259038693E+02  0.61783424258E+02  0.15815911599E+03  0.12509306912E+03 0.  0.
          5    1    3    3  502    0  0.31850788359E+02 -0.30626953301E+02  0.67295713444E+02  0.80614319048E+02  0.41800000000E+01 0.  1.
         -5    1    3    3    0  502 -0.69528559841E+02 -0.33632085392E+02 -0.55122891862E+01  0.77544796946E+02  0.41800000000E+01 0.  1.
        -11    1    1    2    0    0 -0.24868782280E+01 -0.17258206561E+02  0.13245679625E+02  0.21896992619E+02  0.00000000000E+00 0.  1.
         11    1    1    2    0    0  0.40164649710E+02  0.81517245254E+02  0.15397726535E+03  0.17879389979E+03  0.00000000000E+00 0. -1.
</event>
<event>
 7    1  0.4394360E-006  0.1068154E+03  0.7561462E-02  0.1266584E+00
         -1   -1    0    0    0  501 -0.00000000000E+00  0.00000000000E+00  0.34054302912E+02  0.34054302912E+02  0.00000000000E+00 0.  1.
          1   -1    0    0  501    0  0.00000000000E+00 -0.00000000000E+00 -0.53660568457E+03  0.53660568457E+03  0.00000000000E+00 0. -1.
         23    2    1    2    0    0  0.36380231656E+02  0.57749968325E+02 -0.18647540138E+03  0.23468858381E+03  0.12508827265E+03 0.  0.
          5    1    3    3  502    0 -0.79858711158E+01  0.74344869045E+02 -0.49694095170E+02  0.89877189462E+02  0.41800000000E+01 0. -1.
         -5    1    3    3    0  502  0.44366102772E+02 -0.16594900720E+02 -0.13678130621E+03  0.14481139435E+03  0.41800000000E+01 0. -1.
        -11    1    1    2    0    0  0.52020376217E+01 -0.48257734421E+02 -0.26509354296E+03  0.26950038338E+03  0.00000000000E+00 0. -1.
         11    1    1    2    0    0 -0.41582269278E+02 -0.94922339037E+01 -0.50982437320E+02  0.66471020286E+02  0.00000000000E+00 0.  1.
</event>
<event>
 7    1  0.4394360E-006  0.1269587E+03  0.7561462E-02  0.1232040E+00
         -2   -1    0    0    0  501 -0.00000000000E+00  0.00000000000E+00  0.59295955076E+02  0.59295955076E+02  0.00000000000E+00 0. -1.
          2   -1    0    0  501    0  0.00000000000E+00 -0.00000000000E+00 -0.37814046094E+03  0.37814046094E+03  0.00000000000E+00 0.  1.
         23    2    1    2    0    0  0.61921836076E+02  0.32204271169E+02 -0.62037936837E+02  0.15611944764E+03  0.12511253917E+03 0.  0.
          5    1    3    3  502    0  0.33131266982E+02 -0.46206495666E+02 -0.10759277263E+02  0.58016855660E+02  0.41800000000E+01 0. -1.
         -5    1    3    3    0  502  0.28790569094E+02  0.78410766835E+02 -0.51278659574E+02  0.98102591975E+02  0.41800000000E+01 0. -1.
        -11    1    1    2    0    0 -0.36248523989E+02  0.29310299105E+02 -0.12914821867E+03  0.13730371994E+03  0.00000000000E+00 0. -1.
         11    1    1    2    0    0 -0.25673312087E+02 -0.61514570274E+02 -0.12765835036E+03  0.14401324844E+03  0.00000000000E+00 0.  1.
</event>
<event>
 7    1  0.4394360E-006  0.6771666E+02  0.7561462E-02  0.1368034E+00
          1   -1    0    0  501    0  0.00000000000E+00  0.00000000000E+00  0.17415922160E+03  0.17415922160E+03  0.00000000000E+00 0. -1.
         -1   -1    0    0    0  501 -0.00000000000E+00 -0.00000000000E+00 -0.85407568702E+02  0.85407568702E+02  0.00000000000E+00 0.  1.
         23    2    1    2    0    0  0.26702444485E+02  0.18436584553E+02  0.21849812516E+01  0.12925144755E+03  0.12509290291E+03 0.  0.
          5    1    3    3  502    0  0.95171663916E+01  0.24401019015E+02  0.61549996480E+02  0.67021344747E+02  0.41800000000E+01 0.  1.
         -5    1    3    3    0  502  0.17185278094E+02 -0.59644344620E+01 -0.59365015228E+02  0.62230102801E+02  0.41800000000E+01 0.  1.
        -11    1    1    2    0    0 -0.20561155698E+02  0.32762212678E+02  0.13670758056E+02  0.41024545445E+02  0.00000000000E+00 0.  1.
         11    1    1    2    0    0 -0.61412887877E+01 -0.51198797231E+02  0.72895913593E+02  0.89290797310E+02  0.00000000000E+00 0. -1.
</event>
<event>
 7    1  0.4394360E-006  0.6901505E+02  0.7561462E-02  0.1363475E+00
          1   -1    0    0  501    0  0.00000000000E+00  0.00000000000E+00  0.56659380691E+02  0.56659380691E+02  0.00000000000E+00 0. -1.
         -1   -1    0    0    0  501 -0.00000000000E+00 -0.00000000000E+00 -0.23294020811E+03  0.23294020811E+03  0.00000000000E+00 0.  1.
         23    2    1    2    0    0  0.35285502513E+02  0.38755904275E+01 -0.12414175850E+03  0.17976890724E+03  0.12508236054E+03 0.  0.
          5    1    3    3  502    0 -0.55278796847E+01  0.12537572522E+02  0.22819085070E+02  0.26943110845E+02  0.41800000000E+01 0.  1.
         -5    1    3    3    0  502  0.40813382198E+02 -0.86619820949E+01 -0.14696084357E+03  0.15282579640E+03  0.41800000000E+01 0.  1.
        -11    1    1    2    0    0 -0.39522363582E+02  0.28750398119E+02 -0.58596482374E+02  0.76303016728E+02  0.00000000000E+00 0.  1.
         11    1    1    2    0    0  0.42368610689E+01 -0.32625988547E+02  0.64574134600E+01  0.33527664830E+02  0.00000000000E+00 0. -1.
</event>
<event>
 7    1  0.4394360E-006  0.1851302E+03  0.7561462E-02  0.1162928E+00
          1   -1    0    0  501    0  0.00000000000E+00  0.00000000000E+00  0.11749381786E+04  0.11749381786E+04  0.00000000000E+00 0. -1.
         -1   -1    0    0    0  501 -0.00000000000E+00 -0.00000000000E+00 -0.31392351639E+02  0.31392351639E+02  0.00000000000E+00 0.  1.
         23    2    1    2    0    0 -0.95302800758E+02  0.12185620953E+03  0.49944566082E+03  0.53761108442E+03  0.12509256710E+03 0.  0.
          5    1    3    3  502    0 -0.24147747123E+02  0.12216903843E+03  0.36091043510E+03  0.38181435568E+03  0.41800000000E+01 0.  1.
         -5    1    3    3    0  502 -0.71155053635E+02 -0.31282889400E+00  0.13853522572E+03  0.15579672874E+03  0.41800000000E+01 0.  1.
        -11    1    1    2    0    0 -0.14444319129E+02 -0.19832034353E+02  0.45995267516E+02  0.52129766694E+02  0.00000000000E+00 0.  1.
         11    1    1    2    0    0  0.10974711989E+03 -0.10202417518E+03  0.59810489864E+03  0.61658967914E+03  0.00000000000E+00 0. -1.
</event>
<event>
 7    1  0.4394360E-006  0.3252083E+03  0.7561462E-02  0.1073277E+00
          1   -1    0    0  501    0  0.00000000000E+00  0.00000000000E+00  0.59069095950E+03  0.59069095950E+03  0.00000000000E+00 0. -1.
         -1   -1    0    0    0  501 -0.00000000000E+00 -0.00000000000E+00 -0.19901712651E+03  0.19901712651E+03  0.00000000000E+00 0.  1.
         23    2    1    2    0    0 -0.75181136686E+02 -0.30196861356E+03  0.12399757113E+03  0.35614015062E+03  0.12092626822E+03 0.  0.
          5    1    3    3  502    0  0.11449551328E+02 -0.18912018855E+03  0.51361031253E+02  0.19634909186E+03  0.41800000000E+01 0. -1.
         -5    1    3    3    0  502 -0.86630688015E+02 -0.11284842501E+03  0.72636539880E+02  0.15979105876E+03  0.41800000000E+01 0.  1.
        -11    1    1    2    0    0  0.13252269574E+02  0.19130370770E+03  0.81633060517E+02  0.20841470149E+03  0.00000000000E+00 0.  1.
         11    1    1    2    0    0  0.61928867112E+02  0.11066490586E+03  0.18604320134E+03  0.22515323390E+03  0.00000000000E+00 0. -1.
</event>
<event>
 7    1  0.4394360E-006  0.1097927E+03  0.7561462E-02  0.1260954E+00
          2   -1    0    0  501    0  0.00000000000E+00  0.00000000000E+00  0.43642827747E+03  0.43642827747E+03  0.00000000000E+00 0. -1.
         -2   -1    0    0    0  501 -0.00000000000E+00 -0.00000000000E+00 -0.36494917686E+02  0.36494917686E+02  0.00000000000E+00 0.  1.
         23    2    1    2    0    0  0.42429167414E+02  0.14863638763E+02  0.13518630034E+03  0.18960026065E+03  0.12510699834E+03 0.  0.
          5    1    3    3  502    0  0.83779430421E+02  0.23639348348E+02  0.10954549518E+03  0.13998392646E+03  0.41800000000E+01 0.  1.
         -5    1    3    3    0  502 -0.41350263006E+02 -0.87757095851E+01  0.25640805153E+02  0.49616334189E+02  0.41800000000E+01 0.  1.
        -11    1    1    2    0    0 -0.51447443184E+02 -0.38760976967E+02  0.23705072380E+03  0.24564669426E+03  0.00000000000E+00 0. -1.
         11    1    1    2    0    0  0.90182757702E+01  0.23897338204E+02  0.27696335651E+02  0.37676240253E+02  0.00000000000E+00 0.  1.
</event>
<event>
 7    1  0.4394360E-006  0.1718561E+03  0.7561462E-02  0.1175926E+00
          1   -1    0    0  501    0  0.00000000000E+00  0.00000000000E+00  0.59836609969E+03  0.59836609969E+03  0.00000000000E+00 0. -1.
         -1   -1    0    0    0  501 -0.00000000000E+00 -0.00000000000E+00 -0.53573019327E+02  0.53573019327E+02  0.00000000000E+00 0.  1.
         23    2    1    2    0    0 -0.52594327733E+02 -0.12903953865E+03  0.23685915298E+03  0.30193893210E+03  0.12508994573E+03 0.  0.
          5    1    3    3  502    0  0.18799769677E+02  0.15574623762E+02  0.44055311510E+02  0.50540509667E+02  0.41800000000E+01 0.  1.
         -5    1    3    3    0  502 -0.71394097410E+02 -0.14461416242E+03  0.19280384147E+03  0.25139842243E+03  0.41800000000E+01 0.  1.
        -11    1    1    2    0    0 -0.17577485840E+02  0.12469706010E+02  0.12933766715E+02  0.25134516066E+02  0.00000000000E+00 0. -1.
         11    1    1    2    0    0  0.70171813574E+02  0.11656983264E+03  0.29500016067E+03  0.32486567085E+03  0.00000000000E+00 0.  1.
</event>
<event>
 7    1  0.4394360E-006  0.1097417E+03  0.7561462E-02  0.1261049E+00
          1   -1    0    0  501    0  0.00000000000E+00  0.00000000000E+00  0.26200751219E+02  0.26200751219E+02  0.00000000000E+00 0. -1.
         -1   -1    0    0    0  501 -0.00000000000E+00 -0.00000000000E+00 -0.53334176646E+03  0.53334176646E+03  0.00000000000E+00 0.  1.
         23    2    1    2    0    0  0.34565689591E+02 -0.35475915805E+00 -0.36249997049E+03  0.38503172082E+03  0.12509310406E+03 0.  0.
          5    1    3    3  502    0  0.13921259619E+02 -0.62300269708E+02 -0.19392969263E+03  0.20420901831E+03  0.41800000000E+01 0.  1.
         -5    1    3    3    0  502  0.20644429971E+02  0.61945510550E+02 -0.16857027786E+03  0.18082270251E+03  0.41800000000E+01 0.  1.
        -11    1    1    2    0    0  0.47883496001E+01 -0.36112628072E+02 -0.27421368801E+02  0.45595851402E+02  0.00000000000E+00 0. -1.
         11    1    1    2    0    0 -0.39354039191E+02  0.36467387230E+02 -0.11721967595E+03  0.12891494546E+03  0.00000000000E+00 0.  1.
</event>
<event>
 7    1  0.4394360E-006  0.1198600E+03  0.7561462E-02  0.1243328E+00
         -2   -1    0    0    0  501 -0.00000000000E+00  0.00000000000E+00  0.26910353866E+02  0.26910353866E+02  0.00000000000E+00 0. -1.
          2   -1    0    0  501    0  0.00000000000E+00 -0.00000000000E+00 -0.58580957909E+03  0.58580957909E+03  0.00000000000E+00 0.  1.
         23    2    1    2    0    0  0.48191280664E+02 -0.12478224798E+02 -0.22302464610E+03  0.26050977750E+03  0.12508895147E+03 0.  0.
          5    1    3    3  502    0  0.90199754057E+02 -0.24618609668E+01 -0.16431906414E+03  0.18751075604E+03  0.41800000000E+01 0. -1.
         -5    1    3    3    0  502 -0.42008473393E+02 -0.10016363831E+02 -0.58705581956E+02  0.72999021459E+02  0.41800000000E+01 0. -1.
        -11    1    1    2    0    0 -0.49166040380E+02  0.49031252141E+02 -0.21690675372E+03  0.22774964989E+03  0.00000000000E+00 0.  1.
         11    1    1    2    0    0  0.97475971584E+00 -0.36553027343E+02 -0.11896782540E+03  0.12446050556E+03  0.00000000000E+00 0. -1.
</event>
<event>
 7    1  0.4394360E-006  0.6791173E+02  0.7561462E-02  0.1367342E+00
         -4   -1    0    0    0  501 -0.00000000000E+00  0.00000000000E+00  0.72897088275E+03  0.72897088275E+03  0.00000000000E+00 0.  1.
          4   -1    0    0  501    0  0.00000000000E+00 -0.00000000000E+00 -0.16904371254E+02  0.16904371254E+02  0.00000000000E+00 0. -1.
         23    2    1    2    0    0 -0.17371684009E+02 -0.10468826294E+02  0.45669826902E+03  0.47395333258E+03  0.12508829204E+03 0.  0.
          5    1    3    3  502    0  0.11348001829E+02 -0.36026776287E+01 -0.32570453550E+01  0.13032159301E+02  0.41800000000E+01 0. -1.
         -5    1    3    3    0  502 -0.28719685838E+02 -0.68661486656E+01  0.45995531438E+03  0.46092117328E+03  0.41800000000E+01 0. -1.
        -11    1    1    2    0    0  0.15127970674E+02 -0.40050480937E+02  0.11286087450E+03  0.12070821643E+03  0.00000000000E+00 0. -1.
         11    1    1    2    0    0  0.22437133344E+01  0.50519307231E+02  0.14250736798E+03  0.15121370500E+03  0.00000000000E+00 0.  1.
</event>
<event>
 7    1  0.4394360E-006  0.1599600E+03  0.7561462E-02  0.1188742E+00
         -4   -1    0    0    0  501 -0.00000000000E+00  0.00000000000E+00  0.71927851320E+02  0.71927851320E+02  0.00000000000E+00 0.  1.
          4   -1    0    0  501    0  0.00000000000E+00 -0.00000000000E+00 -0.37603151061E+03  0.37603151061E+03  0.00000000000E+00 0. -1.
         23    2    1    2    0    0  0.73894401327E+01 -0.12176635965E+03 -0.18171144087E+03  0.25208702186E+03  0.12508864328E+03 0.  0.
          5    1    3    3  502    0  0.16727742979E+02  0.23377587231E+02 -0.26183461487E+02  0.39107224721E+02  0.41800000000E+01 0. -1.
         -5    1    3    3    0  502 -0.93383028465E+01 -0.14514394688E+03 -0.15552797939E+03  0.21297979714E+03  0.41800000000E+01 0. -1.
        -11    1    1    2    0    0  0.35944650218E+02  0.51194216540E+02 -0.83627896377E+02  0.10443414546E+03  0.00000000000E+00 0. -1.
         11    1    1    2    0    0 -0.43334090350E+02  0.70572143112E+02 -0.38764322041E+02  0.91438194608E+02  0.00000000000E+00 0.  1.
</event>
<event>
 7    1  0.4394360E-006  0.1887062E+03  0.7561462E-02  0.1159633E+00
         -1   -1    0    0    0  501 -0.00000000000E+00  0.00000000000E+00  0.27166400482E+03  0.27166400482E+03  0.00000000000E+00 0. -1.
          1   -1    0    0  501    0  0.00000000000E+00 -0.00000000000E+00 -0.16667473629E+03  0.16667473629E+03  0.00000000000E+00 0.  1.
         23    2    1    2    0    0 -0.11614060157E+03  0.13388251007E+03  0.10114175712E+03  0.23937654771E+03  0.12513317195E+03 0.  0.
          5    1    3    3  502    0 -0.12355261887E+03  0.11902643278E+03  0.12334537894E+03  0.21133881857E+03  0.41800000000E+01 0. -1.
         -5    1    3    3    0  502  0.74120172935E+01  0.14856077297E+02 -0.22203621826E+02  0.28037729138E+02  0.41800000000E+01 0. -1.
        -11    1    1    2    0    0  0.64951073059E+02 -0.11866598738E+03 -0.26043649977E+02  0.13776258620E+03  0.00000000000E+00 0.  1.
         11    1    1    2    0    0  0.51189528514E+02 -0.15216522690E+02  0.29891161386E+02  0.61199607198E+02  0.00000000000E+00 0. -1.
</event>
<event>
 7    1  0.4394360E-006  0.9561123E+02  0.7561462E-02  0.1289805E+00
         -2   -1    0    0    0  501 -0.00000000000E+00  0.00000000000E+00  0.57782739908E+03  0.57782739908E+03  0.00000000000E+00 0.  1.
          2   -1    0    0  501    0  0.00000000000E+00 -0.00000000000E+00 -0.22484216003E+02  0.22484216003E+02  0.00000000000E+00 0. -1.
         23    2    1    2    0    0 -0.28978559305E+02 -0.12075207417E+02  0.34445486766E+03  0.36780773054E+03  0.12509117978E+03 0.  0.
          5    1    3    3  502    0 -0.24933936902E+02  0.49668345662E+02  0.23950333225E+03  0.24590234714E+03  0.41800000000E+01 0. -1.
         -5    1    3    3    0  502 -0.40446224024E+01 -0.61743553079E+02  0.10495153540E+03  0.12190538340E+03  0.41800000000E+01 0. -1.
        -11    1    1    2    0    0  0.91632795538E+01 -0.27623520719E+02  0.16899210230E+03  0.17147989744E+03  0.00000000000E+00 0.  1.
         11    1    1    2    0    0  0.19815279751E+02  0.39698728136E+02  0.41896213121E+02  0.61023987096E+02  0.00000000000E+00 0. -1.
</event>
<event>
 7    1  0.4394360E-006  0.2214937E+03  0.7561462E-02  0.1132774E+00
         -2   -1    0    0    0  501 -0.00000000000E+00  0.00000000000E+00  0.18778067604E+03  0.18778067604E+03  0.00000000000E+00 0.  1.
          2   -1    0    0  501    0  0.00000000000E+00 -0.00000000000E+00 -0.26582765817E+03  0.26582765817E+03  0.00000000000E+00 0. -1.
         23    2    1    2    0    0 -0.16983992944E+03 -0.86192084054E+02 -0.19354317528E+02  0.22868413694E+03  0.12508864015E+03 0.  0.
          5    1    3    3  502    0  0.13882565941E+02  0.11209738967E+02 -0.90576491195E+01  0.20442536349E+02  0.41800000000E+01 0.  1.
         -5    1    3    3    0  502 -0.18372249538E+03 -0.97401823020E+02 -0.10296668408E+02  0.20824160059E+03  0.41800000000E+01 0.  1.
        -11    1    1    2    0    0  0.75927997411E+02  0.95835701864E+02 -0.25868955955E+02  0.12497497920E+03  0.00000000000E+00 0.  1.
         11    1    1    2    0    0  0.93911932031E+02 -0.96436178102E+01 -0.32823708646E+02  0.99949218064E+02  0.00000000000E+00 0. -1.
</event>
<event>
 7    1  0.4394360E-006  0.9259381E+02  0.7561462E-02  0.1296689E+00
          2   -1    0    0  501    0  0.00000000000E+00  0.00000000000E+00  0.36478945185E+03  0.36478945185E+03  0.00000000000E+00 0. -1.
         -2   -1    0    0    0  501 -0.00000000000E+00 -0.00000000000E+00 -0.44758344864E+02  0.44758344864E+02  0.00000000000E+00 0.  1.
         23    2    1    2    0    0 -0.56952976772E+01 -0.63889775404E+02  0.14143914322E+03  0.19941645173E+03  0.12509016815E+03 0.  0.
          5    1    3    3  502    0  0.17428143151E+02 -0.89343929845E+01 -0.19369014040E+02  0.27860270217E+02  0.41800000000E+01 0. -1.
         -5    1    3    3    0  502 -0.23123440828E+02 -0.54955382419E+02  0.16080815726E+03  0.17155618151E+03  0.41800000000E+01 0. -1.
        -11    1    1    2    0    0  0.13095073124E+02  0.83454692331E+02  0.16446086101E+03  0.18488791582E+03  0.00000000000E+00 0. -1.
         11    1    1    2    0    0 -0.73997754465E+01 -0.19564916927E+02  0.14131102755E+02  0.25243429167E+02  0.00000000000E+00 0.  1.
</event>
<event>
 7    1  0.4394360E-006  0.1424743E+03  0.7561462E-02  0.1210038E+00
          2   -1    0    0  501    0  0.00000000000E+00  0.00000000000E+00  0.16734678665E+03  0.16734678665E+03  0.00000000000E+00 0.  1.
         -2   -1    0    0    0  501 -0.00000000000E+00 -0.00000000000E+00 -0.18614995595E+03  0.18614995595E+03  0.00000000000E+00 0. -1.
         23    2    1    2    0    0 -0.39736114817E+02  0.87144415667E+02 -0.11052410492E+03  0.19244788783E+03  0.12508998265E+03 0.  0.
          5    1    3    3  502    0  0.30428109920E+02  0.79986701201E+02 -0.72354208765E+02  0.11214430957E+03  0.41800000000E+01 0.  1.
         -5    1    3    3    0  502 -0.70164224737E+02  0.71577144659E+01 -0.38169896153E+02  0.80303578262E+02  0.41800000000E+01 0.  1.
        -11    1    1    2    0    0 -0.14901577719E+02 -0.69678537754E+02  0.31579630981E+02  0.77938621588E+02  0.00000000000E+00 0. -1.
         11    1    1    2    0    0  0.54637692537E+02 -0.17465877912E+02  0.60141304632E+02  0.83110233183E+02  0.00000000000E+00 0.  1.
</event>
<event>
 7    1  0.4394360E-006  0.4030570E+02  0.7561462E-02  0.1505974E+00
          2   -1    0    0  501    0  0.00000000000E+00  0.00000000000E+00  0.13426601781E+03  0.13426601781E+03  0.00000000000E+00 0. -1.
         -2   -1    0    0    0  501 -0.00000000000E+00 -0.00000000000E+00 -0.94099039243E+02  0.94099039243E+02  0.00000000000E+00 0.  1.
         23    2    1    2    0    0 -0.59806351411E+01  0.10305358086E+01 -0.18417818676E+02  0.12658217372E+03  0.12508797168E+03 0.  0.
          5    1    3    3  502    0 -0.11348110273E+02  0.17966665523E+02 -0.69257918347E+02  0.72565228109E+02  0.41800000000E+01 0. -1.
         -5    1    3    3    0  502  0.53674751322E+01 -0.16936129715E+02  0.50840099671E+02  0.54016945615E+02  0.41800000000E+01 0. -1.
        -11    1    1    2    0    0  0.57387416566E+01  0.19420099253E+02 -0.15133344604E+02  0.25280259685E+02  0.00000000000E+00 0.  1.
         11    1    1    2    0    0  0.24189348450E+00 -0.20450635062E+02  0.73718141844E+02  0.76502623640E+02  0.00000000000E+00 0. -1.
</event>
<event>
 7    1  0.4394360E-006  0.6669901E+02  0.7561462E-02  0.1371692E+00
          2   -1    0    0  501    0  0.00000000000E+00  0.00000000000E+00  0.14551423901E+03  0.14551423901E+03  0.00000000000E+00 0. -1.
         -2   -1    0    0    0  501 -0.00000000000E+00 -0.00000000000E+00 -0.94035317984E+02  0.94035317984E+02  0.00000000000E+00 0.  1.
         23    2    1    2    0    0 -0.31381540404E+02  0.20149662203E+02  0.22447137555E+02  0.13244682925E+03  0.12508988220E+03 0.  0.
          5    1    3    3  502    0 -0.11903780154E+02 -0.99813773702E+01 -0.49441913032E+02  0.51993298034E+02  0.41800000000E+01 0. -1.
         -5    1    3    3    0  502 -0.19477760250E+02  0.30131039573E+02  0.71889050588E+02  0.80453531212E+02  0.41800000000E+01 0. -1.
        -11    1    1    2    0    0  0.47507783898E+02 -0.35203216937E+02 -0.12168308841E+02  0.60368234642E+02  0.00000000000E+00 0.  1.
         11    1    1    2    0    0 -0.16126243495E+02  0.15053554735E+02  0.41200092309E+02  0.46734493104E+02  0.00000000000E+00 0. -1.
</event>
<event>
 7    1  0.4394360E-006  0.1526453E+03  0.7561462E-02  0.1197260E+00
          2   -1    0    0  501    0  0.00000000000E+00  0.00000000000E+00  0.68007768543E+03  0.68007768543E+03  0.00000000000E+00 0. -1.
         -2   -1    0    0    0  501 -0.00000000000E+00 -0.00000000000E+00 -0.38149795224E+02  0.38149795224E+02  0.00000000000E+00 0.  1.
         23    2    1    2    0    0  0.37271212005E+02 -0.11031818578E+03  0.28928830598E+03  0.33600585994E+03  0.12511182431E+03 0.  0.
          5    1    3    3  502    0 -0.38754369543E+02 -0.79599676761E+02  0.14243568182E+03  0.16775996410E+03  0.41800000000E+01 0.  1.
         -5    1    3    3    0  502  0.76025581547E+02 -0.30718509014E+02  0.14685262416E+03  0.16824589584E+03  0.41800000000E+01 0.  1.
        -11    1    1    2    0    0 -0.63160599160E+01  0.10241257303E+03  0.32200896155E+03  0.33796153486E+03  0.00000000000E+00 0. -1.
         11    1    1    2    0    0 -0.30955152089E+02  0.79056127500E+01  0.30630622672E+02  0.44260085846E+02  0.00000000000E+00 0.  1.
</event>
<event>
 7    1  0.4394360E-006  0.1349668E+03  0.7561462E-02  0.1220267E+00
         -2   -1    0    0    0  501 -0.00000000000E+00  0.00000000000E+00  0.51202623256E+02  0.51202623256E+02  0.00000000000E+00 0.  1.
          2   -1    0    0  501    0  0.00000000000E+00 -0.00000000000E+00 -0.39192564901E+03  0.39192564901E+03  0.00000000000E+00 0. -1.
         23    2    1    2    0    0  0.22761563603E+02 -0.85599771548E+02 -0.15991055158E+03  0.22149008740E+03  0.12506424206E+03 0.  0.
          5    1    3    3  502    0 -0.18936707789E+02  0.26645706667E+02 -0.27537005439E+02  0.42945915454E+02  0.41800000000E+01 0. -1.
         -5    1    3    3    0  502  0.41698271392E+02 -0.11224547821E+03 -0.13237354614E+03  0.17854417194E+03  0.41800000000E+01 0. -1.
        -11    1    1    2    0    0 -0.50727581406E+02  0.44664379972E+02 -0.14651901210E+03  0.16135679490E+03  0.00000000000E+00 0. -1.
         11    1    1    2    0    0  0.27966017803E+02  0.40935391576E+02 -0.34293462068E+02  0.60281389963E+02  0.00000000000E+00 0.  1.
</event>
<event>
 7    1  0.4394360E-006  0.8151241E+02  0.7561462E-02  0.1324813E+00
         -1   -1    0    0    0  501 -0.00000000000E+00  0.00000000000E+00  0.21544748229E+03  0.21544748229E+03  0.00000000000E+00 0.  1.
          1   -1    0    0  501    0  0.00000000000E+00 -0.00000000000E+00 -0.61031730846E+02  0.61031730846E+02  0.00000000000E+00 0. -1.
         23    2    1    2    0    0 -0.19798243117E+02  0.27640273691E+02  0.12580438838E+03  0.17415032676E+03  0.11552331806E+03 0.  0.
          5    1    3    3  502    0  0.18411591015E+02  0.29759678845E+02 -0.69542272614E+01  0.35922957081E+02  0.41800000000E+01 0. -1.
         -5    1    3    3    0  502 -0.38209834131E+02 -0.21194051547E+01  0.13275861564E+03  0.13822736968E+03  0.41800000000E+01 0.  1.
        -11    1    1    2    0    0 -0.29708947915E+02 -0.26429015023E+02  0.34258682712E+02  0.52485919659E+02  0.00000000000E+00 0.  1.
         11    1    1    2    0    0  0.49507191031E+02 -0.12112586675E+01 -0.56473196477E+01  0.49842966711E+02  0.00000000000E+00 0. -1.
</event>
<event>
 7    1  0.4394360E-006  0.8382962E+02  0.7561462E-02  0.1318522E+00
         -2   -1    0    0    0  501 -0.00000000000E+00  0.00000000000E+00  0.18171977382E+03  0.18171977382E+03  0.00000000000E+00 0.  1.
          2   -1    0    0  501    0  0.00000000000E+00 -0.00000000000E+00 -0.65303006206E+02  0.65303006206E+02  0.00000000000E+00 0. -1.
         23    2    1    2    0    0  0.28706615137E+02 -0.10644213514E+02  0.92262098863E+02  0.15841738667E+03  0.12508558861E+03 0.  0.
          5    1    3    3  502    0  0.12995208696E+02 -0.47225519719E+02 -0.85964739562E+01  0.49904878782E+02  0.41800000000E+01 0. -1.
         -5    1    3    3    0  502  0.15711406442E+02  0.36581306206E+02  0.10085857282E+03  0.10851250788E+03  0.41800000000E+01 0. -1.
        -11    1    1    2    0    0  0.23547140265E+02 -0.46942254908E+01  0.24279630399E+02  0.34146801020E+02  0.00000000000E+00 0.  1.
         11    1    1    2    0    0 -0.52253755402E+02  0.15338439004E+02 -0.12496164317E+00  0.54458592344E+02  0.00000000000E+00 0. -1.
</event>
<event>
 7    1  0.4394360E-006  0.1212495E+03  0.7561462E-02  0.1241050E+00
          2   -1    0    0  501    0  0.00000000000E+00  0.00000000000E+00  0.79667535688E+03  0.79667535688E+03  0.00000000000E+00 0. -1.
         -2   -1    0    0    0  501 -0.00000000000E+00 -0.00000000000E+00 -0.19395612426E+02  0.19395612426E+02  0.00000000000E+00 0.  1.
         23    2    1    2    0    0 -0.58930534837E+02  0.64493060486E+01  0.47491497913E+03  0.49467071215E+03  0.12506188296E+03 0.  0.
          5    1    3    3  502    0 -0.84970499244E+02  0.40813067761E+02  0.30103430495E+03  0.31547554168E+03  0.41800000000E+01 0.  1.
         -5    1    3    3    0  502  0.26039964407E+02 -0.34363761712E+02  0.17388067418E+03  0.17919517047E+03  0.41800000000E+01 0.  1.
        -11    1    1    2    0    0  0.73610243377E+02 -0.27994633903E+02  0.25991141492E+03  0.27158076343E+03  0.00000000000E+00 0. -1.
         11    1    1    2    0    0 -0.14679708540E+02  0.21545327855E+02  0.42453350398E+02  0.49819493727E+02  0.00000000000E+00 0.  1.
</event>
<event>
 7    1  0.4394360E-006  0.9165797E+02  0.7561462E-02  0.1298886E+00
          3   -1    0    0  501    0  0.00000000000E+00  0.00000000000E+00  0.12688855219E+03  0.12688855219E+03  0.00000000000E+00 0. -1.
         -3   -1    0    0    0  501 -0.00000000000E+00 -0.00000000000E+00 -0.17960777264E+03  0.17960777264E+03  0.00000000000E+00 0.  1.
         23    2    1    2    0    0 -0.50590619740E+02 -0.33189939184E+02 -0.11527166850E+03  0.18054447603E+03  0.12509103644E+03 0.  0.
          5    1    3    3  502    0 -0.47169441280E+02 -0.51882701005E+02 -0.70607623335E+01  0.70598141753E+02  0.41800000000E+01 0.  1.
         -5    1    3    3    0  502 -0.34211784594E+01  0.18692761820E+02 -0.10821090617E+03  0.10994633428E+03  0.41800000000E+01 0.  1.
        -11    1    1    2    0    0  0.65759021329E+02  0.10905325901E+02  0.71305131655E+02  0.97609409482E+02  0.00000000000E+00 0. -1.
         11    1    1    2    0    0 -0.15168401589E+02  0.22284613283E+02 -0.87526835995E+01  0.28342439312E+02  0.00000000000E+00 0.  1.
</event>
<event>
 7    1  0.4394360E-006  0.1515279E+03  0.7561462E-02  0.1198608E+00
         -1   -1    0    0    0  501 -0.00000000000E+00  0.00000000000E+00  0.21552790568E+03  0.21552790568E+03  0.00000000000E+00 0.  1.
          1   -1    0    0  501    0  0.00000000000E+00 -0.00000000000E+00 -0.11821890512E+03  0.11821890512E+03  0.00000000000E+00 0. -1.
         23    2    1    2    0    0  0.89612228913E+01  0.10482879740E+03  0.56109326065E+02  0.16603595209E+03  0.11554350104E+03 0.  0.
          5    1    3    3  502    0  0.55602697497E+02  0.37482671949E+02  0.96069063900E+00  0.67193794296E+02  0.41800000000E+01 0. -1.
         -5    1    3    3    0  502 -0.46641474606E+02  0.67346125455E+02  0.55148635426E+02  0.98842157790E+02  0.41800000000E+01 0.  1.
        -11    1    1    2    0    0 -0.60738792532E+02 -0.53664297421E+02  0.48663734233E+02  0.94536854006E+02  0.00000000000E+00 0.  1.
         11    1    1    2    0    0  0.51777569641E+02 -0.51164499984E+02 -0.74640597404E+01  0.73174004703E+02  0.00000000000E+00 0. -1.
</event>
<event>
 7    1  0.4394360E-006  0.1284770E+03  0.7561462E-02  0.1229733E+00
         -2   -1    0    0    0  501 -0.00000000000E+00  0.00000000000E+00  0.13606628616E+04  0.13606628616E+04  0.00000000000E+00 0.  1.
          2   -1    0    0  501    0  0.00000000000E+00 -0.00000000000E+00 -0.19696193989E+02  0.19696193989E+02  0.00000000000E+00 0. -1.
         23    2    1    2    0    0 -0.65731446040E+02  0.58451829526E+02  0.10706389379E+04  0.10815047482E+04  0.12509015066E+03 0.  0.
          5    1    3    3  502    0 -0.92993019333E+02  0.38800308071E+02  0.51185111898E+03  0.52169167710E+03  0.41800000000E+01 0.  1.
         -5    1    3    3    0  502  0.27261573293E+02  0.19651521456E+02  0.55878781890E+03  0.55981307115E+03  0.41800000000E+01 0.  1.
        -11    1    1    2    0    0 -0.17066756753E+02 -0.30318343426E+02  0.12000199920E+03  0.12494381116E+03  0.00000000000E+00 0.  1.
         11    1    1    2    0    0  0.82798202793E+02 -0.28133486100E+02  0.15032573054E+03  0.17391049620E+03  0.00000000000E+00 0. -1.
</event>
<event>
 7    1  0.4394360E-006  0.8049581E+02  0.7561462E-02  0.1327650E+00
         -1   -1    0    0    0  501 -0.00000000000E+00  0.00000000000E+00  0.77763348333E+02  0.77763348333E+02  0.00000000000E+00 0.  1.
          1   -1    0    0  501    0  0.00000000000E+00 -0.00000000000E+00 -0.21324040078E+03  0.21324040078E+03  0.00000000000E+00 0. -1.
         23    2    1    2    0    0 -0.99456037140E+01  0.39748721686E+02 -0.13169912970E+02  0.13228773351E+03  0.12509085467E+03 0.  0.
          5    1    3    3  502    0  0.14760886903E+02  0.40478722616E+02  0.48923332770E+02  0.65325153319E+02  0.41800000000E+01 0. -1.
         -5    1    3    3    0  502 -0.24706490617E+02 -0.73000092956E+00 -0.62093245740E+02  0.66962580196E+02  0.41800000000E+01 0. -1.
        -11    1    1    2    0    0 -0.28907145585E+02  0.90200611795E+01 -0.73625138750E+02  0.79609331272E+02  0.00000000000E+00 0. -1.
         11    1    1    2    0    0  0.38852749299E+02 -0.48768782866E+02 -0.48682000729E+02  0.79106684327E+02  0.00000000000E+00 0.  1.
</event>
<event>
 7    1  0.4394360E-006  0.8977479E+02  0.7561462E-02  0.1303398E+00
         -2   -1    0    0    0  501 -0.00000000000E+00  0.00000000000E+00  0.34110672290E+02  0.34110672290E+02  0.00000000000E+00 0. -1.
          2   -1    0    0  501    0  0.00000000000E+00 -0.00000000000E+00 -0.45351151496E+03  0.45351151496E+03  0.00000000000E+00 0.  1.
         23    2    1    2    0    0 -0.19234947456E+02 -0.37016941042E+02 -0.14617274700E+03  0.19685445565E+03  0.12507984496E+03 0.  0.
          5    1    3    3  502    0  0.48761985467E+01 -0.51697064467E+02 -0.44465503997E+01  0.52283917195E+02  0.41800000000E+01 0.  1.
         -5    1    3    3    0  502 -0.24111146003E+02  0.14680123425E+02 -0.14172619660E+03  0.14457053846E+03  0.41800000000E+01 0.  1.
        -11    1    1    2    0    0 -0.20679260860E+01 -0.29244249660E+02 -0.67733890014E+02  0.73806383958E+02  0.00000000000E+00 0.  1.
         11    1    1    2    0    0  0.21302873542E+02  0.66261190702E+02 -0.20549420565E+03  0.21696134764E+03  0.00000000000E+00 0. -1.
</event>
<event>
 7    1  0.4394360E-006  0.9508584E+02  0.7561462E-02  0.1290983E+00
          1   -1    0    0  501    0  0.00000000000E+00  0.00000000000E+00  0.34755029250E+03  0.34755029250E+03  0.00000000000E+00 0. -1.
         -1   -1    0    0    0  501 -0.00000000000E+00 -0.00000000000E+00 -0.45637900305E+02  0.45637900305E+02  0.00000000000E+00 0.  1.
         23    2    1    2    0    0  0.47602819698E+02 -0.27716584973E+02  0.11764635955E+03  0.18032655765E+03  0.12507103563E+03 0.  0.
          5    1    3    3  502    0 -0.15891787510E+02 -0.13998653443E+02  0.11302591701E+03  0.11506885558E+03  0.41800000000E+01 0.  1.
         -5    1    3    3    0  502  0.63494607208E+02 -0.13717931530E+02  0.46204425387E+01  0.65257702068E+02  0.41800000000E+01 0.  1.
        -11    1    1    2    0    0 -0.44224397862E+02 -0.24909243628E+02  0.11584705658E+03  0.12647848949E+03  0.00000000000E+00 0. -1.
         11    1    1    2    0    0 -0.33784218363E+01  0.52625828601E+02  0.68418976062E+02  0.86383145668E+02  0.00000000000E+00 0.  1.
</event>
<event>
 7    1  0.4394360E-006  0.1212337E+03  0.7561462E-02  0.1241076E+00
          1   -1    0    0  501    0  0.00000000000E+00  0.00000000000E+00  0.34948795729E+03  0.34948795729E+03  0.00000000000E+00 0. -1.
         -1   -1    0    0    0  501 -0.00000000000E+00 -0.00000000000E+00 -0.64707869679E+02  0.64707869679E+02  0.00000000000E+00 0.  1.
         23    2    1    2    0    0  0.39144775861E+02  0.86966474736E+02  0.10817137729E+03  0.19090949162E+03  0.12509958402E+03 0.  0.
          5    1    3    3  502    0 -0.31832686022E+02 -0.32029435336E+01 -0.12563091353E+01  0.32289773293E+02  0.41800000000E+01 0.  1.
         -5    1    3    3    0  502  0.70977461883E+02  0.90169418270E+02  0.10942768642E+03  0.15861971833E+03  0.41800000000E+01 0.  1.
        -11    1    1    2    0    0 -0.20612004827E+02 -0.44965773883E+02  0.99961248777E+01  0.50464820186E+02  0.00000000000E+00 0.  1.
         11    1    1    2    0    0 -0.18532771033E+02 -0.42000700854E+02  0.16661258544E+03  0.17282151516E+03  0.00000000000E+00 0. -1.
</event>
<event>
 7    1  0.4394360E-006  0.1845044E+03  0.7561462E-02  0.1163514E+00
         -2   -1    0    0    0  501 -0.00000000000E+00  0.00000000000E+00  0.34155159795E+02  0.34155159795E+02  0.00000000000E+00 0.  1.
          2   -1    0    0  501    0  0.00000000000E+00 -0.00000000000E+00 -0.12141578837E+04  0.12141578837E+04  0.00000000000E+00 0. -1.
         23    2    1    2    0    0  0.16394423093E+03  0.49764496932E+01 -0.45221446676E+03  0.49703882670E+03  0.12508875008E+03 0.  0.
          5    1    3    3  502    0  0.12621166865E+03  0.58652969307E+02 -0.33212475441E+03  0.36013036668E+03  0.41800000000E+01 0. -1.
         -5    1    3    3    0  502  0.37732562279E+02 -0.53676519614E+02 -0.12008971235E+03  0.13690846002E+03  0.41800000000E+01 0. -1.
        -11    1    1    2    0    0 -0.58756610625E+02 -0.10628658368E+01 -0.11127371296E+03  0.12583842089E+03  0.00000000000E+00 0.  1.
         11    1    1    2    0    0 -0.10518762031E+03 -0.39135838564E+01 -0.61651454419E+03  0.62543579590E+03  0.00000000000E+00 0. -1.
</event>
<event>
 7    1  0.4394360E-006  0.1067400E+03  0.7561462E-02  0.1266729E+00
         -2   -1    0    0    0  501 -0.00000000000E+00  0.00000000000E+00  0.31806234646E+02  0.31806234646E+02  0.00000000000E+00 0.  1.
          2   -1    0    0  501    0  0.00000000000E+00 -0.00000000000E+00 -0.43188718156E+03  0.43188718156E+03  0.00000000000E+00 0. -1.
         23    2    1    2    0    0  0.13954111666E+01  0.88288103739E+01 -0.13968971697E+03  0.18772340410E+03  0.12508782656E+03 0.  0.
          5    1    3    3  502    0 -0.55330426259E+02  0.30405372037E+02 -0.57712881505E+02  0.85639896137E+02  0.41800000000E+01 0.  1.
         -5    1    3    3    0  502  0.56725837426E+02 -0.21576561663E+02 -0.81976835465E+02  0.10208350796E+03  0.41800000000E+01 0.  1.
        -11    1    1    2    0    0 -0.42319646814E+02 -0.20207053790E+02 -0.10741439230E+03  0.11720549988E+03  0.00000000000E+00 0.  1.
         11    1    1    2    0    0  0.40924235648E+02  0.11378243416E+02 -0.15297683764E+03  0.15876451222E+03  0.00000000000E+00 0. -1.
</event>
<event>
 7    1  0.4394360E-006  0.1411904E+03  0.7561462E-02  0.1211736E+00
         -1   -1    0    0    0  501 -0.00000000000E+00  0.00000000000E+00  0.54322112492E+02  0.54322112492E+02  0.00000000000E+00 0.  1.
          1   -1    0    0  501    0  0.00000000000E+00 -0.00000000000E+00 -0.51047750306E+03  0.51047750306E+03  0.00000000000E+00 0. -1.
         23    2    1    2    0    0  0.82853738441E+02 -0.48841564316E+02 -0.10699618326E+03  0.19064635928E+03  0.12509041009E+03 0.  0.
          5    1    3    3  502    0 -0.12386132338E+02 -0.53728013491E+02 -0.67713969303E+02  0.87422936045E+02  0.41800000000E+01 0. -1.
         -5    1    3    3    0  502  0.95239870779E+02  0.48864491749E+01 -0.39282213957E+02  0.10322342324E+03  0.41800000000E+01 0. -1.
        -11    1    1    2    0    0 -0.38015246632E+02  0.71808453673E+02 -0.25096704190E+03  0.26379171540E+03  0.00000000000E+00 0.  1.
         11    1    1    2    0    0 -0.44838491810E+02 -0.22966889357E+02 -0.98192165412E+02  0.11036154087E+03  0.00000000000E+00 0. -1.
</event>
<event>
 7    1  0.4394360E-006  0.1070703E+03  0.7561462E-02  0.1266093E+00
          1   -1    0    0  501    0  0.00000000000E+00  0.00000000000E+00  0.11255552420E+03  0.11255552420E+03  0.00000000000E+00 0. -1.
         -1   -1    0    0    0  501 -0.00000000000E+00 -0.00000000000E+00 -0.15416343535E+03  0.15416343535E+03  0.00000000000E+00 0.  1.
         23    2    1    2    0    0 -0.70280025424E+02  0.10023897845E+02 -0.50835143880E+02  0.15254684411E+03  0.12508623942E+03 0.  0.
          5    1    3    3  502    0 -0.54915148568E+02 -0.28546896904E+02 -0.80295764606E+02  0.10146665008E+03  0.41800000000E+01 0.  1.
         -5    1    3    3    0  502 -0.15364876856E+02  0.38570794748E+02  0.29460620725E+02  0.51080194027E+02  0.41800000000E+01 0.  1.
        -11    1    1    2    0    0 -0.16398336360E+02 -0.16749657043E+02 -0.94087010655E+01  0.25258267997E+02  0.00000000000E+00 0.  1.
         11    1    1    2    0    0  0.86678361784E+02  0.67257591985E+01  0.18635933794E+02  0.88913847441E+02  0.00000000000E+00 0. -1.
</event>
<event>
 7    1  0.4394360E-006  0.1517377E+03  0.7561462E-02  0.1198354E+00
         -1   -1    0    0    0  501 -0.00000000000E+00  0.00000000000E+00  0.17215633916E+03  0.17215633916E+03  0.00000000000E+00 0.  1.
          1   -1    0    0  501    0  0.00000000000E+00 -0.00000000000E+00 -0.18717397699E+03  0.18717397699E+03  0.00000000000E+00 0. -1.
         23    2    1    2    0    0  0.13324918877E+03  0.14039422431E+02  0.36316549344E+02  0.18686158389E+03  0.12508360439E+03 0.  0.
          5    1    3    3  502    0  0.13909595801E+02 -0.12552077480E+02  0.59347457751E+02  0.62374871911E+02  0.41800000000E+01 0.  1.
         -5    1    3    3    0  502  0.11933959297E+03  0.26591499911E+02 -0.23030908407E+02  0.12448671198E+03  0.41800000000E+01 0.  1.
        -11    1    1    2    0    0 -0.12758177042E+03  0.18496401338E+02 -0.27701238318E+02  0.13185819508E+03  0.00000000000E+00 0.  1.
         11    1    1    2    0    0 -0.56674183525E+01 -0.32535823768E+02 -0.23632948857E+02  0.40610537189E+02  0.00000000000E+00 0. -1.
</event>
<event>
 7    1  0.4394360E-006  0.1079101E+03  0.7561462E-02  0.1264490E+00
         -3   -1    0    0    0  501 -0.00000000000E+00  0.00000000000E+00  0.25706593829E+02  0.25706593829E+02  0.00000000000E+00 0.  1.
          3   -1    0    0  501    0  0.00000000000E+00 -0.00000000000E+00 -0.50160284464E+03  0.50160284464E+03  0.00000000000E+00 0. -1.
         23    2    1    2    0    0 -0.27313532896E+02 -0.18252201784E+02 -0.25676256877E+03  0.28665746885E+03  0.12315159673E+03 0.  0.
          5    1    3    3  502    0 -0.53013520677E+01 -0.64562247272E+02 -0.82598233454E+02  0.10505393223E+03  0.41800000000E+01 0. -1.
         -5    1    3    3    0  502 -0.22012180828E+02  0.46310045488E+02 -0.17416433532E+03  0.18160353662E+03  0.41800000000E+01 0.  1.
        -11    1    1    2    0    0  0.53346266923E+02 -0.16681594776E+02 -0.12456584075E+03  0.13653112642E+03  0.00000000000E+00 0. -1.
         11    1    1    2    0    0 -0.26032734027E+02  0.34933796560E+02 -0.94567841281E+02  0.10412084319E+03  0.00000000000E+00 0.  1.
</event>
<event>
 7    1  0.4394360E-006  0.1463060E+03  0.7561462E-02  0.1205087E+00
         -1   -1    0    0    0  501 -0.00000000000E+00  0.00000000000E+00  0.63450419274E+02  0.63450419274E+02  0.00000000000E+00 0.  1.
          1   -1    0    0  501    0  0.00000000000E+00 -0.00000000000E+00 -0.40858954344E+03  0.40858954344E+03  0.00000000000E+00 0. -1.
         23    2    1    2    0    0 -0.10135000427E+03  0.54109742836E+02 -0.10303673803E+03  0.19865598341E+03  0.12509173724E+03 0.  0.
          5    1    3    3  502    0 -0.12291146070E+03  0.69491641199E+02 -0.96450554957E+02  0.17104530779E+03  0.41800000000E+01 0.  1.
         -5    1    3    3    0  502  0.21561456425E+02 -0.15381898363E+02 -0.65861830683E+01  0.27610675613E+02  0.41800000000E+01 0.  1.
        -11    1    1    2    0    0  0.67369053914E+02 -0.88557292780E+01 -0.10508264237E+03  0.12513742483E+03  0.00000000000E+00 0.  1.
         11    1    1    2    0    0  0.33980950357E+02 -0.45254013558E+02 -0.13701974377E+03  0.14824655447E+03  0.00000000000E+00 0. -1.
</event>
<event>
 7    1  0.4394360E-006  0.9819740E+02  0.7561462E-02  0.1284133E+00
          1   -1    0    0  501    0  0.00000000000E+00  0.00000000000E+00  0.69518854102E+02  0.69518854102E+02  0.00000000000E+00 0. -1.
         -1   -1    0    0    0  501 -0.00000000000E+00 -0.00000000000E+00 -0.22108384548E+03  0.22108384548E+03  0.00000000000E+00 0.  1.
         23    2    1    2    0    0 -0.16464804444E+02 -0.10017851707E+02 -0.14849491122E+03  0.19511107616E+03  0.12508455639E+03 0.  0.
          5    1    3    3  502    0 -0.31529079853E+02 -0.54759922280E+02 -0.35543626606E+02  0.72619238201E+02  0.41800000000E+01 0.  1.
         -5    1    3    3    0  502  0.15064275409E+02  0.44742070573E+02 -0.11295128461E+03  0.12249183796E+03  0.41800000000E+01 0.  1.
        -11    1    1    2    0    0  0.37817323481E+02 -0.24518386976E+02 -0.22618297427E+02  0.50427062512E+02  0.00000000000E+00 0. -1.
         11    1    1    2    0    0 -0.21352519037E+02  0.34536238683E+02  0.19548217264E+02  0.45064560907E+02  0.00000000000E+00 0.  1.
</event>
<event>
 7    1  0.4394360E-006  0.1616796E+03  0.7561462E-02  0.1186813E+00
         -2   -1    0    0    0  501 -0.00000000000E+00  0.00000000000E+00  0.13295603205E+03  0.13295603205E+03  0.00000000000E+00 0.  1.
          2   -1    0    0  501    0  0.00000000000E+00 -0.00000000000E+00 -0.24624442981E+03  0.24624442981E+03  0.00000000000E+00 0. -1.
         23    2    1    2    0    0 -0.11682172545E+03 -0.70478109752E+02 -0.11022044787E+03  0.21542280784E+03  0.12507581508E+03 0.  0.
          5    1    3    3  502    0 -0.13892282298E+03 -0.80327450014E+02 -0.96213042514E+02  0.18715360515E+03  0.41800000000E+01 0. -1.
         -5    1    3    3    0  502  0.22101097536E+02  0.98493402623E+01 -0.14007405353E+02  0.28269202688E+02  0.41800000000E+01 0. -1.
        -11    1    1    2    0    0  0.93408964992E+02  0.45032031255E+02 -0.41845750043E+02  0.11182211488E+03  0.00000000000E+00 0.  1.
         11    1    1    2    0    0  0.23412760456E+02  0.25446078497E+02  0.38777800143E+02  0.51955539137E+02  0.00000000000E+00 0. -1.
</event>
<event>
 7    1  0.4394360E-006  0.1191516E+03  0.7561462E-02  0.1244503E+00
         -1   -1    0    0    0  501 -0.00000000000E+00  0.00000000000E+00  0.25263874521E+02  0.25263874521E+02  0.00000000000E+00 0.  1.
          1   -1    0    0  501    0  0.00000000000E+00 -0.00000000000E+00 -0.72990935250E+03  0.72990935250E+03  0.00000000000E+00 0. -1.
         23    2    1    2    0    0  0.15884320955E+02 -0.76804748852E+02 -0.30896003857E+03  0.34242684770E+03  0.12509420247E+03 0.  0.
          5    1    3    3  502    0 -0.42609705398E+02 -0.27694041559E+02 -0.46365735596E+02  0.68918798374E+02  0.41800000000E+01 0. -1.
         -5    1    3    3    0  502  0.58494026354E+02 -0.49110707293E+02 -0.26259430298E+03  0.27350804933E+03  0.41800000000E+01 0. -1.
        -11    1    1    2    0    0 -0.40609090775E+02  0.75899474464E+02 -0.35360220570E+03  0.36392904302E+03  0.00000000000E+00 0.  1.
         11    1    1    2    0    0  0.24724769820E+02  0.90527438811E+00 -0.42083233704E+02  0.48817336299E+02  0.00000000000E+00 0. -1.
</event>
<event>
 7    1  0.4394360E-006  0.9605684E+02  0.7561462E-02  0.1288813E+00
          1   -1    0    0  501    0  0.00000000000E+00  0.00000000000E+00  0.50657220038E+02  0.50657220038E+02  0.00000000000E+00 0. -1.
         -1   -1    0    0    0  501 -0.00000000000E+00 -0.00000000000E+00 -0.23273241372E+03  0.23273241372E+03  0.00000000000E+00 0.  1.
         23    2    1    2    0    0 -0.13843664241E+00 -0.21257829389E+02 -0.13373864788E+03  0.17696402999E+03  0.11392246266E+03 0.  0.
          5    1    3    3  502    0  0.44332451653E+02 -0.37183360426E+02 -0.35855017916E+02  0.68198411065E+02  0.41800000000E+01 0. -1.
         -5    1    3    3    0  502 -0.44470888295E+02  0.15925531037E+02 -0.97883629968E+02  0.10876561893E+03  0.41800000000E+01 0.  1.
        -11    1    1    2    0    0  0.38823871814E+02  0.27388046476E+02 -0.47594367979E+02  0.67250442197E+02  0.00000000000E+00 0. -1.
         11    1    1    2    0    0 -0.38685435171E+02 -0.61302170869E+01 -0.74217781701E+00  0.39175161568E+02  0.00000000000E+00 0.  1.
</event>
<event>
 6    1  0.4394360E-006  0.7605117E+02  0.7561462E-02  0.1340646E+00
         -1   -1    0    0    0  501 -0.00000000000E+00  0.00000000000E+00  0.18415942192E+03  0.18415942192E+03  0.00000000000E+00 0.  1.
          1   -1    0    0  501    0  0.00000000000E+00 -0.00000000000E+00 -0.92442291969E+02  0.92442291969E+02  0.00000000000E+00 0. -1.
          5    1    1    2  502    0 -0.20696951535E+02  0.40886939479E+02 -0.45985183461E+00  0.46019446830E+02  0.41800000000E+01 0. -1.
         -5    1    1    2    0  502  0.22405413261E+02 -0.49409354436E+02  0.14577805114E+03  0.15560205475E+03  0.41800000000E+01 0.  1.
        -11    1    1    2    0    0  0.20622480900E+01  0.29896827017E+02 -0.37236546693E+02  0.47797840354E+02  0.00000000000E+00 0. -1.
         11    1    1    2    0    0 -0.37707098154E+01 -0.21374412060E+02 -0.16364522657E+02  0.27182371957E+02  0.00000000000E+00 0.  1.
</event>
<event>
 7    1  0.4394360E-006  0.1401163E+03  0.7561462E-02  0.1213173E+00
          1   -1    0    0  501    0  0.00000000000E+00  0.00000000000E+00  0.56794508673E+03  0.56794508673E+03  0.00000000000E+00 0. -1.
         -1   -1    0    0    0  501 -0.00000000000E+00 -0.00000000000E+00 -0.48644391975E+02  0.48644391975E+02  0.00000000000E+00 0.  1.
         23    2    1    2    0    0 -0.11476481939E+03  0.32087969967E+02  0.20816156376E+03  0.27051615192E+03  0.12508856956E+03 0.  0.
          5    1    3    3  502    0 -0.13562695760E+03  0.31157319476E+02  0.20664015653E+03  0.24916475850E+03  0.41800000000E+01 0.  1.
         -5    1    3    3    0  502  0.20862138213E+02  0.93065049037E+00  0.15214072333E+01  0.21351393424E+02  0.41800000000E+01 0.  1.
        -11    1    1    2    0    0  0.56275321327E+02 -0.98083516312E+01  0.45129591536E+02  0.72799694947E+02  0.00000000000E+00 0.  1.
         11    1    1    2    0    0  0.58489498061E+02 -0.22279618335E+02  0.26600953945E+03  0.27327363183E+03  0.00000000000E+00 0. -1.
</event>
<event>
 7    1  0.4394360E-006  0.1097773E+03  0.7561462E-02  0.1260983E+00
         -2   -1    0    0    0  501 -0.00000000000E+00  0.00000000000E+00  0.12721177579E+03  0.12721177579E+03  0.00000000000E+00 0.  1.
          2   -1    0    0  501    0  0.00000000000E+00 -0.00000000000E+00 -0.15537433713E+03  0.15537433713E+03  0.00000000000E+00 0. -1.
         23    2    1    2    0    0 -0.36092423340E+02  0.39661234531E+02  0.60894252741E+02  0.14493302953E+03  0.12009078434E+03 0.  0.
          5    1    3    3  502    0 -0.76477966590E+02  0.92668396501E+01  0.53007816185E+02  0.93605847400E+02  0.41800000000E+01 0. -1.
         -5    1    3    3    0  502  0.40385543250E+02  0.30394394881E+02  0.78864365562E+01  0.51327182129E+02  0.41800000000E+01 0.  1.
        -11    1    1    2    0    0  0.53009394371E+02 -0.49150657370E+02 -0.93068989846E+02  0.11784574614E+03  0.00000000000E+00 0.  1.
         11    1    1    2    0    0 -0.16916971030E+02  0.94894228385E+01  0.40121757700E+01  0.19807337253E+02  0.00000000000E+00 0. -1.
</event>
<event>
 7    1  0.4394360E-006  0.7254512E+02  0.7561462E-02  0.1351646E+00
         -1   -1    0    0    0  501 -0.00000000000E+00  0.00000000000E+00  0.47246542012E+03  0.47246542012E+03  0.00000000000E+00 0.  1.
          1   -1    0    0  501    0  0.00000000000E+00 -0.00000000000E+00 -0.47304790465E+02  0.47304790465E+02  0.00000000000E+00 0. -1.
         23    2    1    2    0    0  0.25787966257E+02 -0.41851088743E+02  0.38740194212E+03  0.41005713764E+03  0.12510019400E+03 0.  0.
          5    1    3    3  502    0  0.13741186449E+02  0.14659733331E+02  0.23335927595E+01  0.20655411918E+02  0.41800000000E+01 0. -1.
         -5    1    3    3    0  502  0.12046779808E+02 -0.56510822074E+02  0.38506834936E+03  0.38940172572E+03  0.41800000000E+01 0. -1.
        -11    1    1    2    0    0 -0.19366146444E+02 -0.44667360562E+01  0.56074984345E+02  0.59492883847E+02  0.00000000000E+00 0.  1.
         11    1    1    2    0    0 -0.64218198133E+01  0.46317824799E+02 -0.18316296813E+02  0.50220189096E+02  0.00000000000E+00 0. -1.
</event>
<event>
 7    1  0.4394360E-006  0.1125226E+03  0.7561462E-02  0.1255968E+00
         -1   -1    0    0    0  501 -0.00000000000E+00  0.00000000000E+00  0.31756122828E+02  0.31756122828E+02  0.00000000000E+00 0.  1.
          1   -1    0    0  501    0  0.00000000000E+00 -0.00000000000E+00 -0.66497816564E+03  0.66497816564E+03  0.00000000000E+00 0. -1.
         23    2    1    2    0    0  0.33997601637E+02  0.90157361075E+02 -0.28946935835E+03  0.32973217705E+03  0.12508642005E+03 0.  0.
          5    1    3    3  502    0  0.26024256425E+02  0.59355601376E+02 -0.36030797675E+02  0.74270048595E+02  0.41800000000E+01 0. -1.
         -5    1    3    3    0  502  0.79733452125E+01  0.30801759699E+02 -0.25343856068E+03  0.25546212845E+03  0.41800000000E+01 0. -1.
        -11    1    1    2    0    0 -0.58339554315E+02 -0.85053453311E+02 -0.28939297629E+03  0.30722286413E+03  0.00000000000E+00 0. -1.
         11    1    1    2    0    0  0.24341952678E+02 -0.51039077644E+01 -0.54359708174E+02  0.59779247297E+02  0.00000000000E+00 0.  1.
</event>
<event>
 6    1  0.4394360E-006  0.1506770E+03  0.7561462E-02  0.1199644E+00
         -2   -1    0    0    0  501 -0.00000000000E+00  0.00000000000E+00  0.28173088029E+03  0.28173088029E+03  0.00000000000E+00 0.  1.
          2   -1    0    0  501    0  0.00000000000E+00 -0.00000000000E+00 -0.16577785729E+03  0.16577785729E+03  0.00000000000E+00 0. -1.
          5    1    1    2  502    0 -0.87998067970E+02  0.16287462035E+02 -0.79651360628E+02  0.11987807571E+03  0.41800000000E+01 0. -1.
         -5    1    1    2    0  502  0.79689535783E+02  0.55264161694E+02  0.18788578428E+03  0.21147834408E+03  0.41800000000E+01 0.  1.
        -11    1    1    2    0    0 -0.17694303279E+02 -0.84017236167E+02 -0.15150461127E+01  0.85873626372E+02  0.00000000000E+00 0. -1.
         11    1    1    2    0    0  0.26002835465E+02  0.12465612439E+02  0.92336454545E+01  0.30278691420E+02  0.00000000000E+00 0.  1.
</event>
<event>
 7    1  0.4394360E-006  0.1073692E+03  0.7561462E-02  0.1265521E+00
          4   -1    0    0  501    0  0.00000000000E+00  0.00000000000E+00  0.21810699819E+03  0.21810699819E+03  0.00000000000E+00 0. -1.
         -4   -1    0    0    0  501 -0.00000000000E+00 -0.00000000000E+00 -0.75012332202E+02  0.75012332202E+02  0.00000000000E+00 0.  1.
         23    2    1    2    0    0  0.65909265583E+02  0.55112379003E+00  0.66588643478E+02  0.15629057487E+03  0.12509341040E+03 0.  0.
          5    1    3    3  502    0  0.77124833875E+01 -0.38743185592E+02 -0.20207202717E+02  0.44568153108E+02  0.41800000000E+01 0. -1.
         -5    1    3    3    0  502  0.58196782196E+02  0.39294309382E+02  0.86795846195E+02  0.11172242176E+03  0.41800000000E+01 0. -1.
        -11    1    1    2    0    0  0.83197116546E+01  0.24857295347E+02 -0.14165958799E+01  0.26250894802E+02  0.00000000000E+00 0.  1.
         11    1    1    2    0    0 -0.74228977238E+02 -0.25408419137E+02  0.77922618395E+02  0.11057786072E+03  0.00000000000E+00 0. -1.
</event>
<event>
 7    1  0.4394360E-006  0.1091828E+03  0.7561462E-02  0.1262091E+00
          1   -1    0    0  501    0  0.00000000000E+00  0.00000000000E+00  0.30341754207E+03  0.30341754207E+03  0.00000000000E+00 0. -1.
         -1   -1    0    0    0  501 -0.00000000000E+00 -0.00000000000E+00 -0.94179704669E+02  0.94179704669E+02  0.00000000000E+00 0.  1.
         23    2    1    2    0    0  0.20994927804E+02 -0.81465068188E+02 -0.42847060462E+01  0.15080581283E+03  0.12508673051E+03 0.  0.
          5    1    3    3  502    0  0.39168809661E+02 -0.68096460142E+02 -0.54428103175E+02  0.95661979644E+02  0.41800000000E+01 0.  1.
         -5    1    3    3    0  502 -0.18173881857E+02 -0.13368608046E+02  0.50143397129E+02  0.55143833186E+02  0.41800000000E+01 0.  1.
        -11    1    1    2    0    0  0.12457402268E+02  0.82350506295E+02  0.10986616898E+03  0.13786721091E+03  0.00000000000E+00 0. -1.
         11    1    1    2    0    0 -0.33452330072E+02 -0.88543810688E+00  0.10365637446E+03  0.10892422299E+03  0.00000000000E+00 0.  1.
</event>
<event>
 7    1  0.4394360E-006  0.1482930E+03  0.7561462E-02  0.1202586E+00
          1   -1    0    0  501    0  0.00000000000E+00  0.00000000000E+00  0.71385053499E+03  0.71385053499E+03  0.00000000000E+00 0. -1.
         -1   -1    0    0    0  501 -0.00000000000E+00 -0.00000000000E+00 -0.32657619066E+02  0.32657619066E+02  0.00000000000E+00 0.  1.
         23    2    1    2    0    0 -0.10683414283E+03  0.36049322257E+01  0.35062060635E+03  0.38731051092E+03  0.12509233654E+03 0.  0.
          5    1    3    3  502    0 -0.12831434264E+03  0.22364718059E+02  0.24114751150E+03  0.27410644984E+03  0.41800000000E+01 0.  1.
         -5    1    3    3    0  502  0.21480199812E+02 -0.18759785833E+02  0.10947309486E+03  0.11320406108E+03  0.41800000000E+01 0.  1.
        -11    1    1    2    0    0  0.10272246837E+03 -0.32901363322E+02  0.22434537062E+03  0.24892820358E+03  0.00000000000E+00 0.  1.
         11    1    1    2    0    0  0.41116744546E+01  0.29296431096E+02  0.10622693895E+03  0.11026943956E+03  0.00000000000E+00 0. -1.
</event>
<event>
 7    1  0.4394360E-006  0.6262482E+02  0.7561462E-02  0.1387135E+00
         -1   -1    0    0    0  501 -0.00000000000E+00  0.00000000000E+00  0.84482894843E+02  0.84482894843E+02  0.00000000000E+00 0.  1.
          1   -1    0    0  501    0  0.00000000000E+00 -0.00000000000E+00 -0.13809673376E+03  0.13809673376E+03  0.00000000000E+00 0. -1.
         23    2    1    2    0    0 -0.70930306284E+01 -0.20734011352E+01 -0.20922604516E+02  0.12704471707E+03  0.12509194490E+03 0.  0.
          5    1    3    3  502    0 -0.22804271865E+02  0.14108173604E+02  0.47595271328E+02  0.54789210895E+02  0.41800000000E+01 0.  1.
         -5    1    3    3    0  502  0.15711241236E+02 -0.16181574740E+02 -0.68517875844E+02  0.72255506174E+02  0.41800000000E+01 0.  1.
        -11    1    1    2    0    0  0.40701027917E+02 -0.44273833394E+01 -0.43404368078E+02  0.59666695610E+02  0.00000000000E+00 0.  1.
         11    1    1    2    0    0 -0.33607997289E+02  0.65007844746E+01  0.10713133674E+02  0.35868215926E+02  0.00000000000E+00 0. -1.
</event>
<event>
 7    1  0.4394360E-006  0.1253052E+03  0.7561462E-02  0.1234593E+00
         -1   -1    0    0    0  501 -0.00000000000E+00  0.00000000000E+00  0.40318142886E+02  0.40318142886E+02  0.00000000000E+00 0.  1.
          1   -1    0    0  501    0  0.00000000000E+00 -0.00000000000E+00 -0.51138155045E+03  0.51138155045E+03  0.00000000000E+00 0. -1.
         23    2    1    2    0    0 -0.89774690519E+02  0.29356801478E+02 -0.27755167998E+03  0.31875371171E+03  0.12509067440E+03 0.  0.
          5    1    3    3  502    0 -0.10207557697E+03 -0.20341259693E+02 -0.20377337575E+03  0.22885421413E+03  0.41800000000E+01 0.  1.
         -5    1    3    3    0  502  0.12300886450E+02  0.49698061171E+02 -0.73778304230E+02  0.89899497589E+02  0.41800000000E+01 0.  1.
        -11    1    1    2    0    0  0.59249004437E+02 -0.24723922687E+02 -0.38436486949E+02  0.74827003206E+02  0.00000000000E+00 0.  1.
         11    1    1    2    0    0  0.30525686082E+02 -0.46328787913E+01 -0.15507524064E+03  0.15811897842E+03  0.00000000000E+00 0. -1.
</event>
<event>
 7    1  0.4394360E-006  0.9018697E+02  0.7561462E-02  0.1302400E+00
          1   -1    0    0  501    0  0.00000000000E+00  0.00000000000E+00  0.26980281746E+03  0.26980281746E+03  0.00000000000E+00 0. -1.
         -1   -1    0    0    0  501 -0.00000000000E+00 -0.00000000000E+00 -0.58258706568E+02  0.58258706568E+02  0.00000000000E+00 0.  1.
         23    2    1    2    0    0 -0.48292018554E+02 -0.10177480230E+02  0.69623985116E+02  0.15142760123E+03  0.12508844452E+03 0.  0.
          5    1    3    3  502    0 -0.37961186011E+02 -0.32584523389E+02  0.10010595015E+03  0.11198873364E+03  0.41800000000E+01 0.  1.
         -5    1    3    3    0  502 -0.10330832542E+02  0.22407043158E+02 -0.30481965034E+02  0.39438867586E+02  0.41800000000E+01 0.  1.
        -11    1    1    2    0    0  0.30700603549E+02 -0.40890742401E+02  0.67685645759E+02  0.84828807102E+02  0.00000000000E+00 0.  1.
         11    1    1    2    0    0  0.17591415005E+02  0.51068222632E+02  0.74234480013E+02  0.91805115693E+02  0.00000000000E+00 0. -1.
</event>
<event>
 7    1  0.4394360E-006  0.1617167E+03  0.7561462E-02  0.1186772E+00
          2   -1    0    0  501    0  0.00000000000E+00  0.00000000000E+00  0.49532651440E+03  0.49532651440E+03  0.00000000000E+00 0. -1.
         -2   -1    0    0    0  501 -0.00000000000E+00 -0.00000000000E+00 -0.63844648391E+02  0.63844648391E+02  0.00000000000E+00 0.  1.
         23    2    1    2    0    0 -0.30262085398E+02  0.13498086720E+03  0.19050611542E+03  0.26659693674E+03  0.12508284592E+03 0.  0.
          5    1    3    3  502    0 -0.55431623315E+02  0.14677335442E+03  0.14858596853E+03  0.21612576171E+03  0.41800000000E+01 0. -1.
         -5    1    3    3    0  502  0.25169537916E+02 -0.11792487218E+02  0.41920146896E+02  0.50471175036E+02  0.41800000000E+01 0. -1.
        -11    1    1    2    0    0  0.37374008741E+01 -0.22784378896E+02 -0.24588304121E+01  0.23219430096E+02  0.00000000000E+00 0.  1.
         11    1    1    2    0    0  0.26524684524E+02 -0.11219648830E+03  0.24343458100E+03  0.26935479596E+03  0.00000000000E+00 0. -1.
</event>
<event>
 7    1  0.4394360E-006  0.2057895E+03  0.7561462E-02  0.1144944E+00
         -3   -1    0    0    0  501 -0.00000000000E+00  0.00000000000E+00  0.14290459273E+03  0.14290459273E+03  0.00000000000E+00 0. -1.
          3   -1    0    0  501    0  0.00000000000E+00 -0.00000000000E+00 -0.38890977913E+03  0.38890977913E+03  0.00000000000E+00 0.  1.
         23    2    1    2    0    0 -0.14706483613E+03 -0.11373259264E+03 -0.19283097766E+02  0.22490835394E+03  0.12509500852E+03 0.  0.
          5    1    3    3  502    0 -0.71166775752E+02 -0.12787368108E+03 -0.65491338361E+01  0.14654948597E+03  0.41800000000E+01 0. -1.
         -5    1    3    3    0  502 -0.75898060379E+02  0.14141088445E+02 -0.12733963930E+02  0.78358867967E+02  0.41800000000E+01 0. -1.
        -11    1    1    2    0    0  0.35780014461E+02  0.43248071940E+02 -0.13552710767E+03  0.14669083841E+03  0.00000000000E+00 0.  1.
         11    1    1    2    0    0  0.11128482167E+03  0.70484520697E+02 -0.91194980974E+02  0.16021517951E+03  0.00000000000E+00 0. -1.
</event>
<event>
 7    1  0.4394360E-006  0.9856422E+02  0.7561462E-02  0.1283344E+00
         -2   -1    0    0    0  501 -0.00000000000E+00  0.00000000000E+00  0.25063752773E+02  0.25063752773E+02  0.00000000000E+00 0. -1.
          2   -1    0    0  501    0  0.00000000000E+00 -0.00000000000E+00 -0.53611971292E+03  0.53611971292E+03  0.00000000000E+00 0.  1.
         23    2    1    2    0    0 -0.30396269088E+02  0.18324354458E+02 -0.22788048557E+03  0.26235431101E+03  0.12506219918E+03 0.  0.
          5    1    3    3  502    0 -0.65035048609E+02  0.15204938491E+02 -0.21476642517E+03  0.22495074457E+03  0.41800000000E+01 0.  1.
         -5    1    3    3    0  502  0.34638779521E+02  0.31194159673E+01 -0.13114060402E+02  0.37403566446E+02  0.41800000000E+01 0.  1.
        -11    1    1    2    0    0  0.56583229849E+02 -0.32652933643E+02 -0.20447987206E+03  0.21466227906E+03  0.00000000000E+00 0. -1.
         11    1    1    2    0    0 -0.26186960761E+02  0.14328579184E+02 -0.78695602519E+02  0.84166875617E+02  0.00000000000E+00 0.  1.
</event>
<event>
 7    1  0.4394360E-006  0.1170703E+03  0.7561462E-02  0.1248010E+00
         -2   -1    0    0    0  501 -0.00000000000E+00  0.00000000000E+00  0.16421840602E+03  0.16421840602E+03  0.00000000000E+00 0.  1.
          2   -1    0    0  501    0  0.00000000000E+00 -0.00000000000E+00 -0.15471300228E+03  0.15471300228E+03  0.00000000000E+00 0. -1.
         23    2    1    2    0    0  0.10004782774E+03 -0.57867672969E+02  0.28442862299E+02  0.17267038944E+03  0.12509129292E+03 0.  0.
          5    1    3    3  502    0  0.62141512964E+02 -0.26420827975E+02 -0.47070322158E+02  0.82417931377E+02  0.41800000000E+01 0.  1.
         -5    1    3    3    0  502  0.37906314776E+02 -0.31446844994E+02  0.75513184457E+02  0.90252458065E+02  0.41800000000E+01 0.  1.
        -11    1    1    2    0    0 -0.87011233258E+02  0.42289990249E+02  0.23196590207E+02  0.99486078350E+02  0.00000000000E+00 0.  1.
         11    1    1    2    0    0 -0.13036594483E+02  0.15577682720E+02 -0.42134048761E+02  0.46774940509E+02  0.00000000000E+00 0. -1.
</event>
<event>
 7    1  0.4394360E-006  0.9350214E+02  0.7561462E-02  0.1294586E+00
          2   -1    0    0  501    0  0.00000000000E+00  0.00000000000E+00  0.16518767112E+03  0.16518767112E+03  0.00000000000E+00 0.  1.
         -2   -1    0    0    0  501 -0.00000000000E+00 -0.00000000000E+00 -0.70296303827E+02  0.70296303827E+02  0.00000000000E+00 0. -1.
         23    2    1    2    0    0  0.31162863876E+02 -0.64644378153E+01  0.73123440645E+02  0.14834761946E+03  0.12508823120E+03 0.  0.
          5    1    3    3  502    0  0.65919325644E+02  0.21067729538E+02  0.77035592213E+02  0.10363957540E+03  0.41800000000E+01 0.  1.
         -5    1    3    3    0  502 -0.34756461767E+02 -0.27532167353E+02 -0.39121515682E+01  0.44708044060E+02  0.41800000000E+01 0.  1.
        -11    1    1    2    0    0 -0.25025831632E+02 -0.28333147043E+02 -0.10554029765E+02  0.39248528820E+02  0.00000000000E+00 0. -1.
         11    1    1    2    0    0 -0.61370322448E+01  0.34797584859E+02  0.32321956411E+02  0.47887826668E+02  0.00000000000E+00 0.  1.
</event>
<event>
 7    1  0.4394360E-006  0.1086769E+03  0.7561462E-02  0.1263040E+00
         -1   -1    0    0    0  501 -0.00000000000E+00  0.00000000000E+00  0.39742891022E+02  0.39742891022E+02  0.00000000000E+00 0.  1.
          1   -1    0    0  501    0  0.00000000000E+00 -0.00000000000E+00 -0.45551897701E+03  0.45551897701E+03  0.00000000000E+00 0. -1.
         23    2    1    2    0    0  0.72760565061E+02  0.32177907936E+01 -0.17225902591E+03  0.22499959091E+03  0.12508872808E+03 0.  0.
          5    1    3    3  502    0  0.25899012150E+02  0.48969871575E+02 -0.14249151843E+03  0.15293826328E+03  0.41800000000E+01 0. -1.
         -5    1    3    3    0  502  0.46861552911E+02 -0.45752080781E+02 -0.29767507489E+02  0.72061327625E+02  0.41800000000E+01 0. -1.
        -11    1    1    2    0    0 -0.69963105977E+02 -0.24937654688E+02 -0.23551064333E+03  0.24694530962E+03  0.00000000000E+00 0. -1.
         11    1    1    2    0    0 -0.27974590837E+01  0.21719863895E+02 -0.80064167469E+01  0.23316967514E+02  0.00000000000E+00 0.  1.
</event>
<event>
 7    1  0.4394360E-006  0.1188676E+03  0.7561462E-02  0.1244977E+00
          3   -1    0    0  501    0  0.00000000000E+00  0.00000000000E+00  0.83471678504E+03  0.83471678504E+03  0.00000000000E+00 0.  1.
         -3   -1    0    0    0  501 -0.00000000000E+00 -0.00000000000E+00 -0.35286013936E+02  0.35286013936E+02  0.00000000000E+00 0. -1.
         23    2    1    2    0    0 -0.10853253642E+01 -0.75138623633E+02  0.14749669430E+03  0.20748311536E+03  0.12508787965E+03 0.  0.
          5    1    3    3  502    0  0.10019900531E+02 -0.95714203695E+02  0.52792675623E+02  0.10984601128E+03  0.41800000000E+01 0.  1.
         -5    1    3    3    0  502 -0.11105225896E+02  0.20575580062E+02  0.94704018681E+02  0.97637104071E+02  0.41800000000E+01 0.  1.
        -11    1    1    2    0    0  0.32223189388E+02 -0.41333348320E+01  0.15951498579E+03  0.16278958530E+03  0.00000000000E+00 0.  1.
         11    1    1    2    0    0 -0.31137864023E+02  0.79271958465E+02  0.49241909101E+03  0.49973009832E+03  0.00000000000E+00 0. -1.
</event>
<event>
 7    1  0.4394360E-006  0.1078627E+03  0.7561462E-02  0.1264580E+00
         -2   -1    0    0    0  501 -0.00000000000E+00  0.00000000000E+00  0.29937742406E+03  0.29937742406E+03  0.00000000000E+00 0.  1.
          2   -1    0    0  501    0  0.00000000000E+00 -0.00000000000E+00 -0.73595097543E+02  0.73595097543E+02  0.00000000000E+00 0. -1.
         23    2    1    2    0    0 -0.67674610486E+02  0.17434244619E+02  0.21923568434E+03  0.26191642194E+03  0.12510843698E+03 0.  0.
          5    1    3    3  502    0 -0.59369697841E+02 -0.39025110625E+02  0.61283575481E+02  0.93919483095E+02  0.41800000000E+01 0. -1.
         -5    1    3    3    0  502 -0.83049126447E+01  0.56459355244E+02  0.15795210886E+03  0.16799693884E+03  0.41800000000E+01 0. -1.
        -11    1    1    2    0    0  0.49426283565E+02  0.13662529675E+02  0.37506355778E+02  0.63532266982E+02  0.00000000000E+00 0.  1.
         11    1    1    2    0    0  0.18248326921E+02 -0.31096774294E+02 -0.30959713597E+02  0.47523832684E+02  0.00000000000E+00 0. -1.
</event>
<event>
 7    1  0.4394360E-006  0.9934576E+02  0.7561462E-02  0.1281678E+00
         -2   -1    0    0    0  501 -0.00000000000E+00  0.00000000000E+00  0.26298644378E+03  0.26298644378E+03  0.00000000000E+00 0.  1.
          2   -1    0    0  501    0  0.00000000000E+00 -0.00000000000E+00 -0.59275141824E+02  0.59275141824E+02  0.00000000000E+00 0. -1.
         23    2    1    2    0    0 -0.33178272794E+02 -0.95959157394E+01  0.17500409280E+03  0.21786878359E+03  0.12508994755E+03 0.  0.
          5    1    3    3  502    0 -0.40508411899E+02 -0.59651640550E+02  0.13549471867E+03  0.15354328654E+03  0.41800000000E+01 0.  1.
         -5    1    3    3    0  502  0.73301391060E+01  0.50055724811E+02  0.39509374138E+02  0.64325497048E+02  0.41800000000E+01 0.  1.
        -11    1    1    2    0    0  0.50486769686E+02 -0.78893035249E+01 -0.15844081271E+02  0.53499438640E+02  0.00000000000E+00 0. -1.
         11    1    1    2    0    0 -0.17308496893E+02  0.17485219264E+02  0.44551290425E+02  0.50893363378E+02  0.00000000000E+00 0.  1.
</event>
<event>
 7    1  0.4394360E-006  0.1682511E+03  0.7561462E-02  0.1179684E+00
         -2   -1    0    0    0  501 -0.00000000000E+00  0.00000000000E+00  0.77953635031E+02  0.77953635031E+02  0.00000000000E+00 0.  1.
          2   -1    0    0  501    0  0.00000000000E+00 -0.00000000000E+00 -0.40467682230E+03  0.40467682230E+03  0.00000000000E+00 0. -1.
         23    2    1    2    0    0  0.13682615658E+03  0.35755964420E+01 -0.12931933192E+03  0.22606388463E+03  0.12508880170E+03 0.  0.
          5    1    3    3  502    0  0.88662812556E+02  0.62975707203E+02 -0.75289586881E+02  0.13233679882E+03  0.41800000000E+01 0.  1.
         -5    1    3    3    0  502  0.48163344019E+02 -0.59400110761E+02 -0.54029745043E+02  0.93727085813E+02  0.41800000000E+01 0.  1.
        -11    1    1    2    0    0 -0.79330783449E+02  0.29634609758E+02 -0.15825005155E+03  0.17948443418E+03  0.00000000000E+00 0. -1.
         11    1    1    2    0    0 -0.57495373126E+02 -0.33210206200E+02 -0.39153803789E+02  0.77082138514E+02  0.00000000000E+00 0.  1.
</event>
<event>
 7    1  0.4394360E-006  0.9579223E+02  0.7561462E-02  0.1289402E+00
          2   -1    0    0  501    0  0.00000000000E+00  0.00000000000E+00  0.67873031378E+02  0.67873031378E+02  0.00000000000E+00 0. -1.
         -2   -1    0    0    0  501 -0.00000000000E+00 -0.00000000000E+00 -0.30552164896E+03  0.30552164896E+03  0.00000000000E+00 0.  1.
         23    2    1    2    0    0  0.79566427021E+01 -0.75555976191E+02 -0.20103723392E+03  0.24866584321E+03  0.12508684366E+03 0.  0.
          5    1    3    3  502    0 -0.23721302091E+02 -0.79772857706E+02 -0.56740373177E+02  0.10081344825E+03  0.41800000000E+01 0.  1.
         -5    1    3    3    0  502  0.31677944793E+02  0.42168815141E+01 -0.14429686074E+03  0.14785239496E+03  0.41800000000E+01 0.  1.
        -11    1    1    2    0    0 -0.30782187908E+01  0.42445824546E+02  0.28707839602E+02  0.51334817686E+02  0.00000000000E+00 0. -1.
         11    1    1    2    0    0 -0.48784239113E+01  0.33110151645E+02 -0.65319223263E+02  0.73394019440E+02  0.00000000000E+00 0.  1.
</event>
<event>
 7    1  0.4394360E-006  0.1449241E+03  0.7561462E-02  0.1206853E+00
         -2   -1    0    0    0  501 -0.00000000000E+00  0.00000000000E+00  0.39175539615E+02  0.39175539615E+02  0.00000000000E+00 0.  1.
          2   -1    0    0  501    0  0.00000000000E+00 -0.00000000000E+00 -0.57247249044E+03  0.57247249044E+03  0.00000000000E+00 0. -1.
         23    2    1    2    0    0  0.32555557537E+02 -0.97164984463E+02 -0.26044869892E+03  0.30656571436E+03  0.12509242150E+03 0.  0.
          5    1    3    3  502    0 -0.44593623923E+02 -0.32975833370E+02 -0.56825676554E+02  0.79514947003E+02  0.41800000000E+01 0. -1.
         -5    1    3    3    0  502  0.77149181460E+02 -0.64189151092E+02 -0.20362302237E+03  0.22705076735E+03  0.41800000000E+01 0. -1.
        -11    1    1    2    0    0  0.28410894508E+02  0.17146350585E+02 -0.96661675218E+02  0.10219909844E+03  0.00000000000E+00 0. -1.
         11    1    1    2    0    0 -0.60966452046E+02  0.80018633878E+02 -0.17618657669E+03  0.20288321726E+03  0.00000000000E+00 0.  1.
</event>
<event>
 7    1  0.4394360E-006  0.1204435E+03  0.7561462E-02  0.1242367E+00
          2   -1    0    0  501    0  0.00000000000E+00  0.00000000000E+00  0.99929436856E+02  0.99929436856E+02  0.00000000000E+00 0. -1.
         -2   -1    0    0    0  501 -0.00000000000E+00 -0.00000000000E+00 -0.19204589259E+03  0.19204589259E+03  0.00000000000E+00 0.  1.
         23    2    1    2    0    0 -0.42157359601E+02 -0.45704972043E+02 -0.94178571040E+02  0.16847565384E+03  0.12509298644E+03 0.  0.
          5    1    3    3  502    0  0.39355300210E+02  0.94778197068E+01 -0.21346469119E+02  0.45954465124E+02  0.41800000000E+01 0.  1.
         -5    1    3    3    0  502 -0.81512659811E+02 -0.55182791750E+02 -0.72832101921E+02  0.12252118872E+03  0.41800000000E+01 0.  1.
        -11    1    1    2    0    0  0.10105792816E+02 -0.23401313205E+02  0.32640378206E+02  0.41414282532E+02  0.00000000000E+00 0. -1.
         11    1    1    2    0    0  0.32051566785E+02  0.69106285248E+02 -0.30578262905E+02  0.82085393076E+02  0.00000000000E+00 0.  1.
</event>
<event>
 7    1  0.4394360E-006  0.2296073E+03  0.7561462E-02  0.1126917E+00
         -1   -1    0    0    0  501 -0.00000000000E+00  0.00000000000E+00  0.28210783758E+03  0.28210783758E+03  0.00000000000E+00 0.  1.
          1   -1    0    0  501    0  0.00000000000E+00 -0.00000000000E+00 -0.20003010255E+03  0.20003010255E+03  0.00000000000E+00 0. -1.
         23    2    1    2    0    0  0.19318170359E+03 -0.84977665708E+02  0.47650957056E+02  0.24991599453E+03  0.12508803438E+03 0.  0.
          5    1    3    3  502    0  0.11404515082E+03 -0.96595698953E+02 -0.12080671598E+02  0.15000146835E+03  0.41800000000E+01 0. -1.
         -5    1    3    3    0  502  0.79136552767E+02  0.11618033245E+02  0.59731628654E+02  0.99914526181E+02  0.41800000000E+01 0. -1.
        -11    1    1    2    0    0 -0.16501638620E+03  0.29841672271E+02  0.27281370359E+02  0.16989763473E+03  0.00000000000E+00 0. -1.
         11    1    1    2    0    0 -0.28165317385E+02  0.55135993437E+02  0.71454076156E+01  0.62324310872E+02  0.00000000000E+00 0.  1.
</event>
<event>
 7    1  0.4394360E-006  0.1029105E+03  0.7561462E-02  0.1274292E+00
         -2   -1    0    0    0  501 -0.00000000000E+00  0.00000000000E+00  0.56321222693E+02  0.56321222693E+02  0.00000000000E+00 0.  1.
          2   -1    0    0  501    0  0.00000000000E+00 -0.00000000000E+00 -0.45505202968E+03  0.45505202968E+03  0.00000000000E+00 0. -1.
         23    2    1    2    0    0 -0.15252041727E+02  0.65027380664E+02 -0.58960967772E+02  0.15357638509E+03  0.12509246710E+03 0.  0.
          5    1    3    3  502    0  0.22311959951E+02  0.50254147258E+02 -0.87878396089E+02  0.10374674825E+03  0.41800000000E+01 0. -1.
         -5    1    3    3    0  502 -0.37564001678E+02  0.14773233406E+02  0.28917428317E+02  0.49829636842E+02  0.41800000000E+01 0. -1.
        -11    1    1    2    0    0  0.42882852449E+02 -0.39545898644E+01 -0.16742997093E+03  0.17287964884E+03  0.00000000000E+00 0. -1.
         11    1    1    2    0    0 -0.27630810722E+02 -0.61072790800E+02 -0.17233986828E+03  0.18491721844E+03  0.00000000000E+00 0.  1.
</event>
<event>
 6    1  0.4394360E-006  0.1685999E+03  0.7561462E-02  0.1179316E+00
          1   -1    0    0  501    0  0.00000000000E+00  0.00000000000E+00  0.21239631472E+03  0.21239631472E+03  0.00000000000E+00 0. -1.
         -1   -1    0    0    0  501 -0.00000000000E+00 -0.00000000000E+00 -0.14269932457E+03  0.14269932457E+03  0.00000000000E+00 0.  1.
          5    1    1    2  502    0 -0.14118855545E+03 -0.15171070722E+02 -0.28509322470E+00  0.14206309603E+03  0.41800000000E+01 0. -1.
         -5    1    1    2    0  502  0.21373499261E+02  0.42565867967E+02  0.36371793137E+02  0.60075446918E+02  0.41800000000E+01 0.  1.
        -11    1    1    2    0    0  0.38769528652E+02  0.29146656396E+02  0.22649976869E+02  0.53531536342E+02  0.00000000000E+00 0. -1.
         11    1    1    2    0    0  0.81045527533E+02 -0.56541453641E+02  0.10960313364E+02  0.99425560003E+02  0.00000000000E+00 0.  1.
</event>
<event>
 7    1  0.4394360E-006  0.1597067E+03  0.7561462E-02  0.1189028E+00
         -4   -1    0    0    0  501 -0.00000000000E+00  0.00000000000E+00  0.31827139418E+03  0.31827139418E+03  0.00000000000E+00 0.  1.
          4   -1    0    0  501    0  0.00000000000E+00 -0.00000000000E+00 -0.97471952894E+02  0.97471952894E+02  0.00000000000E+00 0. -1.
         23    2    1    2    0    0  0.27316362632E+02 -0.11631974638E+03  0.20317031191E+03  0.26683776628E+03  0.12509097013E+03 0.  0.
          5    1    3    3  502    0  0.73036252915E+02 -0.99694830938E+02  0.15455888337E+03  0.19793755173E+03  0.41800000000E+01 0. -1.
         -5    1    3    3    0  502 -0.45719890283E+02 -0.16624915441E+02  0.48611428539E+02  0.68900214553E+02  0.41800000000E+01 0. -1.
        -11    1    1    2    0    0  0.20209788470E+02  0.90726607327E+02  0.30851526776E+01  0.93001456946E+02  0.00000000000E+00 0.  1.
         11    1    1    2    0    0 -0.47526151102E+02  0.25593139052E+02  0.14543976703E+02  0.55904123850E+02  0.00000000000E+00 0. -1.
</event>
<event>
 7    1  0.4394360E-006  0.1215309E+03  0.7561462E-02  0.1240593E+00
         -3   -1    0    0    0  501 -0.00000000000E+00  0.00000000000E+00  0.95183957031E+02  0.95183957031E+02  0.00000000000E+00 0. -1.
          3   -1    0    0  501    0  0.00000000000E+00 -0.00000000000E+00 -0.25195869567E+03  0.25195869567E+03  0.00000000000E+00 0.  1.
         23    2    1    2    0    0 -0.84333437309E+01 -0.86199399716E+02 -0.72542507536E+01  0.15228205703E+03  0.12504296438E+03 0.  0.
          5    1    3    3  502    0 -0.24945237699E+02  0.26673498785E+02 -0.10012020497E+02  0.38097944507E+02  0.41800000000E+01 0.  1.
         -5    1    3    3    0  502  0.16511893968E+02 -0.11287289850E+03  0.27577697436E+01  0.11418411252E+03  0.41800000000E+01 0.  1.
        -11    1    1    2    0    0 -0.82287638678E+01  0.63298676357E+02 -0.27338690356E+02  0.69439462654E+02  0.00000000000E+00 0. -1.
         11    1    1    2    0    0  0.16662107599E+02  0.22900723359E+02 -0.12218179753E+03  0.12542113302E+03  0.00000000000E+00 0.  1.
</event>
<event>
 7    1  0.4394360E-006  0.1857419E+03  0.7561462E-02  0.1162359E+00
          1   -1    0    0  501    0  0.00000000000E+00  0.00000000000E+00  0.16998686402E+03  0.16998686402E+03  0.00000000000E+00 0. -1.
         -1   -1    0    0    0  501 -0.00000000000E+00 -0.00000000000E+00 -0.47388327771E+03  0.47388327771E+03  0.00000000000E+00 0.  1.
         23    2    1    2    0    0 -0.17563310697E+03 -0.33013956668E+02 -0.37342024642E+03  0.43246909161E+03  0.12509966094E+03 0.  0.
          5    1    3    3  502    0 -0.13451383692E+03 -0.52168915614E+02 -0.16541494219E+03  0.21953392353E+03  0.41800000000E+01 0. -1.
         -5    1    3    3    0  502 -0.41119270051E+02  0.19154958946E+02 -0.20800530422E+03  0.21293516809E+03  0.41800000000E+01 0. -1.
        -11    1    1    2    0    0  0.89507374773E+02  0.42615985599E+00 -0.95606201265E+01  0.90017538337E+02  0.00000000000E+00 0.  1.
         11    1    1    2    0    0  0.86125732197E+02  0.32587796812E+02  0.79084452856E+02  0.12138351178E+03  0.00000000000E+00 0. -1.
</event>
<event>
 7    1  0.4394360E-006  0.2031967E+03  0.7561462E-02  0.1147070E+00
          1   -1    0    0  501    0  0.00000000000E+00  0.00000000000E+00  0.72359553088E+02  0.72359553088E+02  0.00000000000E+00 0. -1.
         -1   -1    0    0    0  501 -0.00000000000E+00 -0.00000000000E+00 -0.72979595909E+03  0.72979595909E+03  0.00000000000E+00 0.  1.
         23    2    1    2    0    0  0.33865860354E+01  0.18948610618E+03 -0.44246411975E+03  0.49733073257E+03  0.12508759684E+03 0.  0.
          5    1    3    3  502    0 -0.88836531175E+01  0.84264060899E+02 -0.69734548815E+02  0.10981680632E+03  0.41800000000E+01 0.  1.
         -5    1    3    3    0  502  0.12270239153E+02  0.10522204528E+03 -0.37272957094E+03  0.38751392625E+03  0.41800000000E+01 0.  1.
        -11    1    1    2    0    0  0.27685551223E+02 -0.46027502695E+01 -0.20930515035E+02  0.35010877113E+02  0.00000000000E+00 0. -1.
         11    1    1    2    0    0 -0.31072137258E+02 -0.18488335591E+03 -0.19404177122E+03  0.26981390250E+03  0.00000000000E+00 0.  1.
</event>
<event>
 7    1  0.4394360E-006  0.1313044E+03  0.7561462E-02  0.1225533E+00
          2   -1    0    0  501    0  0.00000000000E+00  0.00000000000E+00  0.48008550220E+03  0.48008550220E+03  0.00000000000E+00 0. -1.
         -2   -1    0    0    0  501 -0.00000000000E+00 -0.00000000000E+00 -0.46526791908E+02  0.46526791908E+02  0.00000000000E+00 0.  1.
         23    2    1    2    0    0  0.89774702147E+01  0.10020137269E+03  0.20605176877E+03  0.26119971930E+03  0.12508817646E+03 0.  0.
          5    1    3    3  502    0  0.54135682360E+02  0.92883137648E+02  0.17608258084E+03  0.20635042292E+03  0.41800000000E+01 0.  1.
         -5    1    3    3    0  502 -0.45158212145E+02  0.73182350392E+01  0.29969187931E+02  0.54849296381E+02  0.41800000000E+01 0.  1.
        -11    1    1    2    0    0  0.16342133380E+02 -0.53731768073E+02  0.35955746690E+02  0.66685710191E+02  0.00000000000E+00 0.  1.
         11    1    1    2    0    0 -0.25319603595E+02 -0.46469604615E+02  0.19155119482E+03  0.19872686461E+03  0.00000000000E+00 0. -1.
</event>
<event>
 7    1  0.4394360E-006  0.8237416E+02  0.7561462E-02  0.1322446E+00
         -1   -1    0    0    0  501 -0.00000000000E+00  0.00000000000E+00  0.36225515207E+02  0.36225515207E+02  0.00000000000E+00 0.  1.
          1   -1    0    0  501    0  0.00000000000E+00 -0.00000000000E+00 -0.50073915354E+03  0.50073915354E+03  0.00000000000E+00 0. -1.
         23    2    1    2    0    0 -0.41249912676E+02  0.57985928919E+02 -0.25911725292E+03  0.29640096959E+03  0.12509140963E+03 0.  0.
          5    1    3    3  502    0 -0.29409695768E+02  0.52823665358E+02 -0.31354138680E+02  0.68233600516E+02  0.41800000000E+01 0. -1.
         -5    1    3    3    0  502 -0.11840216908E+02  0.51622635607E+01 -0.22776311424E+03  0.22816736908E+03  0.41800000000E+01 0. -1.
        -11    1    1    2    0    0  0.46600972179E+02 -0.17574369862E+02 -0.19091361381E+03  0.19730310951E+03  0.00000000000E+00 0. -1.
         11    1    1    2    0    0 -0.53510595029E+01 -0.40411559057E+02 -0.14482771600E+02  0.43260589645E+02  0.00000000000E+00 0.  1.
</event>
<event>
 7    1  0.4394360E-006  0.1036747E+03  0.7561462E-02  0.1272753E+00
         -2   -1    0    0    0  501 -0.00000000000E+00  0.00000000000E+00  0.34707812529E+02  0.34707812529E+02  0.00000000000E+00 0. -1.
          2   -1    0    0  501    0  0.00000000000E+00 -0.00000000000E+00 -0.57710564191E+03  0.57710564191E+03  0.00000000000E+00 0.  1.
         23    2    1    2    0    0 -0.44141978421E+01 -0.35326252840E+02 -0.11510095237E+03  0.17367634701E+03  0.12509122668E+03 0.  0.
          5    1    3    3  502    0 -0.44378540105E+02  0.14709357658E+02 -0.63002461509E+01  0.47360168139E+02  0.41800000000E+01 0. -1.
         -5    1    3    3    0  502  0.39964342263E+02 -0.50035610498E+02 -0.10880070622E+03  0.12631617887E+03  0.41800000000E+01 0. -1.
        -11    1    1    2    0    0 -0.34752181620E+02 -0.10164972002E+02 -0.18545013116E+03  0.18895182436E+03  0.00000000000E+00 0.  1.
         11    1    1    2    0    0  0.39166379463E+02  0.45491224841E+02 -0.24184674586E+03  0.24918528307E+03  0.00000000000E+00 0. -1.
</event>
<event>
 7    1  0.4394360E-006  0.6687268E+02  0.7561462E-02  0.1371063E+00
         -1   -1    0    0    0  501 -0.00000000000E+00  0.00000000000E+00  0.99477397256E+02  0.99477397256E+02  0.00000000000E+00 0.  1.
          1   -1    0    0  501    0  0.00000000000E+00 -0.00000000000E+00 -0.13730441002E+03  0.13730441002E+03  0.00000000000E+00 0. -1.
         23    2    1    2    0    0 -0.39528341743E+02 -0.19761476748E+02 -0.27199841854E+02  0.13538343638E+03  0.12504334323E+03 0.  0.
          5    1    3    3  502    0  0.12039977905E+02 -0.59590223149E+01  0.44057488705E+02  0.46249386221E+02  0.41800000000E+01 0. -1.
         -5    1    3    3    0  502 -0.51568319648E+02 -0.13802454433E+02 -0.71257330559E+02  0.89134050161E+02  0.41800000000E+01 0. -1.
        -11    1    1    2    0    0  0.25770105055E+02 -0.14244889485E+02  0.33113092477E+02  0.44311308764E+02  0.00000000000E+00 0.  1.
         11    1    1    2    0    0  0.13758236688E+02  0.34006366234E+02 -0.43740263383E+02  0.57087062124E+02  0.00000000000E+00 0. -1.
</event>
<event>
 7    1  0.4394360E-006  0.1211595E+03  0.7561462E-02  0.1241196E+00
          2   -1    0    0  501    0  0.00000000000E+00  0.00000000000E+00  0.61798091646E+03  0.61798091646E+03  0.00000000000E+00 0. -1.
         -2   -1    0    0    0  501 -0.00000000000E+00 -0.00000000000E+00 -0.31474903300E+02  0.31474903300E+02  0.00000000000E+00 0.  1.
         23    2    1    2    0    0  0.35976851474E+02  0.79966712061E+02  0.31994548063E+03  0.35454316388E+03  0.12508691219E+03 0.  0.
          5    1    3    3  502    0  0.60702111740E+02  0.19696201351E+02  0.64280948430E+02  0.90676344481E+02  0.41800000000E+01 0.  1.
         -5    1    3    3    0  502 -0.24725260267E+02  0.60270510711E+02  0.25566453220E+03  0.26386681940E+03  0.41800000000E+01 0.  1.
        -11    1    1    2    0    0 -0.56440151621E+02 -0.43456090391E+02  0.97500749170E+02  0.12074899004E+03  0.00000000000E+00 0. -1.
         11    1    1    2    0    0  0.20463300148E+02 -0.36510621671E+02  0.16905978336E+03  0.17416366583E+03  0.00000000000E+00 0.  1.
</event>
<event>
 7    1  0.4394360E-006  0.1453812E+03  0.7561462E-02  0.1206266E+00
          1   -1    0    0  501    0  0.00000000000E+00  0.00000000000E+00  0.10455290142E+03  0.10455290142E+03  0.00000000000E+00 0. -1.
         -1   -1    0    0    0  501 -0.00000000000E+00 -0.00000000000E+00 -0.26944882556E+03  0.26944882556E+03  0.00000000000E+00 0.  1.
         23    2    1    2    0    0  0.12155830734E+03  0.33534040195E+02 -0.67519437815E+02  0.19001794276E+03  0.12508792968E+03 0.  0.
          5    1    3    3  502    0  0.35974853389E+01 -0.21027203870E+02 -0.55288775820E+02  0.59408806881E+02  0.41800000000E+01 0.  1.
         -5    1    3    3    0  502  0.11796082200E+03  0.54561244065E+02 -0.12230661994E+02  0.13060913588E+03  0.41800000000E+01 0.  1.
        -11    1    1    2    0    0 -0.55300862485E+02 -0.45556924636E+02 -0.91747186538E+02  0.11640947131E+03  0.00000000000E+00 0.  1.
         11    1    1    2    0    0 -0.66257444857E+02  0.12022884440E+02 -0.56292997828E+01  0.67574312911E+02  0.00000000000E+00 0. -1.
</event>
<event>
 7    1  0.4394360E-006  0.1200779E+03  0.7561462E-02  0.1242969E+00
         -1   -1    0    0    0  501 -0.00000000000E+00  0.00000000000E+00  0.10403324643E+03  0.10403324643E+03  0.00000000000E+00 0.  1.
          1   -1    0    0  501    0  0.00000000000E+00 -0.00000000000E+00 -0.23179509539E+03  0.23179509539E+03  0.00000000000E+00 0. -1.
         23    2    1    2    0    0 -0.12918808792E-01  0.94610919365E+02 -0.76392729455E+01  0.15702390598E+03  0.12508765858E+03 0.  0.
          5    1    3    3  502    0  0.31505226223E+02  0.24244046335E+02 -0.53828467874E+02  0.67047217808E+02  0.41800000000E+01 0.  1.
         -5    1    3    3    0  502 -0.31518145032E+02  0.70366873030E+02  0.46189194929E+02  0.89976688172E+02  0.41800000000E+01 0.  1.
        -11    1    1    2    0    0 -0.39151887287E+02 -0.51999481916E+02 -0.29936575348E+02  0.71645062226E+02  0.00000000000E+00 0.  1.
         11    1    1    2    0    0  0.39164806096E+02 -0.42611437449E+02 -0.90186000665E+02  0.10715937362E+03  0.00000000000E+00 0. -1.
</event>
<event>
 7    1  0.4394360E-006  0.1693709E+03  0.7561462E-02  0.1178505E+00
         -2   -1    0    0    0  501 -0.00000000000E+00  0.00000000000E+00  0.61561163218E+02  0.61561163218E+02  0.00000000000E+00 0.  1.
          2   -1    0    0  501    0  0.00000000000E+00 -0.00000000000E+00 -0.56413050506E+03  0.56413050506E+03  0.00000000000E+00 0. -1.
         23    2    1    2    0    0  0.73143072509E+02 -0.12659276843E+03 -0.20351866404E+03  0.28021960128E+03  0.12540949029E+03 0.  0.
          5    1    3    3  502    0  0.87105540743E+02 -0.14489193505E+03 -0.17550202642E+03  0.24372008893E+03  0.41800000000E+01 0.  1.
         -5    1    3    3    0  502 -0.13962468235E+02  0.18299166620E+02 -0.28016637627E+02  0.36499512354E+02  0.41800000000E+01 0.  1.
        -11    1    1    2    0    0 -0.10141359634E+02  0.19769129014E+02 -0.54096399562E+00  0.22225172198E+02  0.00000000000E+00 0.  1.
         11    1    1    2    0    0 -0.63001712874E+02  0.10682363941E+03 -0.29850971380E+03  0.32324689480E+03  0.00000000000E+00 0. -1.
</event>
<event>
 7    1  0.4394360E-006  0.8980876E+02  0.7561462E-02  0.1303315E+00
          3   -1    0    0  501    0  0.00000000000E+00  0.00000000000E+00  0.63720839224E+02  0.63720839224E+02  0.00000000000E+00 0. -1.
         -3   -1    0    0    0  501 -0.00000000000E+00 -0.00000000000E+00 -0.25462661867E+03  0.25462661867E+03  0.00000000000E+00 0.  1.
         23    2    1    2    0    0  0.33963299150E+02 -0.31939266371E+02 -0.16703310009E+03  0.21382457342E+03  0.12508904527E+03 0.  0.
          5    1    3    3  502    0  0.27412938667E+02  0.46429771158E+02 -0.78603396176E+02  0.95410477132E+02  0.41800000000E+01 0. -1.
         -5    1    3    3    0  502  0.65503604828E+01 -0.78369037529E+02 -0.88429703910E+02  0.11841409629E+03  0.41800000000E+01 0. -1.
        -11    1    1    2    0    0 -0.22444643423E+02  0.23562038112E+02  0.32731097157E+02  0.46154700514E+02  0.00000000000E+00 0. -1.
         11    1    1    2    0    0 -0.11518655726E+02  0.83772282583E+01 -0.56603776521E+02  0.58368183966E+02  0.00000000000E+00 0.  1.
</event>
<event>
 7    1  0.4394360E-006  0.1586368E+03  0.7561462E-02  0.1190244E+00
          1   -1    0    0  501    0  0.00000000000E+00  0.00000000000E+00  0.70566322997E+03  0.70566322997E+03  0.00000000000E+00 0. -1.
         -1   -1    0    0    0  501 -0.00000000000E+00 -0.00000000000E+00 -0.41586160676E+02  0.41586160676E+02  0.00000000000E+00 0.  1.
         23    2    1    2    0    0  0.11809902069E+03  0.34468715913E+02  0.24204806375E+03  0.29796350425E+03  0.12271721003E+03 0.  0.
          5    1    3    3  502    0  0.10967249122E+03 -0.20541105855E+02  0.12086521349E+03  0.16454745392E+03  0.41800000000E+01 0. -1.
         -5    1    3    3    0  502  0.84265294755E+01  0.55009821768E+02  0.12118285026E+03  0.13341605033E+03  0.41800000000E+01 0. -1.
        -11    1    1    2    0    0 -0.54609210291E+02 -0.60220718102E+02  0.17550757086E+03  0.19342080593E+03  0.00000000000E+00 0.  1.
         11    1    1    2    0    0 -0.63489810401E+02  0.25752002189E+02  0.24652143468E+03  0.25586508046E+03  0.00000000000E+00 0. -1.
</event>
<event>
 7    1  0.4394360E-006  0.1070079E+03  0.7561462E-02  0.1266213E+00
         -2   -1    0    0    0  501 -0.00000000000E+00  0.00000000000E+00  0.19350074701E+02  0.19350074701E+02  0.00000000000E+00 0. -1.
          2   -1    0    0  501    0  0.00000000000E+00 -0.00000000000E+00 -0.77103520944E+03  0.77103520944E+03  0.00000000000E+00 0.  1.
         23    2    1    2    0    0  0.42866772002E+01 -0.48625388469E+02 -0.51503370833E+03  0.53224652323E+03  0.12507532436E+03 0.  0.
          5    1    3    3  502    0 -0.16159480491E+02  0.36310328655E+02 -0.92628196636E+02  0.10088123705E+03  0.41800000000E+01 0.  1.
         -5    1    3    3    0  502  0.20446157691E+02 -0.84935717124E+02 -0.42240551170E+03  0.43136528618E+03  0.41800000000E+01 0.  1.
        -11    1    1    2    0    0 -0.36209279268E+02  0.12321912040E+02 -0.17833470038E+03  0.18239025955E+03  0.00000000000E+00 0.  1.
         11    1    1    2    0    0  0.31922602067E+02  0.36303476429E+02 -0.58316726032E+02  0.75748501362E+02  0.00000000000E+00 0. -1.
</event>
<event>
 7    1  0.4394360E-006  0.1133395E+03  0.7561462E-02  0.1254508E+00
         -1   -1    0    0    0  501 -0.00000000000E+00  0.00000000000E+00  0.69203521287E+02  0.69203521287E+02  0.00000000000E+00 0.  1.
          1   -1    0    0  501    0  0.00000000000E+00 -0.00000000000E+00 -0.26975413011E+03  0.26975413011E+03  0.00000000000E+00 0. -1.
         23    2    1    2    0    0  0.35832432569E+02 -0.69515299564E+02 -0.83639352733E+02  0.16959108342E+03  0.12509697899E+03 0.  0.
          5    1    3    3  502    0  0.72135072366E+02 -0.56160838131E+02 -0.17971111832E+02  0.93262756046E+02  0.41800000000E+01 0. -1.
         -5    1    3    3    0  502 -0.36302639797E+02 -0.13354461433E+02 -0.65668240902E+02  0.76328327373E+02  0.41800000000E+01 0. -1.
        -11    1    1    2    0    0  0.56126983191E+01  0.50234935890E+02 -0.79019808923E+01  0.51161435362E+02  0.00000000000E+00 0.  1.
         11    1    1    2    0    0 -0.41445130889E+02  0.19280363674E+02 -0.10900927520E+03  0.11820513262E+03  0.00000000000E+00 0. -1.
</event>
<event>
 7    1  0.4394360E-006  0.1384333E+03  0.7561462E-02  0.1215453E+00
          1   -1    0    0  501    0  0.00000000000E+00  0.00000000000E+00  0.56893567905E+02  0.56893567905E+02  0.00000000000E+00 0. -1.
         -1   -1    0    0    0  501 -0.00000000000E+00 -0.00000000000E+00 -0.37285674631E+03  0.37285674631E+03  0.00000000000E+00 0.  1.
         23    2    1    2    0    0  0.21341260123E+02  0.89845403581E+02 -0.21239879472E+03  0.26322430148E+03  0.12508452729E+03 0.  0.
          5    1    3    3  502    0 -0.46840950236E+02  0.42887558383E+02 -0.50163629617E+02  0.81038752579E+02  0.41800000000E+01 0.  1.
         -5    1    3    3    0  502  0.68182210359E+02  0.46957845198E+02 -0.16223516510E+03  0.18218554891E+03  0.41800000000E+01 0.  1.
        -11    1    1    2    0    0  0.24815673343E+02 -0.79146622405E+02 -0.68667199666E+02  0.10768096299E+03  0.00000000000E+00 0. -1.
         11    1    1    2    0    0 -0.46156933466E+02 -0.10698781176E+02 -0.34897184020E+02  0.58845049734E+02  0.00000000000E+00 0.  1.
</event>
<event>
 7    1  0.4394360E-006  0.9603185E+02  0.7561462E-02  0.1288869E+00
          2   -1    0    0  501    0  0.00000000000E+00  0.00000000000E+00  0.22760689175E+03  0.22760689175E+03  0.00000000000E+00 0. -1.
         -2   -1    0    0    0  501 -0.00000000000E+00 -0.00000000000E+00 -0.67043984860E+02  0.67043984860E+02  0.00000000000E+00 0.  1.
         23    2    1    2    0    0  0.51108575387E+02  0.22325589744E+02  0.72220164748E+02  0.15483260091E+03  0.12508742412E+03 0.  0.
          5    1    3    3  502    0 -0.39179631989E+02  0.10561114725E+02  0.42628397241E+02  0.59001977580E+02  0.41800000000E+01 0.  1.
         -5    1    3    3    0  502  0.90288207376E+02  0.11764475019E+02  0.29591767506E+02  0.95830623330E+02  0.41800000000E+01 0.  1.
        -11    1    1    2    0    0 -0.16567459157E+02  0.35768808519E+01  0.94676599597E+02  0.96181772134E+02  0.00000000000E+00 0. -1.
         11    1    1    2    0    0 -0.34541116230E+02 -0.25902470595E+02 -0.63338574520E+01  0.43636503567E+02  0.00000000000E+00 0.  1.
</event>
<event>
 7    1  0.4394360E-006  0.1261713E+03  0.7561462E-02  0.1233250E+00
         -3   -1    0    0    0  501 -0.00000000000E+00  0.00000000000E+00  0.36287953149E+02  0.36287953149E+02  0.00000000000E+00 0.  1.
          3   -1    0    0  501    0  0.00000000000E+00 -0.00000000000E+00 -0.52374984633E+03  0.52374984633E+03  0.00000000000E+00 0. -1.
         23    2    1    2    0    0  0.58807898916E+02 -0.58056768210E+02 -0.22517137635E+03  0.27051568791E+03  0.12509049273E+03 0.  0.
          5    1    3    3  502    0  0.94844721726E+02 -0.36650003585E+02 -0.12072328980E+03  0.15789341057E+03  0.41800000000E+01 0. -1.
         -5    1    3    3    0  502 -0.36036822810E+02 -0.21406764624E+02 -0.10444808655E+03  0.11262227734E+03  0.41800000000E+01 0. -1.
        -11    1    1    2    0    0 -0.64656164773E+02  0.16825043673E+02 -0.88929072780E+02  0.11122896081E+03  0.00000000000E+00 0.  1.
         11    1    1    2    0    0  0.58482658574E+01  0.41231724537E+02 -0.17336144405E+03  0.17829315076E+03  0.00000000000E+00 0. -1.
</event>
<event>
 7    1  0.4394360E-006  0.1701963E+03  0.7561462E-02  0.1177643E+00
          1   -1    0    0  501    0  0.00000000000E+00  0.00000000000E+00  0.11478909317E+03  0.11478909317E+03  0.00000000000E+00 0. -1.
         -1   -1    0    0    0  501 -0.00000000000E+00 -0.00000000000E+00 -0.44526851103E+03  0.44526851103E+03  0.00000000000E+00 0.  1.
         23    2    1    2    0    0 -0.14332332656E+03 -0.37546868076E+02 -0.33308484969E+03  0.38541312052E+03  0.12508562322E+03 0.  0.
          5    1    3    3  502    0 -0.13582624552E+03 -0.59497504840E-01 -0.16887605326E+03  0.21676108109E+03  0.41800000000E+01 0.  1.
         -5    1    3    3    0  502 -0.74970810403E+01 -0.37487370571E+02 -0.16420879644E+03  0.16865203943E+03  0.41800000000E+01 0.  1.
        -11    1    1    2    0    0  0.48673309141E+02 -0.22846141584E+02 -0.24585587367E+02  0.59122654831E+02  0.00000000000E+00 0.  1.
         11    1    1    2    0    0  0.94650017423E+02  0.60393009660E+02  0.27191019205E+02  0.11552182884E+03  0.00000000000E+00 0. -1.
</event>
<event>
 7    1  0.4394360E-006  0.1216988E+03  0.7561462E-02  0.1240321E+00
          4   -1    0    0  501    0  0.00000000000E+00  0.00000000000E+00  0.18188609356E+03  0.18188609356E+03  0.00000000000E+00 0. -1.
         -4   -1    0    0    0  501 -0.00000000000E+00 -0.00000000000E+00 -0.10893444927E+03  0.10893444927E+03  0.00000000000E+00 0.  1.
         23    2    1    2    0    0  0.87833086418E+02  0.77858129449E+01  0.38537539331E+02  0.15782209370E+03  0.12508957338E+03 0.  0.
          5    1    3    3  502    0  0.82193149476E+01  0.40215473569E+02  0.56440299331E+02  0.69912954745E+02  0.41800000000E+01 0. -1.
         -5    1    3    3    0  502  0.79613771470E+02 -0.32429660624E+02 -0.17902760000E+02  0.87909138953E+02  0.41800000000E+01 0. -1.
        -11    1    1    2    0    0 -0.54129478286E+01 -0.30181334210E+02 -0.15201487688E+02  0.34224233619E+02  0.00000000000E+00 0. -1.
         11    1    1    2    0    0 -0.82420138589E+02  0.22395521265E+02  0.49615592650E+02  0.98774215521E+02  0.00000000000E+00 0.  1.
</event>
<event>
 7    1  0.4394360E-006  0.1078608E+03  0.7561462E-02  0.1264583E+00
          2   -1    0    0  501    0  0.00000000000E+00  0.00000000000E+00  0.51556251084E+02  0.51556251084E+02  0.00000000000E+00 0. -1.
         -2   -1    0    0    0  501 -0.00000000000E+00 -0.00000000000E+00 -0.23827368676E+03  0.23827368676E+03  0.00000000000E+00 0.  1.
         23    2    1    2    0    0  0.11232925205E+02  0.48167418242E+01 -0.13155438549E+03  0.18194340940E+03  0.12508984081E+03 0.  0.
          5    1    3    3  502    0  0.40869903483E+02 -0.47530181444E+02 -0.85340422432E+02  0.10597135113E+03  0.41800000000E+01 0.  1.
         -5    1    3    3    0  502 -0.29636978278E+02  0.52346923268E+02 -0.46213963061E+02  0.75972058277E+02  0.41800000000E+01 0.  1.
        -11    1    1    2    0    0 -0.23226518958E+02  0.39972270725E+02 -0.24796684930E+02  0.52460739543E+02  0.00000000000E+00 0. -1.
         11    1    1    2    0    0  0.11993593753E+02 -0.44789012550E+02 -0.30366365253E+02  0.55425788898E+02  0.00000000000E+00 0.  1.
</event>
<event>
 7    1  0.4394360E-006  0.9535141E+02  0.7561462E-02  0.1290387E+00
         -1   -1    0    0    0  501 -0.00000000000E+00  0.00000000000E+00  0.53306126391E+02  0.53306126391E+02  0.00000000000E+00 0.  1.
          1   -1    0    0  501    0  0.00000000000E+00 -0.00000000000E+00 -0.35516671827E+03  0.35516671827E+03  0.00000000000E+00 0. -1.
         23    2    1    2    0    0  0.53498161754E+02  0.48074392271E+02 -0.10831073304E+03  0.18042170020E+03  0.12509026543E+03 0.  0.
          5    1    3    3  502    0  0.36497427910E+02  0.22319725264E+02 -0.13357485869E+03  0.14032087391E+03  0.41800000000E+01 0.  1.
         -5    1    3    3    0  502  0.17000733844E+02  0.25754667007E+02  0.25264125653E+02  0.40100826287E+02  0.41800000000E+01 0.  1.
        -11    1    1    2    0    0 -0.76336490793E+02 -0.17332675861E+02 -0.10020986285E+03  0.12716012776E+03  0.00000000000E+00 0.  1.
         11    1    1    2    0    0  0.22838329040E+02 -0.30741716410E+02 -0.93339995989E+02  0.10089101671E+03  0.00000000000E+00 0. -1.
</event>
<event>
 7    1  0.4394360E-006  0.1094811E+03  0.7561462E-02  0.1261534E+00
         -1   -1    0    0    0  501 -0.00000000000E+00  0.00000000000E+00  0.71781277633E+03  0.71781277633E+03  0.00000000000E+00 0.  1.
          1   -1    0    0  501    0  0.00000000000E+00 -0.00000000000E+00 -0.32509711645E+02  0.32509711645E+02  0.00000000000E+00 0. -1.
         23    2    1    2    0    0  0.81100759210E+02 -0.70517542659E+02  0.38459869276E+03  0.41846540237E+03  0.12508829499E+03 0.  0.
          5    1    3    3  502    0  0.49621814877E+02 -0.32591666022E+02  0.35678976214E+03  0.36171943267E+03  0.41800000000E+01 0.  1.
         -5    1    3    3    0  502  0.31478944333E+02 -0.37925876637E+02  0.27808930621E+02  0.56745969700E+02  0.41800000000E+01 0.  1.
        -11    1    1    2    0    0 -0.26868716352E+02  0.38677827887E+02  0.23955704189E+03  0.24414233269E+03  0.00000000000E+00 0.  1.
         11    1    1    2    0    0 -0.54232042858E+02  0.31839714772E+02  0.61147330031E+02  0.87714752917E+02  0.00000000000E+00 0. -1.
</event>
<event>
 7    1  0.4394360E-006  0.1393543E+03  0.7561462E-02  0.1214200E+00
         -2   -1    0    0    0  501 -0.00000000000E+00  0.00000000000E+00  0.30709492377E+03  0.30709492377E+03  0.00000000000E+00 0.  1.
          2   -1    0    0  501    0  0.00000000000E+00 -0.00000000000E+00 -0.88893418602E+02  0.88893418602E+02  0.00000000000E+00 0. -1.
         23    2    1    2    0    0 -0.31610854279E+02  0.11596586394E+03  0.15218985387E+03  0.23077385614E+03  0.12508994104E+03 0.  0.
          5    1    3    3  502    0  0.59740865108E+01  0.56890222303E+02  0.15000570587E+03  0.16059692181E+03  0.41800000000E+01 0.  1.
         -5    1    3    3    0  502 -0.37584940789E+02  0.59075641634E+02  0.21841480008E+01  0.70176934324E+02  0.41800000000E+01 0.  1.
        -11    1    1    2    0    0 -0.32388573815E+02 -0.30960776185E+02  0.23884579050E+02  0.50774624490E+02  0.00000000000E+00 0. -1.
         11    1    1    2    0    0  0.63999428094E+02 -0.85005087752E+02  0.42127072254E+02  0.11443986175E+03  0.00000000000E+00 0.  1.
</event>
<event>
 7    1  0.4394360E-006  0.1100897E+03  0.7561462E-02  0.1260404E+00
          1   -1    0    0  501    0  0.00000000000E+00  0.00000000000E+00  0.32487393169E+03  0.32487393169E+03  0.00000000000E+00 0. -1.
         -1   -1    0    0    0  501 -0.00000000000E+00 -0.00000000000E+00 -0.42046592116E+02  0.42046592116E+02  0.00000000000E+00 0.  1.
         23    2    1    2    0    0  0.33734987329E+02 -0.60913379162E+02  0.15174474002E+03  0.20862021862E+03  0.12508972924E+03 0.  0.
          5    1    3    3  502    0 -0.41488575885E+02 -0.29892983141E+02  0.22921360524E+02  0.56193892358E+02  0.41800000000E+01 0.  1.
         -5    1    3    3    0  502  0.75223563215E+02 -0.31020396021E+02  0.12882337949E+03  0.15242632626E+03  0.41800000000E+01 0.  1.
        -11    1    1    2    0    0 -0.46200433281E+02  0.32847142465E+02  0.97592518258E+02  0.11286148335E+03  0.00000000000E+00 0.  1.
         11    1    1    2    0    0  0.12465445952E+02  0.28066236697E+02  0.33490081293E+02  0.45438821839E+02  0.00000000000E+00 0. -1.
</event>
<event>
 7    1  0.4394360E-006  0.1841022E+03  0.7561462E-02  0.1163891E+00
         -1   -1    0    0    0  501 -0.00000000000E+00  0.00000000000E+00  0.45081272470E+03  0.45081272470E+03  0.00000000000E+00 0.  1.
          1   -1    0    0  501    0  0.00000000000E+00 -0.00000000000E+00 -0.88075982845E+02  0.88075982845E+02  0.00000000000E+00 0. -1.
         23    2    1    2    0    0  0.14854091298E+03 -0.47550850917E+02  0.28209950693E+03  0.34086434017E+03  0.11082815680E+03 0.  0.
          5    1    3    3  502    0  0.74976139931E+02  0.32139861131E+02  0.10316507407E+03  0.13158608262E+03  0.41800000000E+01 0. -1.
         -5    1    3    3    0  502  0.73564773050E+02 -0.79690712048E+02  0.17893443286E+03  0.20927825755E+03  0.41800000000E+01 0.  1.
        -11    1    1    2    0    0 -0.11007769256E+02 -0.21454890789E+02 -0.39691724587E+00  0.24117231725E+02  0.00000000000E+00 0.  1.
         11    1    1    2    0    0 -0.13753314372E+03  0.69005741706E+02  0.81034152175E+02  0.17390713565E+03  0.00000000000E+00 0. -1.
</event>
<event>
 7    1  0.4394360E-006  0.1871885E+03  0.7561462E-02  0.1161022E+00
          1   -1    0    0  501    0  0.00000000000E+00  0.00000000000E+00  0.48943941477E+03  0.48943941477E+03  0.00000000000E+00 0. -1.
         -1   -1    0    0    0  501 -0.00000000000E+00 -0.00000000000E+00 -0.17480348936E+03  0.17480348936E+03  0.00000000000E+00 0.  1.
         23    2    1    2    0    0 -0.16916777911E+03 -0.18558395115E+02 -0.79646213323E+02  0.22572609790E+03  0.12508637200E+03 0.  0.
          5    1    3    3  502    0 -0.97126601516E+02  0.44712779283E+02 -0.72978292117E+02  0.12952263460E+03  0.41800000000E+01 0. -1.
         -5    1    3    3    0  502 -0.72041177592E+02 -0.63271174398E+02 -0.66679212063E+01  0.96203463305E+02  0.41800000000E+01 0. -1.
        -11    1    1    2    0    0  0.55690999607E+02 -0.34890928615E+01  0.23605427059E+03  0.24255984801E+03  0.00000000000E+00 0. -1.
         11    1    1    2    0    0  0.11347677950E+03  0.22047487977E+02  0.15822786815E+03  0.19595695821E+03  0.00000000000E+00 0.  1.
</event>
<event>
 7    1  0.4394360E-006  0.1387220E+03  0.7561462E-02  0.1215059E+00
          2   -1    0    0  501    0  0.00000000000E+00  0.00000000000E+00  0.22976136811E+03  0.22976136811E+03  0.00000000000E+00 0. -1.
         -2   -1    0    0    0  501 -0.00000000000E+00 -0.00000000000E+00 -0.15084892691E+03  0.15084892691E+03  0.00000000000E+00 0.  1.
         23    2    1    2    0    0 -0.59102362302E+02 -0.12284944310E+03 -0.36177068554E+02  0.18852225018E+03  0.12508710414E+03 0.  0.
          5    1    3    3  502    0 -0.39436034831E+02 -0.45895655834E+02  0.44501866348E+02  0.75229652240E+02  0.41800000000E+01 0. -1.
         -5    1    3    3    0  502 -0.19666327471E+02 -0.76953787269E+02 -0.80678934902E+02  0.11329259794E+03  0.41800000000E+01 0. -1.
        -11    1    1    2    0    0  0.36336064525E+02  0.91963419531E+02  0.11758709253E+03  0.15363692410E+03  0.00000000000E+00 0. -1.
         11    1    1    2    0    0  0.22766297776E+02  0.30886023572E+02 -0.24975827838E+01  0.38451120742E+02  0.00000000000E+00 0.  1.
</event>
<event>
 7    1  0.4394360E-006  0.1186557E+03  0.7561462E-02  0.1245331E+00
          2   -1    0    0  501    0  0.00000000000E+00  0.00000000000E+00  0.44788535907E+03  0.44788535907E+03  0.00000000000E+00 0. -1.
         -2   -1    0    0    0  501 -0.00000000000E+00 -0.00000000000E+00 -0.32823921466E+02  0.32823921466E+02  0.00000000000E+00 0.  1.
         23    2    1    2    0    0 -0.30990700368E+02  0.45628450705E+02  0.23281115534E+03  0.26998441299E+03  0.12509264641E+03 0.  0.
          5    1    3    3  502    0 -0.50665455239E+02  0.80693902543E+02  0.14859368028E+03  0.17656740492E+03  0.41800000000E+01 0.  1.
         -5    1    3    3    0  502  0.19674754870E+02 -0.35065451838E+02  0.84217475057E+02  0.93417008070E+02  0.41800000000E+01 0.  1.
        -11    1    1    2    0    0  0.83235435567E+01 -0.68681302527E+02  0.14936199719E+03  0.16460683126E+03  0.00000000000E+00 0. -1.
         11    1    1    2    0    0  0.22667156812E+02  0.23052851822E+02  0.32888285081E+02  0.46118036283E+02  0.00000000000E+00 0.  1.
</event>
<event>
 7    1  0.4394360E-006  0.1235041E+03  0.7561462E-02  0.1237426E+00
         -2   -1    0    0    0  501 -0.00000000000E+00  0.00000000000E+00  0.95411010344E+03  0.95411010344E+03  0.00000000000E+00 0.  1.
          2   -1    0    0  501    0  0.00000000000E+00 -0.00000000000E+00 -0.20397042038E+02  0.20397042038E+02  0.00000000000E+00 0. -1.
         23    2    1    2    0    0  0.54177279879E+02  0.44321480547E+02  0.69387602682E+03  0.70852703942E+03  0.12508818371E+03 0.  0.
          5    1    3    3  502    0  0.80548829494E+02  0.69005159754E+02  0.48158978362E+03  0.49314908303E+03  0.41800000000E+01 0. -1.
         -5    1    3    3    0  502 -0.26371549615E+02 -0.24683679207E+02  0.21228624320E+03  0.21537795639E+03  0.41800000000E+01 0. -1.
        -11    1    1    2    0    0  0.19413550896E+02 -0.17607317410E+02  0.21075557304E+02  0.33631572969E+02  0.00000000000E+00 0. -1.
         11    1    1    2    0    0 -0.73590830774E+02 -0.26714163137E+02  0.21876147727E+03  0.23234853308E+03  0.00000000000E+00 0.  1.
</event>
<event>
 6    1  0.4394360E-006  0.8514788E+02  0.7561462E-02  0.1315046E+00
          2   -1    0    0  501    0  0.00000000000E+00  0.00000000000E+00  0.48679068959E+03  0.48679068959E+03  0.00000000000E+00 0. -1.
         -2   -1    0    0    0  501 -0.00000000000E+00 -0.00000000000E+00 -0.38102440058E+02  0.38102440058E+02  0.00000000000E+00 0.  1.
          5    1    1    2  502    0 -0.99090301812E+01  0.56078999619E+01  0.28598484505E+03  0.28624192813E+03  0.41800000000E+01 0. -1.
         -5    1    1    2    0  502  0.28753329846E+02 -0.53237432267E+02  0.23211115215E+02  0.64940021875E+02  0.41800000000E+01 0.  1.
        -11    1    1    2    0    0 -0.11139051876E+02  0.71536553019E+02  0.12569170032E+03  0.14505157849E+03  0.00000000000E+00 0.  1.
         11    1    1    2    0    0 -0.77052477888E+01 -0.23907020714E+02  0.13800588955E+02  0.28659601155E+02  0.00000000000E+00 0. -1.
</event>
<event>
 7    1  0.4394360E-006  0.2029411E+03  0.7561462E-02  0.1147281E+00
         -1   -1    0    0    0  501 -0.00000000000E+00  0.00000000000E+00  0.91718406599E+02  0.91718406599E+02  0.00000000000E+00 0.  1.
          1   -1    0    0  501    0  0.00000000000E+00 -0.00000000000E+00 -0.60021770139E+03  0.60021770139E+03  0.00000000000E+00 0. -1.
         23    2    1    2    0    0  0.37425880490E+01 -0.18381187875E+03 -0.12001835190E+03  0.25269106256E+03  0.12509018575E+03 0.  0.
          5    1    3    3  502    0  0.48533665403E+02 -0.96808435706E+02 -0.10969891821E+03  0.15420348556E+03  0.41800000000E+01 0. -1.
         -5    1    3    3    0  502 -0.44791077354E+02 -0.87003443048E+02 -0.10319433686E+02  0.98487577006E+02  0.41800000000E+01 0. -1.
        -11    1    1    2    0    0  0.31085478585E+02  0.14093908473E+03 -0.32161887145E+03  0.35251784502E+03  0.00000000000E+00 0. -1.
         11    1    1    2    0    0 -0.34828066634E+02  0.42872794029E+02 -0.66862071448E+02  0.86727200414E+02  0.00000000000E+00 0.  1.
</event>
<event>
 7    1  0.4394360E-006  0.1178600E+03  0.7561462E-02  0.1246670E+00
         -1   -1    0    0    0  501 -0.00000000000E+00  0.00000000000E+00  0.61679699315E+03  0.61679699315E+03  0.00000000000E+00 0.  1.
          1   -1    0    0  501    0  0.00000000000E+00 -0.00000000000E+00 -0.25424202913E+02  0.25424202913E+02  0.00000000000E+00 0. -1.
         23    2    1    2    0    0 -0.20366131396E+02  0.56709467309E+02  0.34735533782E+03  0.37407777832E+03  0.12509080912E+03 0.  0.
          5    1    3    3  502    0 -0.62000503114E+02  0.10718534540E+02  0.93912658603E+02  0.11311944667E+03  0.41800000000E+01 0. -1.
         -5    1    3    3    0  502  0.41634371718E+02  0.45990932769E+02  0.25344267922E+03  0.26095833165E+03  0.41800000000E+01 0. -1.
        -11    1    1    2    0    0  0.37690107984E+02  0.12054484916E+02  0.10197869376E+03  0.10938696827E+03  0.00000000000E+00 0. -1.
         11    1    1    2    0    0 -0.17323976588E+02 -0.68763952225E+02  0.14203875866E+03  0.15875644948E+03  0.00000000000E+00 0.  1.
</event>
<event>
 7    1  0.4394360E-006  0.7630307E+02  0.7561462E-02  0.1339883E+00
          1   -1    0    0  501    0  0.00000000000E+00  0.00000000000E+00  0.22846936493E+03  0.22846936493E+03  0.00000000000E+00 0. -1.
         -1   -1    0    0    0  501 -0.00000000000E+00 -0.00000000000E+00 -0.12720166484E+03  0.12720166484E+03  0.00000000000E+00 0.  1.
         23    2    1    2    0    0 -0.15933893950E+02  0.31466859696E+02 -0.82129056890E+02  0.14753207442E+03  0.11737324551E+03 0.  0.
          5    1    3    3  502    0  0.19738798620E+02  0.26825349212E+02  0.20068118605E+02  0.39107816554E+02  0.41800000000E+01 0. -1.
         -5    1    3    3    0  502 -0.35672692570E+02  0.46415104847E+01 -0.10219717549E+03  0.10842425787E+03  0.41800000000E+01 0.  1.
        -11    1    1    2    0    0 -0.72904648657E+01  0.22724990573E+02  0.11671505290E+03  0.11913009547E+03  0.00000000000E+00 0.  1.
         11    1    1    2    0    0  0.23224358816E+02 -0.54191850269E+02  0.66681704084E+02  0.89008859883E+02  0.00000000000E+00 0. -1.
</event>
<event>
 7    1  0.9742814E-006  0.1510583E+03  0.7561462E-02  0.1199179E+00
         -1   -1    0    0    0  501 -0.00000000000E+00  0.00000000000E+00  0.33158981672E+02  0.33158981672E+02  0.00000000000E+00 0.  1.
          1   -1    0    0  501    0  0.00000000000E+00 -0.00000000000E+00 -0.74111643022E+03  0.74111643022E+03  0.00000000000E+00 0. -1.
         23    2    1    2    0    0 -0.30685179979E+02 -0.10565108278E+03 -0.31806979739E+03  0.35905394455E+03  0.12509039741E+03 0.  0.
          5    1    3    3  502    0 -0.29411079758E+02  0.18659261793E+02 -0.33589736618E+02  0.48568739630E+02  0.41800000000E+01 0.  1.
         -5    1    3    3    0  502 -0.12741002213E+01 -0.12431034458E+03 -0.28448006077E+03  0.31048520492E+03  0.41800000000E+01 0.  1.
        -11    1    1    2    0    0  0.48033424601E+02  0.14953939304E+02 -0.14724203506E+03  0.15559899443E+03  0.00000000000E+00 0.  1.
         11    1    1    2    0    0 -0.17348244622E+02  0.90697143478E+02 -0.24264561610E+03  0.25962247291E+03  0.00000000000E+00 0. -1.
</event>
<event>
 7    1  0.4394360E-006  0.1558568E+03  0.7561462E-02  0.1193455E+00
          1   -1    0    0  501    0  0.00000000000E+00  0.00000000000E+00  0.52578677563E+02  0.52578677563E+02  0.00000000000E+00 0. -1.
         -1   -1    0    0    0  501 -0.00000000000E+00 -0.00000000000E+00 -0.47459948005E+03  0.47459948005E+03  0.00000000000E+00 0.  1.
         23    2    1    2    0    0  0.10459974743E+03 -0.46759923282E+02 -0.23867862937E+03  0.29281799305E+03  0.12508913362E+03 0.  0.
          5    1    3    3  502    0  0.52569544994E+01  0.35865139186E+02 -0.29538359797E+02  0.46946042208E+02  0.41800000000E+01 0.  1.
         -5    1    3    3    0  502  0.99342792935E+02 -0.82625062468E+02 -0.20914026957E+03  0.24587195084E+03  0.41800000000E+01 0.  1.
        -11    1    1    2    0    0  0.11523749015E+02  0.25374339828E+02 -0.32997253504E+02  0.43191117742E+02  0.00000000000E+00 0.  1.
         11    1    1    2    0    0 -0.11612349645E+03  0.21385583454E+02 -0.15034491962E+03  0.19116904682E+03  0.00000000000E+00 0. -1.
</event>
<event>
 7    1  0.4394360E-006  0.8667347E+02  0.7561462E-02  0.1311113E+00
         -1   -1    0    0    0  501 -0.00000000000E+00  0.00000000000E+00  0.12073788998E+03  0.12073788998E+03  0.00000000000E+00 0.  1.
          1   -1    0    0  501    0  0.00000000000E+00 -0.00000000000E+00 -0.12292824643E+03  0.12292824643E+03  0.00000000000E+00 0. -1.
         23    2    1    2    0    0  0.11406627955E+01  0.14787223010E+02  0.52227798049E+02  0.13635625106E+03  0.12508125854E+03 0.  0.
          5    1    3    3  502    0  0.37635410793E+02  0.54837633389E+02  0.96882500863E+01  0.67341850071E+02  0.41800000000E+01 0. -1.
         -5    1    3    3    0  502 -0.36494747998E+02 -0.40050410378E+02  0.42539547963E+02  0.69014400988E+02  0.41800000000E+01 0. -1.
        -11    1    1    2    0    0  0.18632476364E+02  0.96035834692E+01  0.18475203234E+02  0.27941566267E+02  0.00000000000E+00 0.  1.
         11    1    1    2    0    0 -0.19773139160E+02 -0.24390806479E+02 -0.72893357728E+02  0.79368319081E+02  0.00000000000E+00 0. -1.
</event>
<event>
 7    1  0.4394360E-006  0.1040441E+03  0.7561462E-02  0.1272015E+00
         -1   -1    0    0    0  501 -0.00000000000E+00  0.00000000000E+00  0.13971342139E+03  0.13971342139E+03  0.00000000000E+00 0.  1.
          1   -1    0    0  501    0  0.00000000000E+00 -0.00000000000E+00 -0.11526985674E+03  0.11526985674E+03  0.00000000000E+00 0. -1.
         23    2    1    2    0    0  0.17783769193E+02 -0.57274490831E+02  0.39876841936E+02  0.14432007313E+03  0.12506594756E+03 0.  0.
          5    1    3    3  502    0 -0.34314104594E+02  0.20758834272E+02 -0.42605713705E+01  0.40546415906E+02  0.41800000000E+01 0. -1.
         -5    1    3    3    0  502  0.52097873787E+02 -0.78033325102E+02  0.44137413306E+02  0.10377365722E+03  0.41800000000E+01 0. -1.
        -11    1    1    2    0    0  0.14400070809E+02  0.16468312461E+02 -0.45597050970E+02  0.50573297419E+02  0.00000000000E+00 0. -1.
         11    1    1    2    0    0 -0.32183840002E+02  0.40806178369E+02  0.30163773682E+02  0.60089907581E+02  0.00000000000E+00 0.  1.
</event>
<event>
 7    1  0.4394360E-006  0.6473002E+02  0.7561462E-02  0.1378990E+00
         -2   -1    0    0    0  501 -0.00000000000E+00  0.00000000000E+00  0.14938798655E+02  0.14938798655E+02  0.00000000000E+00 0. -1.
          2   -1    0    0  501    0  0.00000000000E+00 -0.00000000000E+00 -0.81676055104E+03  0.81676055104E+03  0.00000000000E+00 0.  1.
         23    2    1    2    0    0  0.45402435008E+01  0.18353967617E+02 -0.42543369380E+03  0.44383325537E+03  0.12504658658E+03 0.  0.
          5    1    3    3  502    0 -0.10674243200E+02  0.16506230334E+02 -0.42735872325E+03  0.42783097813E+03  0.41800000000E+01 0.  1.
         -5    1    3    3    0  502  0.15214486701E+02  0.18477372829E+01  0.19250294502E+01  0.16002277245E+02  0.41800000000E+01 0.  1.
        -11    1    1    2    0    0  0.40291679569E+02  0.85550161138E+01 -0.17794293051E+03  0.18264800645E+03  0.00000000000E+00 0.  1.
         11    1    1    2    0    0 -0.44831923070E+02 -0.26908983731E+02 -0.19844512808E+03  0.20521808787E+03  0.00000000000E+00 0. -1.
</event>
<event>
 7    1  0.4394360E-006  0.2101957E+03  0.7561462E-02  0.1141411E+00
         -2   -1    0    0    0  501 -0.00000000000E+00  0.00000000000E+00  0.27984295080E+03  0.27984295080E+03  0.00000000000E+00 0.  1.
          2   -1    0    0  501    0  0.00000000000E+00 -0.00000000000E+00 -0.22822781153E+03  0.22822781153E+03  0.00000000000E+00 0. -1.
         23    2    1    2    0    0 -0.12205757285E+03 -0.14061626412E+03  0.15883374996E+03  0.27485742821E+03  0.12508981130E+03 0.  0.
          5    1    3    3  502    0 -0.38737814546E+02 -0.13231902539E+03  0.78318280584E+02  0.15861957077E+03  0.41800000000E+01 0.  1.
         -5    1    3    3    0  502 -0.83319758305E+02 -0.82972387263E+01  0.80515469374E+02  0.11623785744E+03  0.41800000000E+01 0.  1.
        -11    1    1    2    0    0  0.61852141938E+02  0.22089725171E+02 -0.56652557303E+01  0.65922215853E+02  0.00000000000E+00 0.  1.
         11    1    1    2    0    0  0.60205430914E+02  0.11852653895E+03 -0.10155335496E+03  0.16729111826E+03  0.00000000000E+00 0. -1.
</event>
<event>
 6    1  0.4394360E-006  0.2325693E+03  0.7561462E-02  0.1124844E+00
          1   -1    0    0  501    0  0.00000000000E+00  0.00000000000E+00  0.73845973429E+02  0.73845973429E+02  0.00000000000E+00 0. -1.
         -1   -1    0    0    0  501 -0.00000000000E+00 -0.00000000000E+00 -0.11864115352E+04  0.11864115352E+04  0.00000000000E+00 0.  1.
          5    1    1    2  502    0 -0.72185460331E+01  0.19141557510E+02 -0.11766248537E+03  0.11950079286E+03  0.41800000000E+01 0. -1.
         -5    1    1    2    0  502  0.13087304640E+03 -0.18017703287E+03 -0.84177613470E+03  0.87074453820E+03  0.41800000000E+01 0.  1.
        -11    1    1    2    0    0 -0.40328342337E+02  0.13209047339E+00 -0.19047452785E+02  0.44600427141E+02  0.00000000000E+00 0.  1.
         11    1    1    2    0    0 -0.83326158030E+02  0.16090338488E+03 -0.13407948888E+03  0.22541175040E+03  0.00000000000E+00 0. -1.
</event>
<event>
 7    1  0.4394360E-006  0.1907694E+03  0.7561462E-02  0.1157769E+00
         -1   -1    0    0    0  501 -0.00000000000E+00  0.00000000000E+00  0.79401455732E+02  0.79401455732E+02  0.00000000000E+00 0.  1.
          1   -1    0    0  501    0  0.00000000000E+00 -0.00000000000E+00 -0.58040574784E+03  0.58040574784E+03  0.00000000000E+00 0. -1.
         23    2    1    2    0    0 -0.16338384492E+03 -0.17212979294E+02 -0.13210932922E+03  0.24513438941E+03  0.12508967410E+03 0.  0.
          5    1    3    3  502    0 -0.10980856243E+03  0.49664710651E+02 -0.73295972191E+02  0.14111794998E+03  0.41800000000E+01 0.  1.
         -5    1    3    3    0  502 -0.53575282484E+02 -0.66877689945E+02 -0.58813357031E+02  0.10401643943E+03  0.41800000000E+01 0.  1.
        -11    1    1    2    0    0  0.82033457672E+02 -0.21878004952E+02 -0.10078628336E+03  0.13178015857E+03  0.00000000000E+00 0.  1.
         11    1    1    2    0    0  0.81350387245E+02  0.39090984246E+02 -0.26810867953E+03  0.28289265560E+03  0.00000000000E+00 0. -1.
</event>
<event>
 7    1  0.4394360E-006  0.9559863E+02  0.7561462E-02  0.1289833E+00
          1   -1    0    0  501    0  0.00000000000E+00  0.00000000000E+00  0.29229330853E+03  0.29229330853E+03  0.00000000000E+00 0. -1.
         -1   -1    0    0    0  501 -0.00000000000E+00 -0.00000000000E+00 -0.52905764333E+02  0.52905764333E+02  0.00000000000E+00 0.  1.
         23    2    1    2    0    0 -0.40248288202E+02 -0.36295312275E+02  0.91664190289E+02  0.16427976885E+03  0.12509294255E+03 0.  0.
          5    1    3    3  502    0 -0.65274715890E+02 -0.39362509024E+02  0.10923370767E+03  0.13326541540E+03  0.41800000000E+01 0. -1.
         -5    1    3    3    0  502  0.25026427688E+02  0.30671967492E+01 -0.17569517379E+02  0.31014353446E+02  0.41800000000E+01 0. -1.
        -11    1    1    2    0    0  0.46953319081E+02 -0.52240109336E+01  0.30134696112E+02  0.56035741921E+02  0.00000000000E+00 0.  1.
         11    1    1    2    0    0 -0.67050308793E+01  0.41519323209E+02  0.11758865779E+03  0.12488356209E+03  0.00000000000E+00 0. -1.
</event>
<event>
 7    1  0.4394360E-006  0.2651443E+03  0.7561462E-02  0.1104091E+00
         -2   -1    0    0    0  501 -0.00000000000E+00  0.00000000000E+00  0.84790500491E+02  0.84790500491E+02  0.00000000000E+00 0.  1.
          2   -1    0    0  501    0  0.00000000000E+00 -0.00000000000E+00 -0.98115806170E+03  0.98115806170E+03  0.00000000000E+00 0. -1.
         23    2    1    2    0    0 -0.14363263538E+03 -0.20352230413E+03 -0.28146836919E+03  0.39613428199E+03  0.12508502825E+03 0.  0.
          5    1    3    3  502    0 -0.14389974787E+03 -0.21862930941E+03 -0.27336765331E+03  0.37848812220E+03  0.41800000000E+01 0. -1.
         -5    1    3    3    0  502  0.26711248953E+00  0.15107005282E+02 -0.81007158726E+01  0.17646159790E+02  0.41800000000E+01 0. -1.
        -11    1    1    2    0    0  0.85522067778E+02  0.83665066803E+02 -0.39497233381E+03  0.41269481697E+03  0.00000000000E+00 0.  1.
         11    1    1    2    0    0  0.58110567602E+02  0.11985723733E+03 -0.21992685821E+03  0.25711946322E+03  0.00000000000E+00 0. -1.
</event>
<event>
 7    1  0.4394360E-006  0.9097304E+02  0.7561462E-02  0.1300512E+00
         -4   -1    0    0    0  501 -0.00000000000E+00  0.00000000000E+00  0.37900381957E+02  0.37900381957E+02  0.00000000000E+00 0.  1.
          4   -1    0    0  501    0  0.00000000000E+00 -0.00000000000E+00 -0.39239344941E+03  0.39239344941E+03  0.00000000000E+00 0. -1.
         23    2    1    2    0    0  0.41545446300E+02 -0.28699952783E+02 -0.14883892637E+03  0.20086867157E+03  0.12508191642E+03 0.  0.
          5    1    3    3  502    0  0.56178022272E+02  0.28464004373E+02 -0.11879633005E+03  0.13452215492E+03  0.41800000000E+01 0. -1.
         -5    1    3    3    0  502 -0.14632575972E+02 -0.57163957156E+02 -0.30042596317E+02  0.66346516644E+02  0.41800000000E+01 0. -1.
        -11    1    1    2    0    0 -0.34830973436E+02  0.51782502017E+01 -0.20157304571E+03  0.20462576510E+03  0.00000000000E+00 0. -1.
         11    1    1    2    0    0 -0.67144728642E+01  0.23521702581E+02 -0.40810953762E+01  0.24799394703E+02  0.00000000000E+00 0.  1.
</event>
<event>
 7    1  0.4394360E-006  0.1239504E+03  0.7561462E-02  0.1236719E+00
         -1   -1    0    0    0  501 -0.00000000000E+00  0.00000000000E+00  0.73558933051E+02  0.73558933051E+02  0.00000000000E+00 0.  1.
          1   -1    0    0  501    0  0.00000000000E+00 -0.00000000000E+00 -0.31633729567E+03  0.31633729567E+03  0.00000000000E+00 0. -1.
         23    2    1    2    0    0  0.79824044266E+01 -0.83132325820E+02 -0.46526967330E+02  0.15744297881E+03  0.12509528573E+03 0.  0.
          5    1    3    3  502    0 -0.40231633346E+02 -0.23443277250E+02 -0.63396256077E+02  0.78770103812E+02  0.41800000000E+01 0. -1.
         -5    1    3    3    0  502  0.48214037773E+02 -0.59689048570E+02  0.16869288747E+02  0.78672874997E+02  0.41800000000E+01 0. -1.
        -11    1    1    2    0    0  0.54714466332E+00  0.10283537198E+03 -0.15626206549E+03  0.18706481820E+03  0.00000000000E+00 0.  1.
         11    1    1    2    0    0 -0.85295490900E+01 -0.19703046156E+02 -0.39989329794E+02  0.45388431708E+02  0.00000000000E+00 0. -1.
</event>
<event>
 7    1  0.4394360E-006  0.9854963E+02  0.7561462E-02  0.1283376E+00
          2   -1    0    0  501    0  0.00000000000E+00  0.00000000000E+00  0.40366989080E+03  0.40366989080E+03  0.00000000000E+00 0. -1.
         -2   -1    0    0    0  501 -0.00000000000E+00 -0.00000000000E+00 -0.33637281546E+02  0.33637281546E+02  0.00000000000E+00 0.  1.
         23    2    1    2    0    0 -0.34452822235E+00  0.28344385297E+02  0.15587082886E+03  0.20185888989E+03  0.12509105987E+03 0.  0.
          5    1    3    3  502    0  0.34444664536E+02 -0.33494706383E+02  0.10148896051E+03  0.11236463757E+03  0.41800000000E+01 0. -1.
         -5    1    3    3    0  502 -0.34789192759E+02  0.61839091680E+02  0.54381868355E+02  0.89494252320E+02  0.41800000000E+01 0. -1.
        -11    1    1    2    0    0  0.18610607622E+02  0.19275384709E+02  0.15516644343E+03  0.15746275858E+03  0.00000000000E+00 0. -1.
         11    1    1    2    0    0 -0.18266079400E+02 -0.47619770005E+02  0.58995336966E+02  0.77985523886E+02  0.00000000000E+00 0.  1.
</event>
<event>
 7    1  0.4394360E-006  0.1122551E+03  0.7561462E-02  0.1256450E+00
         -1   -1    0    0    0  501 -0.00000000000E+00  0.00000000000E+00  0.48762211351E+03  0.48762211351E+03  0.00000000000E+00 0.  1.
          1   -1    0    0  501    0  0.00000000000E+00 -0.00000000000E+00 -0.37636854627E+02  0.37636854627E+02  0.00000000000E+00 0. -1.
         23    2    1    2    0    0  0.32554186621E+02 -0.40286965712E+02  0.36578566580E+03  0.39002209924E+03  0.12504107290E+03 0.  0.
          5    1    3    3  502    0  0.36040168594E+02 -0.83504474141E+02  0.26577547854E+03  0.28093765918E+03  0.41800000000E+01 0.  1.
         -5    1    3    3    0  502 -0.34859819731E+01  0.43217508429E+02  0.10001018727E+03  0.10908444005E+03  0.41800000000E+01 0.  1.
        -11    1    1    2    0    0 -0.69432881239E+00  0.54864558541E+02  0.13764905410E+02  0.56569200961E+02  0.00000000000E+00 0. -1.
         11    1    1    2    0    0 -0.31859857809E+02 -0.14577592829E+02  0.70434687672E+02  0.78667667944E+02  0.00000000000E+00 0.  1.
</event>
<event>
 7    1  0.4394360E-006  0.9973399E+02  0.7561462E-02  0.1280856E+00
          1   -1    0    0  501    0  0.00000000000E+00  0.00000000000E+00  0.57853962751E+02  0.57853962751E+02  0.00000000000E+00 0. -1.
         -1   -1    0    0    0  501 -0.00000000000E+00 -0.00000000000E+00 -0.37139823922E+03  0.37139823922E+03  0.00000000000E+00 0.  1.
         23    2    1    2    0    0 -0.65823444669E+02 -0.18449725046E+02 -0.27390466231E+03  0.30877941685E+03  0.12509135067E+03 0.  0.
          5    1    3    3  502    0 -0.28752784792E+02  0.19096704271E+02 -0.54944587298E+01  0.35200400907E+02  0.41800000000E+01 0. -1.
         -5    1    3    3    0  502 -0.37070659877E+02 -0.37546429317E+02 -0.26841020358E+03  0.27357901594E+03  0.41800000000E+01 0. -1.
        -11    1    1    2    0    0  0.74719591483E+02 -0.15810511151E+02 -0.16358301426E+02  0.78106233041E+02  0.00000000000E+00 0.  1.
         11    1    1    2    0    0 -0.88961468147E+01  0.34260236197E+02 -0.23281312728E+02  0.42366552075E+02  0.00000000000E+00 0. -1.
</event>
<event>
 7    1  0.4394360E-006  0.1670067E+03  0.7561462E-02  0.1181006E+00
          2   -1    0    0  501    0  0.00000000000E+00  0.00000000000E+00  0.12031056876E+03  0.12031056876E+03  0.00000000000E+00 0. -1.
         -2   -1    0    0    0  501 -0.00000000000E+00 -0.00000000000E+00 -0.29309247544E+03  0.29309247544E+03  0.00000000000E+00 0.  1.
         23    2    1    2    0    0  0.10405556352E+03 -0.96108005197E+02 -0.27333267345E+02  0.19094270258E+03  0.12509076386E+03 0.  0.
          5    1    3    3  502    0  0.46847787062E+02 -0.11823576166E+03 -0.13828284212E+02  0.12799650125E+03  0.41800000000E+01 0.  1.
         -5    1    3    3    0  502  0.57207776456E+02  0.22127756460E+02 -0.13504983133E+02  0.62946201334E+02  0.41800000000E+01 0.  1.
        -11    1    1    2    0    0 -0.68356498817E+01  0.22010779214E+02 -0.81116595428E+02  0.84327353597E+02  0.00000000000E+00 0.  1.
         11    1    1    2    0    0 -0.97219913636E+02  0.74097225984E+02 -0.64332043902E+02  0.13813298802E+03  0.00000000000E+00 0. -1.
</event>
<event>
 7    1  0.4394360E-006  0.1191049E+03  0.7561462E-02  0.1244581E+00
          4   -1    0    0  501    0  0.00000000000E+00  0.00000000000E+00  0.46377032419E+02  0.46377032419E+02  0.00000000000E+00 0. -1.
         -4   -1    0    0    0  501 -0.00000000000E+00 -0.00000000000E+00 -0.36540977549E+03  0.36540977549E+03  0.00000000000E+00 0.  1.
         23    2    1    2    0    0  0.31947422179E+02  0.61482960591E+02 -0.19709820833E+03  0.24350702577E+03  0.12508867113E+03 0.  0.
          5    1    3    3  502    0 -0.32377682844E+02 -0.12453514414E+02 -0.17996858631E+02  0.39303481883E+02  0.41800000000E+01 0.  1.
         -5    1    3    3    0  502  0.64325105023E+02  0.73936475005E+02 -0.17910134970E+03  0.20420354389E+03  0.41800000000E+01 0.  1.
        -11    1    1    2    0    0 -0.51218752954E+02 -0.12762848547E+02 -0.96604552318E+02  0.11008492397E+03  0.00000000000E+00 0. -1.
         11    1    1    2    0    0  0.19271330775E+02 -0.48720112044E+02 -0.25329982424E+02  0.58194858167E+02  0.00000000000E+00 0.  1.
</event>
<event>
 7    1  0.4394360E-006  0.1071851E+03  0.7561462E-02  0.1265873E+00
          1   -1    0    0  501    0  0.00000000000E+00  0.00000000000E+00  0.36387924402E+03  0.36387924402E+03  0.00000000000E+00 0. -1.
         -1   -1    0    0    0  501 -0.00000000000E+00 -0.00000000000E+00 -0.52871820099E+02  0.52871820099E+02  0.00000000000E+00 0.  1.
         23    2    1    2    0    0 -0.31749947070E+02  0.70331335491E+02  0.11419820923E+03  0.18612822156E+03  0.12509167829E+03 0.  0.
          5    1    3    3  502    0 -0.59530020094E+02  0.76160347107E+02  0.12264814147E+03  0.15621863131E+03  0.41800000000E+01 0.  1.
         -5    1    3    3    0  502  0.27780073025E+02 -0.58290116157E+01 -0.84499322407E+01  0.29909590244E+02  0.41800000000E+01 0.  1.
        -11    1    1    2    0    0  0.18949923530E+02 -0.16081211027E+01 -0.27115040880E+01  0.19210359436E+02  0.00000000000E+00 0.  1.
         11    1    1    2    0    0  0.12800023540E+02 -0.68723214388E+02  0.19952071878E+03  0.21141248312E+03  0.00000000000E+00 0. -1.
</event>
<event>
 7    1  0.4394360E-006  0.9430668E+02  0.7561462E-02  0.1292745E+00
          1   -1    0    0  501    0  0.00000000000E+00  0.00000000000E+00  0.41692320951E+03  0.41692320951E+03  0.00000000000E+00 0. -1.
         -1   -1    0    0    0  501 -0.00000000000E+00 -0.00000000000E+00 -0.33338593980E+02  0.33338593980E+02  0.00000000000E+00 0.  1.
         23    2    1    2    0    0 -0.18922654729E+02  0.49941561168E+02  0.19721203152E+03  0.23606236050E+03  0.11823969838E+03 0.  0.
          5    1    3    3  502    0 -0.34553851649E+02 -0.43821978359E+01  0.16927039808E+03  0.17286732597E+03  0.41800000000E+01 0. -1.
         -5    1    3    3    0  502  0.15631196920E+02  0.54323759003E+02  0.27941633436E+02  0.63195034524E+02  0.41800000000E+01 0.  1.
        -11    1    1    2    0    0  0.32462454550E+02 -0.67368545010E+02  0.98924213114E+02  0.12400940187E+03  0.00000000000E+00 0.  1.
         11    1    1    2    0    0 -0.13539799821E+02  0.17426983842E+02  0.87448370894E+02  0.90190041119E+02  0.00000000000E+00 0. -1.
</event>
<event>
 7    1  0.4394360E-006  0.7582933E+02  0.7561462E-02  0.1341322E+00
          2   -1    0    0  501    0  0.00000000000E+00  0.00000000000E+00  0.17865149243E+03  0.17865149243E+03  0.00000000000E+00 0. -1.
         -2   -1    0    0    0  501 -0.00000000000E+00 -0.00000000000E+00 -0.72221312459E+02  0.72221312459E+02  0.00000000000E+00 0.  1.
         23    2    1    2    0    0 -0.51166532666E+02 -0.28840921805E+02  0.15964385084E+02  0.13784339332E+03  0.12367751071E+03 0.  0.
          5    1    3    3  502    0 -0.38586084407E+02  0.13600782852E+02  0.61639511155E+02  0.74099722938E+02  0.41800000000E+01 0. -1.
         -5    1    3    3    0  502 -0.12580448260E+02 -0.42441704657E+02 -0.45675126071E+02  0.63743670385E+02  0.41800000000E+01 0.  1.
        -11    1    1    2    0    0  0.26452400556E+02  0.31589625056E+02  0.43683652665E+02  0.60049108374E+02  0.00000000000E+00 0. -1.
         11    1    1    2    0    0  0.24714132111E+02 -0.27487032512E+01  0.46782142222E+02  0.52980303193E+02  0.00000000000E+00 0.  1.
</event>
<event>
 6    1  0.4394360E-006  0.1330971E+03  0.7561462E-02  0.1222931E+00
          1   -1    0    0  501    0  0.00000000000E+00  0.00000000000E+00  0.54323831610E+02  0.54323831610E+02  0.00000000000E+00 0. -1.
         -1   -1    0    0    0  501 -0.00000000000E+00 -0.00000000000E+00 -0.42179465389E+03  0.42179465389E+03  0.00000000000E+00 0.  1.
          5    1    1    2  502    0 -0.92241737480E+01  0.31812007354E+02 -0.73098799794E+02  0.80361658298E+02  0.41800000000E+01 0. -1.
         -5    1    1    2    0  502  0.28198528748E+02 -0.12816796800E+03 -0.14708145685E+03  0.19716138667E+03  0.41800000000E+01 0.  1.
        -11    1    1    2    0    0 -0.23364367545E+02  0.52872158282E+02 -0.14352568987E+03  0.15472873827E+03  0.00000000000E+00 0.  1.
         11    1    1    2    0    0  0.43900125452E+01  0.43483802365E+02 -0.37648757663E+01  0.43866702267E+02  0.00000000000E+00 0. -1.
</event>
<event>
 7    1  0.4394360E-006  0.9387291E+02  0.7561462E-02  0.1293735E+00
         -1   -1    0    0    0  501 -0.00000000000E+00  0.00000000000E+00  0.19140571134E+03  0.19140571134E+03  0.00000000000E+00 0.  1.
          1   -1    0    0  501    0  0.00000000000E+00 -0.00000000000E+00 -0.73917824445E+02  0.73917824445E+02  0.00000000000E+00 0. -1.
         23    2    1    2    0    0  0.35879132921E+02  0.26101557398E+01  0.11451815850E+03  0.17336478881E+03  0.12508723468E+03 0.  0.
          5    1    3    3  502    0  0.92154325115E+01  0.49233072272E+02  0.40061824130E+01  0.50421637213E+02  0.41800000000E+01 0.  1.
         -5    1    3    3    0  502  0.26663700409E+02 -0.46622916532E+02  0.11051197609E+03  0.12294315159E+03  0.41800000000E+01 0.  1.
        -11    1    1    2    0    0 -0.38343243235E+02  0.31371320033E+02  0.20532395536E+02  0.53627821966E+02  0.00000000000E+00 0.  1.
         11    1    1    2    0    0  0.24641103142E+01 -0.33981475772E+02 -0.17562667139E+02  0.38330925013E+02  0.00000000000E+00 0. -1.
</event>
<event>
 7    1  0.4394360E-006  0.6902086E+02  0.7561462E-02  0.1363455E+00
          1   -1    0    0  501    0  0.00000000000E+00  0.00000000000E+00  0.11584603355E+03  0.11584603355E+03  0.00000000000E+00 0. -1.
         -1   -1    0    0    0  501 -0.00000000000E+00 -0.00000000000E+00 -0.12724694352E+03  0.12724694352E+03  0.00000000000E+00 0.  1.
         23    2    1    2    0    0  0.34619340169E+02 -0.13229075500E+01 -0.44470586343E+02  0.13723362917E+03  0.12512069024E+03 0.  0.
          5    1    3    3  502    0  0.43877017532E+01 -0.29156795875E+02 -0.78345203119E+02  0.83814163028E+02  0.41800000000E+01 0.  1.
         -5    1    3    3    0  502  0.30231638416E+02  0.27833888325E+02  0.33874616776E+02  0.53419466137E+02  0.41800000000E+01 0.  1.
        -11    1    1    2    0    0 -0.16366531333E+02 -0.27990657655E+02 -0.23178489506E+02  0.39857027481E+02  0.00000000000E+00 0.  1.
         11    1    1    2    0    0 -0.18252808837E+02  0.29313565205E+02  0.56248165885E+02  0.66002320420E+02  0.00000000000E+00 0. -1.
</event>
<event>
 7    1  0.4394360E-006  0.1125689E+03  0.7561462E-02  0.1255885E+00
          3   -1    0    0  501    0  0.00000000000E+00  0.00000000000E+00  0.28811227787E+03  0.28811227787E+03  0.00000000000E+00 0. -1.
         -3   -1    0    0    0  501 -0.00000000000E+00 -0.00000000000E+00 -0.85846698128E+02  0.85846698128E+02  0.00000000000E+00 0.  1.
         23    2    1    2    0    0  0.79776631575E+02 -0.69456444526E+02  0.72342813326E+02  0.17908092657E+03  0.12509191417E+03 0.  0.
          5    1    3    3  502    0 -0.79833266165E+01 -0.45843549864E+01  0.69082459546E+02  0.69818396082E+02  0.41800000000E+01 0.  1.
         -5    1    3    3    0  502  0.87759958191E+02 -0.64872089540E+02  0.32603537804E+01  0.10926253049E+03  0.41800000000E+01 0.  1.
        -11    1    1    2    0    0 -0.57978366221E+02  0.52128325432E+02  0.14394218902E+03  0.16370157923E+03  0.00000000000E+00 0. -1.
         11    1    1    2    0    0 -0.21798265354E+02  0.17328119094E+02 -0.14019422602E+02  0.31176470196E+02  0.00000000000E+00 0.  1.
</event>
<event>
 7    1  0.4394360E-006  0.1071344E+03  0.7561462E-02  0.1265970E+00
         -2   -1    0    0    0  501 -0.00000000000E+00  0.00000000000E+00  0.10078289002E+03  0.10078289002E+03  0.00000000000E+00 0.  1.
          2   -1    0    0  501    0  0.00000000000E+00 -0.00000000000E+00 -0.15791075942E+03  0.15791075942E+03  0.00000000000E+00 0. -1.
         23    2    1    2    0    0  0.30997434565E+02  0.54382197461E+02 -0.43315865151E+02  0.14643491053E+03  0.12509458221E+03 0.  0.
          5    1    3    3  502    0 -0.52960850962E+01 -0.23807759542E+02 -0.54070177638E+02  0.59463555574E+02  0.41800000000E+01 0.  1.
         -5    1    3    3    0  502  0.36293519662E+02  0.78189957003E+02  0.10754312486E+02  0.86971354955E+02  0.41800000000E+01 0.  1.
        -11    1    1    2    0    0 -0.50209611981E+02 -0.64313870621E+02  0.74483068978E+01  0.81931412567E+02  0.00000000000E+00 0.  1.
         11    1    1    2    0    0  0.19212177416E+02  0.99316731598E+01 -0.21260311155E+02  0.30327326345E+02  0.00000000000E+00 0. -1.
</event>
<event>
 6    1  0.4394360E-006  0.9720009E+02  0.7561462E-02  0.1286296E+00
         -2   -1    0    0    0  501 -0.00000000000E+00  0.00000000000E+00  0.37628350575E+02  0.37628350575E+02  0.00000000000E+00 0.  1.
          2   -1    0    0  501    0  0.00000000000E+00 -0.00000000000E+00 -0.64967880926E+03  0.64967880926E+03  0.00000000000E+00 0. -1.
          5    1    1    2  502    0  0.21251139173E+02 -0.39300923769E+02 -0.26493585183E+03  0.26870923227E+03  0.41800000000E+01 0. -1.
         -5    1    1    2    0  502 -0.44845378688E+02  0.33269620871E+02  0.28941502375E+01  0.56069815125E+02  0.41800000000E+01 0.  1.
        -11    1    1    2    0    0 -0.27899971154E+02  0.26157111295E+02 -0.11894753305E+03  0.12494446158E+03  0.00000000000E+00 0. -1.
         11    1    1    2    0    0  0.51494210668E+02 -0.20125808396E+02 -0.23106122404E+03  0.23758365085E+03  0.00000000000E+00 0.  1.
</event>
<event>
 7    1  0.4394360E-006  0.7464385E+02  0.7561462E-02  0.1344977E+00
          2   -1    0    0  501    0  0.00000000000E+00  0.00000000000E+00  0.16610472404E+03  0.16610472404E+03  0.00000000000E+00 0. -1.
         -2   -1    0    0    0  501 -0.00000000000E+00 -0.00000000000E+00 -0.78220799528E+02  0.78220799528E+02  0.00000000000E+00 0.  1.
         23    2    1    2    0    0  0.19365937867E+02 -0.17652798457E+02  0.25686955801E+02  0.13036123322E+03  0.12509024976E+03 0.  0.
          5    1    3    3  502    0  0.40356490186E+02  0.31794477095E+02  0.49489065333E+02  0.71457505284E+02  0.41800000000E+01 0. -1.
         -5    1    3    3    0  502 -0.20990552319E+02 -0.49447275552E+02 -0.23802109532E+02  0.58903727932E+02  0.41800000000E+01 0. -1.
        -11    1    1    2    0    0 -0.27501412302E+02  0.37542161730E+01  0.83079290432E+02  0.87593323469E+02  0.00000000000E+00 0. -1.
         11    1    1    2    0    0  0.81354744356E+01  0.13898582284E+02 -0.20882321722E+02  0.26370966882E+02  0.00000000000E+00 0.  1.
</event>
<event>
 7    1  0.4394360E-006  0.1245148E+03  0.7561462E-02  0.1235830E+00
          1   -1    0    0  501    0  0.00000000000E+00  0.00000000000E+00  0.11519516390E+03  0.11519516390E+03  0.00000000000E+00 0. -1.
         -1   -1    0    0    0  501 -0.00000000000E+00 -0.00000000000E+00 -0.18978278729E+03  0.18978278729E+03  0.00000000000E+00 0.  1.
         23    2    1    2    0    0  0.70133680964E+02 -0.56713144693E+02 -0.87891902838E+02  0.17750260557E+03  0.12508826649E+03 0.  0.
          5    1    3    3  502    0 -0.17164144521E+02 -0.57505498990E+02 -0.61903551000E+02  0.86319246392E+02  0.41800000000E+01 0.  1.
         -5    1    3    3    0  502  0.87297825484E+02  0.79235429667E+00 -0.25988351838E+02  0.91183359178E+02  0.41800000000E+01 0.  1.
        -11    1    1    2    0    0 -0.75271336173E+02  0.42687396080E+02 -0.21875844640E+02  0.89255478331E+02  0.00000000000E+00 0.  1.
         11    1    1    2    0    0  0.51376552088E+01  0.14025748613E+02  0.35180124087E+02  0.38219867294E+02  0.00000000000E+00 0. -1.
</event>
<event>
 7    1  0.4394360E-006  0.2250400E+03  0.7561462E-02  0.1130180E+00
         -1   -1    0    0    0  501 -0.00000000000E+00  0.00000000000E+00  0.93628211652E+03  0.93628211652E+03  0.00000000000E+00 0.  1.
          1   -1    0    0  501    0  0.00000000000E+00 -0.00000000000E+00 -0.60752813916E+02  0.60752813916E+02  0.00000000000E+00 0. -1.
         23    2    1    2    0    0  0.47780285894E+01 -0.20923175092E+03  0.53955906090E+03  0.59209273514E+03  0.12509624957E+03 0.  0.
          5    1    3    3  502    0  0.42106419495E+02 -0.13293786057E+03  0.43773377507E+03  0.45942763910E+03  0.41800000000E+01 0. -1.
         -5    1    3    3    0  502 -0.37328390906E+02 -0.76293890343E+02  0.10182528583E+03  0.13266509603E+03  0.41800000000E+01 0. -1.
        -11    1    1    2    0    0  0.24306092422E+02  0.13806078573E+02  0.33100666324E+02  0.43324912527E+02  0.00000000000E+00 0.  1.
         11    1    1    2    0    0 -0.29084121011E+02  0.19542567234E+03  0.30286957538E+03  0.36161728277E+03  0.00000000000E+00 0. -1.
</event>
<event>
 7    1  0.4394360E-006  0.1741685E+03  0.7561462E-02  0.1173569E+00
         -1   -1    0    0    0  501 -0.00000000000E+00  0.00000000000E+00  0.94933438356E+02  0.94933438356E+02  0.00000000000E+00 0.  1.
          1   -1    0    0  501    0  0.00000000000E+00 -0.00000000000E+00 -0.56157771808E+03  0.56157771808E+03  0.00000000000E+00 0. -1.
         23    2    1    2    0    0  0.41894111555E+01  0.16073204304E+03 -0.61185484895E+02  0.21271063538E+03  0.12509920071E+03 0.  0.
          5    1    3    3  502    0 -0.27751620066E+02  0.11422892310E+02 -0.51383157007E+02  0.59651790493E+02  0.41800000000E+01 0.  1.
         -5    1    3    3    0  502  0.31941031221E+02  0.14930915073E+03 -0.98023278875E+01  0.15305884489E+03  0.41800000000E+01 0.  1.
        -11    1    1    2    0    0 -0.20099993207E+02 -0.11788637823E+03 -0.35997950515E+03  0.37932367712E+03  0.00000000000E+00 0. -1.
         11    1    1    2    0    0  0.15910582051E+02 -0.42845664806E+02 -0.45479289680E+02  0.64476843934E+02  0.00000000000E+00 0.  1.
</event>
<event>
 7    1  0.4394360E-006  0.1032890E+03  0.7561462E-02  0.1273528E+00
         -1   -1    0    0    0  501 -0.00000000000E+00  0.00000000000E+00  0.20420912840E+03  0.20420912840E+03  0.00000000000E+00 0.  1.
          1   -1    0    0  501    0  0.00000000000E+00 -0.00000000000E+00 -0.14329594142E+03  0.14329594142E+03  0.00000000000E+00 0. -1.
         23    2    1    2    0    0 -0.33689001935E+02 -0.96766590230E+02  0.11825780547E+03  0.20032830486E+03  0.12509116411E+03 0.  0.
          5    1    3    3  502    0 -0.11373453578E+02 -0.18650146750E+02 -0.26305930851E+02  0.34447900053E+02  0.41800000000E+01 0.  1.
         -5    1    3    3    0  502 -0.22315548357E+02 -0.78116443480E+02  0.14456373632E+03  0.16588040481E+03  0.41800000000E+01 0.  1.
        -11    1    1    2    0    0  0.54477751387E+01  0.30060928991E+02 -0.67441841747E+02  0.74038771762E+02  0.00000000000E+00 0. -1.
         11    1    1    2    0    0  0.28241226797E+02  0.66705661239E+02  0.10097223261E+02  0.73137993204E+02  0.00000000000E+00 0.  1.
</event>
<event>
 7    1  0.4394360E-006  0.1246165E+03  0.7561462E-02  0.1235670E+00
         -2   -1    0    0    0  501 -0.00000000000E+00  0.00000000000E+00  0.12549662482E+03  0.12549662482E+03  0.00000000000E+00 0.  1.
          2   -1    0    0  501    0  0.00000000000E+00 -0.00000000000E+00 -0.16142351679E+03  0.16142351679E+03  0.00000000000E+00 0. -1.
         23    2    1    2    0    0  0.67723517110E+02 -0.59582852556E+02 -0.22955033404E+02  0.15592475877E+03  0.12509598615E+03 0.  0.
          5    1    3    3  502    0  0.49313749623E+02 -0.78594102011E+02  0.29141522566E+02  0.97342588369E+02  0.41800000000E+01 0. -1.
         -5    1    3    3    0  502  0.18409767488E+02  0.19011249456E+02 -0.52096555970E+02  0.58582170400E+02  0.41800000000E+01 0. -1.
        -11    1    1    2    0    0 -0.32285637540E+02  0.81659860085E+02 -0.15494631388E+02  0.89167139364E+02  0.00000000000E+00 0. -1.
         11    1    1    2    0    0 -0.35437879571E+02 -0.22077007529E+02  0.25227728154E+01  0.41828243480E+02  0.00000000000E+00 0.  1.
</event>
<event>
 7    1  0.4394360E-006  0.1443761E+03  0.7561462E-02  0.1207559E+00
          2   -1    0    0  501    0  0.00000000000E+00  0.00000000000E+00  0.91395103177E+03  0.91395103177E+03  0.00000000000E+00 0. -1.
         -2   -1    0    0    0  501 -0.00000000000E+00 -0.00000000000E+00 -0.29922580684E+02  0.29922580684E+02  0.00000000000E+00 0.  1.
         23    2    1    2    0    0 -0.66247805765E+02  0.71229471387E+02  0.24726217145E+03  0.29369671824E+03  0.12512702150E+03 0.  0.
          5    1    3    3  502    0  0.32808290182E+02  0.44511453713E+02  0.96254238689E+02  0.11108557189E+03  0.41800000000E+01 0. -1.
         -5    1    3    3    0  502 -0.99056095948E+02  0.26718017674E+02  0.15100793276E+03  0.18261114635E+03  0.41800000000E+01 0. -1.
        -11    1    1    2    0    0  0.76840415497E+02 -0.21527489267E+02  0.35426627346E+03  0.36314249925E+03  0.00000000000E+00 0.  1.
         11    1    1    2    0    0 -0.10592609731E+02 -0.49701982120E+02  0.28250000617E+03  0.28703439497E+03  0.00000000000E+00 0. -1.
</event>
<event>
 7    1  0.4394360E-006  0.1564419E+03  0.7561462E-02  0.1192773E+00
         -2   -1    0    0    0  501 -0.00000000000E+00  0.00000000000E+00  0.69494155291E+02  0.69494155291E+02  0.00000000000E+00 0. -1.
          2   -1    0    0  501    0  0.00000000000E+00 -0.00000000000E+00 -0.53522758439E+03  0.53522758439E+03  0.00000000000E+00 0.  1.
         23    2    1    2    0    0 -0.14251168499E+03  0.31737617927E+02 -0.14692613914E+03  0.24196994948E+03  0.12508121097E+03 0.  0.
          5    1    3    3  502    0 -0.90979677600E+02 -0.14412140715E+02 -0.14597726246E+03  0.17266107000E+03  0.41800000000E+01 0. -1.
         -5    1    3    3    0  502 -0.51532007387E+02  0.46149758642E+02 -0.94887667788E+00  0.69308879482E+02  0.41800000000E+01 0. -1.
        -11    1    1    2    0    0  0.80483565486E+02  0.25003311955E+01 -0.79416119088E+02  0.11309631267E+03  0.00000000000E+00 0. -1.
         11    1    1    2    0    0  0.62028119501E+02 -0.34237949123E+02 -0.23939117087E+03  0.24965547752E+03  0.00000000000E+00 0.  1.
</event>
<event>
 7    1  0.4394360E-006  0.1485562E+03  0.7561462E-02  0.1202258E+00
         -1   -1    0    0    0  501 -0.00000000000E+00  0.00000000000E+00  0.28169190479E+02  0.28169190479E+02  0.00000000000E+00 0. -1.
          1   -1    0    0  501    0  0.00000000000E+00 -0.00000000000E+00 -0.96105402517E+03  0.96105402517E+03  0.00000000000E+00 0.  1.
         23    2    1    2    0    0  0.79048340845E+02  0.81522444928E+02 -0.34863069726E+03  0.38740838239E+03  0.12508933790E+03 0.  0.
          5    1    3    3  502    0 -0.30697863135E+02  0.15462042561E+02 -0.38174742762E+02  0.51538499650E+02  0.41800000000E+01 0. -1.
         -5    1    3    3    0  502  0.10974620398E+03  0.66060402367E+02 -0.31045595450E+03  0.33586988274E+03  0.41800000000E+01 0. -1.
        -11    1    1    2    0    0  0.41748604894E-01 -0.48690442146E+02 -0.11615775579E+03  0.12594993104E+03  0.00000000000E+00 0. -1.
         11    1    1    2    0    0 -0.79090089450E+02 -0.32832002782E+02 -0.46809638164E+03  0.47586490221E+03  0.00000000000E+00 0.  1.
</event>
<event>
 7    1  0.4394360E-006  0.1045730E+03  0.7561462E-02  0.1270963E+00
         -1   -1    0    0    0  501 -0.00000000000E+00  0.00000000000E+00  0.65074289318E+02  0.65074289318E+02  0.00000000000E+00 0.  1.
          1   -1    0    0  501    0  0.00000000000E+00 -0.00000000000E+00 -0.28860782044E+03  0.28860782044E+03  0.00000000000E+00 0. -1.
         23    2    1    2    0    0 -0.11199768854E+02  0.18929251259E+02 -0.57933484840E+01  0.11609499656E+03  0.11384521933E+03 0.  0.
          5    1    3    3  502    0  0.27039148460E+02 -0.37287777769E+02  0.70313132967E+01  0.46780398534E+02  0.41800000000E+01 0. -1.
         -5    1    3    3    0  502 -0.38238917313E+02  0.56217029028E+02 -0.12824661781E+02  0.69314598028E+02  0.41800000000E+01 0.  1.
        -11    1    1    2    0    0  0.40393712652E+02 -0.41473452711E+02 -0.14179392533E+03  0.15315748941E+03  0.00000000000E+00 0. -1.
         11    1    1    2    0    0 -0.29193943799E+02  0.22544201452E+02 -0.75946257312E+02  0.84429623790E+02  0.00000000000E+00 0.  1.
</event>
<event>
 7    1  0.4394360E-006  0.1632647E+03  0.7561462E-02  0.1185060E+00
         -1   -1    0    0    0  501 -0.00000000000E+00  0.00000000000E+00  0.13204250128E+03  0.13204250128E+03  0.00000000000E+00 0.  1.
          1   -1    0    0  501    0  0.00000000000E+00 -0.00000000000E+00 -0.29544362033E+03  0.29544362033E+03  0.00000000000E+00 0. -1.
         23    2    1    2    0    0 -0.11817901440E+03 -0.91594845298E+02 -0.94018683732E+01  0.19517229524E+03  0.12509170464E+03 0.  0.
          5    1    3    3  502    0 -0.30608942431E+02 -0.87000290388E+01 -0.57043366125E+02  0.65452394004E+02  0.41800000000E+01 0. -1.
         -5    1    3    3    0  502 -0.87570071973E+02 -0.82894816259E+02  0.47641497752E+02  0.12971990123E+03  0.41800000000E+01 0. -1.
        -11    1    1    2    0    0  0.50514132189E+01  0.54488715460E+02 -0.43966108011E+02  0.70196549357E+02  0.00000000000E+00 0. -1.
         11    1    1    2    0    0  0.11312760118E+03  0.37106129838E+02 -0.11003314267E+03  0.16211727702E+03  0.00000000000E+00 0.  1.
</event>
<event>
 7    1  0.4394360E-006  0.1571413E+03  0.7561462E-02  0.1191962E+00
          2   -1    0    0  501    0  0.00000000000E+00  0.00000000000E+00  0.23834951282E+03  0.23834951282E+03  0.00000000000E+00 0. -1.
         -2   -1    0    0    0  501 -0.00000000000E+00 -0.00000000000E+00 -0.11552883424E+03  0.11552883424E+03  0.00000000000E+00 0.  1.
         23    2    1    2    0    0  0.11687616999E+03 -0.25417166308E+02  0.23501640869E+02  0.17466142111E+03  0.12509281933E+03 0.  0.
          5    1    3    3  502    0  0.14086746567E+03 -0.16389939475E+02  0.35724301830E+01  0.14192430256E+03  0.41800000000E+01 0. -1.
         -5    1    3    3    0  502 -0.23991295680E+02 -0.90272268328E+01  0.19929210686E+02  0.32737118554E+02  0.41800000000E+01 0. -1.
        -11    1    1    2    0    0 -0.11546243438E+03 -0.53934047855E+01  0.91439543946E+02  0.14738335308E+03  0.00000000000E+00 0. -1.
         11    1    1    2    0    0 -0.14137356101E+01  0.30810571093E+02  0.78794937665E+01  0.31833572867E+02  0.00000000000E+00 0.  1.
</event>
<event>
 7    1  0.4394360E-006  0.9912584E+02  0.7561462E-02  0.1282145E+00
          1   -1    0    0  501    0  0.00000000000E+00  0.00000000000E+00  0.47386355189E+03  0.47386355189E+03  0.00000000000E+00 0. -1.
         -1   -1    0    0    0  501 -0.00000000000E+00 -0.00000000000E+00 -0.50830786006E+02  0.50830786006E+02  0.00000000000E+00 0.  1.
         23    2    1    2    0    0 -0.18652993769E+00  0.76790428797E+02  0.93573012720E+02  0.17407005312E+03  0.12509064688E+03 0.  0.
          5    1    3    3  502    0 -0.17985127165E+02  0.41216059894E+02  0.11858627663E+03  0.12689525522E+03  0.41800000000E+01 0. -1.
         -5    1    3    3    0  502  0.17798597227E+02  0.35574368903E+02 -0.25013263907E+02  0.47174797905E+02  0.41800000000E+01 0. -1.
        -11    1    1    2    0    0 -0.88114547065E+00 -0.94923048436E+02  0.30905980494E+03  0.32330964194E+03  0.00000000000E+00 0. -1.
         11    1    1    2    0    0  0.10676754083E+01  0.18132619638E+02  0.20399948230E+02  0.27314642841E+02  0.00000000000E+00 0.  1.
</event>
<event>
 7    1  0.4394360E-006  0.1257835E+03  0.7561462E-02  0.1233850E+00
          2   -1    0    0  501    0  0.00000000000E+00  0.00000000000E+00  0.52514869119E+03  0.52514869119E+03  0.00000000000E+00 0. -1.
         -2   -1    0    0    0  501 -0.00000000000E+00 -0.00000000000E+00 -0.32384863745E+02  0.32384863745E+02  0.00000000000E+00 0.  1.
         23    2    1    2    0    0  0.17849626043E+02  0.63808076118E+02  0.33674536370E+03  0.36528712815E+03  0.12508863375E+03 0.  0.
          5    1    3    3  502    0  0.20385643601E+02  0.10078182758E+03  0.22337809696E+03  0.24594267185E+03  0.41800000000E+01 0. -1.
         -5    1    3    3    0  502 -0.25360175578E+01 -0.36973751461E+02  0.11336726674E+03  0.11934445630E+03  0.41800000000E+01 0. -1.
        -11    1    1    2    0    0 -0.53920526370E+02 -0.47167070251E+02  0.87950696389E+02  0.11343491824E+03  0.00000000000E+00 0. -1.
         11    1    1    2    0    0  0.36070900327E+02 -0.16641005867E+02  0.68067767363E+02  0.78811508553E+02  0.00000000000E+00 0.  1.
</event>
<event>
 6    1  0.4394360E-006  0.1442826E+03  0.7561462E-02  0.1207680E+00
         -2   -1    0    0    0  501 -0.00000000000E+00  0.00000000000E+00  0.64435323073E+02  0.64435323073E+02  0.00000000000E+00 0.  1.
          2   -1    0    0  501    0  0.00000000000E+00 -0.00000000000E+00 -0.36988995840E+03  0.36988995840E+03  0.00000000000E+00 0. -1.
          5    1    1    2  502    0  0.10787513636E+02 -0.78084271479E+02 -0.13731846608E+03  0.15838989056E+03  0.41800000000E+01 0. -1.
         -5    1    1    2    0  502  0.67220126415E+02  0.66171611194E+02 -0.46393313137E+02  0.10519999728E+03  0.41800000000E+01 0.  1.
        -11    1    1    2    0    0  0.17985900114E+02  0.62855107712E+01 -0.40858296413E+02  0.45082154278E+02  0.00000000000E+00 0. -1.
         11    1    1    2    0    0 -0.95993540166E+02  0.56271495140E+01 -0.80884559690E+02  0.12565323936E+03  0.00000000000E+00 0.  1.
</event>
<event>
 7    1  0.4394360E-006  0.1303200E+03  0.7561462E-02  0.1226982E+00
          1   -1    0    0  501    0  0.00000000000E+00  0.00000000000E+00  0.26196919204E+02  0.26196919204E+02  0.00000000000E+00 0. -1.
         -1   -1    0    0    0  501 -0.00000000000E+00 -0.00000000000E+00 -0.97363169013E+03  0.97363169013E+03  0.00000000000E+00 0.  1.
         23    2    1    2    0    0 -0.47245782123E+02 -0.65095749328E+02 -0.76820067200E+03  0.78246342947E+03  0.12508847064E+03 0.  0.
          5    1    3    3  502    0 -0.25698681452E+02  0.35423774133E+02 -0.17709364824E+03  0.18246889776E+03  0.41800000000E+01 0.  1.
         -5    1    3    3    0  502 -0.21547100670E+02 -0.10051952346E+03 -0.59110702377E+03  0.59999453172E+03  0.41800000000E+01 0.  1.
        -11    1    1    2    0    0 -0.15292190442E+02 -0.82707597167E+01 -0.67914861923E+02  0.70104814562E+02  0.00000000000E+00 0.  1.
         11    1    1    2    0    0  0.62537972564E+02  0.73366509045E+02 -0.11131923700E+03  0.14726036530E+03  0.00000000000E+00 0. -1.
</event>
<event>
 7    1  0.4394360E-006  0.3181135E+03  0.7561462E-02  0.1076521E+00
          3   -1    0    0  501    0  0.00000000000E+00  0.00000000000E+00  0.58475367126E+03  0.58475367126E+03  0.00000000000E+00 0. -1.
         -3   -1    0    0    0  501 -0.00000000000E+00 -0.00000000000E+00 -0.17808755542E+03  0.17808755542E+03  0.00000000000E+00 0.  1.
         23    2    1    2    0    0  0.92590650277E+02  0.28587412435E+03  0.15619619001E+03  0.36102831911E+03  0.12508858435E+03 0.  0.
          5    1    3    3  502    0 -0.19792159142E+02  0.12142292511E+03  0.35586170069E+02  0.12813705243E+03  0.41800000000E+01 0.  1.
         -5    1    3    3    0  502  0.11238280942E+03  0.16445119924E+03  0.12061001994E+03  0.23289126668E+03  0.41800000000E+01 0.  1.
        -11    1    1    2    0    0 -0.59531491065E+02 -0.27133383376E+03  0.21594341079E+03  0.35184883748E+03  0.00000000000E+00 0. -1.
         11    1    1    2    0    0 -0.33059159212E+02 -0.14540290589E+02  0.34526515042E+02  0.49964070082E+02  0.00000000000E+00 0.  1.
</event>
<event>
 7    1  0.4394360E-006  0.1037371E+03  0.7561462E-02  0.1272628E+00
          2   -1    0    0  501    0  0.00000000000E+00  0.00000000000E+00  0.68887374883E+02  0.68887374883E+02  0.00000000000E+00 0. -1.
         -2   -1    0    0    0  501 -0.00000000000E+00 -0.00000000000E+00 -0.21532624803E+03  0.21532624803E+03  0.00000000000E+00 0.  1.
         23    2    1    2    0    0 -0.34888753057E+01 -0.45793427415E+02 -0.12178303190E+03  0.18052860244E+03  0.12510099597E+03 0.  0.
          5    1    3    3  502    0  0.54755705102E+02  0.40108580156E+01 -0.64213127086E+02  0.84587660527E+02  0.41800000000E+01 0.  1.
         -5    1    3    3    0  502 -0.58244580408E+02 -0.49804285431E+02 -0.57569904818E+02  0.95940941911E+02  0.41800000000E+01 0.  1.
        -11    1    1    2    0    0  0.31773669953E+02  0.27092838184E+02 -0.47159639252E+02  0.62989043155E+02  0.00000000000E+00 0.  1.
         11    1    1    2    0    0 -0.28284794648E+02  0.18700589231E+02  0.22503798004E+02  0.40695977325E+02  0.00000000000E+00 0. -1.
</event>
<event>
 7    1  0.4394360E-006  0.1213782E+03  0.7561462E-02  0.1240841E+00
          3   -1    0    0  501    0  0.00000000000E+00  0.00000000000E+00  0.35294364920E+02  0.35294364920E+02  0.00000000000E+00 0. -1.
         -3   -1    0    0    0  501 -0.00000000000E+00 -0.00000000000E+00 -0.50900714290E+03  0.50900714290E+03  0.00000000000E+00 0.  1.
         23    2    1    2    0    0  0.75936570179E+02  0.19927132148E+02 -0.24035090698E+03  0.28209982561E+03  0.12509316463E+03 0.  0.
          5    1    3    3  502    0 -0.32389910004E+02  0.80082152510E+01 -0.92163455921E+02  0.98106130230E+02  0.41800000000E+01 0. -1.
         -5    1    3    3    0  502  0.10832648018E+03  0.11918916897E+02 -0.14818745106E+03  0.18399369538E+03  0.41800000000E+01 0. -1.
        -11    1    1    2    0    0 -0.46780570659E+00 -0.24460753199E+02 -0.13973314164E+03  0.14185872607E+03  0.00000000000E+00 0.  1.
         11    1    1    2    0    0 -0.75468764472E+02  0.45336210507E+01 -0.93628729368E+02  0.12034295615E+03  0.00000000000E+00 0. -1.
</event>
<event>
 6    1  0.4394360E-006  0.1292277E+03  0.7561462E-02  0.1228606E+00
         -4   -1    0    0    0  501 -0.00000000000E+00  0.00000000000E+00  0.55762768493E+03  0.55762768493E+03  0.00000000000E+00 0.  1.
          4   -1    0    0  501    0  0.00000000000E+00 -0.00000000000E+00 -0.39177657139E+02  0.39177657139E+02  0.00000000000E+00 0. -1.
          5    1    1    2  502    0  0.68642494362E+02  0.78777892717E+01  0.61249451444E+02  0.92427373101E+02  0.41800000000E+01 0. -1.
         -5    1    1    2    0  502 -0.92359727331E+02 -0.21328181401E+02  0.33604535399E+03  0.34918356619E+03  0.41800000000E+01 0.  1.
        -11    1    1    2    0    0  0.58290187224E+02  0.35835726064E+01  0.91692626865E+02  0.10871120338E+03  0.00000000000E+00 0. -1.
         11    1    1    2    0    0 -0.34572954255E+02  0.98668195226E+01  0.29462595485E+02  0.46483199397E+02  0.00000000000E+00 0.  1.
</event>
<event>
 7    1  0.4394360E-006  0.1328823E+03  0.7561462E-02  0.1223240E+00
          1   -1    0    0  501    0  0.00000000000E+00  0.00000000000E+00  0.58688720798E+03  0.58688720798E+03  0.00000000000E+00 0. -1.
         -1   -1    0    0    0  501 -0.00000000000E+00 -0.00000000000E+00 -0.46823349799E+02  0.46823349799E+02  0.00000000000E+00 0.  1.
         23    2    1    2    0    0  0.53517793626E+01  0.12334653120E+03  0.25936071187E+03  0.31330173507E+03  0.12508792920E+03 0.  0.
          5    1    3    3  502    0  0.57490186265E+01  0.42155676565E+02  0.21787452676E+03  0.22202912893E+03  0.41800000000E+01 0. -1.
         -5    1    3    3    0  502 -0.39723926384E+00  0.81190854637E+02  0.41486185110E+02  0.91272606135E+02  0.41800000000E+01 0. -1.
        -11    1    1    2    0    0  0.32204948040E+02 -0.55522471598E+02  0.65678230166E+02  0.91834271644E+02  0.00000000000E+00 0.  1.
         11    1    1    2    0    0 -0.37556727403E+02 -0.67824059604E+02  0.21502491614E+03  0.22857455107E+03  0.00000000000E+00 0. -1.
</event>
<event>
 6    1  0.4394360E-006  0.1118645E+03  0.7561462E-02  0.1257156E+00
         -2   -1    0    0    0  501 -0.00000000000E+00  0.00000000000E+00  0.13921856592E+02  0.13921856592E+02  0.00000000000E+00 0.  1.
          2   -1    0    0  501    0  0.00000000000E+00 -0.00000000000E+00 -0.10852852680E+04  0.10852852680E+04  0.00000000000E+00 0. -1.
          5    1    1    2  502    0 -0.23736507564E+02 -0.60978047645E+02 -0.48790930934E+03  0.49229534898E+03  0.41800000000E+01 0. -1.
         -5    1    1    2    0  502 -0.27753638333E+02  0.44510399282E+02 -0.11161081561E+03  0.12339321961E+03  0.41800000000E+01 0.  1.
        -11    1    1    2    0    0 -0.11940569366E+01 -0.33148645342E+02 -0.15675980772E+03  0.16023075790E+03  0.00000000000E+00 0. -1.
         11    1    1    2    0    0  0.52684202834E+02  0.49616293704E+02 -0.31508347873E+03  0.32328779809E+03  0.00000000000E+00 0.  1.
</event>
<event>
 6    1  0.4394360E-006  0.1747913E+03  0.7561462E-02  0.1172941E+00
          2   -1    0    0  501    0  0.00000000000E+00  0.00000000000E+00  0.15298089396E+03  0.15298089396E+03  0.00000000000E+00 0. -1.
         -2   -1    0    0    0  501 -0.00000000000E+00 -0.00000000000E+00 -0.27276383037E+03  0.27276383037E+03  0.00000000000E+00 0.  1.
          5    1    1    2  502    0 -0.78970517690E+02 -0.47703365989E+02 -0.57599145892E+02  0.10884432828E+03  0.41800000000E+01 0. -1.
         -5    1    1    2    0  502  0.43366588982E+02  0.12506835517E+03 -0.12008544741E+03  0.17877567391E+03  0.41800000000E+01 0.  1.
        -11    1    1    2    0    0  0.30696246800E+02 -0.98457808533E+02  0.42477351265E+02  0.11153710145E+03  0.00000000000E+00 0. -1.
         11    1    1    2    0    0  0.49076819076E+01  0.21092819355E+02  0.15424305629E+02  0.26587620694E+02  0.00000000000E+00 0.  1.
</event>
<event>
 7    1  0.4394360E-006  0.9406424E+02  0.7561462E-02  0.1293298E+00
         -1   -1    0    0    0  501 -0.00000000000E+00  0.00000000000E+00  0.16834559130E+03  0.16834559130E+03  0.00000000000E+00 0.  1.
          1   -1    0    0  501    0  0.00000000000E+00 -0.00000000000E+00 -0.86142090091E+02  0.86142090091E+02  0.00000000000E+00 0. -1.
         23    2    1    2    0    0  0.22071467624E+02 -0.44000221028E+02  0.88124514964E+02  0.15022308591E+03  0.11125590442E+03 0.  0.
          5    1    3    3  502    0  0.44816113970E+02 -0.15954753608E+02 -0.71155328326E+01  0.48281895588E+02  0.41800000000E+01 0. -1.
         -5    1    3    3    0  502 -0.22744646346E+02 -0.28045467421E+02  0.95240047797E+02  0.10194119032E+03  0.41800000000E+01 0.  1.
        -11    1    1    2    0    0 -0.39269280810E+02 -0.15402133701E+02 -0.43159525942E+01  0.42401999772E+02  0.00000000000E+00 0.  1.
         11    1    1    2    0    0  0.17197813186E+02  0.59402354729E+02 -0.16050611658E+01  0.61862595703E+02  0.00000000000E+00 0. -1.
</event>
<event>
 7    1  0.4394360E-006  0.1867776E+03  0.7561462E-02  0.1161400E+00
         -2   -1    0    0    0  501 -0.00000000000E+00  0.00000000000E+00  0.44180524806E+03  0.44180524806E+03  0.00000000000E+00 0.  1.
          2   -1    0    0  501    0  0.00000000000E+00 -0.00000000000E+00 -0.13345022064E+03  0.13345022064E+03  0.00000000000E+00 0. -1.
         23    2    1    2    0    0 -0.48836253862E+02 -0.14571204108E+03  0.33651141840E+03  0.39052141778E+03  0.12510021754E+03 0.  0.
          5    1    3    3  502    0 -0.88931230010E+02 -0.77063929755E+02  0.21770729942E+03  0.24751071404E+03  0.41800000000E+01 0. -1.
         -5    1    3    3    0  502  0.40094976148E+02 -0.68648111328E+02  0.11880411897E+03  0.14301070375E+03  0.41800000000E+01 0. -1.
        -11    1    1    2    0    0 -0.24315953007E+02  0.23828545535E+02  0.13471459405E+02  0.36613458884E+02  0.00000000000E+00 0.  1.
         11    1    1    2    0    0  0.73152206869E+02  0.12188349555E+03 -0.41627850386E+02  0.14812059203E+03  0.00000000000E+00 0. -1.
</event>
<event>
 7    1  0.4394360E-006  0.1196791E+03  0.7561462E-02  0.1243627E+00
          2   -1    0    0  501    0  0.00000000000E+00  0.00000000000E+00  0.57227689051E+02  0.57227689051E+02  0.00000000000E+00 0. -1.
         -2   -1    0    0    0  501 -0.00000000000E+00 -0.00000000000E+00 -0.30200134942E+03  0.30200134942E+03  0.00000000000E+00 0.  1.
         23    2    1    2    0    0 -0.35108375046E+02 -0.63660419649E+02 -0.15465360505E+03  0.21178122091E+03  0.12509316907E+03 0.  0.
          5    1    3    3  502    0  0.42684275477E+02 -0.30417355962E+02 -0.93642286682E+02  0.10739419524E+03  0.41800000000E+01 0. -1.
         -5    1    3    3    0  502 -0.77792650524E+02 -0.33243063687E+02 -0.61011318372E+02  0.10438702567E+03  0.41800000000E+01 0. -1.
        -11    1    1    2    0    0  0.54304614478E+02  0.26889484929E+02 -0.16266229955E+02  0.62742535734E+02  0.00000000000E+00 0. -1.
         11    1    1    2    0    0 -0.19196239432E+02  0.36770934720E+02 -0.73853825358E+02  0.84705281822E+02  0.00000000000E+00 0.  1.
</event>
<event>
 7    1  0.4394360E-006  0.8976319E+02  0.7561462E-02  0.1303426E+00
          1   -1    0    0  501    0  0.00000000000E+00  0.00000000000E+00  0.15922414989E+03  0.15922414989E+03  0.00000000000E+00 0. -1.
         -1   -1    0    0    0  501 -0.00000000000E+00 -0.00000000000E+00 -0.14756561923E+03  0.14756561923E+03  0.00000000000E+00 0.  1.
         23    2    1    2    0    0  0.75102996941E+01 -0.82998355988E+01 -0.10191554564E+03  0.16173844985E+03  0.12508899171E+03 0.  0.
          5    1    3    3  502    0  0.19946331707E+02 -0.53291460408E+02 -0.99638292329E+02  0.11481767111E+03  0.41800000000E+01 0. -1.
         -5    1    3    3    0  502 -0.12436032013E+02  0.44991624809E+02 -0.22772533084E+01  0.46920778743E+02  0.41800000000E+01 0. -1.
        -11    1    1    2    0    0 -0.39301980654E+02  0.16730863791E+02  0.10131327034E+03  0.10994974412E+03  0.00000000000E+00 0. -1.
         11    1    1    2    0    0  0.31791680960E+02 -0.84310281923E+01  0.12260805964E+02  0.35101575143E+02  0.00000000000E+00 0.  1.
</event>
<event>
 7    1  0.4394360E-006  0.1054984E+03  0.7561462E-02  0.1269141E+00
         -2   -1    0    0    0  501 -0.00000000000E+00  0.00000000000E+00  0.28313792116E+02  0.28313792116E+02  0.00000000000E+00 0. -1.
          2   -1    0    0  501    0  0.00000000000E+00 -0.00000000000E+00 -0.62637664570E+03  0.62637664570E+03  0.00000000000E+00 0.  1.
         23    2    1    2    0    0  0.34125024544E+02  0.64803872838E+02 -0.39195968490E+03  0.41790530443E+03  0.12509352359E+03 0.  0.
          5    1    3    3  502    0  0.40275672423E+02  0.90828624511E+02 -0.36976006431E+03  0.38289939459E+03  0.41800000000E+01 0. -1.
         -5    1    3    3    0  502 -0.61506478796E+01 -0.26024751673E+02 -0.22199620597E+02  0.35005909839E+02  0.41800000000E+01 0. -1.
        -11    1    1    2    0    0 -0.37985418334E+02 -0.27288410294E+02 -0.27527942621E+02  0.54270958784E+02  0.00000000000E+00 0. -1.
         11    1    1    2    0    0  0.38603937904E+01 -0.37515462544E+02 -0.17857522606E+03  0.18251417460E+03  0.00000000000E+00 0.  1.
</event>
<event>
 6    1  0.4394360E-006  0.9980999E+02  0.7561462E-02  0.1280696E+00
         -2   -1    0    0    0  501 -0.00000000000E+00  0.00000000000E+00  0.60601960603E+03  0.60601960603E+03  0.00000000000E+00 0.  1.
          2   -1    0    0  501    0  0.00000000000E+00 -0.00000000000E+00 -0.31522828211E+02  0.31522828211E+02  0.00000000000E+00 0. -1.
          5    1    1    2  502    0 -0.47757035627E+02  0.26735322182E+02  0.38682423084E+02  0.67151427086E+02  0.41800000000E+01 0. -1.
         -5    1    1    2    0  502 -0.22786369215E+02 -0.38194040360E+02  0.33645071945E+03  0.33940324447E+03  0.41800000000E+01 0.  1.
        -11    1    1    2    0    0 -0.14378150632E+02  0.32525794012E+01  0.67605764326E+00  0.14756948949E+02  0.00000000000E+00 0. -1.
         11    1    1    2    0    0  0.84921555474E+02  0.82061387765E+01  0.19868757764E+03  0.21623081373E+03  0.00000000000E+00 0.  1.
</event>
<event>
 7    1  0.4394360E-006  0.1213085E+03  0.7561462E-02  0.1240954E+00
          2   -1    0    0  501    0  0.00000000000E+00  0.00000000000E+00  0.59137691917E+03  0.59137691917E+03  0.00000000000E+00 0. -1.
         -2   -1    0    0    0  501 -0.00000000000E+00 -0.00000000000E+00 -0.28992883553E+02  0.28992883553E+02  0.00000000000E+00 0.  1.
         23    2    1    2    0    0 -0.31399329862E+02 -0.64628245169E+02  0.27592720120E+03  0.31136181320E+03  0.12509048871E+03 0.  0.
          5    1    3    3  502    0 -0.36020657626E+02 -0.95699665120E+02  0.15054087379E+03  0.18203280133E+03  0.41800000000E+01 0. -1.
         -5    1    3    3    0  502  0.46213277645E+01  0.31071419951E+02  0.12538632741E+03  0.12932901187E+03  0.41800000000E+01 0. -1.
        -11    1    1    2    0    0  0.92591248954E+01  0.80699546457E+02  0.15785657830E+03  0.17752984962E+03  0.00000000000E+00 0.  1.
         11    1    1    2    0    0  0.22140204966E+02 -0.16071301288E+02  0.12860025612E+03  0.13147813991E+03  0.00000000000E+00 0. -1.
</event>
<event>
 7    1  0.6085428E-006  0.2191535E+03  0.7561462E-02  0.1134516E+00
          2   -1    0    0  501    0  0.00000000000E+00  0.00000000000E+00  0.12056502558E+04  0.12056502558E+04  0.00000000000E+00 0. -1.
         -2   -1    0    0    0  501 -0.00000000000E+00 -0.00000000000E+00 -0.49279530186E+02  0.49279530186E+02  0.00000000000E+00 0.  1.
         23    2    1    2    0    0 -0.15979827663E+03 -0.14441927718E+03  0.51679842733E+03  0.57369061897E+03  0.12509154635E+03 0.  0.
          5    1    3    3  502    0 -0.64905808289E+01 -0.35190795344E+01  0.16245354173E+03  0.16267494331E+03  0.41800000000E+01 0. -1.
         -5    1    3    3    0  502 -0.15330769580E+03 -0.14090019764E+03  0.35434488560E+03  0.41101567566E+03  0.41800000000E+01 0. -1.
        -11    1    1    2    0    0  0.11194095309E+03  0.13004878553E+03  0.38062908557E+03  0.41751881919E+03  0.00000000000E+00 0.  1.
         11    1    1    2    0    0  0.47857323536E+02  0.14370491642E+02  0.25894321272E+03  0.26372034783E+03  0.00000000000E+00 0. -1.
</event>
<event>
 7    1  0.4394360E-006  0.9081776E+02  0.7561462E-02  0.1300883E+00
          3   -1    0    0  501    0  0.00000000000E+00  0.00000000000E+00  0.24846866079E+03  0.24846866079E+03  0.00000000000E+00 0. -1.
         -3   -1    0    0    0  501 -0.00000000000E+00 -0.00000000000E+00 -0.61256674232E+02  0.61256674232E+02  0.00000000000E+00 0.  1.
         23    2    1    2    0    0 -0.41719064427E+02 -0.41285294009E+02  0.10870322114E+03  0.17580824305E+03  0.12508873731E+03 0.  0.
          5    1    3    3  502    0 -0.35058263516E+02 -0.64796924129E+02  0.12569337204E+03  0.14575328261E+03  0.41800000000E+01 0. -1.
         -5    1    3    3    0  502 -0.66608009113E+01  0.23511630121E+02 -0.16990150896E+02  0.30054960442E+02  0.41800000000E+01 0. -1.
        -11    1    1    2    0    0 -0.83197887657E+01  0.30829697401E+02  0.76342326123E+02  0.82751676024E+02  0.00000000000E+00 0. -1.
         11    1    1    2    0    0  0.50038853193E+02  0.10455596607E+02  0.21664392902E+01  0.51165415942E+02  0.00000000000E+00 0.  1.
</event>
<event>
 7    1  0.4394360E-006  0.1231346E+03  0.7561462E-02  0.1238014E+00
         -2   -1    0    0    0  501 -0.00000000000E+00  0.00000000000E+00  0.39374865161E+03  0.39374865161E+03  0.00000000000E+00 0. -1.
          2   -1    0    0  501    0  0.00000000000E+00 -0.00000000000E+00 -0.70552479577E+02  0.70552479577E+02  0.00000000000E+00 0.  1.
         23    2    1    2    0    0 -0.81898484697E+02 -0.59209575959E+02  0.27332423764E+03  0.31712748616E+03  0.12510222984E+03 0.  0.
          5    1    3    3  502    0 -0.81754070931E+02 -0.67576147617E+02  0.28384843369E+03  0.30304730579E+03  0.41800000000E+01 0. -1.
         -5    1    3    3    0  502 -0.14441376625E+00  0.83665716576E+01 -0.10524196046E+02  0.14080180363E+02  0.41800000000E+01 0. -1.
        -11    1    1    2    0    0  0.21191359278E+02 -0.21225355402E+02  0.33695770194E+02  0.45110911639E+02  0.00000000000E+00 0. -1.
         11    1    1    2    0    0  0.60707125419E+02  0.80434931361E+02  0.16176164200E+02  0.10206273339E+03  0.00000000000E+00 0.  1.
</event>
<event>
 6    1  0.4394360E-006  0.9447059E+02  0.7561462E-02  0.1292373E+00
          2   -1    0    0  501    0  0.00000000000E+00  0.00000000000E+00  0.51736398694E+03  0.51736398694E+03  0.00000000000E+00 0. -1.
         -2   -1    0    0    0  501 -0.00000000000E+00 -0.00000000000E+00 -0.52290863815E+02  0.52290863815E+02  0.00000000000E+00 0.  1.
          5    1    1    2  502    0  0.93095131583E+02  0.84648587715E+01  0.38644394466E+03  0.39761130784E+03  0.41800000000E+01 0. -1.
         -5    1    1    2    0  502 -0.42643312929E+02  0.28026154384E+01 -0.29211411259E+02  0.51933474162E+02  0.41800000000E+01 0.  1.
        -11    1    1    2    0    0 -0.37323119107E+02 -0.12202863935E+02  0.73465043599E+02  0.83300886785E+02  0.00000000000E+00 0. -1.
         11    1    1    2    0    0 -0.13128699547E+02  0.93538972550E+00  0.34375546117E+02  0.36809181960E+02  0.00000000000E+00 0.  1.
</event>
<event>
 7    1  0.4394360E-006  0.1207395E+03  0.7561462E-02  0.1241882E+00
          2   -1    0    0  501    0  0.00000000000E+00  0.00000000000E+00  0.16121539475E+02  0.16121539475E+02  0.00000000000E+00 0. -1.
         -2   -1    0    0    0  501 -0.00000000000E+00 -0.00000000000E+00 -0.10265509759E+04  0.10265509759E+04  0.00000000000E+00 0.  1.
         23    2    1    2    0    0  0.62336986444E+02 -0.31243101936E+02 -0.59008493740E+03  0.60721434355E+03  0.12508794654E+03 0.  0.
          5    1    3    3  502    0  0.41005366885E+02  0.46534422447E+02 -0.27588456694E+03  0.28280144847E+03  0.41800000000E+01 0. -1.
         -5    1    3    3    0  502  0.21331619559E+02 -0.77777524383E+02 -0.31420037046E+03  0.32441289507E+03  0.41800000000E+01 0. -1.
        -11    1    1    2    0    0 -0.36449043912E+02 -0.19686240579E+02 -0.77410875216E+02  0.87798203125E+02  0.00000000000E+00 0. -1.
         11    1    1    2    0    0 -0.25887942532E+02  0.50929342515E+02 -0.34293362380E+03  0.34765996869E+03  0.00000000000E+00 0.  1.
</event>
<event>
 7    1  0.4394360E-006  0.9726577E+02  0.7561462E-02  0.1286153E+00
          2   -1    0    0  501    0  0.00000000000E+00  0.00000000000E+00  0.16325240887E+03  0.16325240887E+03  0.00000000000E+00 0. -1.
         -2   -1    0    0    0  501 -0.00000000000E+00 -0.00000000000E+00 -0.10568595076E+03  0.10568595076E+03  0.00000000000E+00 0.  1.
         23    2    1    2    0    0  0.56654002749E+02  0.11766672763E+02 -0.15482966916E+02  0.13868659957E+03  0.12508445156E+03 0.  0.
          5    1    3    3  502    0 -0.11805012564E+02 -0.85674091022E+01  0.43435757498E+02  0.46009740814E+02  0.41800000000E+01 0. -1.
         -5    1    3    3    0  502  0.68459015314E+02  0.20334081865E+02 -0.58918724414E+02  0.92676858760E+02  0.41800000000E+01 0. -1.
        -11    1    1    2    0    0  0.25113404861E+02 -0.61812864916E+01  0.18555104286E+02  0.31830540389E+02  0.00000000000E+00 0. -1.
         11    1    1    2    0    0 -0.81767407610E+02 -0.55853862714E+01  0.54494320747E+02  0.98421219667E+02  0.00000000000E+00 0.  1.
</event>
<event>
 7    1  0.4394360E-006  0.9596046E+02  0.7561462E-02  0.1289027E+00
          2   -1    0    0  501    0  0.00000000000E+00  0.00000000000E+00  0.71437094805E+02  0.71437094805E+02  0.00000000000E+00 0. -1.
         -2   -1    0    0    0  501 -0.00000000000E+00 -0.00000000000E+00 -0.18457587334E+03  0.18457587334E+03  0.00000000000E+00 0.  1.
         23    2    1    2    0    0 -0.30516901470E+02 -0.22284591595E+02 -0.64106696036E+02  0.14554827247E+03  0.12508695713E+03 0.  0.
          5    1    3    3  502    0 -0.46943580102E+02 -0.44620770143E+02 -0.87561864214E+02  0.10899204240E+03  0.41800000000E+01 0.  1.
         -5    1    3    3    0  502  0.16426678632E+02  0.22336178548E+02  0.23455168178E+02  0.36556230075E+02  0.41800000000E+01 0.  1.
        -11    1    1    2    0    0  0.37582186864E+01  0.55893553222E+02 -0.28367906737E+02  0.62792926609E+02  0.00000000000E+00 0. -1.
         11    1    1    2    0    0  0.26758682783E+02 -0.33608961627E+02 -0.20664175760E+02  0.47671769065E+02  0.00000000000E+00 0.  1.
</event>
<event>
 7    1  0.4394360E-006  0.1652648E+03  0.7561462E-02  0.1182878E+00
          4   -1    0    0  501    0  0.00000000000E+00  0.00000000000E+00  0.12164753286E+03  0.12164753286E+03  0.00000000000E+00 0.  1.
         -4   -1    0    0    0  501 -0.00000000000E+00 -0.00000000000E+00 -0.29051160307E+03  0.29051160307E+03  0.00000000000E+00 0. -1.
         23    2    1    2    0    0  0.45311331541E+02 -0.14485914046E+03 -0.11255731627E+03  0.22661531721E+03  0.12509222681E+03 0.  0.
          5    1    3    3  502    0 -0.25301192420E+02 -0.34074752569E+02 -0.80843548770E+02  0.91402357072E+02  0.41800000000E+01 0.  1.
         -5    1    3    3    0  502  0.70612523961E+02 -0.11078438789E+03 -0.31713767495E+02  0.13521296014E+03  0.41800000000E+01 0.  1.
        -11    1    1    2    0    0 -0.36716505889E+02  0.54735685286E+02 -0.67476702687E+02  0.94324983191E+02  0.00000000000E+00 0. -1.
         11    1    1    2    0    0 -0.85948256521E+01  0.90123455176E+02  0.11169948743E+02  0.91218835532E+02  0.00000000000E+00 0.  1.
</event>
<event>
 7    1  0.4394360E-006  0.1656346E+03  0.7561462E-02  0.1182478E+00
          1   -1    0    0  501    0  0.00000000000E+00  0.00000000000E+00  0.15856177152E+03  0.15856177152E+03  0.00000000000E+00 0. -1.
         -1   -1    0    0    0  501 -0.00000000000E+00 -0.00000000000E+00 -0.20802641913E+03  0.20802641913E+03  0.00000000000E+00 0.  1.
         23    2    1    2    0    0  0.89550948394E+02  0.10191678818E+03 -0.77957109276E+02  0.20031424379E+03  0.12506830657E+03 0.  0.
          5    1    3    3  502    0  0.33627476144E+02 -0.15780138740E+02 -0.57151129812E+02  0.68290145477E+02  0.41800000000E+01 0. -1.
         -5    1    3    3    0  502  0.55923472251E+02  0.11769692692E+03 -0.20805979464E+02  0.13202409832E+03  0.41800000000E+01 0. -1.
        -11    1    1    2    0    0  0.23758239612E+01 -0.64050095189E+02  0.16090435627E+02  0.66082988370E+02  0.00000000000E+00 0.  1.
         11    1    1    2    0    0 -0.91926772356E+02 -0.37866692989E+02  0.12402026039E+02  0.10019095849E+03  0.00000000000E+00 0. -1.
</event>
<event>
 7    1  0.4394360E-006  0.6194682E+02  0.7561462E-02  0.1389839E+00
          2   -1    0    0  501    0  0.00000000000E+00  0.00000000000E+00  0.54716134647E+02  0.54716134647E+02  0.00000000000E+00 0. -1.
         -2   -1    0    0    0  501 -0.00000000000E+00 -0.00000000000E+00 -0.23573441319E+03  0.23573441319E+03  0.00000000000E+00 0.  1.
         23    2    1    2    0    0 -0.14464933083E+01  0.12986877924E+02 -0.14304880881E+03  0.19047165567E+03  0.12508292677E+03 0.  0.
          5    1    3    3  502    0  0.13498094402E+02  0.21746423989E+02 -0.16223029690E+03  0.16429013099E+03  0.41800000000E+01 0.  1.
         -5    1    3    3    0  502 -0.14944587711E+02 -0.87595460646E+01  0.19181488088E+02  0.26181524677E+02  0.41800000000E+01 0.  1.
        -11    1    1    2    0    0 -0.38445671770E+02 -0.11853578091E+02  0.59124833337E+01  0.40663674829E+02  0.00000000000E+00 0. -1.
         11    1    1    2    0    0  0.39892165079E+02 -0.11332998338E+01 -0.43881953059E+02  0.59315217335E+02  0.00000000000E+00 0.  1.
</event>
<event>
 7    1  0.4394360E-006  0.1045530E+03  0.7561462E-02  0.1271003E+00
         -4   -1    0    0    0  501 -0.00000000000E+00  0.00000000000E+00  0.23943582869E+02  0.23943582869E+02  0.00000000000E+00 0.  1.
          4   -1    0    0  501    0  0.00000000000E+00 -0.00000000000E+00 -0.65850445881E+03  0.65850445881E+03  0.00000000000E+00 0. -1.
         23    2    1    2    0    0  0.50788097012E+02  0.25404396441E+02 -0.29069863946E+03  0.32152394122E+03  0.12508849522E+03 0.  0.
          5    1    3    3  502    0  0.32746139576E+02  0.60900085046E+02 -0.74819080840E+02  0.10196321530E+03  0.41800000000E+01 0. -1.
         -5    1    3    3    0  502  0.18041957435E+02 -0.35495688605E+02 -0.21587955862E+03  0.21956072592E+03  0.41800000000E+01 0. -1.
        -11    1    1    2    0    0  0.15441816561E+02 -0.29651480426E+02 -0.19627576169E+03  0.19910257311E+03  0.00000000000E+00 0. -1.
         11    1    1    2    0    0 -0.66229913573E+02  0.42470839854E+01 -0.14758647479E+03  0.16182152735E+03  0.00000000000E+00 0.  1.
</event>
<event>
 7    1  0.4394360E-006  0.8373871E+02  0.7561462E-02  0.1318764E+00
          2   -1    0    0  501    0  0.00000000000E+00  0.00000000000E+00  0.96639046613E+02  0.96639046613E+02  0.00000000000E+00 0. -1.
         -2   -1    0    0    0  501 -0.00000000000E+00 -0.00000000000E+00 -0.13742288075E+03  0.13742288075E+03  0.00000000000E+00 0.  1.
         23    2    1    2    0    0 -0.40402505557E+01 -0.33648690143E+02 -0.39097243869E+02  0.13536383565E+03  0.12508483341E+03 0.  0.
          5    1    3    3  502    0  0.47463595634E+02 -0.67031835876E+01 -0.56815931949E+02  0.74452992579E+02  0.41800000000E+01 0.  1.
         -5    1    3    3    0  502 -0.51503846189E+02 -0.26945506556E+02  0.17718688080E+02  0.60910843067E+02  0.41800000000E+01 0.  1.
        -11    1    1    2    0    0 -0.18864089264E+02  0.33188742544E+02  0.37368066347E+02  0.53420210388E+02  0.00000000000E+00 0. -1.
         11    1    1    2    0    0  0.22904339819E+02  0.45994759948E+00 -0.39054656616E+02  0.45277881330E+02  0.00000000000E+00 0.  1.
</event>
<event>
 7    1  0.4394360E-006  0.1940895E+03  0.7561462E-02  0.1154824E+00
         -1   -1    0    0    0  501 -0.00000000000E+00  0.00000000000E+00  0.11789763473E+03  0.11789763473E+03  0.00000000000E+00 0.  1.
          1   -1    0    0  501    0  0.00000000000E+00 -0.00000000000E+00 -0.62399921283E+03  0.62399921283E+03  0.00000000000E+00 0. -1.
         23    2    1    2    0    0  0.13605109766E+03 -0.12418110101E+03 -0.31968436698E+02  0.22494814943E+03  0.12509533150E+03 0.  0.
          5    1    3    3  502    0  0.67255225425E+02 -0.63997866650E+02  0.46946987950E+02  0.10411764673E+03  0.41800000000E+01 0.  1.
         -5    1    3    3    0  502  0.68795872232E+02 -0.60183234364E+02 -0.78915424648E+02  0.12083050270E+03  0.41800000000E+01 0.  1.
        -11    1    1    2    0    0 -0.21373732998E+02  0.76708857309E+02 -0.14924333469E+03  0.16915867759E+03  0.00000000000E+00 0.  1.
         11    1    1    2    0    0 -0.11467736466E+03  0.47472243705E+02 -0.32488980671E+03  0.34779002055E+03  0.00000000000E+00 0. -1.
</event>
<event>
 7    1  0.4394360E-006  0.2636261E+03  0.7561462E-02  0.1104984E+00
          2   -1    0    0  501    0  0.00000000000E+00  0.00000000000E+00  0.35976601886E+03  0.35976601886E+03  0.00000000000E+00 0. -1.
         -2   -1    0    0    0  501 -0.00000000000E+00 -0.00000000000E+00 -0.36806749238E+03  0.36806749238E+03  0.00000000000E+00 0.  1.
         23    2    1    2    0    0 -0.25229503526E+03 -0.15605221657E+02 -0.24210633952E+03  0.37169691589E+03  0.12508720911E+03 0.  0.
          5    1    3    3  502    0 -0.13179303032E+03  0.20812159682E+02 -0.19688003720E+03  0.23786922937E+03  0.41800000000E+01 0.  1.
         -5    1    3    3    0  502 -0.12050200494E+03 -0.36417381338E+02 -0.45226302327E+02  0.13382768652E+03  0.41800000000E+01 0.  1.
        -11    1    1    2    0    0  0.10156386046E+02  0.23435086942E+02  0.31178779755E+02  0.40304736502E+02  0.00000000000E+00 0.  1.
         11    1    1    2    0    0  0.24213864922E+03 -0.78298652851E+01  0.20262608625E+03  0.31583185885E+03  0.00000000000E+00 0. -1.
</event>
<event>
 7    1  0.4394360E-006  0.3632958E+03  0.7561462E-02  0.1057286E+00
          1   -1    0    0  501    0  0.00000000000E+00  0.00000000000E+00  0.48646142067E+03  0.48646142067E+03  0.00000000000E+00 0. -1.
         -1   -1    0    0    0  501 -0.00000000000E+00 -0.00000000000E+00 -0.31074976907E+03  0.31074976907E+03  0.00000000000E+00 0.  1.
         23    2    1    2    0    0  0.34143268543E+03  0.92955195935E+02 -0.29339895549E+02  0.37646918350E+03  0.12510503396E+03 0.  0.
          5    1    3    3  502    0  0.22645267912E+03  0.12570224821E+02 -0.55892734630E+02  0.23362426376E+03  0.41800000000E+01 0.  1.
         -5    1    3    3    0  502  0.11498000632E+03  0.80384971114E+02  0.26552839081E+02  0.14284491975E+03  0.41800000000E+01 0.  1.
        -11    1    1    2    0    0 -0.14609051950E+03 -0.72190449035E+02  0.13685504404E+03  0.21279850540E+03  0.00000000000E+00 0. -1.
         11    1    1    2    0    0 -0.19534216593E+03 -0.20764746900E+02  0.68196503109E+02  0.20794350084E+03  0.00000000000E+00 0.  1.
</event>
<event>
 7    1  0.4394360E-006  0.1034188E+03  0.7561462E-02  0.1273267E+00
          1   -1    0    0  501    0  0.00000000000E+00  0.00000000000E+00  0.78971043383E+02  0.78971043383E+02  0.00000000000E+00 0. -1.
         -1   -1    0    0    0  501 -0.00000000000E+00 -0.00000000000E+00 -0.26183289984E+03  0.26183289984E+03  0.00000000000E+00 0.  1.
         23    2    1    2    0    0  0.18644584870E+01  0.52791813448E+02 -0.18967212894E+03  0.23326352770E+03  0.12508359239E+03 0.  0.
          5    1    3    3  502    0 -0.29173159106E+02 -0.15055617934E+02 -0.13922108029E+03  0.14310040685E+03  0.41800000000E+01 0.  1.
         -5    1    3    3    0  502  0.31037617593E+02  0.67847431382E+02 -0.50451048648E+02  0.90163120846E+02  0.41800000000E+01 0.  1.
        -11    1    1    2    0    0 -0.37835974673E+02 -0.35030844359E+01 -0.17529100821E+02  0.41846170143E+02  0.00000000000E+00 0.  1.
         11    1    1    2    0    0  0.35971516186E+02 -0.49288729012E+02  0.24339373299E+02  0.65694245387E+02  0.00000000000E+00 0. -1.
</event>
<event>
 6    1  0.4394360E-006  0.1121385E+03  0.7561462E-02  0.1256660E+00
         -3   -1    0    0    0  501 -0.00000000000E+00  0.00000000000E+00  0.45027334035E+03  0.45027334035E+03  0.00000000000E+00 0.  1.
          3   -1    0    0  501    0  0.00000000000E+00 -0.00000000000E+00 -0.55526067333E+02  0.55526067333E+02  0.00000000000E+00 0. -1.
          5    1    1    2  502    0  0.13893263359E+02 -0.58783618752E+02  0.12277054979E+03  0.13688906785E+03  0.41800000000E+01 0. -1.
         -5    1    1    2    0  502 -0.19364129321E+02  0.71160713630E+02  0.26585412756E+03  0.27592518227E+03  0.41800000000E+01 0.  1.
        -11    1    1    2    0    0  0.46347507390E+01  0.38600729684E+02  0.14148921607E+02  0.41372566142E+02  0.00000000000E+00 0.  1.
         11    1    1    2    0    0  0.83611522302E+00 -0.50977824562E+02 -0.80263259399E+01  0.51612591427E+02  0.00000000000E+00 0. -1.
</event>
<event>
 7    1  0.4394360E-006  0.9867833E+02  0.7561462E-02  0.1283100E+00
          1   -1    0    0  501    0  0.00000000000E+00  0.00000000000E+00  0.22396063959E+03  0.22396063959E+03  0.00000000000E+00 0. -1.
         -1   -1    0    0    0  501 -0.00000000000E+00 -0.00000000000E+00 -0.78856990052E+02  0.78856990052E+02  0.00000000000E+00 0.  1.
         23    2    1    2    0    0 -0.44055024366E+02 -0.56912648632E+02  0.61990652507E+02  0.15706921976E+03  0.12509198236E+03 0.  0.
          5    1    3    3  502    0 -0.15644030753E+02 -0.78510223943E+02 -0.57709116437E+01  0.80370185909E+02  0.41800000000E+01 0.  1.
         -5    1    3    3    0  502 -0.28410993613E+02  0.21597575311E+02  0.67761564150E+02  0.76699033850E+02  0.41800000000E+01 0.  1.
        -11    1    1    2    0    0  0.25551218775E+02  0.48483019747E+01 -0.17230778794E+02  0.31197284349E+02  0.00000000000E+00 0.  1.
         11    1    1    2    0    0  0.18503805591E+02  0.52064346657E+02  0.10034377582E+03  0.11455112553E+03  0.00000000000E+00 0. -1.
</event>
<event>
 7    1  0.4394360E-006  0.1275573E+03  0.7561462E-02  0.1231126E+00
         -2   -1    0    0    0  501 -0.00000000000E+00  0.00000000000E+00  0.25627404328E+03  0.25627404328E+03  0.00000000000E+00 0.  1.
          2   -1    0    0  501    0  0.00000000000E+00 -0.00000000000E+00 -0.88731031604E+02  0.88731031604E+02  0.00000000000E+00 0. -1.
         23    2    1    2    0    0  0.96752198259E+02 -0.91981801887E+01  0.13128159314E+03  0.20574187323E+03  0.12509703160E+03 0.  0.
          5    1    3    3  502    0  0.11034245759E+03  0.15159605613E+02  0.54749686063E+02  0.12417838827E+03  0.41800000000E+01 0. -1.
         -5    1    3    3    0  502 -0.13590259329E+02 -0.24357785802E+02  0.76531907079E+02  0.81563484961E+02  0.41800000000E+01 0. -1.
        -11    1    1    2    0    0 -0.19929797129E+02 -0.24485090917E+02 -0.20805073885E+02  0.37809622984E+02  0.00000000000E+00 0. -1.
         11    1    1    2    0    0 -0.76822401130E+02  0.33683271106E+02  0.57066492417E+02  0.10145357867E+03  0.00000000000E+00 0.  1.
</event>
<event>
 7    1  0.4394360E-006  0.1327754E+03  0.7561462E-02  0.1223395E+00
          2   -1    0    0  501    0  0.00000000000E+00  0.00000000000E+00  0.76029262139E+03  0.76029262139E+03  0.00000000000E+00 0. -1.
         -2   -1    0    0    0  501 -0.00000000000E+00 -0.00000000000E+00 -0.41026226154E+02  0.41026226154E+02  0.00000000000E+00 0.  1.
         23    2    1    2    0    0  0.10849765260E+03 -0.41745817758E+02  0.20904855288E+03  0.26993106040E+03  0.12508807294E+03 0.  0.
          5    1    3    3  502    0  0.50327408284E+02 -0.64900051817E+02  0.18549841727E+03  0.20290884644E+03  0.41800000000E+01 0.  1.
         -5    1    3    3    0  502  0.58170244313E+02  0.23154234059E+02  0.23550135604E+02  0.67022213969E+02  0.41800000000E+01 0.  1.
        -11    1    1    2    0    0 -0.78818427912E+02  0.14221518625E+02  0.45984116488E+03  0.46676385153E+03  0.00000000000E+00 0.  1.
         11    1    1    2    0    0 -0.29679224686E+02  0.27524299132E+02  0.50376677470E+02  0.64623935609E+02  0.00000000000E+00 0. -1.
</event>
<event>
 7    1  0.4394360E-006  0.6532944E+02  0.7561462E-02  0.1376737E+00
          1   -1    0    0  501    0  0.00000000000E+00  0.00000000000E+00  0.50465680820E+02  0.50465680820E+02  0.00000000000E+00 0. -1.
         -1   -1    0    0    0  501 -0.00000000000E+00 -0.00000000000E+00 -0.27641806151E+03  0.27641806151E+03  0.00000000000E+00 0.  1.
         23    2    1    2    0    0 -0.39007137697E+02 -0.55932527349E+01 -0.90885683370E+02  0.15956241774E+03  0.12508843450E+03 0.  0.
          5    1    3    3  502    0 -0.15833924061E+02 -0.31787687126E+02  0.21542534325E+02  0.41745938594E+02  0.41800000000E+01 0.  1.
         -5    1    3    3    0  502 -0.23173213636E+02  0.26194434391E+02 -0.11242821769E+03  0.11781647914E+03  0.41800000000E+01 0.  1.
        -11    1    1    2    0    0 -0.77839448294E+01  0.10008854391E+02  0.91522120917E+01  0.15637453421E+02  0.00000000000E+00 0. -1.
         11    1    1    2    0    0  0.46791082527E+02 -0.44156016565E+01 -0.14421890942E+03  0.15168387118E+03  0.00000000000E+00 0.  1.
</event>
<event>
 7    1  0.4394360E-006  0.1353302E+03  0.7561462E-02  0.1219754E+00
         -2   -1    0    0    0  501 -0.00000000000E+00  0.00000000000E+00  0.60289598396E+03  0.60289598396E+03  0.00000000000E+00 0.  1.
          2   -1    0    0  501    0  0.00000000000E+00 -0.00000000000E+00 -0.48615903518E+02  0.48615903518E+02  0.00000000000E+00 0. -1.
         23    2    1    2    0    0  0.33650838844E+00 -0.90055146227E+02  0.47551997026E+03  0.49714096480E+03  0.11366553642E+03 0.  0.
          5    1    3    3  502    0 -0.29452229265E+02  0.16654716326E+02  0.10607062276E+03  0.11141482306E+03  0.41800000000E+01 0. -1.
         -5    1    3    3    0  502  0.29788737654E+02 -0.10670986255E+03  0.36944934749E+03  0.38572614174E+03  0.41800000000E+01 0.  1.
        -11    1    1    2    0    0  0.38203369892E+02  0.75290261377E+02  0.28000484959E+02  0.88950256252E+02  0.00000000000E+00 0. -1.
         11    1    1    2    0    0 -0.38539878281E+02  0.14764884849E+02  0.50759625231E+02  0.65420666430E+02  0.00000000000E+00 0.  1.
</event>
<event>
 7    1  0.4394360E-006  0.1084444E+03  0.7561462E-02  0.1263478E+00
          1   -1    0    0  501    0  0.00000000000E+00  0.00000000000E+00  0.28464004293E+03  0.28464004293E+03  0.00000000000E+00 0. -1.
         -1   -1    0    0    0  501 -0.00000000000E+00 -0.00000000000E+00 -0.54636946684E+02  0.54636946684E+02  0.00000000000E+00 0.  1.
         23    2    1    2    0    0  0.14711927816E+02 -0.12699459706E+02  0.49040947440E+02  0.13575846502E+03  0.12509048406E+03 0.  0.
          5    1    3    3  502    0 -0.51523968015E+02  0.15554534133E+02  0.26844711239E+02  0.60289084697E+02  0.41800000000E+01 0.  1.
         -5    1    3    3    0  502  0.66235895831E+02 -0.28253993839E+02  0.22196236201E+02  0.75469380320E+02  0.41800000000E+01 0.  1.
        -11    1    1    2    0    0 -0.52233783918E+02  0.50149473446E+01  0.12636270057E+03  0.13682488800E+03  0.00000000000E+00 0. -1.
         11    1    1    2    0    0  0.37521856102E+02  0.76845123617E+01  0.54599448228E+02  0.66693636596E+02  0.00000000000E+00 0.  1.
</event>
<event>
 7    1  0.4394360E-006  0.1031662E+03  0.7561462E-02  0.1273775E+00
         -1   -1    0    0    0  501 -0.00000000000E+00  0.00000000000E+00  0.58412829505E+02  0.58412829505E+02  0.00000000000E+00 0.  1.
          1   -1    0    0  501    0  0.00000000000E+00 -0.00000000000E+00 -0.31814182665E+03  0.31814182665E+03  0.00000000000E+00 0. -1.
         23    2    1    2    0    0  0.22093156676E+02  0.74852449378E+02 -0.10934542578E+03  0.18356075270E+03  0.12508849285E+03 0.  0.
          5    1    3    3  502    0  0.13188249753E+01 -0.13131085741E+02 -0.89946497749E+02  0.91005546916E+02  0.41800000000E+01 0. -1.
         -5    1    3    3    0  502  0.20774331701E+02  0.87983535119E+02 -0.19398928028E+02  0.92555205787E+02  0.41800000000E+01 0. -1.
        -11    1    1    2    0    0  0.23528974351E+02 -0.28397119650E+02 -0.99449367088E+01  0.38195690916E+02  0.00000000000E+00 0.  1.
         11    1    1    2    0    0 -0.45622131027E+02 -0.46455329728E+02 -0.14043863466E+03  0.15479821254E+03  0.00000000000E+00 0. -1.
</event>
<event>
 6    1  0.4394360E-006  0.3756619E+03  0.7561462E-02  0.1052549E+00
          2   -1    0    0  501    0  0.00000000000E+00  0.00000000000E+00  0.35395099690E+04  0.35395099690E+04  0.00000000000E+00 0. -1.
         -2   -1    0    0    0  501 -0.00000000000E+00 -0.00000000000E+00 -0.55215716983E+02  0.55215716983E+02  0.00000000000E+00 0.  1.
          5    1    1    2  502    0  0.27457964642E+03 -0.12021359186E+03  0.16841453859E+04  0.17106163928E+04  0.41800000000E+01 0. -1.
         -5    1    1    2    0  502  0.51371747879E+02 -0.59023501387E+02  0.51178768322E+02  0.93592568739E+02  0.41800000000E+01 0.  1.
        -11    1    1    2    0    0 -0.24146162403E+03  0.14744086962E+03  0.14800744306E+04  0.15068718744E+04  0.00000000000E+00 0.  1.
         11    1    1    2    0    0 -0.84489770267E+02  0.31796223630E+02  0.26889566721E+03  0.28364485005E+03  0.00000000000E+00 0. -1.
</event>
<event>
 7    1  0.4394360E-006  0.7827750E+02  0.7561462E-02  0.1334012E+00
         -1   -1    0    0    0  501 -0.00000000000E+00  0.00000000000E+00  0.93153993573E+02  0.93153993573E+02  0.00000000000E+00 0.  1.
          1   -1    0    0  501    0  0.00000000000E+00 -0.00000000000E+00 -0.14554886930E+03  0.14554886930E+03  0.00000000000E+00 0. -1.
         23    2    1    2    0    0 -0.25911954386E+02 -0.29993398251E+02 -0.12988753131E+02  0.13185713313E+03  0.12508622039E+03 0.  0.
          5    1    3    3  502    0 -0.19916094795E+02 -0.51873983214E+02  0.43595967148E+02  0.70750559842E+02  0.41800000000E+01 0.  1.
         -5    1    3    3    0  502 -0.59958595902E+01  0.21880584962E+02 -0.56584720279E+02  0.61106573293E+02  0.41800000000E+01 0.  1.
        -11    1    1    2    0    0  0.43221219642E+02  0.10157317459E+00 -0.54153983105E+02  0.69287358375E+02  0.00000000000E+00 0. -1.
         11    1    1    2    0    0 -0.17309265256E+02  0.29891825077E+02  0.14747860507E+02  0.37558371366E+02  0.00000000000E+00 0.  1.
</event>
<event>
 7    1  0.4394360E-006  0.1019093E+03  0.7561462E-02  0.1276332E+00
         -1   -1    0    0    0  501 -0.00000000000E+00  0.00000000000E+00  0.11868146809E+03  0.11868146809E+03  0.00000000000E+00 0.  1.
          1   -1    0    0  501    0  0.00000000000E+00 -0.00000000000E+00 -0.15235249688E+03  0.15235249688E+03  0.00000000000E+00 0. -1.
         23    2    1    2    0    0  0.55570538037E+02  0.53345746599E+02 -0.42480644836E+01  0.14696774540E+03  0.12509044231E+03 0.  0.
          5    1    3    3  502    0  0.37883192809E+02  0.36364606230E+01  0.55324011742E+02  0.67279854477E+02  0.41800000000E+01 0.  1.
         -5    1    3    3    0  502  0.17687345228E+02  0.49709285976E+02 -0.59572076225E+02  0.79687890920E+02  0.41800000000E+01 0.  1.
        -11    1    1    2    0    0 -0.12047302750E+02 -0.66149253259E+02  0.45460612735E+01  0.67390859049E+02  0.00000000000E+00 0.  1.
         11    1    1    2    0    0 -0.43523235287E+02  0.12803506661E+02 -0.33969025579E+02  0.56675360532E+02  0.00000000000E+00 0. -1.
</event>
<event>
 7    1  0.4394360E-006  0.7756004E+02  0.7561462E-02  0.1336122E+00
          1   -1    0    0  501    0  0.00000000000E+00  0.00000000000E+00  0.14770544802E+03  0.14770544802E+03  0.00000000000E+00 0. -1.
         -1   -1    0    0    0  501 -0.00000000000E+00 -0.00000000000E+00 -0.17695351281E+03  0.17695351281E+03  0.00000000000E+00 0.  1.
         23    2    1    2    0    0  0.34524924544E+02 -0.74804843375E+00 -0.13161499927E+03  0.18482873396E+03  0.12508646159E+03 0.  0.
          5    1    3    3  502    0  0.17790092783E+02 -0.49244804411E+02 -0.10966448678E+02  0.53658862822E+02  0.41800000000E+01 0.  1.
         -5    1    3    3    0  502  0.16734831761E+02  0.48496755978E+02 -0.12064855059E+03  0.13116987113E+03  0.41800000000E+01 0.  1.
        -11    1    1    2    0    0 -0.20601676942E+02 -0.18280258779E+02  0.11126921247E+03  0.11462737282E+03  0.00000000000E+00 0. -1.
         11    1    1    2    0    0 -0.13923247602E+02  0.19028307213E+02 -0.89022780044E+01  0.25202854062E+02  0.00000000000E+00 0.  1.
</event>
<event>
 7    1  0.4394360E-006  0.1092499E+03  0.7561462E-02  0.1261965E+00
         -2   -1    0    0    0  501 -0.00000000000E+00  0.00000000000E+00  0.20972800174E+02  0.20972800174E+02  0.00000000000E+00 0.  1.
          2   -1    0    0  501    0  0.00000000000E+00 -0.00000000000E+00 -0.76447222737E+03  0.76447222737E+03  0.00000000000E+00 0. -1.
         23    2    1    2    0    0  0.45054108714E+02 -0.40878903985E+02 -0.38532121804E+03  0.40965354250E+03  0.12507048534E+03 0.  0.
          5    1    3    3  502    0 -0.22810823528E+02 -0.55667712272E+02 -0.25372562552E+03  0.26079377544E+03  0.41800000000E+01 0.  1.
         -5    1    3    3    0  502  0.67864932242E+02  0.14788808286E+02 -0.13159559252E+03  0.14885976706E+03  0.41800000000E+01 0.  1.
        -11    1    1    2    0    0  0.12597535498E+02 -0.63287059309E+01 -0.51877016663E+01  0.15022072692E+02  0.00000000000E+00 0.  1.
         11    1    1    2    0    0 -0.57651644213E+02  0.47207609916E+02 -0.35299050749E+03  0.36076941236E+03  0.00000000000E+00 0. -1.
</event>
<event>
 7    1  0.4394360E-006  0.8848469E+02  0.7561462E-02  0.1306563E+00
          1   -1    0    0  501    0  0.00000000000E+00  0.00000000000E+00  0.14936218987E+03  0.14936218987E+03  0.00000000000E+00 0. -1.
         -1   -1    0    0    0  501 -0.00000000000E+00 -0.00000000000E+00 -0.13176354363E+03  0.13176354363E+03  0.00000000000E+00 0.  1.
         23    2    1    2    0    0  0.31850268648E+01 -0.13309899567E+02 -0.86234210911E+02  0.14164178848E+03  0.11152918582E+03 0.  0.
          5    1    3    3  502    0  0.75082107395E+01  0.36457979233E+02  0.47543959899E+01  0.37757570890E+02  0.41800000000E+01 0. -1.
         -5    1    3    3    0  502 -0.43231838747E+01 -0.49767878800E+02 -0.90988606901E+02  0.10388421759E+03  0.41800000000E+01 0.  1.
        -11    1    1    2    0    0  0.36983148837E+01  0.50967217372E+02  0.78190158897E+02  0.93407899709E+02  0.00000000000E+00 0. -1.
         11    1    1    2    0    0 -0.68833417485E+01 -0.37657317805E+02  0.25642698248E+02  0.46076045309E+02  0.00000000000E+00 0.  1.
</event>
<event>
 7    1  0.4394360E-006  0.1337924E+03  0.7561462E-02  0.1221935E+00
         -2   -1    0    0    0  501 -0.00000000000E+00  0.00000000000E+00  0.77147621010E+02  0.77147621010E+02  0.00000000000E+00 0.  1.
          2   -1    0    0  501    0  0.00000000000E+00 -0.00000000000E+00 -0.33306646291E+03  0.33306646291E+03  0.00000000000E+00 0. -1.
         23    2    1    2    0    0 -0.11187428646E+03  0.36874550434E+02 -0.13726840432E+03  0.21992226530E+03  0.12509036538E+03 0.  0.
          5    1    3    3  502    0 -0.60900883379E+02  0.27766887342E+02  0.61899661383E+01  0.67347648139E+02  0.41800000000E+01 0.  1.
         -5    1    3    3    0  502 -0.50973403079E+02  0.91076630917E+01 -0.14345837046E+03  0.15257461716E+03  0.41800000000E+01 0.  1.
        -11    1    1    2    0    0  0.11708048436E+03 -0.55258911735E+02 -0.10657056039E+03  0.16768622927E+03  0.00000000000E+00 0.  1.
         11    1    1    2    0    0 -0.52061978999E+01  0.18384361301E+02 -0.12079877191E+02  0.22605589353E+02  0.00000000000E+00 0. -1.
</event>
<event>
 7    1  0.4394360E-006  0.1416192E+03  0.7561462E-02  0.1211167E+00
          2   -1    0    0  501    0  0.00000000000E+00  0.00000000000E+00  0.86561939913E+03  0.86561939913E+03  0.00000000000E+00 0. -1.
         -2   -1    0    0    0  501 -0.00000000000E+00 -0.00000000000E+00 -0.39753843319E+02  0.39753843319E+02  0.00000000000E+00 0.  1.
         23    2    1    2    0    0 -0.16223608695E+02 -0.13175731466E+03  0.26388920989E+03  0.32080005931E+03  0.12510782354E+03 0.  0.
          5    1    3    3  502    0 -0.43587898924E+02 -0.93650748049E+02  0.79290660243E+02  0.13028756174E+03  0.41800000000E+01 0. -1.
         -5    1    3    3    0  502  0.27364290230E+02 -0.38106566615E+02  0.18459854964E+03  0.19051249757E+03  0.41800000000E+01 0. -1.
        -11    1    1    2    0    0  0.49252170548E+01  0.36146664107E+02  0.41445912763E+02  0.55214153746E+02  0.00000000000E+00 0.  1.
         11    1    1    2    0    0  0.11298391640E+02  0.95610650557E+02  0.52053043316E+03  0.52935902940E+03  0.00000000000E+00 0. -1.
</event>
<event>
 7    1  0.4394360E-006  0.1742711E+03  0.7561462E-02  0.1173466E+00
          3   -1    0    0  501    0  0.00000000000E+00  0.00000000000E+00  0.35045189890E+03  0.35045189890E+03  0.00000000000E+00 0. -1.
         -3   -1    0    0    0  501 -0.00000000000E+00 -0.00000000000E+00 -0.97688627572E+02  0.97688627572E+02  0.00000000000E+00 0.  1.
         23    2    1    2    0    0 -0.99844708625E+02  0.96030629403E+02  0.59829884803E+02  0.19600378058E+03  0.12508804604E+03 0.  0.
          5    1    3    3  502    0 -0.91077649272E+02  0.11912726021E+01  0.25560548748E+02  0.94696205730E+02  0.41800000000E+01 0. -1.
         -5    1    3    3    0  502 -0.87670593522E+01  0.94839356801E+02  0.34269336055E+02  0.10130757485E+03  0.41800000000E+01 0. -1.
        -11    1    1    2    0    0 -0.80040663301E+01 -0.39415264070E+02  0.54696517158E+02  0.67892099016E+02  0.00000000000E+00 0.  1.
         11    1    1    2    0    0  0.10784877495E+03 -0.56615365333E+02  0.13823686937E+03  0.18424464688E+03  0.00000000000E+00 0. -1.
</event>
<event>
 7    1  0.4394360E-006  0.1424732E+03  0.7561462E-02  0.1210039E+00
          3   -1    0    0  501    0  0.00000000000E+00  0.00000000000E+00  0.95036780181E+02  0.95036780181E+02  0.00000000000E+00 0.  1.
         -3   -1    0    0    0  501 -0.00000000000E+00 -0.00000000000E+00 -0.27730768173E+03  0.27730768173E+03  0.00000000000E+00 0. -1.
         23    2    1    2    0    0 -0.51910578325E+02  0.10185682936E+03 -0.14238705505E+03  0.22134191191E+03  0.12509455101E+03 0.  0.
          5    1    3    3  502    0 -0.85814184147E+02  0.93979359103E+02 -0.13488194943E+03  0.18549071896E+03  0.41800000000E+01 0. -1.
         -5    1    3    3    0  502  0.33903605822E+02  0.78774702570E+01 -0.75051056193E+01  0.35851192948E+02  0.41800000000E+01 0. -1.
        -11    1    1    2    0    0 -0.71193227042E+01 -0.22848029365E+02 -0.46352174012E+02  0.52165517704E+02  0.00000000000E+00 0. -1.
         11    1    1    2    0    0  0.59029901029E+02 -0.79008799995E+02  0.64683275181E+01  0.98837032296E+02  0.00000000000E+00 0.  1.
</event>
<event>
 7    1  0.4394360E-006  0.1464924E+03  0.7561462E-02  0.1204851E+00
          2   -1    0    0  501    0  0.00000000000E+00  0.00000000000E+00  0.79944348640E+02  0.79944348640E+02  0.00000000000E+00 0. -1.
         -2   -1    0    0    0  501 -0.00000000000E+00 -0.00000000000E+00 -0.40608103331E+03  0.40608103331E+03  0.00000000000E+00 0.  1.
         23    2    1    2    0    0 -0.11834203891E+03 -0.26936745806E+02 -0.26381794989E+03  0.31619456528E+03  0.12509462811E+03 0.  0.
          5    1    3    3  502    0  0.21612640688E+02 -0.18904583819E+02 -0.21122277719E+02  0.35890284798E+02  0.41800000000E+01 0. -1.
         -5    1    3    3    0  502 -0.13995467960E+03 -0.80321619875E+01 -0.24269567217E+03  0.28030428048E+03  0.41800000000E+01 0. -1.
        -11    1    1    2    0    0  0.80394539782E+02  0.65933430701E+01  0.14319734441E+02  0.81925630874E+02  0.00000000000E+00 0. -1.
         11    1    1    2    0    0  0.37947499128E+02  0.20343402736E+02 -0.76638469217E+02  0.87905185790E+02  0.00000000000E+00 0.  1.
</event>
<event>
 7    1  0.4394360E-006  0.1843288E+03  0.7561462E-02  0.1163678E+00
          2   -1    0    0  501    0  0.00000000000E+00  0.00000000000E+00  0.83200056201E+03  0.83200056201E+03  0.00000000000E+00 0. -1.
         -2   -1    0    0    0  501 -0.00000000000E+00 -0.00000000000E+00 -0.55935232422E+02  0.55935232422E+02  0.00000000000E+00 0.  1.
         23    2    1    2    0    0  0.12575321739E+03  0.86747093741E+02  0.18527507816E+03  0.27076391234E+03  0.12508921489E+03 0.  0.
          5    1    3    3  502    0  0.67742623080E+02 -0.19951906596E+02  0.39655052287E+02  0.81099550742E+02  0.41800000000E+01 0. -1.
         -5    1    3    3    0  502  0.58010594311E+02  0.10669900034E+03  0.14562002587E+03  0.18966436160E+03  0.41800000000E+01 0. -1.
        -11    1    1    2    0    0  0.79379568104E+01 -0.30216021293E+02  0.14567874558E+03  0.14899099306E+03  0.00000000000E+00 0. -1.
         11    1    1    2    0    0 -0.13369117420E+03 -0.56531072449E+02  0.44511150585E+03  0.46818088902E+03  0.00000000000E+00 0.  1.
</event>
<event>
 7    1  0.4394360E-006  0.1770400E+03  0.7561462E-02  0.1170699E+00
         -1   -1    0    0    0  501 -0.00000000000E+00  0.00000000000E+00  0.20158927749E+03  0.20158927749E+03  0.00000000000E+00 0.  1.
          1   -1    0    0  501    0  0.00000000000E+00 -0.00000000000E+00 -0.16001219310E+03  0.16001219310E+03  0.00000000000E+00 0. -1.
         23    2    1    2    0    0 -0.11591680487E+03 -0.83059272950E+02  0.22194364063E+02  0.19098854063E+03  0.12509390226E+03 0.  0.
          5    1    3    3  502    0  0.15334121302E+02  0.14771596151E+02  0.16283445446E+02  0.27128551833E+02  0.41800000000E+01 0.  1.
         -5    1    3    3    0  502 -0.13125092617E+03 -0.97830869101E+02  0.59109186166E+01  0.16385998880E+03  0.41800000000E+01 0.  1.
        -11    1    1    2    0    0  0.10352337504E+03  0.21369257251E+02  0.37253048364E+01  0.10577150955E+03  0.00000000000E+00 0. -1.
         11    1    1    2    0    0  0.12393429829E+02  0.61690015699E+02  0.15657415491E+02  0.64841420402E+02  0.00000000000E+00 0.  1.
</event>
<event>
 7    1  0.4394360E-006  0.1142857E+03  0.7561462E-02  0.1252833E+00
         -3   -1    0    0    0  501 -0.00000000000E+00  0.00000000000E+00  0.13778306580E+02  0.13778306580E+02  0.00000000000E+00 0.  1.
          3   -1    0    0  501    0  0.00000000000E+00 -0.00000000000E+00 -0.10332021541E+04  0.10332021541E+04  0.00000000000E+00 0. -1.
         23    2    1    2    0    0 -0.12966671950E+02  0.44038449761E+02 -0.55325709137E+03  0.56907761784E+03  0.12509359030E+03 0.  0.
          5    1    3    3  502    0 -0.33516993391E+02  0.77651892842E+02 -0.46038520271E+03  0.46810812061E+03  0.41800000000E+01 0.  1.
         -5    1    3    3    0  502  0.20550321441E+02 -0.33613443081E+02 -0.92871888669E+02  0.10096949724E+03  0.41800000000E+01 0.  1.
        -11    1    1    2    0    0  0.48261139145E+02 -0.54999050991E+00 -0.18353241900E+03  0.18977246603E+03  0.00000000000E+00 0. -1.
         11    1    1    2    0    0 -0.35294467195E+02 -0.43488459251E+02 -0.28263433716E+03  0.28813037682E+03  0.00000000000E+00 0.  1.
</event>
<event>
 7    1  0.4394360E-006  0.1533076E+03  0.7561462E-02  0.1196467E+00
         -1   -1    0    0    0  501 -0.00000000000E+00  0.00000000000E+00  0.43031293649E+02  0.43031293649E+02  0.00000000000E+00 0.  1.
          1   -1    0    0  501    0  0.00000000000E+00 -0.00000000000E+00 -0.60922798886E+03  0.60922798886E+03  0.00000000000E+00 0. -1.
         23    2    1    2    0    0  0.75222151456E+02 -0.94671987509E+02 -0.29461355900E+03  0.34214923870E+03  0.12509114720E+03 0.  0.
          5    1    3    3  502    0  0.64912427297E+02 -0.11625482655E+03 -0.17412892839E+03  0.21924224961E+03  0.41800000000E+01 0. -1.
         -5    1    3    3    0  502  0.10309724159E+02  0.21582839039E+02 -0.12048463061E+03  0.12290698908E+03  0.41800000000E+01 0. -1.
        -11    1    1    2    0    0  0.19897168566E+02  0.13200492445E+02 -0.34139197195E+02  0.41660954176E+02  0.00000000000E+00 0.  1.
         11    1    1    2    0    0 -0.95119320022E+02  0.81471495064E+02 -0.23744393901E+03  0.26844908963E+03  0.00000000000E+00 0. -1.
</event>
<event>
 7    1  0.4394360E-006  0.6625564E+02  0.7561462E-02  0.1373310E+00
          4   -1    0    0  501    0  0.00000000000E+00  0.00000000000E+00  0.19192789918E+03  0.19192789918E+03  0.00000000000E+00 0. -1.
         -4   -1    0    0    0  501 -0.00000000000E+00 -0.00000000000E+00 -0.77116394213E+02  0.77116394213E+02  0.00000000000E+00 0.  1.
         23    2    1    2    0    0 -0.18601625441E+02  0.36877395628E+02 -0.22997988999E+01  0.13175166520E+03  0.12508896606E+03 0.  0.
          5    1    3    3  502    0 -0.30441386569E+02  0.38339870580E+02 -0.57205668141E+02  0.75409446092E+02  0.41800000000E+01 0.  1.
         -5    1    3    3    0  502  0.11839761128E+02 -0.14624749520E+01  0.54905869242E+02  0.56342219105E+02  0.41800000000E+01 0.  1.
        -11    1    1    2    0    0  0.28492689426E+02 -0.48020484328E+02  0.10056399251E+03  0.11502572258E+03  0.00000000000E+00 0. -1.
         11    1    1    2    0    0 -0.98910639848E+01  0.11143088699E+02  0.16547311358E+02  0.22266905615E+02  0.00000000000E+00 0.  1.
</event>
<event>
 7    1  0.4394360E-006  0.1000436E+03  0.7561462E-02  0.1280204E+00
          1   -1    0    0  501    0  0.00000000000E+00  0.00000000000E+00  0.43969170801E+03  0.43969170801E+03  0.00000000000E+00 0. -1.
         -1   -1    0    0    0  501 -0.00000000000E+00 -0.00000000000E+00 -0.28943575758E+02  0.28943575758E+02  0.00000000000E+00 0.  1.
         23    2    1    2    0    0  0.23004961788E+02  0.33734530056E+02  0.19471499354E+03  0.23501080820E+03  0.12509558136E+03 0.  0.
          5    1    3    3  502    0  0.25391873340E+02 -0.45403301613E+02  0.72463015598E+02  0.89300437057E+02  0.41800000000E+01 0. -1.
         -5    1    3    3    0  502 -0.23869115520E+01  0.79137831669E+02  0.12225197794E+03  0.14571037114E+03  0.41800000000E+01 0. -1.
        -11    1    1    2    0    0 -0.34735692463E+02 -0.41821900513E+02  0.21193727101E+03  0.21879910086E+03  0.00000000000E+00 0. -1.
         11    1    1    2    0    0  0.11730730675E+02  0.80873704573E+01  0.40958677069E+01  0.14825374713E+02  0.00000000000E+00 0.  1.
</event>
<event>
 6    1  0.4394360E-006  0.2149908E+03  0.7561462E-02  0.1137674E+00
          1   -1    0    0  501    0  0.00000000000E+00  0.00000000000E+00  0.11774631567E+03  0.11774631567E+03  0.00000000000E+00 0. -1.
         -1   -1    0    0    0  501 -0.00000000000E+00 -0.00000000000E+00 -0.43107042790E+03  0.43107042790E+03  0.00000000000E+00 0.  1.
          5    1    1    2  502    0  0.45134893300E+02  0.14643006326E+03 -0.16316434559E+03  0.22387272744E+03  0.41800000000E+01 0. -1.
         -5    1    1    2    0  502 -0.10048277242E+03 -0.14424997673E+03 -0.12856859949E+03  0.21783526004E+03  0.41800000000E+01 0.  1.
        -11    1    1    2    0    0  0.31078642177E+02 -0.43181786645E+02  0.33904699927E+01  0.53310824268E+02  0.00000000000E+00 0.  1.
         11    1    1    2    0    0  0.24269236947E+02  0.41001700112E+02 -0.24981637132E+02  0.53797931817E+02  0.00000000000E+00 0. -1.
</event>
<event>
 7    1  0.4394360E-006  0.9744437E+02  0.7561462E-02  0.1285764E+00
          1   -1    0    0  501    0  0.00000000000E+00  0.00000000000E+00  0.88188204249E+02  0.88188204249E+02  0.00000000000E+00 0. -1.
         -1   -1    0    0    0  501 -0.00000000000E+00 -0.00000000000E+00 -0.28724174090E+03  0.28724174090E+03  0.00000000000E+00 0.  1.
         23    2    1    2    0    0 -0.70297870732E+02  0.39358465540E+02 -0.20425728577E+03  0.25271067651E+03  0.12510302872E+03 0.  0.
          5    1    3    3  502    0 -0.38451219791E+02  0.18931319545E+02 -0.20986261412E+03  0.21423510536E+03  0.41800000000E+01 0. -1.
         -5    1    3    3    0  502 -0.31846650941E+02  0.20427145995E+02  0.56053283512E+01  0.38475571153E+02  0.41800000000E+01 0. -1.
        -11    1    1    2    0    0  0.44793983826E+02 -0.64118423277E+02 -0.18013270028E+02  0.80263011952E+02  0.00000000000E+00 0.  1.
         11    1    1    2    0    0  0.25503886906E+02  0.24759957736E+02  0.23217019140E+02  0.42456256690E+02  0.00000000000E+00 0. -1.
</event>
<event>
 7    1  0.4394360E-006  0.8091813E+02  0.7561462E-02  0.1326466E+00
          4   -1    0    0  501    0  0.00000000000E+00  0.00000000000E+00  0.37176143468E+02  0.37176143468E+02  0.00000000000E+00 0. -1.
         -4   -1    0    0    0  501 -0.00000000000E+00 -0.00000000000E+00 -0.42390962558E+03  0.42390962558E+03  0.00000000000E+00 0.  1.
         23    2    1    2    0    0  0.34329354268E+02  0.37466779537E+01 -0.31372947659E+03  0.33950836031E+03  0.12508876879E+03 0.  0.
          5    1    3    3  502    0 -0.18962722322E+01  0.32194814464E+02 -0.12644903275E+02  0.34892232740E+02  0.41800000000E+01 0. -1.
         -5    1    3    3    0  502  0.36225626500E+02 -0.28448136510E+02 -0.30108457332E+03  0.30461612757E+03  0.41800000000E+01 0. -1.
        -11    1    1    2    0    0 -0.13527047214E+02 -0.39471922189E+02 -0.68209817023E+02  0.79959944885E+02  0.00000000000E+00 0.  1.
         11    1    1    2    0    0 -0.20802307054E+02  0.35725244235E+02 -0.47941884989E+01  0.41617463856E+02  0.00000000000E+00 0. -1.
</event>
<event>
 6    1  0.4394360E-006  0.2330845E+03  0.7561462E-02  0.1124487E+00
          1   -1    0    0  501    0  0.00000000000E+00  0.00000000000E+00  0.16602681286E+03  0.16602681286E+03  0.00000000000E+00 0. -1.
         -1   -1    0    0    0  501 -0.00000000000E+00 -0.00000000000E+00 -0.44868764143E+03  0.44868764143E+03  0.00000000000E+00 0.  1.
          5    1    1    2  502    0  0.18082627147E+02  0.29199958296E+02 -0.89850049721E+01  0.35746631777E+02  0.41800000000E+01 0. -1.
         -5    1    1    2    0  502  0.29537326423E+01 -0.22807341604E+03 -0.26731110900E+03  0.35142411561E+03  0.41800000000E+01 0.  1.
        -11    1    1    2    0    0 -0.30059120325E+02  0.10757098773E+03 -0.54118857464E+02  0.12411252495E+03  0.00000000000E+00 0.  1.
         11    1    1    2    0    0  0.90227605354E+01  0.91302470013E+02  0.47754142869E+02  0.10343118195E+03  0.00000000000E+00 0. -1.
</event>
<event>
 7    1  0.4394360E-006  0.2300576E+03  0.7561462E-02  0.1126599E+00
          1   -1    0    0  501    0  0.00000000000E+00  0.00000000000E+00  0.77016174707E+02  0.77016174707E+02  0.00000000000E+00 0. -1.
         -1   -1    0    0    0  501 -0.00000000000E+00 -0.00000000000E+00 -0.79220393726E+03  0.79220393726E+03  0.00000000000E+00 0.  1.
         23    2    1    2    0    0 -0.11161611892E+02  0.22048058800E+03 -0.33472551742E+03  0.42002758865E+03  0.12508290031E+03 0.  0.
          5    1    3    3  502    0 -0.25953636588E+02  0.90668219615E+02 -0.50220981557E+02  0.10692958753E+03  0.41800000000E+01 0. -1.
         -5    1    3    3    0  502  0.14792024697E+02  0.12981236838E+03 -0.28450453587E+03  0.31309800113E+03  0.41800000000E+01 0. -1.
        -11    1    1    2    0    0  0.45344357861E+02 -0.14924094854E+03 -0.21278641468E+03  0.26383144199E+03  0.00000000000E+00 0.  1.
         11    1    1    2    0    0 -0.34182745969E+02 -0.71239639462E+02 -0.16767583044E+03  0.18536108132E+03  0.00000000000E+00 0. -1.
</event>
<event>
 7    1  0.4394360E-006  0.1388659E+03  0.7561462E-02  0.1214863E+00
          2   -1    0    0  501    0  0.00000000000E+00  0.00000000000E+00  0.78783533620E+03  0.78783533620E+03  0.00000000000E+00 0. -1.
         -2   -1    0    0    0  501 -0.00000000000E+00 -0.00000000000E+00 -0.26536345862E+02  0.26536345862E+02  0.00000000000E+00 0.  1.
         23    2    1    2    0    0  0.75730027107E+02  0.42461804129E+02  0.30174980061E+03  0.33799024613E+03  0.12508566064E+03 0.  0.
          5    1    3    3  502    0 -0.31473242859E+02 -0.93374723405E+01  0.62643883883E+02  0.70848302688E+02  0.41800000000E+01 0.  1.
         -5    1    3    3    0  502  0.10720326997E+03  0.51799276469E+02  0.23910591672E+03  0.26714194344E+03  0.41800000000E+01 0.  1.
        -11    1    1    2    0    0 -0.94595365716E+02 -0.20944722332E+02  0.35746854849E+03  0.37036566765E+03  0.00000000000E+00 0. -1.
         11    1    1    2    0    0  0.18865338609E+02 -0.21517081797E+02  0.10208064124E+03  0.10601576829E+03  0.00000000000E+00 0.  1.
</event>
<event>
 7    1  0.4394360E-006  0.2622282E+03  0.7561462E-02  0.1105812E+00
          1   -1    0    0  501    0  0.00000000000E+00  0.00000000000E+00  0.15257973985E+03  0.15257973985E+03  0.00000000000E+00 0. -1.
         -1   -1    0    0    0  501 -0.00000000000E+00 -0.00000000000E+00 -0.48341371520E+03  0.48341371520E+03  0.00000000000E+00 0.  1.
         23    2    1    2    0    0 -0.40207346442E+02 -0.24069525312E+03 -0.10753048546E+03  0.29455429083E+03  0.12509432187E+03 0.  0.
          5    1    3    3  502    0 -0.52866180698E+02 -0.28419226637E+02 -0.11813073876E+02  0.61314815654E+02  0.41800000000E+01 0.  1.
         -5    1    3    3    0  502  0.12658834256E+02 -0.21227602648E+03 -0.95717411580E+02  0.23323947518E+03  0.41800000000E+01 0.  1.
        -11    1    1    2    0    0 -0.14684107218E+02  0.90522365447E+02 -0.45684277983E+02  0.10245474565E+03  0.00000000000E+00 0. -1.
         11    1    1    2    0    0  0.54891453659E+02  0.15017288767E+03 -0.17761921192E+03  0.23898441857E+03  0.00000000000E+00 0.  1.
</event>
<event>
 7    1  0.4394360E-006  0.9369461E+02  0.7561462E-02  0.1294144E+00
         -2   -1    0    0    0  501 -0.00000000000E+00  0.00000000000E+00  0.78792339362E+02  0.78792339362E+02  0.00000000000E+00 0.  1.
          2   -1    0    0  501    0  0.00000000000E+00 -0.00000000000E+00 -0.20124058498E+03  0.20124058498E+03  0.00000000000E+00 0. -1.
         23    2    1    2    0    0 -0.18521230587E+02  0.60221202961E+02 -0.54701210171E+02  0.15036232275E+03  0.12508787487E+03 0.  0.
          5    1    3    3  502    0 -0.28505602679E+02 -0.24876874242E+02  0.13898662638E+02  0.40522505837E+02  0.41800000000E+01 0.  1.
         -5    1    3    3    0  502  0.99843720924E+01  0.85098077203E+02 -0.68599872809E+02  0.10983981691E+03  0.41800000000E+01 0.  1.
        -11    1    1    2    0    0  0.58906152294E+01 -0.33137528863E+02 -0.87566236465E+02  0.93811731332E+02  0.00000000000E+00 0. -1.
         11    1    1    2    0    0  0.12630615357E+02 -0.27083674098E+02  0.19819201022E+02  0.35858870257E+02  0.00000000000E+00 0.  1.
</event>
<event>
 7    1  0.4394360E-006  0.1072320E+03  0.7561462E-02  0.1265783E+00
          2   -1    0    0  501    0  0.00000000000E+00  0.00000000000E+00  0.95990811966E+03  0.95990811966E+03  0.00000000000E+00 0. -1.
         -2   -1    0    0    0  501 -0.00000000000E+00 -0.00000000000E+00 -0.15674971802E+02  0.15674971802E+02  0.00000000000E+00 0.  1.
         23    2    1    2    0    0  0.47047785090E+02 -0.30465763186E+02  0.52790507078E+03  0.54541236737E+03  0.12509688208E+03 0.  0.
          5    1    3    3  502    0  0.56246921172E+02 -0.55919000723E+02  0.18388870054E+03  0.20030770671E+03  0.41800000000E+01 0.  1.
         -5    1    3    3    0  502 -0.91991360814E+01  0.25453237537E+02  0.34401637025E+03  0.34510466065E+03  0.41800000000E+01 0.  1.
        -11    1    1    2    0    0 -0.58054119566E+01 -0.32153890247E+02  0.14796312696E+03  0.15152776117E+03  0.00000000000E+00 0. -1.
         11    1    1    2    0    0 -0.41242373134E+02  0.62619653433E+02  0.26836495011E+03  0.27864296293E+03  0.00000000000E+00 0.  1.
</event>
<event>
 7    1  0.4394360E-006  0.3289987E+03  0.7561462E-02  0.1071581E+00
          1   -1    0    0  501    0  0.00000000000E+00  0.00000000000E+00  0.10817792424E+04  0.10817792424E+04  0.00000000000E+00 0. -1.
         -1   -1    0    0    0  501 -0.00000000000E+00 -0.00000000000E+00 -0.11868130918E+03  0.11868130918E+03  0.00000000000E+00 0.  1.
         23    2    1    2    0    0  0.28478065579E+03 -0.12451022104E+03  0.25309767164E+03  0.41989085413E+03  0.12508829256E+03 0.  0.
          5    1    3    3  502    0  0.26692134838E+03 -0.14693106577E+03  0.21958512328E+03  0.37559398700E+03  0.41800000000E+01 0.  1.
         -5    1    3    3    0  502  0.17859307416E+02  0.22420844730E+02  0.33512548361E+02  0.44296867129E+02  0.41800000000E+01 0.  1.
        -11    1    1    2    0    0 -0.24266691635E+03  0.64667591781E+02  0.55307111105E+03  0.60741812913E+03  0.00000000000E+00 0. -1.
         11    1    1    2    0    0 -0.42113739445E+02  0.59842629255E+02  0.15692915055E+03  0.17315156834E+03  0.00000000000E+00 0.  1.
</event>
<event>
 7    1  0.4394360E-006  0.1639631E+03  0.7561462E-02  0.1184294E+00
          1   -1    0    0  501    0  0.00000000000E+00  0.00000000000E+00  0.83292929648E+03  0.83292929648E+03  0.00000000000E+00 0. -1.
         -1   -1    0    0    0  501 -0.00000000000E+00 -0.00000000000E+00 -0.37388305193E+02  0.37388305193E+02  0.00000000000E+00 0.  1.
         23    2    1    2    0    0  0.43213571429E+02 -0.12473216584E+03  0.32063704105E+03  0.36861938357E+03  0.12508641774E+03 0.  0.
          5    1    3    3  502    0  0.50600316012E+02 -0.14526126716E+03  0.24095403656E+03  0.28589779267E+03  0.41800000000E+01 0.  1.
         -5    1    3    3    0  502 -0.73867445829E+01  0.20529101329E+02  0.79683004491E+02  0.82721590904E+02  0.41800000000E+01 0.  1.
        -11    1    1    2    0    0 -0.63605789644E+02  0.76641113707E+02  0.38544996550E+03  0.39810957373E+03  0.00000000000E+00 0.  1.
         11    1    1    2    0    0  0.20392218215E+02  0.48091052129E+02  0.89453984739E+02  0.10358864438E+03  0.00000000000E+00 0. -1.
</event>
<event>
 7    1  0.4394360E-006  0.1607503E+03  0.7561462E-02  0.1187852E+00
         -4   -1    0    0    0  501 -0.00000000000E+00  0.00000000000E+00  0.23303144960E+03  0.23303144960E+03  0.00000000000E+00 0.  1.
          4   -1    0    0  501    0  0.00000000000E+00 -0.00000000000E+00 -0.13120609234E+03  0.13120609234E+03  0.00000000000E+00 0. -1.
         23    2    1    2    0    0  0.52218108098E+01  0.13634311651E+03  0.69043353852E+02  0.19756125752E+03  0.12508698187E+03 0.  0.
          5    1    3    3  502    0  0.52838722876E+02  0.16903819789E+02  0.29503730200E+02  0.62973107389E+02  0.41800000000E+01 0. -1.
         -5    1    3    3    0  502 -0.47616912066E+02  0.11943929672E+03  0.39539623652E+02  0.13458815013E+03  0.41800000000E+01 0. -1.
        -11    1    1    2    0    0 -0.10306157707E+02 -0.84712887111E+02 -0.25094802314E+02  0.88950768589E+02  0.00000000000E+00 0. -1.
         11    1    1    2    0    0  0.50843468969E+01 -0.51630229399E+02  0.57876805720E+02  0.77725515833E+02  0.00000000000E+00 0.  1.
</event>
<event>
 7    1  0.4394360E-006  0.1191736E+03  0.7561462E-02  0.1244467E+00
         -1   -1    0    0    0  501 -0.00000000000E+00  0.00000000000E+00  0.96782035212E+02  0.96782035212E+02  0.00000000000E+00 0.  1.
          1   -1    0    0  501    0  0.00000000000E+00 -0.00000000000E+00 -0.17157774649E+03  0.17157774649E+03  0.00000000000E+00 0. -1.
         23    2    1    2    0    0  0.45111749476E+02  0.29284266396E+01  0.28511412092E+01  0.13304632022E+03  0.12509815624E+03 0.  0.
          5    1    3    3  502    0 -0.70927741163E+01 -0.51445135506E+02  0.19692369619E+02  0.55697138465E+02  0.41800000000E+01 0.  1.
         -5    1    3    3    0  502  0.52204523592E+02  0.54373562146E+02 -0.16841228410E+02  0.77349181756E+02  0.41800000000E+01 0.  1.
        -11    1    1    2    0    0 -0.22396192421E+02  0.49108866738E+02 -0.40147106043E+02  0.67268568818E+02  0.00000000000E+00 0.  1.
         11    1    1    2    0    0 -0.22715557055E+02 -0.52037293377E+02 -0.37499746447E+02  0.68044892666E+02  0.00000000000E+00 0. -1.
</event>
<event>
 7    1  0.4394360E-006  0.1555783E+03  0.7561462E-02  0.1193781E+00
         -2   -1    0    0    0  501 -0.00000000000E+00  0.00000000000E+00  0.64657025722E+02  0.64657025722E+02  0.00000000000E+00 0.  1.
          2   -1    0    0  501    0  0.00000000000E+00 -0.00000000000E+00 -0.44752354023E+03  0.44752354023E+03  0.00000000000E+00 0. -1.
         23    2    1    2    0    0  0.41835506756E+02  0.10679934271E+03 -0.10673831670E+03  0.20049232845E+03  0.12509115190E+03 0.  0.
          5    1    3    3  502    0  0.33931377044E+02 -0.21964506704E+02 -0.26402651911E+02  0.48459780548E+02  0.41800000000E+01 0. -1.
         -5    1    3    3    0  502  0.79041297111E+01  0.12876384942E+03 -0.80335664793E+02  0.15203254790E+03  0.41800000000E+01 0. -1.
        -11    1    1    2    0    0 -0.60849523079E+02 -0.42054344615E+02 -0.11190152141E+03  0.13413867024E+03  0.00000000000E+00 0. -1.
         11    1    1    2    0    0  0.19014016323E+02 -0.64744998099E+02 -0.16422667639E+03  0.17754956726E+03  0.00000000000E+00 0.  1.
</event>
<event>
 7    1  0.4394360E-006  0.1432400E+03  0.7561462E-02  0.1209035E+00
          2   -1    0    0  501    0  0.00000000000E+00  0.00000000000E+00  0.11973688060E+03  0.11973688060E+03  0.00000000000E+00 0. -1.
         -2   -1    0    0    0  501 -0.00000000000E+00 -0.00000000000E+00 -0.23794149021E+03  0.23794149021E+03  0.00000000000E+00 0.  1.
         23    2    1    2    0    0 -0.99969616380E+02 -0.80860552343E+02 -0.60463948585E+02  0.18930109783E+03  0.12508662373E+03 0.  0.
          5    1    3    3  502    0 -0.20632711177E+01 -0.44414087532E+02 -0.71359273577E+02  0.84181272171E+02  0.41800000000E+01 0.  1.
         -5    1    3    3    0  502 -0.97906345262E+02 -0.36446464811E+02  0.10895324991E+02  0.10511982566E+03  0.41800000000E+01 0.  1.
        -11    1    1    2    0    0  0.17682070520E+01  0.23449513387E+02  0.19774357143E+02  0.30725094543E+02  0.00000000000E+00 0. -1.
         11    1    1    2    0    0  0.98201409328E+02  0.57411038956E+02 -0.77515018164E+02  0.13765217844E+03  0.00000000000E+00 0.  1.
</event>
<event>
 7    1  0.4394360E-006  0.2236189E+03  0.7561462E-02  0.1131213E+00
          1   -1    0    0  501    0  0.00000000000E+00  0.00000000000E+00  0.27066978519E+03  0.27066978519E+03  0.00000000000E+00 0. -1.
         -1   -1    0    0    0  501 -0.00000000000E+00 -0.00000000000E+00 -0.20460491675E+03  0.20460491675E+03  0.00000000000E+00 0.  1.
         23    2    1    2    0    0 -0.23136373270E+02 -0.20596999339E+03  0.84262144609E+01  0.24121341024E+03  0.12310149569E+03 0.  0.
          5    1    3    3  502    0 -0.66144380900E+02 -0.15978770542E+03 -0.15303251105E+02  0.17366304103E+03  0.41800000000E+01 0. -1.
         -5    1    3    3    0  502  0.43008007630E+02 -0.46182287979E+02  0.23729465566E+02  0.67550369202E+02  0.41800000000E+01 0.  1.
        -11    1    1    2    0    0  0.31500732574E+02  0.19312177016E+03  0.24059119032E+02  0.19714754746E+03  0.00000000000E+00 0.  1.
         11    1    1    2    0    0 -0.83643593035E+01  0.12848223238E+02  0.33579534944E+02  0.36913744242E+02  0.00000000000E+00 0. -1.
</event>
<event>
 7    1  0.4394360E-006  0.1021772E+03  0.7561462E-02  0.1275783E+00
         -1   -1    0    0    0  501 -0.00000000000E+00  0.00000000000E+00  0.69392247275E+03  0.69392247275E+03  0.00000000000E+00 0.  1.
          1   -1    0    0  501    0  0.00000000000E+00 -0.00000000000E+00 -0.18753373616E+02  0.18753373616E+02  0.00000000000E+00 0. -1.
         23    2    1    2    0    0 -0.14211059492E+02 -0.23867526808E+02  0.45759805342E+03  0.47519952914E+03  0.12508797283E+03 0.  0.
          5    1    3    3  502    0  0.52928113577E+02  0.72466725511E+00  0.14269342826E+03  0.15225241285E+03  0.41800000000E+01 0.  1.
         -5    1    3    3    0  502 -0.67139173068E+02 -0.24592194064E+02  0.31490462517E+03  0.32294711629E+03  0.41800000000E+01 0.  1.
        -11    1    1    2    0    0 -0.23536033313E+02  0.33250260052E+02  0.17555905978E+03  0.18022349494E+03  0.00000000000E+00 0.  1.
         11    1    1    2    0    0  0.37747092805E+02 -0.93827332434E+01  0.42011985926E+02  0.57252822287E+02  0.00000000000E+00 0. -1.
</event>
<event>
 7    1  0.4394360E-006  0.8173269E+02  0.7561462E-02  0.1324205E+00
         -1   -1    0    0    0  501 -0.00000000000E+00  0.00000000000E+00  0.14365743010E+03  0.14365743010E+03  0.00000000000E+00 0.  1.
          1   -1    0    0  501    0  0.00000000000E+00 -0.00000000000E+00 -0.90792882901E+02  0.90792882901E+02  0.00000000000E+00 0. -1.
         23    2    1    2    0    0 -0.23722538403E+02  0.45661498694E+01  0.59712855975E+02  0.14070557121E+03  0.12509525989E+03 0.  0.
          5    1    3    3  502    0  0.15355135311E+02  0.28157359260E+02 -0.27321524112E+02  0.42338577453E+02  0.41800000000E+01 0. -1.
         -5    1    3    3    0  502 -0.39077673715E+02 -0.23591209390E+02  0.87034380086E+02  0.98366993755E+02  0.41800000000E+01 0. -1.
        -11    1    1    2    0    0  0.35621529643E+02 -0.36623626551E+02  0.14901982415E+02  0.53218910885E+02  0.00000000000E+00 0.  1.
         11    1    1    2    0    0 -0.11898991240E+02  0.32057476682E+02 -0.21750291192E+02  0.40525830907E+02  0.00000000000E+00 0. -1.
</event>
<event>
 7    1  0.4394360E-006  0.1537766E+03  0.7561462E-02  0.1195908E+00
          2   -1    0    0  501    0  0.00000000000E+00  0.00000000000E+00  0.74142718814E+03  0.74142718814E+03  0.00000000000E+00 0.  1.
         -2   -1    0    0    0  501 -0.00000000000E+00 -0.00000000000E+00 -0.42754706189E+02  0.42754706189E+02  0.00000000000E+00 0. -1.
         23    2    1    2    0    0  0.11350454762E+03  0.65814399889E+02  0.47768286787E+03  0.51092459681E+03  0.12509278080E+03 0.  0.
          5    1    3    3  502    0  0.13024753507E+02  0.67405953861E+02  0.28940205200E+03  0.29746298412E+03  0.41800000000E+01 0. -1.
         -5    1    3    3    0  502  0.10047979411E+03 -0.15915539721E+01  0.18828081587E+03  0.21346161269E+03  0.41800000000E+01 0. -1.
        -11    1    1    2    0    0 -0.49168782732E+02 -0.53550821497E+02  0.45058680119E+02  0.85530955405E+02  0.00000000000E+00 0. -1.
         11    1    1    2    0    0 -0.64335764883E+02 -0.12263578392E+02  0.17593093396E+03  0.18772634211E+03  0.00000000000E+00 0.  1.
</event>
<event>
 7    1  0.4394360E-006  0.1114824E+03  0.7561462E-02  0.1257849E+00
          2   -1    0    0  501    0  0.00000000000E+00  0.00000000000E+00  0.17000804586E+03  0.17000804586E+03  0.00000000000E+00 0. -1.
         -2   -1    0    0    0  501 -0.00000000000E+00 -0.00000000000E+00 -0.14527597126E+03  0.14527597126E+03  0.00000000000E+00 0.  1.
         23    2    1    2    0    0  0.10072940621E+02  0.14648755705E+02 -0.91030290457E+02  0.14819904683E+03  0.11558716851E+03 0.  0.
          5    1    3    3  502    0 -0.44213916467E+02  0.19108455135E+02 -0.82933920872E+01  0.49053605569E+02  0.41800000000E+01 0. -1.
         -5    1    3    3    0  502  0.54286857087E+02 -0.44596994302E+01 -0.82736898370E+02  0.99145441263E+02  0.41800000000E+01 0.  1.
        -11    1    1    2    0    0  0.52941273844E+02 -0.20345980456E+02  0.62312360012E+02  0.84258931914E+02  0.00000000000E+00 0.  1.
         11    1    1    2    0    0 -0.63014214465E+02  0.56972247507E+01  0.53450005041E+02  0.82826038378E+02  0.00000000000E+00 0. -1.
</event>
<event>
 7    1  0.4394360E-006  0.1020928E+03  0.7561462E-02  0.1275956E+00
          2   -1    0    0  501    0  0.00000000000E+00  0.00000000000E+00  0.73368119819E+02  0.73368119819E+02  0.00000000000E+00 0. -1.
         -2   -1    0    0    0  501 -0.00000000000E+00 -0.00000000000E+00 -0.19040910797E+03  0.19040910797E+03  0.00000000000E+00 0.  1.
         23    2    1    2    0    0 -0.43099079422E+02 -0.31786279285E+01 -0.80758648709E+02  0.15503902394E+03  0.12508998873E+03 0.  0.
          5    1    3    3  502    0 -0.14601230278E+02 -0.61568973014E+02 -0.58372185455E+02  0.86190015654E+02  0.41800000000E+01 0.  1.
         -5    1    3    3    0  502 -0.28497849145E+02  0.58390345086E+02 -0.22386463254E+02  0.68849008287E+02  0.41800000000E+01 0.  1.
        -11    1    1    2    0    0 -0.65565855187E+01 -0.19866455169E+02 -0.48349329143E+02  0.52681329550E+02  0.00000000000E+00 0.  1.
         11    1    1    2    0    0  0.49655664941E+02  0.23045083097E+02  0.12066989699E+02  0.56056874298E+02  0.00000000000E+00 0. -1.
</event>
<event>
 7    1  0.4394360E-006  0.1020815E+03  0.7561462E-02  0.1275979E+00
         -2   -1    0    0    0  501 -0.00000000000E+00  0.00000000000E+00  0.34511578387E+03  0.34511578387E+03  0.00000000000E+00 0.  1.
          2   -1    0    0  501    0  0.00000000000E+00 -0.00000000000E+00 -0.44497706200E+02  0.44497706200E+02  0.00000000000E+00 0. -1.
         23    2    1    2    0    0  0.20406870398E+02 -0.34753968640E+02  0.23250560470E+03  0.26707812623E+03  0.12509032976E+03 0.  0.
          5    1    3    3  502    0  0.11000430377E+02 -0.74388077359E+02  0.20324257366E+03  0.21674780661E+03  0.41800000000E+01 0. -1.
         -5    1    3    3    0  502  0.94064400212E+01  0.39634108719E+02  0.29263031038E+02  0.50330319623E+02  0.41800000000E+01 0. -1.
        -11    1    1    2    0    0  0.29989480566E+02  0.90334979777E+01 -0.32225267136E+01  0.31485833461E+02  0.00000000000E+00 0. -1.
         11    1    1    2    0    0 -0.50396350964E+02  0.25720470662E+02  0.71334999680E+02  0.91049530372E+02  0.00000000000E+00 0.  1.
</event>
<event>
 7    1  0.4394360E-006  0.1126577E+03  0.7561462E-02  0.1255726E+00
          3   -1    0    0  501    0  0.00000000000E+00  0.00000000000E+00  0.16780879000E+03  0.16780879000E+03  0.00000000000E+00 0. -1.
         -3   -1    0    0    0  501 -0.00000000000E+00 -0.00000000000E+00 -0.97949680354E+02  0.97949680354E+02  0.00000000000E+00 0.  1.
         23    2    1    2    0    0  0.27451211554E+02  0.29276514413E+02 -0.12870611427E+02  0.13176756655E+03  0.12484532688E+03 0.  0.
          5    1    3    3  502    0 -0.20221391752E+02  0.60173007927E+02  0.19130380286E+02  0.66431464061E+02  0.41800000000E+01 0.  1.
         -5    1    3    3    0  502  0.47672603306E+02 -0.30896493514E+02 -0.32000991714E+02  0.65336102486E+02  0.41800000000E+01 0.  1.
        -11    1    1    2    0    0 -0.21526732009E+02  0.34510362762E+02  0.24914377066E+02  0.47697919384E+02  0.00000000000E+00 0.  1.
         11    1    1    2    0    0 -0.59244795444E+01 -0.63786877176E+02  0.57815344002E+02  0.86292984418E+02  0.00000000000E+00 0. -1.
</event>
<event>
 7    1  0.4394360E-006  0.1312749E+03  0.7561462E-02  0.1225576E+00
          4   -1    0    0  501    0  0.00000000000E+00  0.00000000000E+00  0.93282089791E+02  0.93282089791E+02  0.00000000000E+00 0. -1.
         -4   -1    0    0    0  501 -0.00000000000E+00 -0.00000000000E+00 -0.20145849271E+03  0.20145849271E+03  0.00000000000E+00 0.  1.
         23    2    1    2    0    0  0.33106465682E+02 -0.67868649624E+02 -0.93278837811E+02  0.17335078266E+03  0.12508941040E+03 0.  0.
          5    1    3    3  502    0  0.80491368022E+01  0.36975493842E+02 -0.20761093749E+02  0.43364399705E+02  0.41800000000E+01 0. -1.
         -5    1    3    3    0  502  0.25057328880E+02 -0.10484414347E+03 -0.72517744061E+02  0.12998638295E+03  0.41800000000E+01 0. -1.
        -11    1    1    2    0    0 -0.60576400132E+02  0.24669695232E+02 -0.23456578996E+02  0.69486007325E+02  0.00000000000E+00 0. -1.
         11    1    1    2    0    0  0.27469934450E+02  0.43198954393E+02  0.85590138845E+01  0.51903792520E+02  0.00000000000E+00 0.  1.
</event>
<event>
 7    1  0.4394360E-006  0.1258947E+03  0.7561462E-02  0.1233678E+00
          2   -1    0    0  501    0  0.00000000000E+00  0.00000000000E+00  0.12863095074E+03  0.12863095074E+03  0.00000000000E+00 0. -1.
         -2   -1    0    0    0  501 -0.00000000000E+00 -0.00000000000E+00 -0.14472342308E+03  0.14472342308E+03  0.00000000000E+00 0.  1.
         23    2    1    2    0    0  0.40956550986E+02  0.51439573442E+02 -0.56633807503E+02  0.15224160727E+03  0.12508657022E+03 0.  0.
          5    1    3    3  502    0 -0.38044433786E+02 -0.81859609650E+01 -0.21859045823E+01  0.39199993340E+02  0.41800000000E+01 0.  1.
         -5    1    3    3    0  502  0.79000984772E+02  0.59625534407E+02 -0.54447902921E+02  0.11304161393E+03  0.41800000000E+01 0.  1.
        -11    1    1    2    0    0  0.60614830488E+01 -0.64502521674E+02  0.28923769931E+02  0.70949991868E+02  0.00000000000E+00 0. -1.
         11    1    1    2    0    0 -0.47018034035E+02  0.13062948232E+02  0.11617565231E+02  0.50162774673E+02  0.00000000000E+00 0.  1.
</event>
<event>
 7    1  0.4394360E-006  0.1045841E+03  0.7561462E-02  0.1270941E+00
         -1   -1    0    0    0  501 -0.00000000000E+00  0.00000000000E+00  0.23391393148E+02  0.23391393148E+02  0.00000000000E+00 0.  1.
          1   -1    0    0  501    0  0.00000000000E+00 -0.00000000000E+00 -0.80139689739E+03  0.80139689739E+03  0.00000000000E+00 0. -1.
         23    2    1    2    0    0 -0.10899479679E+02 -0.67600292187E+02 -0.29206952718E+03  0.32502641179E+03  0.12509580926E+03 0.  0.
          5    1    3    3  502    0 -0.41796806611E+02 -0.17456301762E+02 -0.25814384333E+02  0.52302488971E+02  0.41800000000E+01 0. -1.
         -5    1    3    3    0  502  0.30897326931E+02 -0.50143990425E+02 -0.26625514285E+03  0.27272392282E+03  0.41800000000E+01 0. -1.
        -11    1    1    2    0    0 -0.11044791055E+02 -0.15304281876E+02 -0.27375465171E+02  0.33250933017E+02  0.00000000000E+00 0.  1.
         11    1    1    2    0    0  0.21944270735E+02  0.82904574063E+02 -0.45856051189E+03  0.46651094573E+03  0.00000000000E+00 0. -1.
</event>
<event>
 7    1  0.4394360E-006  0.1449541E+03  0.7561462E-02  0.1206814E+00
          2   -1    0    0  501    0  0.00000000000E+00  0.00000000000E+00  0.91029898053E+03  0.91029898053E+03  0.00000000000E+00 0. -1.
         -2   -1    0    0    0  501 -0.00000000000E+00 -0.00000000000E+00 -0.24190797496E+02  0.24190797496E+02  0.00000000000E+00 0.  1.
         23    2    1    2    0    0 -0.99297700386E+02 -0.73250589641E+01  0.54485031178E+03  0.56785180738E+03  0.12522029833E+03 0.  0.
          5    1    3    3  502    0  0.27354033769E+02  0.14224093255E+02  0.12126192929E+03  0.12518983940E+03  0.41800000000E+01 0.  1.
         -5    1    3    3    0  502 -0.12665173416E+03 -0.21549152219E+02  0.42358838248E+03  0.44266196799E+03  0.41800000000E+01 0.  1.
        -11    1    1    2    0    0  0.92852708028E+02 -0.25910719050E+02  0.20974653408E+03  0.23083890337E+03  0.00000000000E+00 0.  1.
         11    1    1    2    0    0  0.64449923588E+01  0.33235778014E+02  0.13151133717E+03  0.13579906727E+03  0.00000000000E+00 0. -1.
</event>
<event>
 7    1  0.4394360E-006  0.3559420E+03  0.7561462E-02  0.1060202E+00
         -2   -1    0    0    0  501 -0.00000000000E+00  0.00000000000E+00  0.31215970859E+03  0.31215970859E+03  0.00000000000E+00 0. -1.
          2   -1    0    0  501    0  0.00000000000E+00 -0.00000000000E+00 -0.42072774319E+03  0.42072774319E+03  0.00000000000E+00 0.  1.
         23    2    1    2    0    0 -0.30247985185E+03  0.16227220139E+03 -0.17807821826E+02  0.36577557728E+03  0.12509327040E+03 0.  0.
          5    1    3    3  502    0 -0.69810244147E+02  0.95538517039E+02 -0.33891477131E+02  0.12315511783E+03  0.41800000000E+01 0.  1.
         -5    1    3    3    0  502 -0.23266960770E+03  0.66733684346E+02  0.16083655305E+02  0.24262045945E+03  0.41800000000E+01 0.  1.
        -11    1    1    2    0    0  0.11944990973E+02 -0.29764077932E+02  0.76399232453E+01  0.32968948598E+02  0.00000000000E+00 0. -1.
         11    1    1    2    0    0  0.29053486087E+03 -0.13250812345E+03 -0.98400136025E+02  0.33414292591E+03  0.00000000000E+00 0.  1.
</event>
<event>
 7    1  0.4394360E-006  0.6400410E+02  0.7561462E-02  0.1381757E+00
         -1   -1    0    0    0  501 -0.00000000000E+00  0.00000000000E+00  0.57194529504E+02  0.57194529504E+02  0.00000000000E+00 0.  1.
          1   -1    0    0  501    0  0.00000000000E+00 -0.00000000000E+00 -0.24846567167E+03  0.24846567167E+03  0.00000000000E+00 0. -1.
         23    2    1    2    0    0 -0.33450114961E+02 -0.25445831708E+02 -0.74236404175E+02  0.15140995138E+03  0.12509008406E+03 0.  0.
          5    1    3    3  502    0 -0.10557589866E+02 -0.24207212109E+02 -0.10751121904E+03  0.11078621955E+03  0.41800000000E+01 0. -1.
         -5    1    3    3    0  502 -0.22892525095E+02 -0.12386195990E+01  0.33274814867E+02  0.40623731834E+02  0.41800000000E+01 0. -1.
        -11    1    1    2    0    0  0.14945477548E+02  0.47139722224E+02 -0.20396857277E+02  0.53493480886E+02  0.00000000000E+00 0.  1.
         11    1    1    2    0    0  0.18504637413E+02 -0.21693890517E+02 -0.96637880716E+02  0.10075676891E+03  0.00000000000E+00 0. -1.
</event>
<event>
 7    1  0.4394360E-006  0.1249911E+03  0.7561462E-02  0.1235083E+00
          4   -1    0    0  501    0  0.00000000000E+00  0.00000000000E+00  0.12599438517E+03  0.12599438517E+03  0.00000000000E+00 0. -1.
         -4   -1    0    0    0  501 -0.00000000000E+00 -0.00000000000E+00 -0.13345239719E+03  0.13345239719E+03  0.00000000000E+00 0.  1.
         23    2    1    2    0    0 -0.35844864741E+02  0.34497161702E+02 -0.30963420842E+02  0.13812243761E+03  0.12507663989E+03 0.  0.
          5    1    3    3  502    0  0.22189777423E+01 -0.44582371261E+02  0.38523223933E+00  0.44834501150E+02  0.41800000000E+01 0. -1.
         -5    1    3    3    0  502 -0.38063842483E+02  0.79079532963E+02 -0.31348653082E+02  0.93287936456E+02  0.41800000000E+01 0. -1.
        -11    1    1    2    0    0  0.64307032065E+02 -0.53004670140E+02  0.71566887279E+01  0.83642738018E+02  0.00000000000E+00 0.  1.
         11    1    1    2    0    0 -0.28462167323E+02  0.18507508438E+02  0.16348720101E+02  0.37681606737E+02  0.00000000000E+00 0. -1.
</event>
<event>
 7    1  0.4394360E-006  0.1612422E+03  0.7561462E-02  0.1187301E+00
         -1   -1    0    0    0  501 -0.00000000000E+00  0.00000000000E+00  0.73385628331E+03  0.73385628331E+03  0.00000000000E+00 0.  1.
          1   -1    0    0  501    0  0.00000000000E+00 -0.00000000000E+00 -0.46745584268E+02  0.46745584268E+02  0.00000000000E+00 0. -1.
         23    2    1    2    0    0 -0.98782897343E+02 -0.10987285188E+03  0.41733088388E+03  0.46004596606E+03  0.12508844815E+03 0.  0.
          5    1    3    3  502    0 -0.53476677021E+02 -0.29652066716E+01  0.25391794564E+03  0.25953871186E+03  0.41800000000E+01 0.  1.
         -5    1    3    3    0  502 -0.45306220322E+02 -0.10690764520E+03  0.16341293825E+03  0.20050725421E+03  0.41800000000E+01 0.  1.
        -11    1    1    2    0    0  0.48129575396E+02  0.81140020375E+02  0.23376553372E+03  0.25208427894E+03  0.00000000000E+00 0.  1.
         11    1    1    2    0    0  0.50653321947E+02  0.28732831500E+02  0.36014281440E+02  0.68471622574E+02  0.00000000000E+00 0. -1.
</event>
<event>
 7    1  0.4394360E-006  0.1329843E+03  0.7561462E-02  0.1223094E+00
         -1   -1    0    0    0  501 -0.00000000000E+00  0.00000000000E+00  0.53828775102E+02  0.53828775102E+02  0.00000000000E+00 0.  1.
          1   -1    0    0  501    0  0.00000000000E+00 -0.00000000000E+00 -0.39700917829E+03  0.39700917829E+03  0.00000000000E+00 0. -1.
         23    2    1    2    0    0 -0.73106612239E+01 -0.89974799916E+02 -0.12760725850E+03  0.20019903918E+03  0.12508849859E+03 0.  0.
          5    1    3    3  502    0  0.58810610711E+02 -0.41841944580E+02 -0.56816979218E+02  0.91951496920E+02  0.41800000000E+01 0. -1.
         -5    1    3    3    0  502 -0.66121271935E+02 -0.48132855336E+02 -0.70790279285E+02  0.10824754226E+03  0.41800000000E+01 0. -1.
        -11    1    1    2    0    0  0.34173054276E+02  0.27809783991E+02 -0.30556254453E+02  0.53617780730E+02  0.00000000000E+00 0.  1.
         11    1    1    2    0    0 -0.26862393052E+02  0.62165015925E+02 -0.18501689023E+03  0.19702113348E+03  0.00000000000E+00 0. -1.
</event>
<event>
 6    1  0.4394360E-006  0.1411875E+03  0.7561462E-02  0.1211740E+00
         -1   -1    0    0    0  501 -0.00000000000E+00  0.00000000000E+00  0.29319037441E+02  0.29319037441E+02  0.00000000000E+00 0.  1.
          1   -1    0    0  501    0  0.00000000000E+00 -0.00000000000E+00 -0.77322363673E+03  0.77322363673E+03  0.00000000000E+00 0. -1.
          5    1    1    2  502    0 -0.11635629858E+03  0.45183692979E+02 -0.26831790178E+03  0.29596000262E+03  0.41800000000E+01 0. -1.
         -5    1    1    2    0  502  0.46059731685E+02 -0.37386113904E+02 -0.17869219881E+03  0.18832842247E+03  0.41800000000E+01 0.  1.
        -11    1    1    2    0    0 -0.10849443378E+02 -0.12719966751E+02 -0.87671793102E+01  0.18877802012E+02  0.00000000000E+00 0.  1.
         11    1    1    2    0    0  0.81146010274E+02  0.49223876758E+01 -0.28812731939E+03  0.29937644707E+03  0.00000000000E+00 0. -1.
</event>
<event>
 7    1  0.4394360E-006  0.1040881E+03  0.7561462E-02  0.1271927E+00
         -1   -1    0    0    0  501 -0.00000000000E+00  0.00000000000E+00  0.50943595560E+02  0.50943595560E+02  0.00000000000E+00 0.  1.
          1   -1    0    0  501    0  0.00000000000E+00 -0.00000000000E+00 -0.32787767656E+03  0.32787767656E+03  0.00000000000E+00 0. -1.
         23    2    1    2    0    0  0.64832687065E+02 -0.48482653236E+01 -0.11594805734E+03  0.18254794574E+03  0.12511201982E+03 0.  0.
          5    1    3    3  502    0 -0.21635221875E+02 -0.18643694982E+02 -0.84701153804E+02  0.89484233494E+02  0.41800000000E+01 0. -1.
         -5    1    3    3    0  502  0.86467908940E+02  0.13795429658E+02 -0.31246903533E+02  0.93063712242E+02  0.41800000000E+01 0. -1.
        -11    1    1    2    0    0 -0.28429318259E+02 -0.29947496022E+02 -0.18682766514E+02  0.45322449397E+02  0.00000000000E+00 0.  1.
         11    1    1    2    0    0 -0.36403368806E+02  0.34795761346E+02 -0.14230325715E+03  0.15095087699E+03  0.00000000000E+00 0. -1.
</event>
<event>
 7    1  0.4394360E-006  0.2636895E+03  0.7561462E-02  0.1104947E+00
         -1   -1    0    0    0  501 -0.00000000000E+00  0.00000000000E+00  0.29654678541E+03  0.29654678541E+03  0.00000000000E+00 0.  1.
          1   -1    0    0  501    0  0.00000000000E+00 -0.00000000000E+00 -0.28803790624E+03  0.28803790624E+03  0.00000000000E+00 0. -1.
         23    2    1    2    0    0  0.47216646631E+02  0.23698080953E+03  0.12610641149E+03  0.29979885476E+03  0.12484875046E+03 0.  0.
          5    1    3    3  502    0  0.80652088911E+02  0.10789175453E+03  0.38386383106E+02  0.14012985745E+03  0.41800000000E+01 0.  1.
         -5    1    3    3    0  502 -0.33435442280E+02  0.12908905500E+03  0.87720028386E+02  0.15966899731E+03  0.41800000000E+01 0.  1.
        -11    1    1    2    0    0 -0.21361075756E+02 -0.23185408505E+03 -0.10239170992E+03  0.25435540996E+03  0.00000000000E+00 0.  1.
         11    1    1    2    0    0 -0.25855570875E+02 -0.51267244726E+01 -0.15205822399E+02  0.30430426942E+02  0.00000000000E+00 0. -1.
</event>
<event>
 7    1  0.4394360E-006  0.1051531E+03  0.7561462E-02  0.1269818E+00
          1   -1    0    0  501    0  0.00000000000E+00  0.00000000000E+00  0.39409341819E+02  0.39409341819E+02  0.00000000000E+00 0. -1.
         -1   -1    0    0    0  501 -0.00000000000E+00 -0.00000000000E+00 -0.39709791126E+03  0.39709791126E+03  0.00000000000E+00 0.  1.
         23    2    1    2    0    0  0.53934613678E+02  0.17825485958E+02 -0.23318106409E+03  0.27064305055E+03  0.12509021406E+03 0.  0.
          5    1    3    3  502    0 -0.17335331190E+02  0.41421348245E+02 -0.30441782570E+02  0.54409707993E+02  0.41800000000E+01 0.  1.
         -5    1    3    3    0  502  0.71269944868E+02 -0.23595862287E+02 -0.20273928152E+03  0.21623334255E+03  0.41800000000E+01 0.  1.
        -11    1    1    2    0    0  0.50710406020E+01 -0.29446255045E+02 -0.93588340239E+02  0.98242428806E+02  0.00000000000E+00 0.  1.
         11    1    1    2    0    0 -0.59005654280E+02  0.11620769087E+02 -0.30919165110E+02  0.67621773729E+02  0.00000000000E+00 0. -1.
</event>
<event>
 7    1  0.4394360E-006  0.1259145E+03  0.7561462E-02  0.1233647E+00
         -3   -1    0    0    0  501 -0.00000000000E+00  0.00000000000E+00  0.43271638535E+03  0.43271638535E+03  0.00000000000E+00 0.  1.
          3   -1    0    0  501    0  0.00000000000E+00 -0.00000000000E+00 -0.64460302608E+02  0.64460302608E+02  0.00000000000E+00 0. -1.
         23    2    1    2    0    0  0.10481323074E+03 -0.40013286557E+02  0.28092244813E+03  0.32734009279E+03  0.12508892056E+03 0.  0.
          5    1    3    3  502    0  0.87103104131E+02 -0.18797181219E+02  0.66912242021E+02  0.11151235494E+03  0.41800000000E+01 0.  1.
         -5    1    3    3    0  502  0.17710126611E+02 -0.21216105338E+02  0.21401020611E+03  0.21582773786E+03  0.41800000000E+01 0.  1.
        -11    1    1    2    0    0 -0.53042917986E+02 -0.18839748161E+02  0.69527173346E+02  0.89456777792E+02  0.00000000000E+00 0.  1.
         11    1    1    2    0    0 -0.51770312756E+02  0.58853034719E+02  0.17806461267E+02  0.80379817375E+02  0.00000000000E+00 0. -1.
</event>
<event>
 7    1  0.4394360E-006  0.1091287E+03  0.7561462E-02  0.1262192E+00
         -2   -1    0    0    0  501 -0.00000000000E+00  0.00000000000E+00  0.73795561846E+02  0.73795561846E+02  0.00000000000E+00 0. -1.
          2   -1    0    0  501    0  0.00000000000E+00 -0.00000000000E+00 -0.27440299671E+03  0.27440299671E+03  0.00000000000E+00 0.  1.
         23    2    1    2    0    0  0.63649045786E+02 -0.67622198278E+02 -0.10147173960E+03  0.18592357812E+03  0.12508836970E+03 0.  0.
          5    1    3    3  502    0  0.53996438032E+01 -0.54109762363E+02 -0.11245601395E+03  0.12498339893E+03  0.41800000000E+01 0.  1.
         -5    1    3    3    0  502  0.58249401983E+02 -0.13512435915E+02  0.10984274350E+02  0.60940179181E+02  0.41800000000E+01 0.  1.
        -11    1    1    2    0    0 -0.56804694409E+02  0.27566656892E+02 -0.10367242542E+03  0.12138643116E+03  0.00000000000E+00 0.  1.
         11    1    1    2    0    0 -0.68443513772E+01  0.40055541386E+02  0.45367301489E+01  0.40888549277E+02  0.00000000000E+00 0. -1.
</event>
<event>
 7    1  0.4394360E-006  0.1315875E+03  0.7561462E-02  0.1225119E+00
         -2   -1    0    0    0  501 -0.00000000000E+00  0.00000000000E+00  0.72832002126E+02  0.72832002126E+02  0.00000000000E+00 0.  1.
          2   -1    0    0  501    0  0.00000000000E+00 -0.00000000000E+00 -0.61409119013E+03  0.61409119013E+03  0.00000000000E+00 0. -1.
         23    2    1    2    0    0 -0.51656230291E+02  0.80651580944E+02 -0.19978231305E+02  0.14961428804E+03  0.11319126214E+03 0.  0.
          5    1    3    3  502    0  0.32549994276E+02  0.93442166329E+01 -0.19277285953E+02  0.39190594096E+02  0.41800000000E+01 0. -1.
         -5    1    3    3    0  502 -0.84206224568E+02  0.71307364311E+02 -0.70094535181E+00  0.11042369395E+03  0.41800000000E+01 0.  1.
        -11    1    1    2    0    0  0.44867072224E+02 -0.78914841553E+01 -0.10204893978E+03  0.11175560748E+03  0.00000000000E+00 0.  1.
         11    1    1    2    0    0  0.67891580672E+01 -0.72760096789E+02 -0.41923201692E+03  0.42555329673E+03  0.00000000000E+00 0. -1.
</event>
<event>
 6    1  0.4394360E-006  0.1793135E+03  0.7561462E-02  0.1168469E+00
         -2   -1    0    0    0  501 -0.00000000000E+00  0.00000000000E+00  0.22869686053E+03  0.22869686053E+03  0.00000000000E+00 0.  1.
          2   -1    0    0  501    0  0.00000000000E+00 -0.00000000000E+00 -0.16050423516E+03  0.16050423516E+03  0.00000000000E+00 0. -1.
          5    1    1    2  502    0  0.77707590775E+02 -0.74459446357E+02  0.63574613557E+02  0.12506751259E+03  0.41800000000E+01 0. -1.
         -5    1    1    2    0  502 -0.10342504031E+03  0.11002489969E+03  0.40512736358E+02  0.15640003748E+03  0.41800000000E+01 0.  1.
        -11    1    1    2    0    0  0.46870416402E+02  0.11500064583E+02 -0.75106462700E+01  0.48841552253E+02  0.00000000000E+00 0.  1.
         11    1    1    2    0    0 -0.21152966869E+02 -0.47065517921E+02 -0.28384078269E+02  0.58891993375E+02  0.00000000000E+00 0. -1.
</event>
<event>
 7    1  0.4394360E-006  0.1063392E+03  0.7561462E-02  0.1267503E+00
         -4   -1    0    0    0  501 -0.00000000000E+00  0.00000000000E+00  0.21169348942E+03  0.21169348942E+03  0.00000000000E+00 0.  1.
          4   -1    0    0  501    0  0.00000000000E+00 -0.00000000000E+00 -0.79629274450E+02  0.79629274450E+02  0.00000000000E+00 0. -1.
         23    2    1    2    0    0  0.60160496622E+02 -0.36976751487E+02  0.89059829573E+02  0.16901422605E+03  0.12509032680E+03 0.  0.
          5    1    3    3  502    0  0.94983655900E+02 -0.33285891100E+02  0.87957064909E+02  0.13373018770E+03  0.41800000000E+01 0. -1.
         -5    1    3    3    0  502 -0.34823159278E+02 -0.36908603878E+01  0.11027646650E+01  0.35284038352E+02  0.41800000000E+01 0. -1.
        -11    1    1    2    0    0 -0.44681237330E+02  0.10327879316E+02 -0.21628847656E+02  0.50703896412E+02  0.00000000000E+00 0. -1.
         11    1    1    2    0    0 -0.15479259293E+02  0.26648872171E+02  0.64633233053E+02  0.71604641408E+02  0.00000000000E+00 0.  1.
</event>
<event>
 7    1  0.4394360E-006  0.1620728E+03  0.7561462E-02  0.1186376E+00
          3   -1    0    0  501    0  0.00000000000E+00  0.00000000000E+00  0.96051053582E+02  0.96051053582E+02  0.00000000000E+00 0. -1.
         -3   -1    0    0    0  501 -0.00000000000E+00 -0.00000000000E+00 -0.30005477574E+03  0.30005477574E+03  0.00000000000E+00 0.  1.
         23    2    1    2    0    0  0.75665476549E+02 -0.10087123006E+03 -0.72477690945E+02  0.19183637406E+03  0.12509160376E+03 0.  0.
          5    1    3    3  502    0  0.40898714190E+02  0.22593438375E+02 -0.59612185790E+01  0.47288231168E+02  0.41800000000E+01 0.  1.
         -5    1    3    3    0  502  0.34766762359E+02 -0.12346466844E+03 -0.66516472366E+02  0.14454814289E+03  0.41800000000E+01 0.  1.
        -11    1    1    2    0    0  0.15899209933E+02  0.26648650580E+02 -0.51468055530E+01  0.31455127748E+02  0.00000000000E+00 0. -1.
         11    1    1    2    0    0 -0.91564686483E+02  0.74222579482E+02 -0.12637922566E+03  0.17281432751E+03  0.00000000000E+00 0.  1.
</event>
<event>
 7    1  0.4394360E-006  0.8937311E+02  0.7561462E-02  0.1304377E+00
          1   -1    0    0  501    0  0.00000000000E+00  0.00000000000E+00  0.27117646437E+03  0.27117646437E+03  0.00000000000E+00 0. -1.
         -1   -1    0    0    0  501 -0.00000000000E+00 -0.00000000000E+00 -0.59709844812E+02  0.59709844812E+02  0.00000000000E+00 0.  1.
         23    2    1    2    0    0 -0.44542031307E+01  0.63802492559E+02  0.96587015561E+02  0.17049098819E+03  0.12509007753E+03 0.  0.
          5    1    3    3  502    0 -0.14764953447E+02  0.48248739430E+02 -0.18441121046E+02  0.53884061209E+02  0.41800000000E+01 0. -1.
         -5    1    3    3    0  502  0.10310750317E+02  0.15553753129E+02  0.11502813661E+03  0.11660692698E+03  0.41800000000E+01 0. -1.
        -11    1    1    2    0    0 -0.41682311824E+02 -0.36353525665E+02  0.39987464418E+02  0.68249478077E+02  0.00000000000E+00 0. -1.
         11    1    1    2    0    0  0.46136514955E+02 -0.27448966894E+02  0.74892139576E+02  0.92145842912E+02  0.00000000000E+00 0.  1.
</event>
<event>
 7    1  0.4394360E-006  0.1427183E+03  0.7561462E-02  0.1209717E+00
          2   -1    0    0  501    0  0.00000000000E+00  0.00000000000E+00  0.62504506342E+03  0.62504506342E+03  0.00000000000E+00 0. -1.
         -2   -1    0    0    0  501 -0.00000000000E+00 -0.00000000000E+00 -0.41212796433E+02  0.41212796433E+02  0.00000000000E+00 0.  1.
         23    2    1    2    0    0 -0.36100499416E+02 -0.10368955922E+03  0.22434251846E+03  0.27934229206E+03  0.12509108600E+03 0.  0.
          5    1    3    3  502    0 -0.11421434547E+02 -0.12449336311E+03  0.13397213738E+03  0.18328953221E+03  0.41800000000E+01 0.  1.
         -5    1    3    3    0  502 -0.24679064870E+02  0.20803803881E+02  0.90370381077E+02  0.96052759850E+02  0.41800000000E+01 0.  1.
        -11    1    1    2    0    0 -0.13899680213E+02  0.59411201423E+02  0.86368445792E+02  0.10574686942E+03  0.00000000000E+00 0.  1.
         11    1    1    2    0    0  0.50000179629E+02  0.44278357802E+02  0.27312130274E+03  0.28116869837E+03  0.00000000000E+00 0. -1.
</event>
<event>
 7    1  0.4394360E-006  0.1648547E+03  0.7561462E-02  0.1183322E+00
          3   -1    0    0  501    0  0.00000000000E+00  0.00000000000E+00  0.98407483269E+03  0.98407483269E+03  0.00000000000E+00 0. -1.
         -3   -1    0    0    0  501 -0.00000000000E+00 -0.00000000000E+00 -0.33511879077E+02  0.33511879077E+02  0.00000000000E+00 0.  1.
         23    2    1    2    0    0  0.13136189065E+03 -0.15893520796E+02  0.33251998310E+03  0.37911053590E+03  0.12508680567E+03 0.  0.
          5    1    3    3  502    0  0.61204076535E+02 -0.60729491634E+02  0.23751575358E+03  0.25271568162E+03  0.41800000000E+01 0.  1.
         -5    1    3    3    0  502  0.70157814116E+02  0.44835970838E+02  0.95004229521E+02  0.12639485428E+03  0.41800000000E+01 0.  1.
        -11    1    1    2    0    0 -0.72663238431E+01  0.33861104341E+02  0.14774190424E+03  0.15174664450E+03  0.00000000000E+00 0.  1.
         11    1    1    2    0    0 -0.12409556681E+03 -0.17967583545E+02  0.47030106628E+03  0.48672953137E+03  0.00000000000E+00 0. -1.
</event>
<event>
 7    1  0.4394360E-006  0.1178994E+03  0.7561462E-02  0.1246603E+00
         -2   -1    0    0    0  501 -0.00000000000E+00  0.00000000000E+00  0.12561087673E+03  0.12561087673E+03  0.00000000000E+00 0.  1.
          2   -1    0    0  501    0  0.00000000000E+00 -0.00000000000E+00 -0.12547543888E+03  0.12547543888E+03  0.00000000000E+00 0. -1.
         23    2    1    2    0    0 -0.31167827670E+02 -0.45620118505E+02  0.30382807194E+02  0.14008279117E+03  0.12508974664E+03 0.  0.
          5    1    3    3  502    0 -0.73410549311E+02 -0.10347920120E+02  0.39558813990E+02  0.84134180719E+02  0.41800000000E+01 0. -1.
         -5    1    3    3    0  502  0.42242721641E+02 -0.35272198385E+02 -0.91760067967E+01  0.55948610450E+02  0.41800000000E+01 0. -1.
        -11    1    1    2    0    0 -0.32109439789E+02  0.21461903108E+02 -0.15911994530E+02  0.41771054314E+02  0.00000000000E+00 0. -1.
         11    1    1    2    0    0  0.63277267459E+02  0.24158215397E+02 -0.14335374819E+02  0.69232470124E+02  0.00000000000E+00 0.  1.
</event>
<event>
 7    1  0.4394360E-006  0.9902763E+02  0.7561462E-02  0.1282354E+00
         -1   -1    0    0    0  501 -0.00000000000E+00  0.00000000000E+00  0.56560934084E+02  0.56560934084E+02  0.00000000000E+00 0.  1.
          1   -1    0    0  501    0  0.00000000000E+00 -0.00000000000E+00 -0.25552161002E+03  0.25552161002E+03  0.00000000000E+00 0. -1.
         23    2    1    2    0    0 -0.20886701779E+02  0.36165498460E+02 -0.72571698209E+02  0.15052736064E+03  0.12509051654E+03 0.  0.
          5    1    3    3  502    0  0.50495530621E+02 -0.21855254742E+01 -0.29276789651E+02  0.58559183281E+02  0.41800000000E+01 0. -1.
         -5    1    3    3    0  502 -0.71382232400E+02  0.38351023934E+02 -0.43294908558E+02  0.91968177356E+02  0.41800000000E+01 0. -1.
        -11    1    1    2    0    0  0.39154799644E+01 -0.46278627002E+02 -0.15563021279E+02  0.48982138907E+02  0.00000000000E+00 0.  1.
         11    1    1    2    0    0  0.16971221815E+02  0.10113128543E+02 -0.11082595645E+03  0.11257304456E+03  0.00000000000E+00 0. -1.
</event>
<event>
 7    1  0.4394360E-006  0.9272532E+02  0.7561462E-02  0.1296383E+00
         -2   -1    0    0    0  501 -0.00000000000E+00  0.00000000000E+00  0.86463492700E+02  0.86463492700E+02  0.00000000000E+00 0.  1.
          2   -1    0    0  501    0  0.00000000000E+00 -0.00000000000E+00 -0.15579065736E+03  0.15579065736E+03  0.00000000000E+00 0. -1.
         23    2    1    2    0    0 -0.14601866254E+02  0.38750357507E+02 -0.53563877977E+02  0.14223724665E+03  0.12509012993E+03 0.  0.
          5    1    3    3  502    0  0.54053001902E+02  0.15371251640E+02 -0.91496627708E+01  0.57089325801E+02  0.41800000000E+01 0. -1.
         -5    1    3    3    0  502 -0.68654868156E+02  0.23379105867E+02 -0.44414215207E+02  0.85147920850E+02  0.41800000000E+01 0. -1.
        -11    1    1    2    0    0  0.26278009053E+02 -0.35800509020E+02 -0.48126465764E+02  0.65485623711E+02  0.00000000000E+00 0. -1.
         11    1    1    2    0    0 -0.11676142799E+02 -0.29498484871E+01  0.32363179086E+02  0.34531279694E+02  0.00000000000E+00 0.  1.
</event>
<event>
 7    1  0.4394360E-006  0.1133427E+03  0.7561462E-02  0.1254502E+00
          1   -1    0    0  501    0  0.00000000000E+00  0.00000000000E+00  0.93806157948E+03  0.93806157948E+03  0.00000000000E+00 0. -1.
         -1   -1    0    0    0  501 -0.00000000000E+00 -0.00000000000E+00 -0.14404513312E+02  0.14404513312E+02  0.00000000000E+00 0.  1.
         23    2    1    2    0    0  0.17450974150E+02 -0.38117500927E+02  0.45870403606E+03  0.47729871384E+03  0.12508872516E+03 0.  0.
          5    1    3    3  502    0 -0.52711285789E+02 -0.69167380122E+01  0.15133607046E+03  0.16045684633E+03  0.41800000000E+01 0. -1.
         -5    1    3    3    0  502  0.70162259939E+02 -0.31200762914E+02  0.30736796560E+03  0.31684186751E+03  0.41800000000E+01 0. -1.
        -11    1    1    2    0    0  0.31367555437E+02  0.35780361308E+02  0.27135606146E+03  0.27549640629E+03  0.00000000000E+00 0.  1.
         11    1    1    2    0    0 -0.48818529587E+02  0.23371396183E+01  0.19359696865E+03  0.19967097266E+03  0.00000000000E+00 0. -1.
</event>
<event>
 6    1  0.4394360E-006  0.1409062E+03  0.7561462E-02  0.1212115E+00
          1   -1    0    0  501    0  0.00000000000E+00  0.00000000000E+00  0.85761673146E+02  0.85761673146E+02  0.00000000000E+00 0. -1.
         -1   -1    0    0    0  501 -0.00000000000E+00 -0.00000000000E+00 -0.24016786572E+03  0.24016786572E+03  0.00000000000E+00 0.  1.
          5    1    1    2  502    0  0.29942104222E+02  0.31410496509E+02 -0.38177717173E+02  0.57949627995E+02  0.41800000000E+01 0. -1.
         -5    1    1    2    0  502 -0.21495007928E+02 -0.11355778138E+03 -0.70142061167E+02  0.13525822054E+03  0.41800000000E+01 0.  1.
        -11    1    1    2    0    0 -0.26400171602E+02 -0.10340017423E+02 -0.12427306310E+01  0.28380088096E+02  0.00000000000E+00 0.  1.
         11    1    1    2    0    0  0.17953075308E+02  0.92487302295E+02 -0.44843683603E+02  0.10434160224E+03  0.00000000000E+00 0. -1.
</event>
<event>
 7    1  0.4394360E-006  0.1115958E+03  0.7561462E-02  0.1257643E+00
         -1   -1    0    0    0  501 -0.00000000000E+00  0.00000000000E+00  0.88425155429E+03  0.88425155429E+03  0.00000000000E+00 0.  1.
          1   -1    0    0  501    0  0.00000000000E+00 -0.00000000000E+00 -0.16194876959E+02  0.16194876959E+02  0.00000000000E+00 0. -1.
         23    2    1    2    0    0  0.17660501305E+02 -0.48384825607E+02  0.51063338624E+03  0.52824670739E+03  0.12508055031E+03 0.  0.
          5    1    3    3  502    0  0.54560297711E+02 -0.68701378844E+02  0.40567328118E+03  0.41507226962E+03  0.41800000000E+01 0.  1.
         -5    1    3    3    0  502 -0.36899796406E+02  0.20316553236E+02  0.10496010506E+03  0.11317443777E+03  0.41800000000E+01 0.  1.
        -11    1    1    2    0    0 -0.46742081133E+02  0.42884019157E+02  0.30902857413E+03  0.31547190188E+03  0.00000000000E+00 0.  1.
         11    1    1    2    0    0  0.29081579828E+02  0.55008064505E+01  0.48394716960E+02  0.56727821979E+02  0.00000000000E+00 0. -1.
</event>
<event>
 7    1  0.4394360E-006  0.1849921E+03  0.7561462E-02  0.1163057E+00
          1   -1    0    0  501    0  0.00000000000E+00  0.00000000000E+00  0.11118566253E+03  0.11118566253E+03  0.00000000000E+00 0. -1.
         -1   -1    0    0    0  501 -0.00000000000E+00 -0.00000000000E+00 -0.33106730038E+03  0.33106730038E+03  0.00000000000E+00 0.  1.
         23    2    1    2    0    0  0.28832814240E+02 -0.15483199973E+03 -0.12862538104E+03  0.23873910300E+03  0.12509033271E+03 0.  0.
          5    1    3    3  502    0 -0.35003669941E+02 -0.19419369860E+02  0.15949181374E+01  0.40278840587E+02  0.41800000000E+01 0. -1.
         -5    1    3    3    0  502  0.63836484181E+02 -0.13541262987E+03 -0.13022029917E+03  0.19846026241E+03  0.41800000000E+01 0. -1.
        -11    1    1    2    0    0 -0.66827736159E+01  0.15751915406E+03 -0.89103767521E+02  0.18109783197E+03  0.00000000000E+00 0. -1.
         11    1    1    2    0    0 -0.22150040624E+02 -0.26871543307E+01 -0.21524892940E+01  0.22416027931E+02  0.00000000000E+00 0.  1.
</event>
<event>
 7    1  0.4394360E-006  0.1019258E+03  0.7561462E-02  0.1276298E+00
          2   -1    0    0  501    0  0.00000000000E+00  0.00000000000E+00  0.52316574460E+02  0.52316574460E+02  0.00000000000E+00 0.  1.
         -2   -1    0    0    0  501 -0.00000000000E+00 -0.00000000000E+00 -0.28044423509E+03  0.28044423509E+03  0.00000000000E+00 0. -1.
         23    2    1    2    0    0 -0.49474226988E+02  0.13868429017E+02 -0.12854576095E+03  0.18658008676E+03  0.12509230054E+03 0.  0.
          5    1    3    3  502    0  0.25865046685E+02  0.20231370721E+02 -0.10053150176E+03  0.10584122187E+03  0.41800000000E+01 0. -1.
         -5    1    3    3    0  502 -0.75339273673E+02 -0.63629417040E+01 -0.28014259196E+02  0.80738864886E+02  0.41800000000E+01 0. -1.
        -11    1    1    2    0    0  0.68481193830E+02  0.44538464040E+01 -0.36349042534E+02  0.77657990891E+02  0.00000000000E+00 0.  1.
         11    1    1    2    0    0 -0.19006966842E+02 -0.18322275421E+02 -0.63232857142E+02  0.68522731903E+02  0.00000000000E+00 0. -1.
</event>
<event>
 7    1  0.7511341E-006  0.1775427E+03  0.7561462E-02  0.1170203E+00
         -1   -1    0    0    0  501 -0.00000000000E+00  0.00000000000E+00  0.28274471058E+03  0.28274471058E+03  0.00000000000E+00 0.  1.
          1   -1    0    0  501    0  0.00000000000E+00 -0.00000000000E+00 -0.12643468669E+03  0.12643468669E+03  0.00000000000E+00 0. -1.
         23    2    1    2    0    0 -0.46417080935E+02  0.14478145964E+03  0.11226070570E+03  0.22664089342E+03  0.12508961615E+03 0.  0.
          5    1    3    3  502    0 -0.46128552469E+02  0.16649574045E+03  0.88426426379E+02  0.19412722690E+03  0.41800000000E+01 0.  1.
         -5    1    3    3    0  502 -0.28852846638E+00 -0.21714280814E+02  0.23834279320E+02  0.32513666522E+02  0.41800000000E+01 0.  1.
        -11    1    1    2    0    0  0.28435390014E+02 -0.21713834283E+02  0.45842149028E+02  0.58151222103E+02  0.00000000000E+00 0.  1.
         11    1    1    2    0    0  0.17981690921E+02 -0.12306762535E+03 -0.17928308383E+01  0.12438728175E+03  0.00000000000E+00 0. -1.
</event>
<event>
 7    1  0.4394360E-006  0.1063792E+03  0.7561462E-02  0.1267426E+00
         -1   -1    0    0    0  501 -0.00000000000E+00  0.00000000000E+00  0.15775040795E+03  0.15775040795E+03  0.00000000000E+00 0.  1.
          1   -1    0    0  501    0  0.00000000000E+00 -0.00000000000E+00 -0.11688865624E+03  0.11688865624E+03  0.00000000000E+00 0. -1.
         23    2    1    2    0    0  0.54609899624E+02 -0.37692086369E+02  0.35558959297E+02  0.14599409460E+03  0.12508757556E+03 0.  0.
          5    1    3    3  502    0  0.60418398864E+02 -0.78861525858E+02  0.20134441929E+02  0.10145142352E+03  0.41800000000E+01 0.  1.
         -5    1    3    3    0  502 -0.58084992397E+01  0.41169439489E+02  0.15424517368E+02  0.44542671083E+02  0.41800000000E+01 0.  1.
        -11    1    1    2    0    0 -0.30803063007E+02  0.51702986893E+01  0.55853500830E+02  0.63993548378E+02  0.00000000000E+00 0.  1.
         11    1    1    2    0    0 -0.23806836617E+02  0.32521787680E+02 -0.50550708413E+02  0.64651421212E+02  0.00000000000E+00 0. -1.
</event>
<event>
 7    1  0.4394360E-006  0.1116950E+03  0.7561462E-02  0.1257463E+00
          1   -1    0    0  501    0  0.00000000000E+00  0.00000000000E+00  0.17322386308E+03  0.17322386308E+03  0.00000000000E+00 0. -1.
         -1   -1    0    0    0  501 -0.00000000000E+00 -0.00000000000E+00 -0.10520505696E+03  0.10520505696E+03  0.00000000000E+00 0.  1.
         23    2    1    2    0    0  0.76552021349E+02 -0.10805645244E+02  0.14188240654E+02  0.14773617453E+03  0.12509075565E+03 0.  0.
          5    1    3    3  502    0  0.37121514174E+02 -0.40270170120E+02  0.59304414545E+02  0.80834271201E+02  0.41800000000E+01 0.  1.
         -5    1    3    3    0  502  0.39430507175E+02  0.29464524876E+02 -0.45116173891E+02  0.66901903327E+02  0.41800000000E+01 0.  1.
        -11    1    1    2    0    0 -0.49075674068E+02 -0.38661495766E+02  0.26756503420E+02  0.67963545488E+02  0.00000000000E+00 0.  1.
         11    1    1    2    0    0 -0.27476347281E+02  0.49467141009E+02  0.27074062047E+02  0.62729200021E+02  0.00000000000E+00 0. -1.
</event>
<event>
 7    1  0.4394360E-006  0.1156391E+03  0.7561462E-02  0.1250470E+00
          3   -1    0    0  501    0  0.00000000000E+00  0.00000000000E+00  0.65551486703E+03  0.65551486703E+03  0.00000000000E+00 0. -1.
         -3   -1    0    0    0  501 -0.00000000000E+00 -0.00000000000E+00 -0.38392792129E+02  0.38392792129E+02  0.00000000000E+00 0.  1.
         23    2    1    2    0    0 -0.99158384264E+02  0.34371616473E+02  0.22669096268E+03  0.27937489081E+03  0.12509094237E+03 0.  0.
          5    1    3    3  502    0 -0.33653320747E+02  0.33767978787E+02  0.49384771316E+01  0.48111156139E+02  0.41800000000E+01 0. -1.
         -5    1    3    3    0  502 -0.65505063517E+02  0.60363768651E+00  0.22175248555E+03  0.23126373467E+03  0.41800000000E+01 0. -1.
        -11    1    1    2    0    0  0.97928767139E+02 -0.15832529099E+02  0.38098795664E+03  0.39369091368E+03  0.00000000000E+00 0. -1.
         11    1    1    2    0    0  0.12296171249E+01 -0.18539087375E+02  0.94431555850E+01  0.20841854677E+02  0.00000000000E+00 0.  1.
</event>
<event>
 7    1  0.4394360E-006  0.1663193E+03  0.7561462E-02  0.1181741E+00
          1   -1    0    0  501    0  0.00000000000E+00  0.00000000000E+00  0.46641868991E+03  0.46641868991E+03  0.00000000000E+00 0. -1.
         -1   -1    0    0    0  501 -0.00000000000E+00 -0.00000000000E+00 -0.85172068101E+02  0.85172068101E+02  0.00000000000E+00 0.  1.
         23    2    1    2    0    0 -0.12835438703E+03  0.29809169501E+02  0.56317187539E+02  0.19021664463E+03  0.12508921226E+03 0.  0.
          5    1    3    3  502    0 -0.15071558598E+03  0.37137960584E+02  0.37359907067E+02  0.15971114873E+03  0.41800000000E+01 0. -1.
         -5    1    3    3    0  502  0.22361198946E+02 -0.73287910837E+01  0.18957280471E+02  0.30505495897E+02  0.41800000000E+01 0. -1.
        -11    1    1    2    0    0  0.13041620158E+03 -0.45126782555E+02  0.25699861930E+03  0.29170722044E+03  0.00000000000E+00 0.  1.
         11    1    1    2    0    0 -0.20618145528E+01  0.15317613055E+02  0.67930814980E+02  0.69666892946E+02  0.00000000000E+00 0. -1.
</event>
<event>
 7    1  0.4394360E-006  0.1248405E+03  0.7561462E-02  0.1235319E+00
          3   -1    0    0  501    0  0.00000000000E+00  0.00000000000E+00  0.68685241154E+02  0.68685241154E+02  0.00000000000E+00 0. -1.
         -3   -1    0    0    0  501 -0.00000000000E+00 -0.00000000000E+00 -0.28761096956E+03  0.28761096956E+03  0.00000000000E+00 0.  1.
         23    2    1    2    0    0  0.14257384965E+02  0.88109147547E+02 -0.10216040754E+03  0.18452444584E+03  0.12508408106E+03 0.  0.
          5    1    3    3  502    0 -0.49280621320E+02  0.72927526502E+02 -0.55532598540E+02  0.10415539189E+03  0.41800000000E+01 0.  1.
         -5    1    3    3    0  502  0.63538006286E+02  0.15181621046E+02 -0.46627809004E+02  0.80369053950E+02  0.41800000000E+01 0.  1.
        -11    1    1    2    0    0  0.40143493172E+01 -0.70871310623E+02 -0.12631812902E+03  0.14489695438E+03  0.00000000000E+00 0.  1.
         11    1    1    2    0    0 -0.18271734283E+02 -0.17237836924E+02  0.95528081550E+01  0.26874810495E+02  0.00000000000E+00 0. -1.
</event>
<event>
 6    1  0.4394360E-006  0.1311428E+03  0.7561462E-02  0.1225770E+00
         -1   -1    0    0    0  501 -0.00000000000E+00  0.00000000000E+00  0.82221346194E+03  0.82221346194E+03  0.00000000000E+00 0.  1.
          1   -1    0    0  501    0  0.00000000000E+00 -0.00000000000E+00 -0.39419132687E+02  0.39419132687E+02  0.00000000000E+00 0. -1.
          5    1    1    2  502    0  0.78154209634E+02 -0.72416732854E+01  0.23038050189E+03  0.24341974112E+03  0.41800000000E+01 0. -1.
         -5    1    1    2    0  502 -0.19543421975E+02 -0.76093169431E+02  0.42270789344E+03  0.42996691890E+03  0.41800000000E+01 0.  1.
        -11    1    1    2    0    0 -0.12109784959E+02  0.38718015165E+02  0.11527657981E+03  0.12220647054E+03  0.00000000000E+00 0.  1.
         11    1    1    2    0    0 -0.46501002700E+02  0.44616827551E+02  0.14429354112E+02  0.66039464057E+02  0.00000000000E+00 0. -1.
</event>
<event>
 7    1  0.7793697E-006  0.2961815E+03  0.7561462E-02  0.1087165E+00
          1   -1    0    0  501    0  0.00000000000E+00  0.00000000000E+00  0.20610344262E+04  0.20610344262E+04  0.00000000000E+00 0. -1.
         -1   -1    0    0    0  501 -0.00000000000E+00 -0.00000000000E+00 -0.47015848590E+02  0.47015848590E+02  0.00000000000E+00 0.  1.
         23    2    1    2    0    0  0.19180492657E+03  0.21784888320E+03  0.11109999676E+04  0.11550825589E+04  0.12509006393E+03 0.  0.
          5    1    3    3  502    0  0.29793128762E+02  0.26432003246E+02  0.38302616327E+03  0.38511400321E+03  0.41800000000E+01 0.  1.
         -5    1    3    3    0  502  0.16201179780E+03  0.19141687996E+03  0.72797380431E+03  0.76996855568E+03  0.41800000000E+01 0.  1.
        -11    1    1    2    0    0 -0.92603449836E+02 -0.16473872154E+03  0.62803380553E+03  0.65585113112E+03  0.00000000000E+00 0.  1.
         11    1    1    2    0    0 -0.99201476729E+02 -0.53110161659E+02  0.27498480453E+03  0.29711658483E+03  0.00000000000E+00 0. -1.
</event>
<event>
 7    1  0.4394360E-006  0.7233798E+02  0.7561462E-02  0.1352318E+00
         -1   -1    0    0    0  501 -0.00000000000E+00  0.00000000000E+00  0.71155304386E+02  0.71155304386E+02  0.00000000000E+00 0.  1.
          1   -1    0    0  501    0  0.00000000000E+00 -0.00000000000E+00 -0.21817095792E+03  0.21817095792E+03  0.00000000000E+00 0. -1.
         23    2    1    2    0    0 -0.17968105935E+02  0.31417439525E+02 -0.28843511906E+02  0.13336595788E+03  0.12507846420E+03 0.  0.
          5    1    3    3  502    0 -0.23579817622E+02  0.34467628693E+02  0.43601840735E+02  0.60519568259E+02  0.41800000000E+01 0. -1.
         -5    1    3    3    0  502  0.56117116872E+01 -0.30501891685E+01 -0.72445352640E+02  0.72846389624E+02  0.41800000000E+01 0. -1.
        -11    1    1    2    0    0  0.38491783768E+02  0.17305694098E+02 -0.25616906535E+02  0.49369326168E+02  0.00000000000E+00 0.  1.
         11    1    1    2    0    0 -0.20523677833E+02 -0.48723133623E+02 -0.92555235093E+02  0.10659097825E+03  0.00000000000E+00 0. -1.
</event>
<event>
 7    1  0.4394360E-006  0.1217507E+03  0.7561462E-02  0.1240237E+00
          1   -1    0    0  501    0  0.00000000000E+00  0.00000000000E+00  0.48317395148E+03  0.48317395148E+03  0.00000000000E+00 0. -1.
         -1   -1    0    0    0  501 -0.00000000000E+00 -0.00000000000E+00 -0.34183773039E+02  0.34183773039E+02  0.00000000000E+00 0.  1.
         23    2    1    2    0    0 -0.47495610021E+02  0.53933098690E+02  0.21543525266E+03  0.25927892813E+03  0.12509437388E+03 0.  0.
          5    1    3    3  502    0 -0.52212014711E+02 -0.28721219019E+02  0.10984426466E+03  0.12503694567E+03  0.41800000000E+01 0.  1.
         -5    1    3    3    0  502  0.47164046894E+01  0.82654317709E+02  0.10559098800E+03  0.13424198246E+03  0.41800000000E+01 0.  1.
        -11    1    1    2    0    0  0.33957506433E+01  0.17005675733E+02  0.11434657500E+02  0.20771988872E+02  0.00000000000E+00 0.  1.
         11    1    1    2    0    0  0.44099859378E+02 -0.70938774423E+02  0.22212026828E+03  0.23730680752E+03  0.00000000000E+00 0. -1.
</event>
<event>
 7    1  0.4394360E-006  0.9903441E+02  0.7561462E-02  0.1282340E+00
         -1   -1    0    0    0  501 -0.00000000000E+00  0.00000000000E+00  0.27286743344E+02  0.27286743344E+02  0.00000000000E+00 0.  1.
          1   -1    0    0  501    0  0.00000000000E+00 -0.00000000000E+00 -0.47951628398E+03  0.47951628398E+03  0.00000000000E+00 0. -1.
         23    2    1    2    0    0  0.30594767338E+02  0.37464508596E+01 -0.24784353874E+03  0.27932537206E+03  0.12508464372E+03 0.  0.
          5    1    3    3  502    0 -0.78644919822E+01 -0.40449157774E+02 -0.23924942484E+02  0.47831578184E+02  0.41800000000E+01 0. -1.
         -5    1    3    3    0  502  0.38459259320E+02  0.44195608634E+02 -0.22391859626E+03  0.23149379387E+03  0.41800000000E+01 0. -1.
        -11    1    1    2    0    0  0.26746897244E+02 -0.25145515743E+02 -0.99282263913E+02  0.10585207320E+03  0.00000000000E+00 0. -1.
         11    1    1    2    0    0 -0.57341664581E+02  0.21399064883E+02 -0.10510373798E+03  0.12162558206E+03  0.00000000000E+00 0.  1.
</event>
<event>
 7    1  0.4394360E-006  0.1134522E+03  0.7561462E-02  0.1254307E+00
         -1   -1    0    0    0  501 -0.00000000000E+00  0.00000000000E+00  0.23903980035E+02  0.23903980035E+02  0.00000000000E+00 0.  1.
          1   -1    0    0  501    0  0.00000000000E+00 -0.00000000000E+00 -0.58133480475E+03  0.58133480475E+03  0.00000000000E+00 0. -1.
         23    2    1    2    0    0  0.35741880656E+02 -0.15852535917E+02 -0.25316112502E+03  0.28507942052E+03  0.12510370042E+03 0.  0.
          5    1    3    3  502    0  0.29466530716E+02  0.51656595008E+02 -0.15154175863E+03  0.16284672931E+03  0.41800000000E+01 0.  1.
         -5    1    3    3    0  502  0.62753499399E+01 -0.67509130925E+02 -0.10161936639E+03  0.12223269121E+03  0.41800000000E+01 0.  1.
        -11    1    1    2    0    0  0.31062112583E+02  0.81400284155E+01 -0.10921852003E+03  0.11384111744E+03  0.00000000000E+00 0. -1.
         11    1    1    2    0    0 -0.66803993238E+02  0.77125075015E+01 -0.19505117967E+03  0.20631824683E+03  0.00000000000E+00 0.  1.
</event>
<event>
 7    1  0.4394360E-006  0.1246614E+03  0.7561462E-02  0.1235599E+00
         -2   -1    0    0    0  501 -0.00000000000E+00  0.00000000000E+00  0.11434428394E+03  0.11434428394E+03  0.00000000000E+00 0.  1.
          2   -1    0    0  501    0  0.00000000000E+00 -0.00000000000E+00 -0.18251051599E+03  0.18251051599E+03  0.00000000000E+00 0. -1.
         23    2    1    2    0    0 -0.46343633148E+02  0.82421501630E+02 -0.46603132150E+02  0.16358678105E+03  0.12509095389E+03 0.  0.
          5    1    3    3  502    0  0.41343811661E+02  0.30948903140E+02 -0.37522721889E+00  0.51814655877E+02  0.41800000000E+01 0. -1.
         -5    1    3    3    0  502 -0.87687444808E+02  0.51472598490E+02 -0.46227904932E+02  0.11177212518E+03  0.41800000000E+01 0. -1.
        -11    1    1    2    0    0  0.15108140741E+02 -0.42177296746E+02  0.35215542238E+02  0.56985214684E+02  0.00000000000E+00 0.  1.
         11    1    1    2    0    0  0.31235492407E+02 -0.40244204884E+02 -0.56778642139E+02  0.76282804195E+02  0.00000000000E+00 0. -1.
</event>
<event>
 7    1  0.4394360E-006  0.6803665E+02  0.7561462E-02  0.1366900E+00
          1   -1    0    0  501    0  0.00000000000E+00  0.00000000000E+00  0.10682166726E+03  0.10682166726E+03  0.00000000000E+00 0. -1.
         -1   -1    0    0    0  501 -0.00000000000E+00 -0.00000000000E+00 -0.11650947847E+03  0.11650947847E+03  0.00000000000E+00 0.  1.
         23    2    1    2    0    0 -0.17255379954E+01  0.16877480052E+02 -0.31411959356E+02  0.13008267539E+03  0.12508782687E+03 0.  0.
          5    1    3    3  502    0 -0.12837093882E+02  0.50947983868E+02  0.28670447683E+02  0.59999625082E+02  0.41800000000E+01 0. -1.
         -5    1    3    3    0  502  0.11111555886E+02 -0.34070503816E+02 -0.60082407039E+02  0.70083050305E+02  0.41800000000E+01 0. -1.
        -11    1    1    2    0    0  0.21953026543E+02 -0.17381365281E+01 -0.29098416330E+02  0.36492113202E+02  0.00000000000E+00 0.  1.
         11    1    1    2    0    0 -0.20227488548E+02 -0.15139343524E+02  0.50822564481E+02  0.56756357139E+02  0.00000000000E+00 0. -1.
</event>
<event>
 7    1  0.4394360E-006  0.1064709E+03  0.7561462E-02  0.1267248E+00
         -2   -1    0    0    0  501 -0.00000000000E+00  0.00000000000E+00  0.19794686870E+03  0.19794686870E+03  0.00000000000E+00 0. -1.
          2   -1    0    0  501    0  0.00000000000E+00 -0.00000000000E+00 -0.61963182158E+02  0.61963182158E+02  0.00000000000E+00 0.  1.
         23    2    1    2    0    0 -0.75964655270E+01 -0.17828542296E+02  0.95973288874E+02  0.15884558846E+03  0.12508191550E+03 0.  0.
          5    1    3    3  502    0 -0.65758795099E+02 -0.92742823951E+01  0.61259029469E+02  0.90445411924E+02  0.41800000000E+01 0.  1.
         -5    1    3    3    0  502  0.58162329572E+02 -0.85542599007E+01  0.34714259405E+02  0.68400176533E+02  0.41800000000E+01 0.  1.
        -11    1    1    2    0    0 -0.64753047023E+01  0.51011541670E+02  0.64643458167E+01  0.51825618389E+02  0.00000000000E+00 0.  1.
         11    1    1    2    0    0  0.14071770229E+02 -0.33182999374E+02  0.33546051853E+02  0.49238844014E+02  0.00000000000E+00 0. -1.
</event>
<event>
 7    1  0.4394360E-006  0.1178178E+03  0.7561462E-02  0.1246741E+00
         -1   -1    0    0    0  501 -0.00000000000E+00  0.00000000000E+00  0.94459930735E+02  0.94459930735E+02  0.00000000000E+00 0.  1.
          1   -1    0    0  501    0  0.00000000000E+00 -0.00000000000E+00 -0.27062977913E+03  0.27062977913E+03  0.00000000000E+00 0. -1.
         23    2    1    2    0    0  0.80647089094E+02 -0.22810874637E+02 -0.45024381689E+00  0.15057023315E+03  0.12508758296E+03 0.  0.
          5    1    3    3  502    0  0.99692974551E+02  0.18330920279E+02 -0.15480491441E+02  0.10262470379E+03  0.41800000000E+01 0.  1.
         -5    1    3    3    0  502 -0.19045885457E+02 -0.41141794916E+02  0.15030247624E+02  0.47945529358E+02  0.41800000000E+01 0.  1.
        -11    1    1    2    0    0 -0.44479310806E+02 -0.24399205088E+01 -0.13703933775E+02  0.46606438426E+02  0.00000000000E+00 0.  1.
         11    1    1    2    0    0 -0.36167778289E+02  0.25250795146E+02 -0.16201567081E+03  0.16791303829E+03  0.00000000000E+00 0. -1.
</event>
<event>
 7    1  0.4394360E-006  0.1011907E+03  0.7561462E-02  0.1277812E+00
         -1   -1    0    0    0  501 -0.00000000000E+00  0.00000000000E+00  0.71736612897E+02  0.71736612897E+02  0.00000000000E+00 0.  1.
          1   -1    0    0  501    0  0.00000000000E+00 -0.00000000000E+00 -0.21249894594E+03  0.21249894594E+03  0.00000000000E+00 0. -1.
         23    2    1    2    0    0  0.42523937014E+02  0.36163202367E+02 -0.55317203006E+02  0.14773610914E+03  0.12509957063E+03 0.  0.
          5    1    3    3  502    0 -0.12829896479E+02  0.38964619773E+02 -0.77582819643E+02  0.87860196571E+02  0.41800000000E+01 0.  1.
         -5    1    3    3    0  502  0.55353833493E+02 -0.28014174059E+01  0.22265616637E+02  0.59875912570E+02  0.41800000000E+01 0.  1.
        -11    1    1    2    0    0 -0.67252365982E+02 -0.74393673668E+01 -0.62994073507E+02  0.92447164445E+02  0.00000000000E+00 0. -1.
         11    1    1    2    0    0  0.24728428968E+02 -0.28723835000E+02 -0.22451056527E+02  0.44052285248E+02  0.00000000000E+00 0.  1.
</event>
<event>
 7    1  0.4394360E-006  0.1066156E+03  0.7561462E-02  0.1266969E+00
         -1   -1    0    0    0  501 -0.00000000000E+00  0.00000000000E+00  0.53145461039E+02  0.53145461039E+02  0.00000000000E+00 0.  1.
          1   -1    0    0  501    0  0.00000000000E+00 -0.00000000000E+00 -0.30643206817E+03  0.30643206817E+03  0.00000000000E+00 0. -1.
         23    2    1    2    0    0  0.56240359737E+02  0.47693680392E+01 -0.97378995517E+02  0.16827538834E+03  0.12509281601E+03 0.  0.
          5    1    3    3  502    0  0.76356805055E+02  0.17282026410E+02 -0.11681114602E+02  0.79265067674E+02  0.41800000000E+01 0. -1.
         -5    1    3    3    0  502 -0.20116445318E+02 -0.12512658371E+02 -0.85697880914E+02  0.89010320665E+02  0.41800000000E+01 0. -1.
        -11    1    1    2    0    0 -0.56238579629E+02  0.38084948312E+02 -0.91982723354E+02  0.11434186688E+03  0.00000000000E+00 0.  1.
         11    1    1    2    0    0 -0.17801077348E-02 -0.42854316352E+02 -0.63924888262E+02  0.76960273989E+02  0.00000000000E+00 0. -1.
</event>
<event>
 7    1  0.4394360E-006  0.1614267E+03  0.7561462E-02  0.1187095E+00
          1   -1    0    0  501    0  0.00000000000E+00  0.00000000000E+00  0.16978567101E+03  0.16978567101E+03  0.00000000000E+00 0. -1.
         -1   -1    0    0    0  501 -0.00000000000E+00 -0.00000000000E+00 -0.25776568092E+03  0.25776568092E+03  0.00000000000E+00 0.  1.
         23    2    1    2    0    0  0.13008163608E+03  0.84990414727E+02 -0.13615957548E+03  0.24152132348E+03  0.12509403287E+03 0.  0.
          5    1    3    3  502    0  0.94457602448E+02  0.40017384354E+02 -0.15054766718E+03  0.18222431836E+03  0.41800000000E+01 0.  1.
         -5    1    3    3    0  502  0.35624033627E+02  0.44973030373E+02  0.14388091698E+02  0.59297005114E+02  0.41800000000E+01 0.  1.
        -11    1    1    2    0    0 -0.91075568691E+02 -0.83600517464E+02 -0.50838245533E+00  0.12362873527E+03  0.00000000000E+00 0.  1.
         11    1    1    2    0    0 -0.39006067385E+02 -0.13898972629E+01  0.48687948021E+02  0.62401293174E+02  0.00000000000E+00 0. -1.
</event>
<event>
 7    1  0.4394360E-006  0.1177821E+03  0.7561462E-02  0.1246801E+00
         -1   -1    0    0    0  501 -0.00000000000E+00  0.00000000000E+00  0.13923400069E+03  0.13923400069E+03  0.00000000000E+00 0. -1.
          1   -1    0    0  501    0  0.00000000000E+00 -0.00000000000E+00 -0.16174586460E+03  0.16174586460E+03  0.00000000000E+00 0.  1.
         23    2    1    2    0    0 -0.71645798107E+02 -0.49572286461E+02  0.66501340934E+02  0.16631524722E+03  0.12509117132E+03 0.  0.
          5    1    3    3  502    0 -0.94966851289E+02 -0.21139303998E+01  0.61044658019E+02  0.11299156702E+03  0.41800000000E+01 0.  1.
         -5    1    3    3    0  502  0.23321053183E+02 -0.47458356061E+02  0.54566829158E+01  0.53323680200E+02  0.41800000000E+01 0.  1.
        -11    1    1    2    0    0  0.25383332521E+02  0.21944051657E+02 -0.69819762741E+02  0.77463889924E+02  0.00000000000E+00 0.  1.
         11    1    1    2    0    0  0.46262465586E+02  0.27628234804E+02 -0.19193442098E+02  0.57200728142E+02  0.00000000000E+00 0. -1.
</event>
<event>
 7    1  0.4394360E-006  0.1127558E+03  0.7561462E-02  0.1255550E+00
         -1   -1    0    0    0  501 -0.00000000000E+00  0.00000000000E+00  0.19136279423E+03  0.19136279423E+03  0.00000000000E+00 0.  1.
          1   -1    0    0  501    0  0.00000000000E+00 -0.00000000000E+00 -0.91160168298E+02  0.91160168298E+02  0.00000000000E+00 0. -1.
         23    2    1    2    0    0  0.16197456081E+02 -0.45515287558E+02  0.11607209971E+03  0.17735406996E+03  0.12509090621E+03 0.  0.
          5    1    3    3  502    0 -0.10687821007E+02  0.35615568503E+02  0.59435724045E+01  0.37887949147E+02  0.41800000000E+01 0. -1.
         -5    1    3    3    0  502  0.26885277087E+02 -0.81130856061E+02  0.11012852731E+03  0.13946612082E+03  0.41800000000E+01 0. -1.
        -11    1    1    2    0    0 -0.54022108282E+02  0.27739000484E+02 -0.17946072521E+02  0.63323785815E+02  0.00000000000E+00 0. -1.
         11    1    1    2    0    0  0.37824652201E+02  0.17776287075E+02  0.20765987404E+01  0.41845106746E+02  0.00000000000E+00 0.  1.
</event>
<event>
 7    1  0.4394360E-006  0.2217863E+03  0.7561462E-02  0.1132558E+00
          1   -1    0    0  501    0  0.00000000000E+00  0.00000000000E+00  0.83246461185E+03  0.83246461185E+03  0.00000000000E+00 0. -1.
         -1   -1    0    0    0  501 -0.00000000000E+00 -0.00000000000E+00 -0.74082865318E+02  0.74082865318E+02  0.00000000000E+00 0.  1.
         23    2    1    2    0    0  0.14499170898E+03 -0.14020436029E+03  0.21841547316E+03  0.32254095510E+03  0.12508992958E+03 0.  0.
          5    1    3    3  502    0  0.84026973569E+02 -0.15122529266E+03  0.17910633447E+03  0.24905054281E+03  0.41800000000E+01 0. -1.
         -5    1    3    3    0  502  0.60964735408E+02  0.11020932366E+02  0.39309138685E+02  0.73490412285E+02  0.41800000000E+01 0. -1.
        -11    1    1    2    0    0 -0.13580321681E+03  0.10393551977E+03  0.34016856229E+03  0.38073580963E+03  0.00000000000E+00 0.  1.
         11    1    1    2    0    0 -0.91884921676E+01  0.36268840527E+02  0.19979771108E+03  0.20327071244E+03  0.00000000000E+00 0. -1.
</event>
<event>
 7    1  0.4394360E-006  0.1131002E+03  0.7561462E-02  0.1254934E+00
          2   -1    0    0  501    0  0.00000000000E+00  0.00000000000E+00  0.48697467432E+03  0.48697467432E+03  0.00000000000E+00 0. -1.
         -2   -1    0    0    0  501 -0.00000000000E+00 -0.00000000000E+00 -0.43780611244E+02  0.43780611244E+02  0.00000000000E+00 0.  1.
         23    2    1    2    0    0 -0.98028175085E+02 -0.81512068428E+01  0.22248168909E+03  0.27353716598E+03  0.12509402027E+03 0.  0.
          5    1    3    3  502    0 -0.15375379513E+02 -0.86353062272E+01 -0.14058786945E+02  0.22936710731E+02  0.41800000000E+01 0.  1.
         -5    1    3    3    0  502 -0.82652795573E+02  0.48409938440E+00  0.23654047603E+03  0.25060045525E+03  0.41800000000E+01 0.  1.
        -11    1    1    2    0    0  0.52875221640E+02  0.43102867421E+02  0.15967062827E+03  0.17363281883E+03  0.00000000000E+00 0. -1.
         11    1    1    2    0    0  0.45152953445E+02 -0.34951660578E+02  0.61041745724E+02  0.83585300759E+02  0.00000000000E+00 0.  1.
</event>
<event>
 7    1  0.4394360E-006  0.1317591E+03  0.7561462E-02  0.1224869E+00
         -3   -1    0    0    0  501 -0.00000000000E+00  0.00000000000E+00  0.86148503362E+02  0.86148503362E+02  0.00000000000E+00 0.  1.
          3   -1    0    0  501    0  0.00000000000E+00 -0.00000000000E+00 -0.28446787819E+03  0.28446787819E+03  0.00000000000E+00 0. -1.
         23    2    1    2    0    0 -0.70195618346E+02 -0.42081031576E+02 -0.14695437681E+02  0.15020600208E+03  0.12509056367E+03 0.  0.
          5    1    3    3  502    0 -0.60601657646E+02  0.30912593974E+02  0.16518170044E+02  0.70131816726E+02  0.41800000000E+01 0. -1.
         -5    1    3    3    0  502 -0.95939607002E+01 -0.72993625550E+02 -0.31213607725E+02  0.80074185354E+02  0.41800000000E+01 0. -1.
        -11    1    1    2    0    0  0.48977833426E+02  0.70691043170E+02 -0.12269246176E+03  0.14983154515E+03  0.00000000000E+00 0. -1.
         11    1    1    2    0    0  0.21217784920E+02 -0.28610011595E+02 -0.60931475391E+02  0.70578834318E+02  0.00000000000E+00 0.  1.
</event>
<event>
 7    1  0.4394360E-006  0.7643953E+02  0.7561462E-02  0.1339470E+00
          1   -1    0    0  501    0  0.00000000000E+00  0.00000000000E+00  0.13229335752E+03  0.13229335752E+03  0.00000000000E+00 0. -1.
         -1   -1    0    0    0  501 -0.00000000000E+00 -0.00000000000E+00 -0.15941356108E+03  0.15941356108E+03  0.00000000000E+00 0.  1.
         23    2    1    2    0    0  0.39308259095E+02  0.72386049512E+01 -0.12471589393E+03  0.18110343535E+03  0.12508742327E+03 0.  0.
          5    1    3    3  502    0 -0.27830423411E+02  0.20375900419E+02  0.43021904212E+01  0.35009870430E+02  0.41800000000E+01 0.  1.
         -5    1    3    3    0  502  0.67138682505E+02 -0.13137295467E+02 -0.12901808435E+03  0.14609356492E+03  0.41800000000E+01 0.  1.
        -11    1    1    2    0    0 -0.17309026319E+02  0.11429863931E+02  0.25001609511E+02  0.32485760877E+02  0.00000000000E+00 0.  1.
         11    1    1    2    0    0 -0.21999232776E+02 -0.18668468882E+02  0.72594080857E+02  0.78117722372E+02  0.00000000000E+00 0. -1.
</event>
<event>
 7    1  0.4394360E-006  0.1454777E+03  0.7561462E-02  0.1206143E+00
         -1   -1    0    0    0  501 -0.00000000000E+00  0.00000000000E+00  0.21452137488E+03  0.21452137488E+03  0.00000000000E+00 0.  1.
          1   -1    0    0  501    0  0.00000000000E+00 -0.00000000000E+00 -0.17984774032E+03  0.17984774032E+03  0.00000000000E+00 0. -1.
         23    2    1    2    0    0 -0.44401397930E+02 -0.12941775680E+03  0.10824889575E+03  0.21467708378E+03  0.12509191403E+03 0.  0.
          5    1    3    3  502    0 -0.66003746368E+01 -0.64359616948E+02  0.12192231636E+03  0.13808783026E+03  0.41800000000E+01 0. -1.
         -5    1    3    3    0  502 -0.37801023293E+02 -0.65058139853E+02 -0.13673420617E+02  0.76589253519E+02  0.41800000000E+01 0. -1.
        -11    1    1    2    0    0  0.23820505016E+01  0.98664984984E+02 -0.12577808594E+02  0.99491983072E+02  0.00000000000E+00 0.  1.
         11    1    1    2    0    0  0.42019347428E+02  0.30752771817E+02 -0.60997452587E+02  0.80200048347E+02  0.00000000000E+00 0. -1.
</event>
<event>
 7    1  0.4394360E-006  0.1160173E+03  0.7561462E-02  0.1249816E+00
          2   -1    0    0  501    0  0.00000000000E+00  0.00000000000E+00  0.17987903331E+03  0.17987903331E+03  0.00000000000E+00 0. -1.
         -2   -1    0    0    0  501 -0.00000000000E+00 -0.00000000000E+00 -0.86869720726E+02  0.86869720726E+02  0.00000000000E+00 0.  1.
         23    2    1    2    0    0 -0.36849217868E+02  0.49114153563E+02  0.56231141979E+02  0.15026582415E+03  0.12509121328E+03 0.  0.
          5    1    3    3  502    0 -0.55809931115E+02  0.82243554173E+02  0.50087835270E+02  0.11137779966E+03  0.41800000000E+01 0.  1.
         -5    1    3    3    0  502  0.18960713247E+02 -0.33129400610E+02  0.61433067085E+01  0.38888024493E+02  0.41800000000E+01 0.  1.
        -11    1    1    2    0    0 -0.21688393878E+02 -0.15440255917E+02 -0.15744788628E+02  0.30930345952E+02  0.00000000000E+00 0.  1.
         11    1    1    2    0    0  0.58537611746E+02 -0.33673897645E+02  0.52522959234E+02  0.85552583937E+02  0.00000000000E+00 0. -1.
</event>
<event>
 7    1  0.4394360E-006  0.1546476E+03  0.7561462E-02  0.1194876E+00
          3   -1    0    0  501    0  0.00000000000E+00  0.00000000000E+00  0.67793176205E+03  0.67793176205E+03  0.00000000000E+00 0. -1.
         -3   -1    0    0    0  501 -0.00000000000E+00 -0.00000000000E+00 -0.40942938401E+02  0.40942938401E+02  0.00000000000E+00 0.  1.
         23    2    1    2    0    0 -0.32249721591E+02  0.10680908694E+03  0.21351051427E+03  0.27144450485E+03  0.12508858428E+03 0.  0.
          5    1    3    3  502    0 -0.20545046196E+02 -0.26160317571E+02  0.52012583615E+02  0.61880872594E+02  0.41800000000E+01 0.  1.
         -5    1    3    3    0  502 -0.11704675395E+02  0.13296940451E+03  0.16149793065E+03  0.20956363226E+03  0.41800000000E+01 0.  1.
        -11    1    1    2    0    0 -0.30751664143E+02 -0.38927087356E+02  0.11245219362E+03  0.12290841642E+03  0.00000000000E+00 0.  1.
         11    1    1    2    0    0  0.63001385734E+02 -0.67881999582E+02  0.31102611577E+03  0.32452177918E+03  0.00000000000E+00 0. -1.
</event>
<event>
 7    1  0.4394360E-006  0.1063372E+03  0.7561462E-02  0.1267507E+00
          1   -1    0    0  501    0  0.00000000000E+00  0.00000000000E+00  0.37733086659E+02  0.37733086659E+02  0.00000000000E+00 0. -1.
         -1   -1    0    0    0  501 -0.00000000000E+00 -0.00000000000E+00 -0.33989168473E+03  0.33989168473E+03  0.00000000000E+00 0.  1.
         23    2    1    2    0    0  0.37194716309E+01 -0.34115637370E+02 -0.18705564750E+03  0.22762974245E+03  0.12509105964E+03 0.  0.
          5    1    3    3  502    0  0.64188029141E+02 -0.20191567937E+02 -0.92766962003E+02  0.11467774039E+03  0.41800000000E+01 0.  1.
         -5    1    3    3    0  502 -0.60468557510E+02 -0.13924069433E+02 -0.94288685497E+02  0.11295200206E+03  0.41800000000E+01 0.  1.
        -11    1    1    2    0    0  0.27806039096E+02  0.42182678065E+02 -0.10398139398E+03  0.11560572838E+03  0.00000000000E+00 0.  1.
         11    1    1    2    0    0 -0.31525510727E+02 -0.80670406949E+01 -0.11121556584E+02  0.34389300560E+02  0.00000000000E+00 0. -1.
</event>
<event>
 7    1  0.4394360E-006  0.9295734E+02  0.7561462E-02  0.1295844E+00
          2   -1    0    0  501    0  0.00000000000E+00  0.00000000000E+00  0.18708333188E+03  0.18708333188E+03  0.00000000000E+00 0. -1.
         -2   -1    0    0    0  501 -0.00000000000E+00 -0.00000000000E+00 -0.76825013718E+02  0.76825013718E+02  0.00000000000E+00 0.  1.
         23    2    1    2    0    0 -0.11462606706E+02  0.41490513654E+02  0.40359851358E+02  0.13835024653E+03  0.12513600216E+03 0.  0.
          5    1    3    3  502    0 -0.56210216898E+02  0.20715365689E+02 -0.17160612207E+02  0.62455375034E+02  0.41800000000E+01 0.  1.
         -5    1    3    3    0  502  0.44747610192E+02  0.20775147965E+02  0.57520463565E+02  0.75894871497E+02  0.41800000000E+01 0.  1.
        -11    1    1    2    0    0  0.36710822423E+02 -0.14718083937E+02 -0.71315687679E+01  0.40189124783E+02  0.00000000000E+00 0.  1.
         11    1    1    2    0    0 -0.25248215717E+02 -0.26772429717E+02  0.77030035570E+02  0.85368974281E+02  0.00000000000E+00 0. -1.
</event>
<event>
 7    1  0.4394360E-006  0.1121946E+03  0.7561462E-02  0.1256559E+00
         -1   -1    0    0    0  501 -0.00000000000E+00  0.00000000000E+00  0.27843007567E+02  0.27843007567E+02  0.00000000000E+00 0.  1.
          1   -1    0    0  501    0  0.00000000000E+00 -0.00000000000E+00 -0.69284987042E+03  0.69284987042E+03  0.00000000000E+00 0. -1.
         23    2    1    2    0    0 -0.71302159193E+02 -0.15740077876E+02 -0.25010033174E+03  0.28901381393E+03  0.12508821187E+03 0.  0.
          5    1    3    3  502    0  0.22322507861E+02 -0.79231556014E+01 -0.14902842101E+03  0.15095699196E+03  0.41800000000E+01 0.  1.
         -5    1    3    3    0  502 -0.93624667054E+02 -0.78169222745E+01 -0.10107191073E+03  0.13805682197E+03  0.41800000000E+01 0.  1.
        -11    1    1    2    0    0  0.53237750943E+01  0.36685463410E+02 -0.63576827670E+02  0.73594692902E+02  0.00000000000E+00 0.  1.
         11    1    1    2    0    0  0.65978384098E+02 -0.20945385534E+02 -0.35132970345E+03  0.35808437116E+03  0.00000000000E+00 0. -1.
</event>
<event>
 7    1  0.4394360E-006  0.9641671E+02  0.7561462E-02  0.1288017E+00
          2   -1    0    0  501    0  0.00000000000E+00  0.00000000000E+00  0.19202116439E+03  0.19202116439E+03  0.00000000000E+00 0. -1.
         -2   -1    0    0    0  501 -0.00000000000E+00 -0.00000000000E+00 -0.57836783360E+02  0.57836783360E+02  0.00000000000E+00 0.  1.
         23    2    1    2    0    0  0.74666207030E+01  0.12840637074E+02  0.69665668517E+02  0.14396529406E+03  0.12510822571E+03 0.  0.
          5    1    3    3  502    0 -0.40717585503E+02 -0.26799260752E+02  0.64865395516E+02  0.81247240455E+02  0.41800000000E+01 0. -1.
         -5    1    3    3    0  502  0.48184206206E+02  0.39639897826E+02  0.48002730008E+01  0.62718053607E+02  0.41800000000E+01 0. -1.
        -11    1    1    2    0    0  0.28321092918E+02 -0.30368811778E+02  0.19830059014E+02  0.46017173679E+02  0.00000000000E+00 0.  1.
         11    1    1    2    0    0 -0.35787713621E+02  0.17528174704E+02  0.44688653494E+02  0.59875480005E+02  0.00000000000E+00 0. -1.
</event>
<event>
 7    1  0.4394360E-006  0.8553384E+02  0.7561462E-02  0.1314042E+00
          1   -1    0    0  501    0  0.00000000000E+00  0.00000000000E+00  0.15962783133E+03  0.15962783133E+03  0.00000000000E+00 0. -1.
         -1   -1    0    0    0  501 -0.00000000000E+00 -0.00000000000E+00 -0.75689846560E+02  0.75689846560E+02  0.00000000000E+00 0.  1.
         23    2    1    2    0    0  0.13325609946E+01  0.76760911930E+00  0.27039894982E+02  0.12798906577E+03  0.12509068747E+03 0.  0.
          5    1    3    3  502    0 -0.34530769715E+02 -0.39345017057E+02  0.46971397508E+02  0.70457001130E+02  0.41800000000E+01 0. -1.
         -5    1    3    3    0  502  0.35863330710E+02  0.40112626177E+02 -0.19931502526E+02  0.57532064636E+02  0.41800000000E+01 0. -1.
        -11    1    1    2    0    0  0.48369222401E+01 -0.32194724684E+02  0.66374723949E+02  0.73929020645E+02  0.00000000000E+00 0. -1.
         11    1    1    2    0    0 -0.61694832347E+01  0.31427115565E+02 -0.94766341589E+01  0.33399591481E+02  0.00000000000E+00 0.  1.
</event>
<event>
 7    1  0.4394360E-006  0.3211799E+03  0.7561462E-02  0.1075108E+00
         -2   -1    0    0    0  501 -0.00000000000E+00  0.00000000000E+00  0.28258832290E+03  0.28258832290E+03  0.00000000000E+00 0.  1.
          2   -1    0    0  501    0  0.00000000000E+00 -0.00000000000E+00 -0.39765592915E+03  0.39765592915E+03  0.00000000000E+00 0. -1.
         23    2    1    2    0    0  0.19900998432E+03 -0.23737539620E+03  0.80263033684E+01  0.33416322429E+03  0.12509430979E+03 0.  0.
          5    1    3    3  502    0  0.16401430999E+03 -0.11050358309E+03  0.31821610573E+02  0.20035424391E+03  0.41800000000E+01 0.  1.
         -5    1    3    3    0  502  0.34995674338E+02 -0.12687181311E+03 -0.23795307204E+02  0.13380898038E+03  0.41800000000E+01 0.  1.
        -11    1    1    2    0    0 -0.14945790862E+03  0.20493724042E+03 -0.13240878321E+03  0.28612763731E+03  0.00000000000E+00 0.  1.
         11    1    1    2    0    0 -0.49552075702E+02  0.32438155776E+02  0.93148735880E+01  0.59953390450E+02  0.00000000000E+00 0. -1.
</event>
<event>
 7    1  0.4394360E-006  0.1406992E+03  0.7561462E-02  0.1212391E+00
         -1   -1    0    0    0  501 -0.00000000000E+00  0.00000000000E+00  0.14321275686E+04  0.14321275686E+04  0.00000000000E+00 0. -1.
          1   -1    0    0  501    0  0.00000000000E+00 -0.00000000000E+00 -0.14909795936E+02  0.14909795936E+02  0.00000000000E+00 0.  1.
         23    2    1    2    0    0 -0.48283279348E+02 -0.79853736494E+02  0.92292007843E+03  0.93602149053E+03  0.12508743051E+03 0.  0.
          5    1    3    3  502    0  0.18292265647E+02  0.25308290893E+02  0.19247412040E+03  0.19503557623E+03  0.41800000000E+01 0. -1.
         -5    1    3    3    0  502 -0.66575544995E+02 -0.10516202739E+03  0.73044595803E+03  0.74098591430E+03  0.41800000000E+01 0. -1.
        -11    1    1    2    0    0 -0.88551424827E+01  0.65964714850E+02  0.19642470816E+03  0.20739436620E+03  0.00000000000E+00 0. -1.
         11    1    1    2    0    0  0.57138421831E+02  0.13889021644E+02  0.29787298604E+03  0.30362150778E+03  0.00000000000E+00 0.  1.
</event>
<event>
 7    1  0.4394360E-006  0.1485540E+03  0.7561462E-02  0.1202261E+00
          2   -1    0    0  501    0  0.00000000000E+00  0.00000000000E+00  0.41045457070E+03  0.41045457070E+03  0.00000000000E+00 0. -1.
         -2   -1    0    0    0  501 -0.00000000000E+00 -0.00000000000E+00 -0.75318420838E+02  0.75318420838E+02  0.00000000000E+00 0.  1.
         23    2    1    2    0    0 -0.12760962762E+03  0.51828169829E+02  0.17978949187E+03  0.25873304056E+03  0.12509256030E+03 0.  0.
          5    1    3    3  502    0 -0.23062191156E+02  0.46014553727E+02  0.13542494772E+03  0.14493651258E+03  0.41800000000E+01 0.  1.
         -5    1    3    3    0  502 -0.10454743646E+03  0.58136161019E+01  0.44364544159E+02  0.11379652798E+03  0.41800000000E+01 0.  1.
        -11    1    1    2    0    0  0.85124517256E+02 -0.19604888077E+02  0.14982723683E+03  0.17343222299E+03  0.00000000000E+00 0.  1.
         11    1    1    2    0    0  0.42485110361E+02 -0.32223281752E+02  0.55194211511E+01  0.53607727979E+02  0.00000000000E+00 0. -1.
</event>
<event>
 7    1  0.4394360E-006  0.1540688E+03  0.7561462E-02  0.1195561E+00
          1   -1    0    0  501    0  0.00000000000E+00  0.00000000000E+00  0.10429399426E+03  0.10429399426E+03  0.00000000000E+00 0. -1.
         -1   -1    0    0    0  501 -0.00000000000E+00 -0.00000000000E+00 -0.86950082329E+03  0.86950082329E+03  0.00000000000E+00 0.  1.
         23    2    1    2    0    0  0.87895650293E+02 -0.10050783742E+03 -0.78898387534E+03  0.80991963113E+03  0.12508710014E+03 0.  0.
          5    1    3    3  502    0  0.32791801893E+02 -0.11286987405E+03 -0.40324542468E+03  0.42004673034E+03  0.41800000000E+01 0. -1.
         -5    1    3    3    0  502  0.55103848400E+02  0.12362036630E+02 -0.38573845065E+03  0.38987290079E+03  0.41800000000E+01 0. -1.
        -11    1    1    2    0    0 -0.61573993776E+02  0.77134371682E+02  0.58250787101E+02  0.11460463430E+03  0.00000000000E+00 0. -1.
         11    1    1    2    0    0 -0.26321656517E+02  0.23373465734E+02 -0.34473740796E+02  0.49270552125E+02  0.00000000000E+00 0.  1.
</event>
<event>
 7    1  0.4394360E-006  0.9578294E+02  0.7561462E-02  0.1289422E+00
         -1   -1    0    0    0  501 -0.00000000000E+00  0.00000000000E+00  0.10969272350E+03  0.10969272350E+03  0.00000000000E+00 0.  1.
          1   -1    0    0  501    0  0.00000000000E+00 -0.00000000000E+00 -0.16746970099E+03  0.16746970099E+03  0.00000000000E+00 0. -1.
         23    2    1    2    0    0  0.54076642068E+02  0.56758771462E+02 -0.11123089254E+02  0.14804370426E+03  0.12508946360E+03 0.  0.
          5    1    3    3  502    0  0.21185998932E+02  0.37241532383E+02  0.56025160887E+02  0.70654577611E+02  0.41800000000E+01 0. -1.
         -5    1    3    3    0  502  0.32890643137E+02  0.19517239079E+02 -0.67148250141E+02  0.77389126654E+02  0.41800000000E+01 0. -1.
        -11    1    1    2    0    0 -0.28872624550E+02 -0.74048888533E+02 -0.80578174757E+01  0.79886136243E+02  0.00000000000E+00 0.  1.
         11    1    1    2    0    0 -0.25204017519E+02  0.17290117071E+02 -0.38596070760E+02  0.49232583982E+02  0.00000000000E+00 0. -1.
</event>
<event>
 7    1  0.4394360E-006  0.1021633E+03  0.7561462E-02  0.1275811E+00
          4   -1    0    0  501    0  0.00000000000E+00  0.00000000000E+00  0.39208387075E+03  0.39208387075E+03  0.00000000000E+00 0. -1.
         -4   -1    0    0    0  501 -0.00000000000E+00 -0.00000000000E+00 -0.40226397107E+02  0.40226397107E+02  0.00000000000E+00 0.  1.
         23    2    1    2    0    0 -0.33422504398E+02 -0.36163601920E+02  0.12826180467E+03  0.18580591840E+03  0.12509148202E+03 0.  0.
          5    1    3    3  502    0 -0.28043412330E+02  0.44867164813E+02  0.48360636126E+02  0.71803335437E+02  0.41800000000E+01 0.  1.
         -5    1    3    3    0  502 -0.53790920690E+01 -0.81030766733E+02  0.79901168543E+02  0.11400258297E+03  0.41800000000E+01 0.  1.
        -11    1    1    2    0    0  0.46119324166E+02  0.22611000159E+02  0.22200042334E+03  0.22786495420E+03  0.00000000000E+00 0. -1.
         11    1    1    2    0    0 -0.12696819768E+02  0.13552601761E+02  0.15952456337E+01  0.18639395252E+02  0.00000000000E+00 0.  1.
</event>
<event>
 6    1  0.4394360E-006  0.1058521E+03  0.7561462E-02  0.1268450E+00
          1   -1    0    0  501    0  0.00000000000E+00  0.00000000000E+00  0.44751014311E+03  0.44751014311E+03  0.00000000000E+00 0. -1.
         -1   -1    0    0    0  501 -0.00000000000E+00 -0.00000000000E+00 -0.38613382986E+02  0.38613382986E+02  0.00000000000E+00 0.  1.
          5    1    1    2  502    0  0.40509877169E+00 -0.64977018077E+02  0.60643242511E+02  0.88978942709E+02  0.41800000000E+01 0. -1.
         -5    1    1    2    0  502 -0.18965153850E+02  0.62185577828E+02  0.44188177013E+02  0.78719695999E+02  0.41800000000E+01 0.  1.
        -11    1    1    2    0    0 -0.24637862658E+02  0.23043391917E+02  0.52703751571E+02  0.62575615195E+02  0.00000000000E+00 0.  1.
         11    1    1    2    0    0  0.43197917737E+02 -0.20251951668E+02  0.25136158903E+03  0.25584927219E+03  0.00000000000E+00 0. -1.
</event>
<event>
 7    1  0.6369464E-006  0.2304303E+03  0.7561462E-02  0.1126337E+00
         -1   -1    0    0    0  501 -0.00000000000E+00  0.00000000000E+00  0.22886292739E+02  0.22886292739E+02  0.00000000000E+00 0.  1.
          1   -1    0    0  501    0  0.00000000000E+00 -0.00000000000E+00 -0.23853885817E+04  0.23853885817E+04  0.00000000000E+00 0. -1.
         23    2    1    2    0    0 -0.18934342726E+03  0.77832938852E+02 -0.10884230179E+04  0.11145509424E+04  0.12510090926E+03 0.  0.
          5    1    3    3  502    0 -0.14161807327E+03 -0.38460076856E+01 -0.55648431003E+03  0.57424971064E+03  0.41800000000E+01 0.  1.
         -5    1    3    3    0  502 -0.47725353988E+02  0.81678946537E+02 -0.53193870788E+03  0.54030123178E+03  0.41800000000E+01 0.  1.
        -11    1    1    2    0    0  0.39737995040E+02 -0.62478408207E+02 -0.44362626617E+03  0.44976318633E+03  0.00000000000E+00 0.  1.
         11    1    1    2    0    0  0.14960543222E+03 -0.15354530645E+02 -0.83045300491E+03  0.84396074572E+03  0.00000000000E+00 0. -1.
</event>
<event>
 7    1  0.4394360E-006  0.1192875E+03  0.7561462E-02  0.1244277E+00
         -3   -1    0    0    0  501 -0.00000000000E+00  0.00000000000E+00  0.19517276641E+03  0.19517276641E+03  0.00000000000E+00 0.  1.
          3   -1    0    0  501    0  0.00000000000E+00 -0.00000000000E+00 -0.88771563266E+02  0.88771563266E+02  0.00000000000E+00 0. -1.
         23    2    1    2    0    0 -0.49704179398E+02 -0.45021032389E+02  0.72945697130E+02  0.15958024715E+03  0.12508949494E+03 0.  0.
          5    1    3    3  502    0 -0.38969261472E+02 -0.88423079764E+02  0.54647270957E+02  0.11109023808E+03  0.41800000000E+01 0.  1.
         -5    1    3    3    0  502 -0.10734917927E+02  0.43402047375E+02  0.18298426173E+02  0.48490009070E+02  0.41800000000E+01 0.  1.
        -11    1    1    2    0    0  0.35959970971E+02  0.64063499938E+02  0.55562752568E+02  0.92111188297E+02  0.00000000000E+00 0.  1.
         11    1    1    2    0    0  0.13744208428E+02 -0.19042467548E+02 -0.22107246555E+02  0.32252894224E+02  0.00000000000E+00 0. -1.
</event>
<event>
 7    1  0.4394360E-006  0.1346786E+03  0.7561462E-02  0.1220674E+00
         -1   -1    0    0    0  501 -0.00000000000E+00  0.00000000000E+00  0.45890146091E+02  0.45890146091E+02  0.00000000000E+00 0.  1.
          1   -1    0    0  501    0  0.00000000000E+00 -0.00000000000E+00 -0.74252174439E+03  0.74252174439E+03  0.00000000000E+00 0. -1.
         23    2    1    2    0    0 -0.11387640204E+03  0.19671753657E+02 -0.20222806632E+03  0.26437664999E+03  0.12507601457E+03 0.  0.
          5    1    3    3  502    0 -0.47638266054E+02  0.21433820684E+02 -0.18970807933E+03  0.19681321303E+03  0.41800000000E+01 0. -1.
         -5    1    3    3    0  502 -0.66238135988E+02 -0.17620670264E+01 -0.12519986989E+02  0.67563436958E+02  0.41800000000E+01 0. -1.
        -11    1    1    2    0    0 -0.14265205581E+02 -0.17263478994E+02 -0.13067608435E+02  0.25928482166E+02  0.00000000000E+00 0.  1.
         11    1    1    2    0    0  0.12814160762E+03 -0.24082746632E+01 -0.48133592355E+03  0.49810675833E+03  0.00000000000E+00 0. -1.
</event>
<event>
 7    1  0.4394360E-006  0.2780945E+03  0.7561462E-02  0.1096734E+00
          2   -1    0    0  501    0  0.00000000000E+00  0.00000000000E+00  0.16798772964E+03  0.16798772964E+03  0.00000000000E+00 0. -1.
         -2   -1    0    0    0  501 -0.00000000000E+00 -0.00000000000E+00 -0.55664331236E+03  0.55664331236E+03  0.00000000000E+00 0.  1.
         23    2    1    2    0    0 -0.97614886345E+02 -0.23771064508E+03 -0.34632166170E+03  0.44902151321E+03  0.12508640668E+03 0.  0.
          5    1    3    3  502    0 -0.11058563098E+03 -0.10576922863E+03 -0.19069362429E+03  0.24453597333E+03  0.41800000000E+01 0. -1.
         -5    1    3    3    0  502  0.12970744640E+02 -0.13194141645E+03 -0.15562803741E+03  0.20448553988E+03  0.41800000000E+01 0. -1.
        -11    1    1    2    0    0  0.56682340652E+02  0.21759484516E+03 -0.47153148021E+02  0.22974730412E+03  0.00000000000E+00 0.  1.
         11    1    1    2    0    0  0.40932545694E+02  0.20115799921E+02  0.48192270079E+01  0.45862224678E+02  0.00000000000E+00 0. -1.
</event>
<event>
 7    1  0.4394360E-006  0.1510718E+03  0.7561462E-02  0.1199162E+00
         -1   -1    0    0    0  501 -0.00000000000E+00  0.00000000000E+00  0.29268870560E+03  0.29268870560E+03  0.00000000000E+00 0.  1.
          1   -1    0    0  501    0  0.00000000000E+00 -0.00000000000E+00 -0.94343421086E+02  0.94343421086E+02  0.00000000000E+00 0. -1.
         23    2    1    2    0    0  0.52823971952E+02 -0.11402741550E+03  0.10869686954E+03  0.20799739104E+03  0.12512106830E+03 0.  0.
          5    1    3    3  502    0 -0.13401597611E+02 -0.10870437281E+03  0.78962502810E+02  0.13508809251E+03  0.41800000000E+01 0. -1.
         -5    1    3    3    0  502  0.66225569563E+02 -0.53230426857E+01  0.29734366733E+02  0.72909298532E+02  0.41800000000E+01 0. -1.
        -11    1    1    2    0    0 -0.35692764829E+02  0.66978073825E+02 -0.51998010367E+00  0.75896681178E+02  0.00000000000E+00 0.  1.
         11    1    1    2    0    0 -0.17131207123E+02  0.47049341673E+02  0.90168395072E+02  0.10313805447E+03  0.00000000000E+00 0. -1.
</event>
<event>
 7    1  0.4394360E-006  0.1357367E+03  0.7561462E-02  0.1219184E+00
         -1   -1    0    0    0  501 -0.00000000000E+00  0.00000000000E+00  0.32694544438E+02  0.32694544438E+02  0.00000000000E+00 0. -1.
          1   -1    0    0  501    0  0.00000000000E+00 -0.00000000000E+00 -0.60429888804E+03  0.60429888804E+03  0.00000000000E+00 0.  1.
         23    2    1    2    0    0  0.68670568292E+02 -0.60938785175E+02 -0.29594198458E+03  0.33415236838E+03  0.12508782742E+03 0.  0.
          5    1    3    3  502    0  0.28386604358E+02  0.33249163867E+02 -0.14635325067E+03  0.15280069563E+03  0.41800000000E+01 0.  1.
         -5    1    3    3    0  502  0.40283963933E+02 -0.94187949043E+02 -0.14958873391E+03  0.18135167275E+03  0.41800000000E+01 0.  1.
        -11    1    1    2    0    0 -0.50378595998E+02 -0.10350188233E+02 -0.12485341440E+03  0.13503149417E+03  0.00000000000E+00 0. -1.
         11    1    1    2    0    0 -0.18291972294E+02  0.71288973408E+02 -0.15080894462E+03  0.16780956993E+03  0.00000000000E+00 0.  1.
</event>
<event>
 7    1  0.4394360E-006  0.1499099E+03  0.7561462E-02  0.1200584E+00
          2   -1    0    0  501    0  0.00000000000E+00  0.00000000000E+00  0.94429682663E+03  0.94429682663E+03  0.00000000000E+00 0. -1.
         -2   -1    0    0    0  501 -0.00000000000E+00 -0.00000000000E+00 -0.38560827139E+02  0.38560827139E+02  0.00000000000E+00 0.  1.
         23    2    1    2    0    0  0.32395673513E+02  0.14582166269E+03  0.36322551731E+03  0.41217813241E+03  0.12507837318E+03 0.  0.
          5    1    3    3  502    0  0.22270242280E+02  0.76356017107E+02  0.56900103615E+02  0.97884111229E+02  0.41800000000E+01 0. -1.
         -5    1    3    3    0  502  0.10125431233E+02  0.69465645586E+02  0.30632541369E+03  0.31429402118E+03  0.41800000000E+01 0. -1.
        -11    1    1    2    0    0 -0.24220401455E+02 -0.12757867840E+03  0.53290866572E+03  0.54850213584E+03  0.00000000000E+00 0. -1.
         11    1    1    2    0    0 -0.81752720578E+01 -0.18242984291E+02  0.96018164712E+01  0.22177385523E+02  0.00000000000E+00 0.  1.
</event>
<event>
 7    1  0.4394360E-006  0.8016484E+02  0.7561462E-02  0.1328584E+00
          2   -1    0    0  501    0  0.00000000000E+00  0.00000000000E+00  0.11735488883E+03  0.11735488883E+03  0.00000000000E+00 0. -1.
         -2   -1    0    0    0  501 -0.00000000000E+00 -0.00000000000E+00 -0.11860430710E+03  0.11860430710E+03  0.00000000000E+00 0.  1.
         23    2    1    2    0    0 -0.36878093370E+02  0.10013664532E+02 -0.24626732505E+02  0.13310007113E+03  0.12509550644E+03 0.  0.
          5    1    3    3  502    0 -0.41371982199E+02  0.46869252080E+02  0.27943194366E+02  0.68605117979E+02  0.41800000000E+01 0. -1.
         -5    1    3    3    0  502  0.44938888282E+01 -0.36855587548E+02 -0.52569926871E+02  0.64494953148E+02  0.41800000000E+01 0. -1.
        -11    1    1    2    0    0  0.44169027598E+02  0.41666939311E+01  0.53060669836E+02  0.69164290069E+02  0.00000000000E+00 0. -1.
         11    1    1    2    0    0 -0.72909342277E+01 -0.14180358463E+02 -0.29683355602E+02  0.33694834735E+02  0.00000000000E+00 0.  1.
</event>
<event>
 7    1  0.4394360E-006  0.9419846E+02  0.7561462E-02  0.1292992E+00
         -2   -1    0    0    0  501 -0.00000000000E+00  0.00000000000E+00  0.67938499026E+02  0.67938499026E+02  0.00000000000E+00 0.  1.
          2   -1    0    0  501    0  0.00000000000E+00 -0.00000000000E+00 -0.27913429042E+03  0.27913429042E+03  0.00000000000E+00 0. -1.
         23    2    1    2    0    0 -0.14472328461E+01 -0.45260939562E+02 -0.25854289910E+02  0.13552481872E+03  0.12509150671E+03 0.  0.
          5    1    3    3  502    0  0.56275164884E+01 -0.87097629226E+02 -0.30697293723E+02  0.92614589566E+02  0.41800000000E+01 0.  1.
         -5    1    3    3    0  502 -0.70747493345E+01  0.41836689664E+02  0.48430038124E+01  0.42910229155E+02  0.41800000000E+01 0.  1.
        -11    1    1    2    0    0  0.18771241759E+02  0.29471079642E+02 -0.18482838779E+03  0.18810219825E+03  0.00000000000E+00 0. -1.
         11    1    1    2    0    0 -0.17324008913E+02  0.15789859920E+02 -0.51311368803E+00  0.23445772471E+02  0.00000000000E+00 0.  1.
</event>
<event>
 7    1  0.4394360E-006  0.1496810E+03  0.7561462E-02  0.1200866E+00
          2   -1    0    0  501    0  0.00000000000E+00  0.00000000000E+00  0.98767497841E+02  0.98767497841E+02  0.00000000000E+00 0. -1.
         -2   -1    0    0    0  501 -0.00000000000E+00 -0.00000000000E+00 -0.37315984426E+03  0.37315984426E+03  0.00000000000E+00 0.  1.
         23    2    1    2    0    0 -0.77504429566E+02  0.10393895240E+03 -0.24065618252E+03  0.30062171452E+03  0.12509106536E+03 0.  0.
          5    1    3    3  502    0  0.36498415314E+00  0.89981133582E+02 -0.17845036249E+03  0.19989682810E+03  0.41800000000E+01 0.  1.
         -5    1    3    3    0  502 -0.77869413719E+02  0.13957818813E+02 -0.62205820027E+02  0.10072488642E+03  0.41800000000E+01 0.  1.
        -11    1    1    2    0    0  0.30867438988E+02 -0.49964780512E+02 -0.69926734447E+02  0.91318269102E+02  0.00000000000E+00 0.  1.
         11    1    1    2    0    0  0.46636990578E+02 -0.53974171884E+02  0.36190570538E+02  0.79987358480E+02  0.00000000000E+00 0. -1.
</event>
<event>
 7    1  0.4394360E-006  0.1921982E+03  0.7561462E-02  0.1156494E+00
          2   -1    0    0  501    0  0.00000000000E+00  0.00000000000E+00  0.29505715959E+03  0.29505715959E+03  0.00000000000E+00 0. -1.
         -2   -1    0    0    0  501 -0.00000000000E+00 -0.00000000000E+00 -0.17063645518E+03  0.17063645518E+03  0.00000000000E+00 0.  1.
         23    2    1    2    0    0 -0.99236172639E+02 -0.14188065334E+03 -0.30065045027E+02  0.21570465446E+03  0.12508658309E+03 0.  0.
          5    1    3    3  502    0 -0.11598718057E+02 -0.78916233029E+02 -0.64167283375E+02  0.10245591614E+03  0.41800000000E+01 0. -1.
         -5    1    3    3    0  502 -0.87637454582E+02 -0.62964420311E+02  0.34102238348E+02  0.11324873832E+03  0.41800000000E+01 0. -1.
        -11    1    1    2    0    0  0.65741050590E+02  0.14848786879E+03  0.12864775161E+03  0.20717330162E+03  0.00000000000E+00 0. -1.
         11    1    1    2    0    0  0.33495122049E+02 -0.66072154495E+01  0.25837997824E+02  0.42815658685E+02  0.00000000000E+00 0.  1.
</event>
<event>
 6    1  0.4394360E-006  0.1506144E+03  0.7561462E-02  0.1199720E+00
         -2   -1    0    0    0  501 -0.00000000000E+00  0.00000000000E+00  0.34636918937E+02  0.34636918937E+02  0.00000000000E+00 0.  1.
          2   -1    0    0  501    0  0.00000000000E+00 -0.00000000000E+00 -0.86236449383E+03  0.86236449383E+03  0.00000000000E+00 0. -1.
          5    1    1    2  502    0 -0.50555343648E+02  0.26044957683E+02 -0.53664713346E+02  0.78304255635E+02  0.41800000000E+01 0. -1.
         -5    1    1    2    0  502 -0.14360809840E+02 -0.10668289357E+03 -0.18936166509E+03  0.21785955395E+03  0.41800000000E+01 0.  1.
        -11    1    1    2    0    0  0.11353078335E+02  0.82114803696E+02 -0.30584592940E+03  0.31688083865E+03  0.00000000000E+00 0.  1.
         11    1    1    2    0    0  0.53563075152E+02 -0.14768678039E+01 -0.27885526706E+03  0.28395676453E+03  0.00000000000E+00 0. -1.
</event>
<event>
 7    1  0.4394360E-006  0.8544027E+02  0.7561462E-02  0.1314285E+00
          2   -1    0    0  501    0  0.00000000000E+00  0.00000000000E+00  0.11802240990E+04  0.11802240990E+04  0.00000000000E+00 0. -1.
         -2   -1    0    0    0  501 -0.00000000000E+00 -0.00000000000E+00 -0.11954173704E+02  0.11954173704E+02  0.00000000000E+00 0.  1.
         23    2    1    2    0    0  0.61225544115E+02 -0.24973866190E+01  0.64405556412E+03  0.65779927581E+03  0.11890127581E+03 0.  0.
          5    1    3    3  502    0  0.32664701952E+02  0.11766312817E+02  0.60974725295E+03  0.61074922329E+03  0.41800000000E+01 0. -1.
         -5    1    3    3    0  502  0.28560842164E+02 -0.14263699436E+02  0.34308311174E+02  0.47050052522E+02  0.41800000000E+01 0.  1.
        -11    1    1    2    0    0 -0.57618046818E+02  0.37356404318E+02  0.34235051548E+03  0.34916932241E+03  0.00000000000E+00 0. -1.
         11    1    1    2    0    0 -0.36074972975E+01 -0.34859017699E+02  0.18186384573E+03  0.18520967452E+03  0.00000000000E+00 0.  1.
</event>
<event>
 7    1  0.4394360E-006  0.7931692E+02  0.7561462E-02  0.1331001E+00
          2   -1    0    0  501    0  0.00000000000E+00  0.00000000000E+00  0.97958220591E+03  0.97958220591E+03  0.00000000000E+00 0. -1.
         -2   -1    0    0    0  501 -0.00000000000E+00 -0.00000000000E+00 -0.14460422085E+02  0.14460422085E+02  0.00000000000E+00 0.  1.
         23    2    1    2    0    0 -0.42301165224E+02 -0.26943913734E+02  0.57249489058E+03  0.58814281377E+03  0.12508479754E+03 0.  0.
          5    1    3    3  502    0 -0.21892940843E+02 -0.27167161955E+02  0.56486425596E+03  0.56595623118E+03  0.41800000000E+01 0.  1.
         -5    1    3    3    0  502 -0.20408224381E+02  0.22324822072E+00  0.76306346190E+01  0.22186582586E+02  0.41800000000E+01 0.  1.
        -11    1    1    2    0    0  0.61513770073E+02 -0.87416695308E+01  0.22251416381E+03  0.23102578598E+03  0.00000000000E+00 0. -1.
         11    1    1    2    0    0 -0.19212604849E+02  0.35685583265E+02  0.17011272943E+03  0.17487402824E+03  0.00000000000E+00 0.  1.
</event>
<event>
 7    1  0.4394360E-006  0.1175174E+03  0.7561462E-02  0.1247250E+00
          3   -1    0    0  501    0  0.00000000000E+00  0.00000000000E+00  0.55790076044E+02  0.55790076044E+02  0.00000000000E+00 0. -1.
         -3   -1    0    0    0  501 -0.00000000000E+00 -0.00000000000E+00 -0.31112084744E+03  0.31112084744E+03  0.00000000000E+00 0.  1.
         23    2    1    2    0    0  0.69967205227E+02 -0.75108901917E+00 -0.17920221323E+03  0.22946812572E+03  0.12508482544E+03 0.  0.
          5    1    3    3  502    0 -0.27067707957E+02  0.25970259761E+02 -0.78132362995E+02  0.86771272627E+02  0.41800000000E+01 0. -1.
         -5    1    3    3    0  502  0.97034913184E+02 -0.26721348780E+02 -0.10106985024E+03  0.14269685310E+03  0.41800000000E+01 0. -1.
        -11    1    1    2    0    0 -0.83063108614E+02  0.36546862060E+01 -0.86878604498E+02  0.12025276988E+03  0.00000000000E+00 0.  1.
         11    1    1    2    0    0  0.13095903387E+02 -0.29035971868E+01  0.10750046337E+02  0.17190027877E+02  0.00000000000E+00 0. -1.
</event>
<event>
 7    1  0.4394360E-006  0.1085295E+03  0.7561462E-02  0.1263317E+00
         -1   -1    0    0    0  501 -0.00000000000E+00  0.00000000000E+00  0.93105827954E+02  0.93105827954E+02  0.00000000000E+00 0.  1.
          1   -1    0    0  501    0  0.00000000000E+00 -0.00000000000E+00 -0.16432046388E+03  0.16432046388E+03  0.00000000000E+00 0. -1.
         23    2    1    2    0    0 -0.36336433582E+00  0.32809955042E+02  0.11412027459E+02  0.12982603280E+03  0.12509172330E+03 0.  0.
          5    1    3    3  502    0  0.45441538228E+02 -0.26990736276E+02  0.12093252992E+02  0.54379705858E+02  0.41800000000E+01 0. -1.
         -5    1    3    3    0  502 -0.45804902564E+02  0.59800691318E+02 -0.68122553244E+00  0.75446326943E+02  0.41800000000E+01 0. -1.
        -11    1    1    2    0    0  0.18013693619E+02  0.23486608617E+02 -0.54988685604E+02  0.62448935032E+02  0.00000000000E+00 0. -1.
         11    1    1    2    0    0 -0.17650329283E+02 -0.56296563658E+02 -0.27637977785E+02  0.65151324005E+02  0.00000000000E+00 0.  1.
</event>
<event>
 7    1  0.4394360E-006  0.9535415E+02  0.7561462E-02  0.1290380E+00
         -1   -1    0    0    0  501 -0.00000000000E+00  0.00000000000E+00  0.12951021557E+03  0.12951021557E+03  0.00000000000E+00 0.  1.
          1   -1    0    0  501    0  0.00000000000E+00 -0.00000000000E+00 -0.14942376969E+03  0.14942376969E+03  0.00000000000E+00 0. -1.
         23    2    1    2    0    0 -0.51864118889E+02  0.29705303137E+02  0.51737179352E+02  0.14797573862E+03  0.12509113330E+03 0.  0.
          5    1    3    3  502    0 -0.65846961276E+02  0.30899944201E+02  0.84809474049E+02  0.11180674465E+03  0.41800000000E+01 0.  1.
         -5    1    3    3    0  502  0.13982842387E+02 -0.11946410640E+01 -0.33072294697E+02  0.36168993973E+02  0.41800000000E+01 0.  1.
        -11    1    1    2    0    0 -0.22757873903E+02  0.35176879058E+00  0.68615559975E+00  0.22770932686E+02  0.00000000000E+00 0.  1.
         11    1    1    2    0    0  0.74621992792E+02 -0.30057071927E+02 -0.72336889072E+02  0.10818731396E+03  0.00000000000E+00 0. -1.
</event>
<event>
 7    1  0.4394360E-006  0.1188812E+03  0.7561462E-02  0.1244954E+00
          1   -1    0    0  501    0  0.00000000000E+00  0.00000000000E+00  0.57849377331E+03  0.57849377331E+03  0.00000000000E+00 0. -1.
         -1   -1    0    0    0  501 -0.00000000000E+00 -0.00000000000E+00 -0.26655155918E+02  0.26655155918E+02  0.00000000000E+00 0.  1.
         23    2    1    2    0    0 -0.36723781815E+02 -0.31541258791E+02  0.22320777791E+03  0.26040738738E+03  0.12508720208E+03 0.  0.
          5    1    3    3  502    0  0.21039826819E+02 -0.63807407066E+02  0.10105244685E+03  0.12142128694E+03  0.41800000000E+01 0. -1.
         -5    1    3    3    0  502 -0.57763608634E+02  0.32266148275E+02  0.12215533107E+03  0.13898610044E+03  0.41800000000E+01 0. -1.
        -11    1    1    2    0    0  0.67921413640E+02  0.19035009298E+02  0.22441836008E+03  0.23524296026E+03  0.00000000000E+00 0.  1.
         11    1    1    2    0    0 -0.31197631825E+02  0.12506249493E+02  0.10421247940E+03  0.10949858159E+03  0.00000000000E+00 0. -1.
</event>
<event>
 7    1  0.4394360E-006  0.1090279E+03  0.7561462E-02  0.1262381E+00
          2   -1    0    0  501    0  0.00000000000E+00  0.00000000000E+00  0.35876000776E+03  0.35876000776E+03  0.00000000000E+00 0. -1.
         -2   -1    0    0    0  501 -0.00000000000E+00 -0.00000000000E+00 -0.42423651035E+02  0.42423651035E+02  0.00000000000E+00 0.  1.
         23    2    1    2    0    0  0.30353774546E+02  0.35344432625E+02  0.16787440509E+03  0.21447324761E+03  0.12508548080E+03 0.  0.
          5    1    3    3  502    0 -0.22506219772E+02  0.56144089849E+02  0.13669718647E+03  0.14954023519E+03  0.41800000000E+01 0.  1.
         -5    1    3    3    0  502  0.52859994318E+02 -0.20799657224E+02  0.31177218625E+02  0.64933012414E+02  0.41800000000E+01 0.  1.
        -11    1    1    2    0    0  0.13436261317E+02  0.23527438947E+02  0.80177116483E+01  0.28255215477E+02  0.00000000000E+00 0.  1.
         11    1    1    2    0    0 -0.43790035863E+02 -0.58871871572E+02  0.14044423998E+03  0.15845519571E+03  0.00000000000E+00 0. -1.
</event>
<event>
 7    1  0.4394360E-006  0.1274575E+03  0.7561462E-02  0.1231278E+00
         -1   -1    0    0    0  501 -0.00000000000E+00  0.00000000000E+00  0.16503151216E+02  0.16503151216E+02  0.00000000000E+00 0.  1.
          1   -1    0    0  501    0  0.00000000000E+00 -0.00000000000E+00 -0.10056447730E+04  0.10056447730E+04  0.00000000000E+00 0. -1.
         23    2    1    2    0    0  0.23480853429E+02 -0.65015863205E+02 -0.54057554743E+03  0.55914889234E+03  0.12508856214E+03 0.  0.
          5    1    3    3  502    0  0.72204245287E+02 -0.56093595977E+02 -0.38931781337E+03  0.39993221520E+03  0.41800000000E+01 0. -1.
         -5    1    3    3    0  502 -0.48723391857E+02 -0.89222672287E+01 -0.15125773406E+03  0.15921667714E+03  0.41800000000E+01 0. -1.
        -11    1    1    2    0    0 -0.48353360451E+02  0.72993689106E+02 -0.31726031669E+03  0.32912039539E+03  0.00000000000E+00 0.  1.
         11    1    1    2    0    0  0.24872507022E+02 -0.79778259009E+01 -0.13130575767E+03  0.13387863649E+03  0.00000000000E+00 0. -1.
</event>
<event>
 6    1  0.4394360E-006  0.9838278E+02  0.7561462E-02  0.1283734E+00
         -1   -1    0    0    0  501 -0.00000000000E+00  0.00000000000E+00  0.10011236520E+03  0.10011236520E+03  0.00000000000E+00 0.  1.
          1   -1    0    0  501    0  0.00000000000E+00 -0.00000000000E+00 -0.16395314588E+03  0.16395314588E+03  0.00000000000E+00 0. -1.
          5    1    1    2  502    0 -0.30932847286E+02  0.60830932032E+02 -0.54611229884E+02  0.87504869365E+02  0.41800000000E+01 0. -1.
         -5    1    1    2    0  502  0.66737747518E+01 -0.27823809099E+02  0.51999997269E+02  0.59499375948E+02  0.41800000000E+01 0.  1.
        -11    1    1    2    0    0  0.44091595032E+02  0.15766151198E+02 -0.33316294294E+02  0.57468389063E+02  0.00000000000E+00 0.  1.
         11    1    1    2    0    0 -0.19832522498E+02 -0.48773274131E+02 -0.27913253769E+02  0.59592876706E+02  0.00000000000E+00 0. -1.
</event>
<event>
 7    1  0.4394360E-006  0.1285848E+03  0.7561462E-02  0.1229571E+00
         -1   -1    0    0    0  501 -0.00000000000E+00  0.00000000000E+00  0.74479149053E+02  0.74479149053E+02  0.00000000000E+00 0.  1.
          1   -1    0    0  501    0  0.00000000000E+00 -0.00000000000E+00 -0.26861253056E+03  0.26861253056E+03  0.00000000000E+00 0. -1.
         23    2    1    2    0    0 -0.25098589364E+02  0.84465657031E+02 -0.81704703106E+02  0.17344490165E+03  0.12507233504E+03 0.  0.
          5    1    3    3  502    0  0.48422169649E+02  0.49790816597E+02 -0.51745345692E+02  0.86711505186E+02  0.41800000000E+01 0. -1.
         -5    1    3    3    0  502 -0.73520759013E+02  0.34674840434E+02 -0.29959357415E+02  0.86733396461E+02  0.41800000000E+01 0. -1.
        -11    1    1    2    0    0 -0.13821625282E+02 -0.56765971004E+02 -0.10654844582E+03  0.12151536568E+03  0.00000000000E+00 0. -1.
         11    1    1    2    0    0  0.38920214646E+02 -0.27699686027E+02 -0.58802325873E+01  0.48131412293E+02  0.00000000000E+00 0.  1.
</event>
<event>
 7    1  0.4394360E-006  0.1375565E+03  0.7561462E-02  0.1216655E+00
         -2   -1    0    0    0  501 -0.00000000000E+00  0.00000000000E+00  0.46500820640E+02  0.46500820640E+02  0.00000000000E+00 0.  1.
          2   -1    0    0  501    0  0.00000000000E+00 -0.00000000000E+00 -0.73135816985E+03  0.73135816985E+03  0.00000000000E+00 0. -1.
         23    2    1    2    0    0 -0.79897530374E+02 -0.91837211634E+02 -0.18171364780E+03  0.25196205175E+03  0.12508931580E+03 0.  0.
          5    1    3    3  502    0 -0.99869910617E+02 -0.74314936955E+02 -0.18686973488E+03  0.22457622117E+03  0.41800000000E+01 0. -1.
         -5    1    3    3    0  502  0.19972380243E+02 -0.17522274679E+02  0.51560870868E+01  0.27385830579E+02  0.41800000000E+01 0. -1.
        -11    1    1    2    0    0  0.56340505245E+02  0.78389412913E+02 -0.48181453638E+03  0.49139027265E+03  0.00000000000E+00 0. -1.
         11    1    1    2    0    0  0.23557025129E+02  0.13447798721E+02 -0.21329165033E+02  0.34506666086E+02  0.00000000000E+00 0.  1.
</event>
<event>
 7    1  0.4394360E-006  0.2179998E+03  0.7561462E-02  0.1135383E+00
         -2   -1    0    0    0  501 -0.00000000000E+00  0.00000000000E+00  0.13057209239E+03  0.13057209239E+03  0.00000000000E+00 0.  1.
          2   -1    0    0  501    0  0.00000000000E+00 -0.00000000000E+00 -0.41466744779E+03  0.41466744779E+03  0.00000000000E+00 0. -1.
         23    2    1    2    0    0  0.18696818514E+03 -0.71352798724E+02 -0.94732129513E+02  0.25430355682E+03  0.12509116079E+03 0.  0.
          5    1    3    3  502    0  0.20435039520E+03 -0.74683955971E+02 -0.84526707358E+02  0.23345023871E+03  0.41800000000E+01 0. -1.
         -5    1    3    3    0  502 -0.17382210052E+02  0.33311572469E+01 -0.10205422154E+02  0.20853318111E+02  0.41800000000E+01 0. -1.
        -11    1    1    2    0    0 -0.96679207371E+02  0.33809862226E+02 -0.35053555457E+02  0.10825307234E+03  0.00000000000E+00 0.  1.
         11    1    1    2    0    0 -0.90288977773E+02  0.37542936498E+02 -0.15430967043E+03  0.18268291101E+03  0.00000000000E+00 0. -1.
</event>
<event>
 7    1  0.4394360E-006  0.1207144E+03  0.7561462E-02  0.1241923E+00
          1   -1    0    0  501    0  0.00000000000E+00  0.00000000000E+00  0.36940738408E+03  0.36940738408E+03  0.00000000000E+00 0. -1.
         -1   -1    0    0    0  501 -0.00000000000E+00 -0.00000000000E+00 -0.47004520681E+02  0.47004520681E+02  0.00000000000E+00 0.  1.
         23    2    1    2    0    0 -0.11477627368E+02  0.77642757378E+02  0.13369174772E+03  0.19920136720E+03  0.12509023775E+03 0.  0.
          5    1    3    3  502    0 -0.19711386365E+02  0.10576021937E+03  0.13088152835E+03  0.16947333011E+03  0.41800000000E+01 0. -1.
         -5    1    3    3    0  502  0.82337589973E+01 -0.28117461997E+02  0.28102193751E+01  0.29728037092E+02  0.41800000000E+01 0. -1.
        -11    1    1    2    0    0  0.40001366735E+02 -0.53505408725E+02  0.14537184937E+03  0.15998722665E+03  0.00000000000E+00 0. -1.
         11    1    1    2    0    0 -0.28523739367E+02 -0.24137348653E+02  0.43339266312E+02  0.57223310913E+02  0.00000000000E+00 0.  1.
</event>
<event>
 7    1  0.4394360E-006  0.1297560E+03  0.7561462E-02  0.1227818E+00
          2   -1    0    0  501    0  0.00000000000E+00  0.00000000000E+00  0.14609625355E+03  0.14609625355E+03  0.00000000000E+00 0.  1.
         -2   -1    0    0    0  501 -0.00000000000E+00 -0.00000000000E+00 -0.20223216923E+03  0.20223216923E+03  0.00000000000E+00 0. -1.
         23    2    1    2    0    0  0.49424489272E+01  0.12422192611E+03 -0.79100389170E+02  0.19328728046E+03  0.12509031334E+03 0.  0.
          5    1    3    3  502    0  0.19302339211E+02  0.37471079929E+02  0.30877182985E+02  0.52416933897E+02  0.41800000000E+01 0.  1.
         -5    1    3    3    0  502 -0.14359890283E+02  0.86750846185E+02 -0.10997757216E+03  0.14087034656E+03  0.41800000000E+01 0.  1.
        -11    1    1    2    0    0  0.14672947790E+02 -0.38869458060E+02  0.48456359811E+02  0.63829060567E+02  0.00000000000E+00 0.  1.
         11    1    1    2    0    0 -0.19615396717E+02 -0.85352468053E+02 -0.25491886323E+02  0.91212081762E+02  0.00000000000E+00 0. -1.
</event>
<event>
 7    1  0.4394360E-006  0.1177993E+03  0.7561462E-02  0.1246772E+00
          1   -1    0    0  501    0  0.00000000000E+00  0.00000000000E+00  0.56542803449E+03  0.56542803449E+03  0.00000000000E+00 0. -1.
         -1   -1    0    0    0  501 -0.00000000000E+00 -0.00000000000E+00 -0.28808204076E+02  0.28808204076E+02  0.00000000000E+00 0.  1.
         23    2    1    2    0    0 -0.33236083653E+02  0.44820100050E+02  0.20454330258E+03  0.24488357248E+03  0.12254192267E+03 0.  0.
          5    1    3    3  502    0 -0.78878956706E+02  0.29373076036E+02  0.14943573337E+03  0.17156100436E+03  0.41800000000E+01 0. -1.
         -5    1    3    3    0  502  0.45642873053E+02  0.15447024015E+02  0.55107569211E+02  0.73322568121E+02  0.41800000000E+01 0.  1.
        -11    1    1    2    0    0  0.48287209683E+02  0.71843358741E+01  0.10325966878E+03  0.11421833696E+03  0.00000000000E+00 0.  1.
         11    1    1    2    0    0 -0.15051126030E+02 -0.52004435924E+02  0.22881685905E+03  0.23513432913E+03  0.00000000000E+00 0. -1.
</event>
<event>
 7    1  0.4394360E-006  0.7027367E+02  0.7561462E-02  0.1359165E+00
          2   -1    0    0  501    0  0.00000000000E+00  0.00000000000E+00  0.85742956198E+02  0.85742956198E+02  0.00000000000E+00 0. -1.
         -2   -1    0    0    0  501 -0.00000000000E+00 -0.00000000000E+00 -0.15230815588E+03  0.15230815588E+03  0.00000000000E+00 0.  1.
         23    2    1    2    0    0  0.40752258662E+01 -0.11353132433E+02 -0.75732173665E+02  0.14672278465E+03  0.12508681915E+03 0.  0.
          5    1    3    3  502    0 -0.29374391951E+02  0.31126014749E+02 -0.81539061216E+02  0.92183374861E+02  0.41800000000E+01 0. -1.
         -5    1    3    3    0  502  0.33449617817E+02 -0.42479147182E+02  0.58068875511E+01  0.54539409792E+02  0.41800000000E+01 0. -1.
        -11    1    1    2    0    0 -0.10416603900E+02  0.25645421709E+02 -0.34914588331E+02  0.44555827563E+02  0.00000000000E+00 0.  1.
         11    1    1    2    0    0  0.63413780338E+01 -0.14292289276E+02  0.44081562310E+02  0.46772499867E+02  0.00000000000E+00 0. -1.
</event>
<event>
 7    1  0.4394360E-006  0.2039043E+03  0.7561462E-02  0.1146486E+00
         -2   -1    0    0    0  501 -0.00000000000E+00  0.00000000000E+00  0.89132976265E+02  0.89132976265E+02  0.00000000000E+00 0.  1.
          2   -1    0    0  501    0  0.00000000000E+00 -0.00000000000E+00 -0.63341140536E+03  0.63341140536E+03  0.00000000000E+00 0. -1.
         23    2    1    2    0    0 -0.17627110830E+03 -0.49920808063E+01 -0.10559400663E+03  0.24061190438E+03  0.12509024663E+03 0.  0.
          5    1    3    3  502    0 -0.51916397119E+02 -0.60447787313E+02 -0.43872271795E+02  0.91057651591E+02  0.41800000000E+01 0. -1.
         -5    1    3    3    0  502 -0.12435471118E+03  0.55455706506E+02 -0.61721734832E+02  0.14955425279E+03  0.41800000000E+01 0. -1.
        -11    1    1    2    0    0  0.95612327780E+02 -0.34932788604E+02 -0.29816627455E+03  0.31506371454E+03  0.00000000000E+00 0.  1.
         11    1    1    2    0    0  0.80658780515E+02  0.39924869411E+02 -0.14051814792E+03  0.16686876270E+03  0.00000000000E+00 0. -1.
</event>
<event>
 7    1  0.4394360E-006  0.1145522E+03  0.7561462E-02  0.1252365E+00
         -4   -1    0    0    0  501 -0.00000000000E+00  0.00000000000E+00  0.68493495680E+03  0.68493495680E+03  0.00000000000E+00 0.  1.
          4   -1    0    0  501    0  0.00000000000E+00 -0.00000000000E+00 -0.33934262801E+02  0.33934262801E+02  0.00000000000E+00 0. -1.
         23    2    1    2    0    0  0.39469038300E+02  0.49920155732E+02  0.54893997618E+03  0.56659630997E+03  0.12508578693E+03 0.  0.
          5    1    3    3  502    0  0.28395325187E+02 -0.27846488266E+02  0.35597082473E+03  0.35821002479E+03  0.41800000000E+01 0.  1.
         -5    1    3    3    0  502  0.11073713113E+02  0.77766643998E+02  0.19296915146E+03  0.20838628519E+03  0.41800000000E+01 0.  1.
        -11    1    1    2    0    0 -0.55577712688E+01  0.26378091180E+02  0.12137849044E+02  0.29563827479E+02  0.00000000000E+00 0. -1.
         11    1    1    2    0    0 -0.33911267031E+02 -0.76298246912E+02  0.89922868776E+02  0.12270908215E+03  0.00000000000E+00 0.  1.
</event>
<event>
 7    1  0.4394360E-006  0.1321893E+03  0.7561462E-02  0.1224243E+00
         -1   -1    0    0    0  501 -0.00000000000E+00  0.00000000000E+00  0.11853615204E+03  0.11853615204E+03  0.00000000000E+00 0.  1.
          1   -1    0    0  501    0  0.00000000000E+00 -0.00000000000E+00 -0.30384522429E+03  0.30384522429E+03  0.00000000000E+00 0. -1.
         23    2    1    2    0    0  0.58333057768E+02  0.82682520305E+02  0.43343362674E+02  0.15629859990E+03  0.11095702073E+03 0.  0.
          5    1    3    3  502    0 -0.30999144436E+02  0.49322240401E+01  0.91283406872E+01  0.32955618541E+02  0.41800000000E+01 0. -1.
         -5    1    3    3    0  502  0.89332202204E+02  0.77750296265E+02  0.34215021986E+02  0.12334298135E+03  0.41800000000E+01 0.  1.
        -11    1    1    2    0    0 -0.36958110935E+01 -0.50833513791E+02 -0.17771144522E+03  0.18487580400E+03  0.00000000000E+00 0. -1.
         11    1    1    2    0    0 -0.54637246675E+02 -0.31849006514E+02 -0.50940989708E+02  0.81206972438E+02  0.00000000000E+00 0.  1.
</event>
<event>
 7    1  0.4394360E-006  0.1027103E+03  0.7561462E-02  0.1274698E+00
          1   -1    0    0  501    0  0.00000000000E+00  0.00000000000E+00  0.59609547378E+02  0.59609547378E+02  0.00000000000E+00 0. -1.
         -1   -1    0    0    0  501 -0.00000000000E+00 -0.00000000000E+00 -0.26323619252E+03  0.26323619252E+03  0.00000000000E+00 0.  1.
         23    2    1    2    0    0  0.29416889334E+01  0.13097312610E+02 -0.19241454704E+03  0.22989377651E+03  0.12509035708E+03 0.  0.
          5    1    3    3  502    0  0.13787639239E+02 -0.53573071904E+02 -0.11045879699E+03  0.12360740779E+03  0.41800000000E+01 0.  1.
         -5    1    3    3    0  502 -0.10845950306E+02  0.66670384515E+02 -0.81955750050E+02  0.10628636872E+03  0.41800000000E+01 0.  1.
        -11    1    1    2    0    0 -0.55709283447E+01  0.34324342660E+02 -0.25764285691E+02  0.43278102533E+02  0.00000000000E+00 0.  1.
         11    1    1    2    0    0  0.26292394112E+01 -0.47421655270E+02  0.14552187588E+02  0.49673860853E+02  0.00000000000E+00 0. -1.
</event>
<event>
 7    1  0.4394360E-006  0.7354496E+02  0.7561462E-02  0.1348437E+00
         -1   -1    0    0    0  501 -0.00000000000E+00  0.00000000000E+00  0.27957737140E+03  0.27957737140E+03  0.00000000000E+00 0. -1.
          1   -1    0    0  501    0  0.00000000000E+00 -0.00000000000E+00 -0.58156872641E+02  0.58156872641E+02  0.00000000000E+00 0.  1.
         23    2    1    2    0    0 -0.60550525559E+02 -0.65189204852E+01  0.16472558113E+03  0.21561851562E+03  0.12509182519E+03 0.  0.
          5    1    3    3  502    0 -0.60246819171E+02 -0.26371128929E+02  0.19134028901E+02  0.68619961551E+02  0.41800000000E+01 0.  1.
         -5    1    3    3    0  502 -0.30370638757E+00  0.19852208444E+02  0.14559155223E+03  0.14699855407E+03  0.41800000000E+01 0.  1.
        -11    1    1    2    0    0  0.45009983898E+02  0.46646575597E+01  0.81247578678E+02  0.92999068392E+02  0.00000000000E+00 0. -1.
         11    1    1    2    0    0  0.15540541661E+02  0.18542629255E+01 -0.24552661054E+02  0.29116660024E+02  0.00000000000E+00 0.  1.
</event>
<event>
 7    1  0.4394360E-006  0.9169054E+02  0.7561462E-02  0.1298809E+00
         -1   -1    0    0    0  501 -0.00000000000E+00  0.00000000000E+00  0.11611738224E+03  0.11611738224E+03  0.00000000000E+00 0.  1.
          1   -1    0    0  501    0  0.00000000000E+00 -0.00000000000E+00 -0.12128053652E+03  0.12128053652E+03  0.00000000000E+00 0. -1.
         23    2    1    2    0    0 -0.91918363522E+01  0.29754241958E+02  0.34866199272E+02  0.13354542442E+03  0.12509565845E+03 0.  0.
          5    1    3    3  502    0 -0.55142498293E+02  0.30614176532E+02  0.54436381025E+02  0.83418912135E+02  0.41800000000E+01 0. -1.
         -5    1    3    3    0  502  0.45950661940E+02 -0.85993457457E+00 -0.19570181753E+02  0.50126512287E+02  0.41800000000E+01 0. -1.
        -11    1    1    2    0    0  0.30495554686E+02  0.72313328253E+01 -0.50929445873E+02  0.59800330157E+02  0.00000000000E+00 0. -1.
         11    1    1    2    0    0 -0.21303718334E+02 -0.36985574783E+02  0.10900092323E+02  0.44052164186E+02  0.00000000000E+00 0.  1.
</event>
<event>
 7    1  0.4394360E-006  0.1820317E+03  0.7561462E-02  0.1165851E+00
          1   -1    0    0  501    0  0.00000000000E+00  0.00000000000E+00  0.19130061262E+03  0.19130061262E+03  0.00000000000E+00 0. -1.
         -1   -1    0    0    0  501 -0.00000000000E+00 -0.00000000000E+00 -0.24669681173E+03  0.24669681173E+03  0.00000000000E+00 0.  1.
         23    2    1    2    0    0 -0.84957525259E+02  0.13575535913E+03 -0.12794678742E+03  0.24013470641E+03  0.12508796178E+03 0.  0.
          5    1    3    3  502    0 -0.84265915951E+02  0.58631899251E+02 -0.12638718962E+03  0.16287921384E+03  0.41800000000E+01 0. -1.
         -5    1    3    3    0  502 -0.69160930774E+00  0.77123459879E+02 -0.15595977982E+01  0.77255492572E+02  0.41800000000E+01 0. -1.
        -11    1    1    2    0    0  0.19269052025E+02 -0.11289702348E+03  0.45051052731E+02  0.12307165241E+03  0.00000000000E+00 0. -1.
         11    1    1    2    0    0  0.65688473234E+02 -0.22858335655E+02  0.27499535578E+02  0.74791065520E+02  0.00000000000E+00 0.  1.
</event>
<event>
 7    1  0.4394360E-006  0.8130979E+02  0.7561462E-02  0.1325375E+00
          1   -1    0    0  501    0  0.00000000000E+00  0.00000000000E+00  0.10075926357E+03  0.10075926357E+03  0.00000000000E+00 0.  1.
         -1   -1    0    0    0  501 -0.00000000000E+00 -0.00000000000E+00 -0.14516220133E+03  0.14516220133E+03  0.00000000000E+00 0. -1.
         23    2    1    2    0    0 -0.29669692509E+02 -0.20799025762E+02 -0.62343130988E+02  0.14438532213E+03  0.12509022799E+03 0.  0.
          5    1    3    3  502    0 -0.11237614230E+02 -0.37844111001E+02  0.29257529779E+02  0.49314664754E+02  0.41800000000E+01 0.  1.
         -5    1    3    3    0  502 -0.18432078279E+02  0.17045085239E+02 -0.91600660767E+02  0.95070657374E+02  0.41800000000E+01 0.  1.
        -11    1    1    2    0    0 -0.25754119897E+01 -0.33887647510E+02 -0.43255426136E+01  0.34259534725E+02  0.00000000000E+00 0.  1.
         11    1    1    2    0    0  0.32245104499E+02  0.54686673272E+02  0.22265735841E+02  0.67276608046E+02  0.00000000000E+00 0. -1.
</event>
<event>
 7    1  0.4394360E-006  0.5723906E+02  0.7561462E-02  0.1409797E+00
          1   -1    0    0  501    0  0.00000000000E+00  0.00000000000E+00  0.10011194569E+03  0.10011194569E+03  0.00000000000E+00 0. -1.
         -1   -1    0    0    0  501 -0.00000000000E+00 -0.00000000000E+00 -0.14458079323E+03  0.14458079323E+03  0.00000000000E+00 0.  1.
         23    2    1    2    0    0 -0.14549920092E+02 -0.31337872899E+02 -0.28367373745E+02  0.13283023482E+03  0.12508157713E+03 0.  0.
          5    1    3    3  502    0 -0.75188237401E+01  0.35118920790E+00  0.48514365420E+02  0.49272427344E+02  0.41800000000E+01 0.  1.
         -5    1    3    3    0  502 -0.70310963515E+01 -0.31689062107E+02 -0.76881739165E+02  0.83557807475E+02  0.41800000000E+01 0.  1.
        -11    1    1    2    0    0 -0.10569930526E+01  0.49319380303E+02 -0.50129718664E+02  0.70331409776E+02  0.00000000000E+00 0.  1.
         11    1    1    2    0    0  0.15606913144E+02 -0.17981507404E+02  0.34028244873E+02  0.41531094322E+02  0.00000000000E+00 0. -1.
</event>
<event>
 7    1  0.4394360E-006  0.1071306E+03  0.7561462E-02  0.1265978E+00
          1   -1    0    0  501    0  0.00000000000E+00  0.00000000000E+00  0.85238203808E+02  0.85238203808E+02  0.00000000000E+00 0. -1.
         -1   -1    0    0    0  501 -0.00000000000E+00 -0.00000000000E+00 -0.21904968777E+03  0.21904968777E+03  0.00000000000E+00 0.  1.
         23    2    1    2    0    0  0.34727610197E+02  0.50677464736E+02 -0.13538001603E+03  0.19429773270E+03  0.12509855255E+03 0.  0.
          5    1    3    3  502    0 -0.51555225744E+01  0.74847348784E+02 -0.33693912157E+02  0.82349603214E+02  0.41800000000E+01 0. -1.
         -5    1    3    3    0  502  0.39883132771E+02 -0.24169884048E+02 -0.10168610388E+03  0.11194812949E+03  0.41800000000E+01 0. -1.
        -11    1    1    2    0    0  0.15426869795E+02 -0.37338514785E+02  0.30456432290E+02  0.50593944953E+02  0.00000000000E+00 0. -1.
         11    1    1    2    0    0 -0.50154479992E+02 -0.13338949950E+02 -0.28887900215E+02  0.59396213919E+02  0.00000000000E+00 0.  1.
</event>
<event>
 7    1  0.4394360E-006  0.1262649E+03  0.7561462E-02  0.1233106E+00
         -2   -1    0    0    0  501 -0.00000000000E+00  0.00000000000E+00  0.19174884467E+02  0.19174884467E+02  0.00000000000E+00 0.  1.
          2   -1    0    0  501    0  0.00000000000E+00 -0.00000000000E+00 -0.86602857580E+03  0.86602857580E+03  0.00000000000E+00 0. -1.
         23    2    1    2    0    0  0.57611451249E+02  0.37835495553E+02 -0.42258966777E+03  0.44607217026E+03  0.12509096586E+03 0.  0.
          5    1    3    3  502    0  0.39220466964E+01 -0.44249447626E+02 -0.13635801345E+03  0.14347256287E+03  0.41800000000E+01 0.  1.
         -5    1    3    3    0  502  0.53689404552E+02  0.82084943179E+02 -0.28623165432E+03  0.30259960739E+03  0.41800000000E+01 0.  1.
        -11    1    1    2    0    0  0.22560624560E+02 -0.11692756262E+02 -0.58642700110E+02  0.63911412172E+02  0.00000000000E+00 0. -1.
         11    1    1    2    0    0 -0.80172075809E+02 -0.26142739291E+02 -0.36562132346E+03  0.37521987784E+03  0.00000000000E+00 0.  1.
</event>
<event>
 7    1  0.4394360E-006  0.1424950E+03  0.7561462E-02  0.1210011E+00
          4   -1    0    0  501    0  0.00000000000E+00  0.00000000000E+00  0.37471485339E+03  0.37471485339E+03  0.00000000000E+00 0. -1.
         -4   -1    0    0    0  501 -0.00000000000E+00 -0.00000000000E+00 -0.71624849305E+02  0.71624849305E+02  0.00000000000E+00 0.  1.
         23    2    1    2    0    0  0.10798408842E+03  0.27129244054E+02  0.96075859800E+02  0.19306026726E+03  0.12508052096E+03 0.  0.
          5    1    3    3  502    0  0.12437926339E+03  0.45148264908E+02  0.51422504529E+02  0.14202222839E+03  0.41800000000E+01 0. -1.
         -5    1    3    3    0  502 -0.16395174971E+02 -0.18019020853E+02  0.44653355271E+02  0.51038038871E+02  0.41800000000E+01 0. -1.
        -11    1    1    2    0    0 -0.31244914165E+02 -0.39280079614E+02  0.26505903933E+02  0.56760305310E+02  0.00000000000E+00 0. -1.
         11    1    1    2    0    0 -0.76739174251E+02  0.12150835559E+02  0.18050824035E+03  0.19651913012E+03  0.00000000000E+00 0.  1.
</event>
<event>
 7    1  0.4394360E-006  0.8965465E+02  0.7561462E-02  0.1303690E+00
         -3   -1    0    0    0  501 -0.00000000000E+00  0.00000000000E+00  0.29036775935E+02  0.29036775935E+02  0.00000000000E+00 0.  1.
          3   -1    0    0  501    0  0.00000000000E+00 -0.00000000000E+00 -0.48722182815E+03  0.48722182815E+03  0.00000000000E+00 0. -1.
         23    2    1    2    0    0 -0.21212022815E+02  0.62481207842E+01 -0.16338995925E+03  0.20696060858E+03  0.12508967102E+03 0.  0.
          5    1    3    3  502    0  0.31199731453E+02 -0.14621389550E+02 -0.69896291159E+00  0.34715547299E+02  0.41800000000E+01 0.  1.
         -5    1    3    3    0  502 -0.52411754268E+02  0.20869510334E+02 -0.16269099633E+03  0.17224506128E+03  0.41800000000E+01 0.  1.
        -11    1    1    2    0    0  0.51753997028E+02  0.11066185875E+02 -0.12219854914E+03  0.13316689563E+03  0.00000000000E+00 0.  1.
         11    1    1    2    0    0 -0.30541974213E+02 -0.17314306659E+02 -0.17259654383E+03  0.17613109988E+03  0.00000000000E+00 0. -1.
</event>
<event>
 7    1  0.4394360E-006  0.1662104E+03  0.7561462E-02  0.1181858E+00
          2   -1    0    0  501    0  0.00000000000E+00  0.00000000000E+00  0.77518194601E+02  0.77518194601E+02  0.00000000000E+00 0.  1.
         -2   -1    0    0    0  501 -0.00000000000E+00 -0.00000000000E+00 -0.36682848884E+03  0.36682848884E+03  0.00000000000E+00 0. -1.
         23    2    1    2    0    0  0.31515729847E+02 -0.11602097910E+03 -0.15757326385E+03  0.23437321467E+03  0.12508941383E+03 0.  0.
          5    1    3    3  502    0  0.27197430596E+02 -0.14262277210E+03 -0.14114693635E+03  0.20253613355E+03  0.41800000000E+01 0. -1.
         -5    1    3    3    0  502  0.43182992508E+01  0.26601792993E+02 -0.16426327499E+02  0.31837081115E+02  0.41800000000E+01 0. -1.
        -11    1    1    2    0    0 -0.70260226268E+02  0.64060013109E+02 -0.99352749087E+02  0.13751782948E+03  0.00000000000E+00 0. -1.
         11    1    1    2    0    0  0.38744496421E+02  0.51960965995E+02 -0.32384281303E+02  0.72455639294E+02  0.00000000000E+00 0.  1.
</event>
<event>
 7    1  0.4394360E-006  0.9442412E+02  0.7561462E-02  0.1292478E+00
         -1   -1    0    0    0  501 -0.00000000000E+00  0.00000000000E+00  0.39178395814E+02  0.39178395814E+02  0.00000000000E+00 0.  1.
          1   -1    0    0  501    0  0.00000000000E+00 -0.00000000000E+00 -0.46279708364E+03  0.46279708364E+03  0.00000000000E+00 0. -1.
         23    2    1    2    0    0  0.50525062325E+02  0.34709385298E+02 -0.13778220497E+03  0.19593161332E+03  0.12509091791E+03 0.  0.
          5    1    3    3  502    0  0.21514973565E+02  0.53123020002E+02 -0.14887696072E+03  0.15958311682E+03  0.41800000000E+01 0.  1.
         -5    1    3    3    0  502  0.29010088759E+02 -0.18413634704E+02  0.11094755750E+02  0.36348496503E+02  0.41800000000E+01 0.  1.
        -11    1    1    2    0    0  0.37905556310E+01 -0.41817477007E+02 -0.57322501337E+02  0.71055885434E+02  0.00000000000E+00 0.  1.
         11    1    1    2    0    0 -0.54315617956E+02  0.71080917095E+01 -0.22851398152E+03  0.23498798069E+03  0.00000000000E+00 0. -1.
</event>
<event>
 7    1  0.4394360E-006  0.6971562E+02  0.7561462E-02  0.1361063E+00
          2   -1    0    0  501    0  0.00000000000E+00  0.00000000000E+00  0.47019375640E+03  0.47019375640E+03  0.00000000000E+00 0. -1.
         -2   -1    0    0    0  501 -0.00000000000E+00 -0.00000000000E+00 -0.36309662757E+02  0.36309662757E+02  0.00000000000E+00 0.  1.
         23    2    1    2    0    0  0.24169567550E+02  0.27332731547E+01  0.10667168545E+03  0.16617918953E+03  0.12508011744E+03 0.  0.
          5    1    3    3  502    0  0.18427801947E+02 -0.22240068069E+02  0.12880017870E+03  0.13206499515E+03  0.41800000000E+01 0.  1.
         -5    1    3    3    0  502  0.57417656024E+01  0.24973341224E+02 -0.22128493251E+02  0.34114194373E+02  0.41800000000E+01 0.  1.
        -11    1    1    2    0    0 -0.54165323162E+02 -0.13319133924E-01  0.27286398763E+03  0.27818813447E+03  0.00000000000E+00 0. -1.
         11    1    1    2    0    0  0.29995755612E+02 -0.27199540208E+01  0.54348420565E+02  0.62136095167E+02  0.00000000000E+00 0.  1.
</event>
<event>
 7    1  0.4394360E-006  0.9370487E+02  0.7561462E-02  0.1294120E+00
         -3   -1    0    0    0  501 -0.00000000000E+00  0.00000000000E+00  0.44547198199E+03  0.44547198199E+03  0.00000000000E+00 0.  1.
          3   -1    0    0  501    0  0.00000000000E+00 -0.00000000000E+00 -0.28636371054E+02  0.28636371054E+02  0.00000000000E+00 0. -1.
         23    2    1    2    0    0 -0.26474773081E+02  0.92767955548E+01  0.26805558351E+03  0.29713496844E+03  0.12509364922E+03 0.  0.
          5    1    3    3  502    0 -0.54035889380E+02 -0.30874656999E+02  0.21968249066E+03  0.22836591446E+03  0.41800000000E+01 0. -1.
         -5    1    3    3    0  502  0.27561116299E+02  0.40151452553E+02  0.48373092852E+02  0.68769053984E+02  0.41800000000E+01 0. -1.
        -11    1    1    2    0    0  0.50045072642E+02  0.18748148252E+01  0.14120097217E+03  0.14981902005E+03  0.00000000000E+00 0.  1.
         11    1    1    2    0    0 -0.23570299561E+02 -0.11151610380E+02  0.75790552532E+01  0.27154364548E+02  0.00000000000E+00 0. -1.
</event>
<event>
 7    1  0.4394360E-006  0.1557511E+03  0.7561462E-02  0.1193579E+00
         -1   -1    0    0    0  501 -0.00000000000E+00  0.00000000000E+00  0.71272774984E+02  0.71272774984E+02  0.00000000000E+00 0.  1.
          1   -1    0    0  501    0  0.00000000000E+00 -0.00000000000E+00 -0.39690679538E+03  0.39690679538E+03  0.00000000000E+00 0. -1.
         23    2    1    2    0    0  0.12046941782E+03  0.18869027811E+01 -0.12848854926E+03  0.21605576478E+03  0.12511732561E+03 0.  0.
          5    1    3    3  502    0 -0.20242468316E+02 -0.13567221991E+02 -0.45842060914E+02  0.52084488909E+02  0.41800000000E+01 0. -1.
         -5    1    3    3    0  502  0.14071188614E+03  0.15454124772E+02 -0.82646488350E+02  0.16397127587E+03  0.41800000000E+01 0. -1.
        -11    1    1    2    0    0 -0.33316239707E+02 -0.38248225247E+02 -0.26836263603E+02  0.57385395415E+02  0.00000000000E+00 0.  1.
         11    1    1    2    0    0 -0.87153178116E+02  0.36361322466E+02 -0.17030920752E+03  0.19473841017E+03  0.00000000000E+00 0. -1.
</event>
<event>
 7    1  0.4394360E-006  0.1445179E+03  0.7561462E-02  0.1207376E+00
          1   -1    0    0  501    0  0.00000000000E+00  0.00000000000E+00  0.98865403341E+02  0.98865403341E+02  0.00000000000E+00 0. -1.
         -1   -1    0    0    0  501 -0.00000000000E+00 -0.00000000000E+00 -0.39372027473E+03  0.39372027473E+03  0.00000000000E+00 0.  1.
         23    2    1    2    0    0 -0.12477304837E+03 -0.13055930839E+02 -0.28433655725E+03  0.33501025269E+03  0.12508325503E+03 0.  0.
          5    1    3    3  502    0 -0.11141943270E+03 -0.24361944527E+02 -0.10597333987E+03  0.15574214423E+03  0.41800000000E+01 0.  1.
         -5    1    3    3    0  502 -0.13353615664E+02  0.11306013689E+02 -0.17836321738E+03  0.17926810846E+03  0.41800000000E+01 0.  1.
        -11    1    1    2    0    0 -0.22664989318E+00  0.30681118774E+02  0.18316304784E+01  0.30736579016E+02  0.00000000000E+00 0.  1.
         11    1    1    2    0    0  0.12499969826E+03 -0.17625187936E+02 -0.12349944612E+02  0.12683884636E+03  0.00000000000E+00 0. -1.
</event>
<event>
 7    1  0.4394360E-006  0.1013281E+03  0.7561462E-02  0.1277528E+00
         -2   -1    0    0    0  501 -0.00000000000E+00  0.00000000000E+00  0.64412901485E+02  0.64412901485E+02  0.00000000000E+00 0.  1.
          2   -1    0    0  501    0  0.00000000000E+00 -0.00000000000E+00 -0.23244963418E+03  0.23244963418E+03  0.00000000000E+00 0. -1.
         23    2    1    2    0    0 -0.64797219136E+01 -0.56266949911E+02 -0.10882497888E+03  0.17521084845E+03  0.12509200189E+03 0.  0.
          5    1    3    3  502    0 -0.56954572635E+02 -0.16634010136E+02 -0.90575881446E+02  0.10836040023E+03  0.41800000000E+01 0.  1.
         -5    1    3    3    0  502  0.50474850722E+02 -0.39632939775E+02 -0.18249097435E+02  0.66850448224E+02  0.41800000000E+01 0.  1.
        -11    1    1    2    0    0 -0.23832509295E+02  0.17077356907E+02  0.14600337265E+02  0.32753541282E+02  0.00000000000E+00 0.  1.
         11    1    1    2    0    0  0.30312231209E+02  0.39189593004E+02 -0.73812091076E+02  0.88898145929E+02  0.00000000000E+00 0. -1.
</event>
<event>
 7    1  0.4394360E-006  0.1354632E+03  0.7561462E-02  0.1219567E+00
         -2   -1    0    0    0  501 -0.00000000000E+00  0.00000000000E+00  0.21836443619E+02  0.21836443619E+02  0.00000000000E+00 0. -1.
          2   -1    0    0  501    0  0.00000000000E+00 -0.00000000000E+00 -0.85161854817E+03  0.85161854817E+03  0.00000000000E+00 0.  1.
         23    2    1    2    0    0 -0.22286088301E+02 -0.78391359626E+02 -0.42857207403E+03  0.45383382205E+03  0.12509692404E+03 0.  0.
          5    1    3    3  502    0 -0.73422993294E+02 -0.32745826625E+02 -0.24055624312E+03  0.25366908288E+03  0.41800000000E+01 0. -1.
         -5    1    3    3    0  502  0.51136904993E+02 -0.45645533001E+02 -0.18801583091E+03  0.20016473917E+03  0.41800000000E+01 0. -1.
        -11    1    1    2    0    0 -0.19723479368E+02  0.77247342057E+02 -0.23390858126E+03  0.24712222053E+03  0.00000000000E+00 0.  1.
         11    1    1    2    0    0  0.42009567668E+02  0.11440175687E+01 -0.16730144926E+03  0.17249894921E+03  0.00000000000E+00 0. -1.
</event>
<event>
 7    1  0.4394360E-006  0.1400271E+03  0.7561462E-02  0.1213292E+00
          2   -1    0    0  501    0  0.00000000000E+00  0.00000000000E+00  0.77539718578E+03  0.77539718578E+03  0.00000000000E+00 0. -1.
         -2   -1    0    0    0  501 -0.00000000000E+00 -0.00000000000E+00 -0.29064534952E+02  0.29064534952E+02  0.00000000000E+00 0.  1.
         23    2    1    2    0    0  0.27939664387E+02 -0.98250891384E+02  0.42967247815E+03  0.45902017192E+03  0.12508883741E+03 0.  0.
          5    1    3    3  502    0 -0.49253481308E+01 -0.11841300317E+03  0.36309664706E+03  0.38197191766E+03  0.41800000000E+01 0. -1.
         -5    1    3    3    0  502  0.32865012518E+02  0.20162111781E+02  0.66575831083E+02  0.77048254254E+02  0.41800000000E+01 0. -1.
        -11    1    1    2    0    0  0.22764602828E+02  0.30685473672E+02  0.18577313015E+03  0.18966149141E+03  0.00000000000E+00 0. -1.
         11    1    1    2    0    0 -0.50704267215E+02  0.67565417712E+02  0.13088704253E+03  0.15578005741E+03  0.00000000000E+00 0.  1.
</event>
<event>
 7    1  0.4394360E-006  0.9497831E+02  0.7561462E-02  0.1291225E+00
         -1   -1    0    0    0  501 -0.00000000000E+00  0.00000000000E+00  0.62713343554E+02  0.62713343554E+02  0.00000000000E+00 0.  1.
          1   -1    0    0  501    0  0.00000000000E+00 -0.00000000000E+00 -0.19700149493E+03  0.19700149493E+03  0.00000000000E+00 0. -1.
         23    2    1    2    0    0 -0.13992930518E+01  0.20933802331E+02 -0.73223569544E+02  0.14646093546E+03  0.12509569288E+03 0.  0.
          5    1    3    3  502    0  0.18650092452E+02  0.70352195743E+02 -0.36127235402E+02  0.81362810498E+02  0.41800000000E+01 0. -1.
         -5    1    3    3    0  502 -0.20049385504E+02 -0.49418393411E+02 -0.37096334142E+02  0.65098124959E+02  0.41800000000E+01 0. -1.
        -11    1    1    2    0    0 -0.25302070037E+02  0.56029593984E+01  0.13871093073E+02  0.29393793991E+02  0.00000000000E+00 0.  1.
         11    1    1    2    0    0  0.26701363089E+02 -0.26536761730E+02 -0.74935674908E+02  0.83860109038E+02  0.00000000000E+00 0. -1.
</event>
<event>
 7    1  0.4394360E-006  0.1312806E+03  0.7561462E-02  0.1225568E+00
          2   -1    0    0  501    0  0.00000000000E+00  0.00000000000E+00  0.18365954839E+03  0.18365954839E+03  0.00000000000E+00 0. -1.
         -2   -1    0    0    0  501 -0.00000000000E+00 -0.00000000000E+00 -0.16416042590E+03  0.16416042590E+03  0.00000000000E+00 0.  1.
         23    2    1    2    0    0  0.77643864785E+02 -0.40429712926E+02 -0.82455201225E+02  0.17353002040E+03  0.12510266322E+03 0.  0.
          5    1    3    3  502    0  0.32351518544E+02  0.28215604781E+02 -0.80305618885E+02  0.91154845893E+02  0.41800000000E+01 0. -1.
         -5    1    3    3    0  502  0.45292346241E+02 -0.68645317708E+02 -0.21495823405E+01  0.82375174509E+02  0.41800000000E+01 0. -1.
        -11    1    1    2    0    0 -0.10329298973E+03  0.41725195393E+02  0.64042795536E+02  0.12849868994E+03  0.00000000000E+00 0.  1.
         11    1    1    2    0    0  0.25649124943E+02 -0.12954824667E+01  0.37911528173E+02  0.45791263943E+02  0.00000000000E+00 0. -1.
</event>
<event>
 7    1  0.4394360E-006  0.9621465E+02  0.7561462E-02  0.1288464E+00
          2   -1    0    0  501    0  0.00000000000E+00  0.00000000000E+00  0.29116251979E+02  0.29116251979E+02  0.00000000000E+00 0. -1.
         -2   -1    0    0    0  501 -0.00000000000E+00 -0.00000000000E+00 -0.49580572355E+03  0.49580572355E+03  0.00000000000E+00 0.  1.
         23    2    1    2    0    0 -0.24002941748E+02 -0.32828246405E+02 -0.33894234396E+03  0.36356976488E+03  0.12508887413E+03 0.  0.
          5    1    3    3  502    0 -0.25857671071E+01  0.47689316925E+02 -0.13269935264E+03  0.14109410949E+03  0.41800000000E+01 0.  1.
         -5    1    3    3    0  502 -0.21417174641E+02 -0.80517563330E+02 -0.20624299131E+03  0.22247565539E+03  0.41800000000E+01 0.  1.
        -11    1    1    2    0    0  0.31711818330E+02  0.48944789337E+01 -0.18253937114E+01  0.32139188042E+02  0.00000000000E+00 0. -1.
         11    1    1    2    0    0 -0.77088765813E+01  0.27933767471E+02 -0.12592173390E+03  0.12921302261E+03  0.00000000000E+00 0.  1.
</event>
<event>
 7    1  0.4394360E-006  0.1412013E+03  0.7561462E-02  0.1211722E+00
         -1   -1    0    0    0  501 -0.00000000000E+00  0.00000000000E+00  0.46291694164E+02  0.46291694164E+02  0.00000000000E+00 0.  1.
          1   -1    0    0  501    0  0.00000000000E+00 -0.00000000000E+00 -0.45542681893E+03  0.45542681893E+03  0.00000000000E+00 0. -1.
         23    2    1    2    0    0  0.32433536059E+02  0.88454070860E+02 -0.25821327581E+03  0.30198965732E+03  0.12509036896E+03 0.  0.
          5    1    3    3  502    0 -0.40394139107E+02  0.45887942144E+01 -0.40461965868E+02  0.57509882529E+02  0.41800000000E+01 0. -1.
         -5    1    3    3    0  502  0.72827675167E+02  0.83865276646E+02 -0.21775130995E+03  0.24447977479E+03  0.41800000000E+01 0. -1.
        -11    1    1    2    0    0 -0.45714991663E+02 -0.51247025541E+01 -0.61209608386E+02  0.76568526157E+02  0.00000000000E+00 0.  1.
         11    1    1    2    0    0  0.13281455604E+02 -0.83329368306E+02 -0.89712240567E+02  0.12316032962E+03  0.00000000000E+00 0. -1.
</event>
<event>
 6    1  0.4394360E-006  0.8805253E+02  0.7561462E-02  0.1307637E+00
          2   -1    0    0  501    0  0.00000000000E+00  0.00000000000E+00  0.10463146904E+03  0.10463146904E+03  0.00000000000E+00 0. -1.
         -2   -1    0    0    0  501 -0.00000000000E+00 -0.00000000000E+00 -0.99015131602E+02  0.99015131602E+02  0.00000000000E+00 0.  1.
          5    1    1    2  502    0 -0.28323101957E+02  0.58414023575E+02 -0.32937113785E+02  0.72915856432E+02  0.41800000000E+01 0. -1.
         -5    1    1    2    0  502  0.31056684979E+02 -0.58055438771E+02 -0.73331191735E+01  0.66379203743E+02  0.41800000000E+01 0.  1.
        -11    1    1    2    0    0  0.13416337943E+02  0.16810692468E+02  0.23208037123E+02  0.31641910375E+02  0.00000000000E+00 0. -1.
         11    1    1    2    0    0 -0.16149920964E+02 -0.17169277273E+02  0.22678533273E+02  0.32709630090E+02  0.00000000000E+00 0.  1.
</event>
<event>
 7    1  0.4394360E-006  0.8318411E+02  0.7561462E-02  0.1320251E+00
         -2   -1    0    0    0  501 -0.00000000000E+00  0.00000000000E+00  0.77961840961E+02  0.77961840961E+02  0.00000000000E+00 0.  1.
          2   -1    0    0  501    0  0.00000000000E+00 -0.00000000000E+00 -0.22239164600E+03  0.22239164600E+03  0.00000000000E+00 0. -1.
         23    2    1    2    0    0  0.66344756885E+02  0.14075716711E+02 -0.44134128102E+02  0.14897980324E+03  0.12508959966E+03 0.  0.
          5    1    3    3  502    0 -0.82559995475E-02  0.20588153005E+02 -0.73179912088E+02  0.76135694950E+02  0.41800000000E+01 0. -1.
         -5    1    3    3    0  502  0.66353012885E+02 -0.65124362939E+01  0.29045783986E+02  0.72844108291E+02  0.41800000000E+01 0. -1.
        -11    1    1    2    0    0 -0.16619291210E+02  0.13755158520E+02 -0.91140452005E+02  0.93658887554E+02  0.00000000000E+00 0. -1.
         11    1    1    2    0    0 -0.49725465675E+02 -0.27830875231E+02 -0.91552249294E+01  0.57714796164E+02  0.00000000000E+00 0.  1.
</event>
<event>
 7    1  0.6905480E-006  0.1654475E+03  0.7561462E-02  0.1182680E+00
          1   -1    0    0  501    0  0.00000000000E+00  0.00000000000E+00  0.26127727842E+03  0.26127727842E+03  0.00000000000E+00 0. -1.
         -1   -1    0    0    0  501 -0.00000000000E+00 -0.00000000000E+00 -0.12730453048E+03  0.12730453048E+03  0.00000000000E+00 0.  1.
         23    2    1    2    0    0 -0.14296200919E+03 -0.27371842798E+02  0.59054722451E+02  0.20080354802E+03  0.12508897155E+03 0.  0.
          5    1    3    3  502    0 -0.11360039309E+03 -0.54159302315E+02 -0.41909846803E+01  0.12598934911E+03  0.41800000000E+01 0. -1.
         -5    1    3    3    0  502 -0.29361616105E+02  0.26787459517E+02  0.63245707131E+02  0.74814198907E+02  0.41800000000E+01 0. -1.
        -11    1    1    2    0    0  0.30370495087E+02 -0.26397504511E+02 -0.35305784428E+01  0.40393813888E+02  0.00000000000E+00 0.  1.
         11    1    1    2    0    0  0.11259151410E+03  0.53769347309E+02  0.78448603930E+02  0.14738444700E+03  0.00000000000E+00 0. -1.
</event>
<event>
 7    1  0.4394360E-006  0.1695169E+03  0.7561462E-02  0.1178353E+00
         -1   -1    0    0    0  501 -0.00000000000E+00  0.00000000000E+00  0.10065336874E+03  0.10065336874E+03  0.00000000000E+00 0.  1.
          1   -1    0    0  501    0  0.00000000000E+00 -0.00000000000E+00 -0.37608418066E+03  0.37608418066E+03  0.00000000000E+00 0. -1.
         23    2    1    2    0    0  0.13231139004E+03 -0.57426625302E+01 -0.31882509544E+02  0.18493778918E+03  0.12508480861E+03 0.  0.
          5    1    3    3  502    0 -0.23055087952E+02  0.25331166226E+01  0.68598420379E+01  0.24545541205E+02  0.41800000000E+01 0.  1.
         -5    1    3    3    0  502  0.15536647800E+03 -0.82757791528E+01 -0.38742351582E+02  0.16039224798E+03  0.41800000000E+01 0.  1.
        -11    1    1    2    0    0 -0.90792600328E+02  0.46183934639E+02 -0.14003896372E+03  0.17316802087E+03  0.00000000000E+00 0.  1.
         11    1    1    2    0    0 -0.41518789717E+02 -0.40441272109E+02 -0.10350933865E+03  0.11863173934E+03  0.00000000000E+00 0. -1.
</event>
<event>
 7    1  0.4394360E-006  0.9915648E+02  0.7561462E-02  0.1282080E+00
          2   -1    0    0  501    0  0.00000000000E+00  0.00000000000E+00  0.93522995769E+02  0.93522995769E+02  0.00000000000E+00 0. -1.
         -2   -1    0    0    0  501 -0.00000000000E+00 -0.00000000000E+00 -0.16910441909E+03  0.16910441909E+03  0.00000000000E+00 0.  1.
         23    2    1    2    0    0  0.56630829426E+02 -0.23763478463E+02 -0.43378060272E+02  0.14595131932E+03  0.12509347604E+03 0.  0.
          5    1    3    3  502    0 -0.23398675331E+01 -0.39735474349E+02  0.30261651472E+02  0.50175919042E+02  0.41800000000E+01 0.  1.
         -5    1    3    3    0  502  0.58970696959E+02  0.15971995886E+02 -0.73639711745E+02  0.95775400277E+02  0.41800000000E+01 0.  1.
        -11    1    1    2    0    0 -0.37325759300E+02 -0.24785238449E+02 -0.44342831153E+02  0.63038139463E+02  0.00000000000E+00 0.  1.
         11    1    1    2    0    0 -0.19305070126E+02  0.48548716912E+02  0.12139468103E+02  0.53637956077E+02  0.00000000000E+00 0. -1.
</event>
<event>
 7    1  0.4394360E-006  0.1310673E+03  0.7561462E-02  0.1225881E+00
         -2   -1    0    0    0  501 -0.00000000000E+00  0.00000000000E+00  0.17060307377E+03  0.17060307377E+03  0.00000000000E+00 0.  1.
          2   -1    0    0  501    0  0.00000000000E+00 -0.00000000000E+00 -0.15763911147E+03  0.15763911147E+03  0.00000000000E+00 0. -1.
         23    2    1    2    0    0 -0.78349776365E+02 -0.33750999322E+02  0.94364687659E+02  0.17842173743E+03  0.12510717285E+03 0.  0.
          5    1    3    3  502    0 -0.60679496784E+02  0.39398415507E+02  0.27000458680E+02  0.77335203131E+02  0.41800000000E+01 0. -1.
         -5    1    3    3    0  502 -0.17670279581E+02 -0.73149414829E+02  0.67364228979E+02  0.10108653430E+03  0.41800000000E+01 0. -1.
        -11    1    1    2    0    0 -0.12815010967E+02  0.17506603946E+02  0.59758077701E+01  0.22503687838E+02  0.00000000000E+00 0.  1.
         11    1    1    2    0    0  0.91164787332E+02  0.16244395375E+02 -0.87376533130E+02  0.12731675998E+03  0.00000000000E+00 0. -1.
</event>
<event>
 7    1  0.4394360E-006  0.1109999E+03  0.7561462E-02  0.1258729E+00
         -3   -1    0    0    0  501 -0.00000000000E+00  0.00000000000E+00  0.17388364617E+03  0.17388364617E+03  0.00000000000E+00 0.  1.
          3   -1    0    0  501    0  0.00000000000E+00 -0.00000000000E+00 -0.91699714503E+02  0.91699714503E+02  0.00000000000E+00 0. -1.
         23    2    1    2    0    0  0.56145164197E+01  0.42482979452E+02  0.97044577820E+02  0.16403198177E+03  0.12511001008E+03 0.  0.
          5    1    3    3  502    0  0.27362378991E+02  0.81359418774E+02  0.75412002659E+02  0.11433502242E+03  0.41800000000E+01 0. -1.
         -5    1    3    3    0  502 -0.21747862572E+02 -0.38876439322E+02  0.21632575161E+02  0.49696959352E+02  0.41800000000E+01 0. -1.
        -11    1    1    2    0    0  0.35941308778E+02 -0.68723761771E+01  0.14601587292E+02  0.39398141865E+02  0.00000000000E+00 0.  1.
         11    1    1    2    0    0 -0.41555825198E+02 -0.35610603275E+02 -0.29462233449E+02  0.62153237030E+02  0.00000000000E+00 0. -1.
</event>
<event>
 6    1  0.4394360E-006  0.1148392E+03  0.7561462E-02  0.1251862E+00
          2   -1    0    0  501    0  0.00000000000E+00  0.00000000000E+00  0.37629797693E+03  0.37629797693E+03  0.00000000000E+00 0. -1.
         -2   -1    0    0    0  501 -0.00000000000E+00 -0.00000000000E+00 -0.73336206668E+02  0.73336206668E+02  0.00000000000E+00 0.  1.
          5    1    1    2  502    0 -0.69546361082E+01 -0.34776852926E+02  0.63441055531E+02  0.72801348818E+02  0.41800000000E+01 0. -1.
         -5    1    1    2    0  502  0.93104092372E+02  0.80808713847E+01 -0.12075404760E+02  0.94323699561E+02  0.41800000000E+01 0.  1.
        -11    1    1    2    0    0 -0.40072140836E+01  0.17281458520E+02  0.67470721669E-01  0.17740099368E+02  0.00000000000E+00 0.  1.
         11    1    1    2    0    0 -0.82142242180E+02  0.94145230210E+01  0.25152864876E+03  0.26476903585E+03  0.00000000000E+00 0. -1.
</event>
<event>
 7    1  0.4394360E-006  0.1231235E+03  0.7561462E-02  0.1238031E+00
         -3   -1    0    0    0  501 -0.00000000000E+00  0.00000000000E+00  0.21274814496E+03  0.21274814496E+03  0.00000000000E+00 0.  1.
          3   -1    0    0  501    0  0.00000000000E+00 -0.00000000000E+00 -0.10778007822E+03  0.10778007822E+03  0.00000000000E+00 0. -1.
         23    2    1    2    0    0  0.72336020845E+02  0.39936955797E+02  0.12455914246E+03  0.19491229154E+03  0.12509340940E+03 0.  0.
          5    1    3    3  502    0  0.10756340182E+03  0.31883991682E+02  0.10447591853E+03  0.15335959145E+03  0.41800000000E+01 0.  1.
         -5    1    3    3    0  502 -0.35227380979E+02  0.80529641150E+01  0.20083223929E+02  0.41552700094E+02  0.41800000000E+01 0.  1.
        -11    1    1    2    0    0 -0.69237859567E+02 -0.51077360053E+02  0.16596821328E+02  0.87625523597E+02  0.00000000000E+00 0.  1.
         11    1    1    2    0    0 -0.30981612774E+01  0.11140404256E+02 -0.36187897047E+02  0.37990408039E+02  0.00000000000E+00 0. -1.
</event>
<event>
 7    1  0.4394360E-006  0.1457543E+03  0.7561462E-02  0.1205789E+00
          1   -1    0    0  501    0  0.00000000000E+00  0.00000000000E+00  0.47839520991E+03  0.47839520991E+03  0.00000000000E+00 0. -1.
         -1   -1    0    0    0  501 -0.00000000000E+00 -0.00000000000E+00 -0.91093605107E+02  0.91093605107E+02  0.00000000000E+00 0.  1.
         23    2    1    2    0    0 -0.10630964444E+03  0.83695436815E+01  0.78374259051E+01  0.16456330955E+03  0.12509143793E+03 0.  0.
          5    1    3    3  502    0 -0.23953075789E+02 -0.45575683409E+02  0.34940879970E+02  0.62363693372E+02  0.41800000000E+01 0. -1.
         -5    1    3    3    0  502 -0.82356568647E+02  0.53945227090E+02 -0.27103454065E+02  0.10219961618E+03  0.41800000000E+01 0. -1.
        -11    1    1    2    0    0  0.11612526641E+03 -0.27921372632E+02  0.31907707618E+03  0.34069760946E+03  0.00000000000E+00 0. -1.
         11    1    1    2    0    0 -0.98156219778E+01  0.19551828951E+02  0.60387102713E+02  0.64227895997E+02  0.00000000000E+00 0.  1.
</event>
<event>
 7    1  0.4394360E-006  0.1071226E+03  0.7561462E-02  0.1265993E+00
          2   -1    0    0  501    0  0.00000000000E+00  0.00000000000E+00  0.25348805578E+03  0.25348805578E+03  0.00000000000E+00 0. -1.
         -2   -1    0    0    0  501 -0.00000000000E+00 -0.00000000000E+00 -0.88187912248E+02  0.88187912248E+02  0.00000000000E+00 0.  1.
         23    2    1    2    0    0  0.92625860436E+01  0.10247596929E+03  0.77970149644E+02  0.17976104240E+03  0.12509024081E+03 0.  0.
          5    1    3    3  502    0  0.19664720206E+02  0.20988297346E+02 -0.31481947750E+02  0.42846181632E+02  0.41800000000E+01 0. -1.
         -5    1    3    3    0  502 -0.10402134163E+02  0.81487671944E+02  0.10945209739E+03  0.13691486076E+03  0.41800000000E+01 0. -1.
        -11    1    1    2    0    0 -0.79386550367E+01 -0.75063561081E+02  0.10496923963E+03  0.12929076423E+03  0.00000000000E+00 0. -1.
         11    1    1    2    0    0 -0.13239310069E+01 -0.27412408209E+02 -0.17639245740E+02  0.32624161406E+02  0.00000000000E+00 0.  1.
</event>
<event>
 7    1  0.4394360E-006  0.7815688E+02  0.7561462E-02  0.1334365E+00
          1   -1    0    0  501    0  0.00000000000E+00  0.00000000000E+00  0.68653913483E+02  0.68653913483E+02  0.00000000000E+00 0. -1.
         -1   -1    0    0    0  501 -0.00000000000E+00 -0.00000000000E+00 -0.17709606324E+03  0.17709606324E+03  0.00000000000E+00 0.  1.
         23    2    1    2    0    0 -0.25033070235E+01  0.76552229701E+01 -0.65131511491E+02  0.14125889210E+03  0.12508833608E+03 0.  0.
          5    1    3    3  502    0 -0.58066632785E+02 -0.19217914315E+02 -0.45534191573E+02  0.76366858492E+02  0.41800000000E+01 0. -1.
         -5    1    3    3    0  502  0.55563325762E+02  0.26873137285E+02 -0.19597319917E+02  0.64892033604E+02  0.41800000000E+01 0. -1.
        -11    1    1    2    0    0  0.17341199418E+02 -0.30397895996E+01 -0.70776957114E+02  0.72933772537E+02  0.00000000000E+00 0.  1.
         11    1    1    2    0    0 -0.14837892395E+02 -0.46154333705E+01  0.27466318843E+02  0.31557312096E+02  0.00000000000E+00 0. -1.
</event>
<event>
 7    1  0.4394360E-006  0.8960059E+02  0.7561462E-02  0.1303822E+00
          3   -1    0    0  501    0  0.00000000000E+00  0.00000000000E+00  0.52571088204E+02  0.52571088204E+02  0.00000000000E+00 0. -1.
         -3   -1    0    0    0  501 -0.00000000000E+00 -0.00000000000E+00 -0.20118951539E+03  0.20118951539E+03  0.00000000000E+00 0.  1.
         23    2    1    2    0    0  0.62383596551E+01  0.13832946869E+00 -0.87625318273E+02  0.15283643494E+03  0.12506735456E+03 0.  0.
          5    1    3    3  502    0  0.48476094681E+02  0.39655179052E+02 -0.25221619098E+02  0.67646636658E+02  0.41800000000E+01 0. -1.
         -5    1    3    3    0  502 -0.42237735026E+02 -0.39516849583E+02 -0.62403699174E+02  0.85189798284E+02  0.41800000000E+01 0. -1.
        -11    1    1    2    0    0  0.14428870839E+02 -0.23295266202E+02 -0.64119010099E+02  0.69728826156E+02  0.00000000000E+00 0.  1.
         11    1    1    2    0    0 -0.20667230494E+02  0.23156936734E+02  0.31259011854E+01  0.31195342496E+02  0.00000000000E+00 0. -1.
</event>
<event>
 7    1  0.4394360E-006  0.6432884E+02  0.7561462E-02  0.1380514E+00
         -2   -1    0    0    0  501 -0.00000000000E+00  0.00000000000E+00  0.97925433963E+02  0.97925433963E+02  0.00000000000E+00 0.  1.
          2   -1    0    0  501    0  0.00000000000E+00 -0.00000000000E+00 -0.13098984545E+03  0.13098984545E+03  0.00000000000E+00 0. -1.
         23    2    1    2    0    0  0.12375068416E+02  0.30937232992E+02 -0.14650045131E+02  0.13028308563E+03  0.12509517927E+03 0.  0.
          5    1    3    3  502    0 -0.20819756699E+02  0.22133831813E+01 -0.62004299985E+02  0.65577183156E+02  0.41800000000E+01 0. -1.
         -5    1    3    3    0  502  0.33194825115E+02  0.28723849811E+02  0.47354254853E+02  0.64705902475E+02  0.41800000000E+01 0. -1.
        -11    1    1    2    0    0 -0.10222620993E+02 -0.46444295614E+02  0.24109234233E+02  0.53318193428E+02  0.00000000000E+00 0.  1.
         11    1    1    2    0    0 -0.21524474229E+01  0.15507062622E+02 -0.42523600592E+02  0.45314000358E+02  0.00000000000E+00 0. -1.
</event>
<event>
 6    1  0.4394360E-006  0.8624067E+02  0.7561462E-02  0.1312220E+00
          1   -1    0    0  501    0  0.00000000000E+00  0.00000000000E+00  0.21388106182E+03  0.21388106182E+03  0.00000000000E+00 0. -1.
         -1   -1    0    0    0  501 -0.00000000000E+00 -0.00000000000E+00 -0.72818245307E+02  0.72818245307E+02  0.00000000000E+00 0.  1.
          5    1    1    2  502    0  0.37769121335E+02  0.46353413826E+02  0.12248463456E+03  0.13636386473E+03  0.41800000000E+01 0. -1.
         -5    1    1    2    0  502 -0.16121588783E+02 -0.15655031607E+02 -0.32162526528E+02  0.39457396673E+02  0.41800000000E+01 0.  1.
        -11    1    1    2    0    0  0.59288092715E+01 -0.53546462615E+02  0.69680389952E+01  0.54322444767E+02  0.00000000000E+00 0.  1.
         11    1    1    2    0    0 -0.27576341823E+02  0.22848080396E+02  0.43772669478E+02  0.56555600955E+02  0.00000000000E+00 0. -1.
</event>
<event>
 7    1  0.4394360E-006  0.1410669E+03  0.7561462E-02  0.1211901E+00
         -2   -1    0    0    0  501 -0.00000000000E+00  0.00000000000E+00  0.25066391949E+02  0.25066391949E+02  0.00000000000E+00 0.  1.
          2   -1    0    0  501    0  0.00000000000E+00 -0.00000000000E+00 -0.13464511531E+04  0.13464511531E+04  0.00000000000E+00 0. -1.
         23    2    1    2    0    0 -0.77251692384E+02  0.10904329989E+03 -0.89718734845E+03  0.91488212314E+03  0.11918848849E+03 0.  0.
          5    1    3    3  502    0 -0.68885020845E+02  0.98358640673E+02 -0.89154039613E+03  0.89960064396E+03  0.41800000000E+01 0. -1.
         -5    1    3    3    0  502 -0.83666715383E+01  0.10684659214E+02 -0.56469523224E+01  0.15281479172E+02  0.41800000000E+01 0.  1.
        -11    1    1    2    0    0  0.37425528177E+02 -0.67795633661E+01 -0.33062842239E+02  0.50396271447E+02  0.00000000000E+00 0.  1.
         11    1    1    2    0    0  0.39826164206E+02 -0.10226373652E+03 -0.39113457047E+03  0.40623915048E+03  0.00000000000E+00 0. -1.
</event>
<event>
 7    1  0.4394360E-006  0.1068658E+03  0.7561462E-02  0.1266486E+00
          1   -1    0    0  501    0  0.00000000000E+00  0.00000000000E+00  0.48857481759E+03  0.48857481759E+03  0.00000000000E+00 0. -1.
         -1   -1    0    0    0  501 -0.00000000000E+00 -0.00000000000E+00 -0.38556803442E+02  0.38556803442E+02  0.00000000000E+00 0.  1.
         23    2    1    2    0    0  0.38672057414E+02  0.66432697426E+02  0.22924910488E+03  0.27087365238E+03  0.12210058212E+03 0.  0.
          5    1    3    3  502    0  0.40555964379E+02 -0.23058789149E+02  0.40449967173E+02  0.61888336930E+02  0.41800000000E+01 0. -1.
         -5    1    3    3    0  502 -0.18839069647E+01  0.89491486575E+02  0.18879913770E+03  0.20898531545E+03  0.41800000000E+01 0.  1.
        -11    1    1    2    0    0 -0.96708185972E+01 -0.24109578283E+02 -0.34852554600E+01  0.26209607074E+02  0.00000000000E+00 0.  1.
         11    1    1    2    0    0 -0.29001238817E+02 -0.42323119143E+02  0.22425416473E+03  0.23004836158E+03  0.00000000000E+00 0. -1.
</event>
<event>
 7    1  0.4394360E-006  0.1099829E+03  0.7561462E-02  0.1260602E+00
         -4   -1    0    0    0  501 -0.00000000000E+00  0.00000000000E+00  0.39476579494E+03  0.39476579494E+03  0.00000000000E+00 0.  1.
          4   -1    0    0  501    0  0.00000000000E+00 -0.00000000000E+00 -0.35878250918E+02  0.35878250918E+02  0.00000000000E+00 0. -1.
         23    2    1    2    0    0  0.11995309063E+02 -0.20710968787E+02  0.28075226117E+03  0.30828992670E+03  0.12509202648E+03 0.  0.
          5    1    3    3  502    0 -0.14499068694E+02 -0.69775873485E+02  0.16189806298E+03  0.17693883325E+03  0.41800000000E+01 0. -1.
         -5    1    3    3    0  502  0.26494377756E+02  0.49064904698E+02  0.11885419819E+03  0.13135109346E+03  0.41800000000E+01 0. -1.
        -11    1    1    2    0    0  0.38609744958E+02  0.18517037739E+01  0.43520266880E+02  0.58207858935E+02  0.00000000000E+00 0.  1.
         11    1    1    2    0    0 -0.50605054020E+02  0.18859265013E+02  0.34615015976E+02  0.64146260220E+02  0.00000000000E+00 0. -1.
</event>
<event>
 7    1  0.4394360E-006  0.1319808E+03  0.7561462E-02  0.1224546E+00
         -1   -1    0    0    0  501 -0.00000000000E+00  0.00000000000E+00  0.53549221174E+02  0.53549221174E+02  0.00000000000E+00 0.  1.
          1   -1    0    0  501    0  0.00000000000E+00 -0.00000000000E+00 -0.45461453343E+03  0.45461453343E+03  0.00000000000E+00 0. -1.
         23    2    1    2    0    0  0.72191858465E+02  0.65075767633E+02 -0.11164783115E+03  0.18638921096E+03  0.11326596930E+03 0.  0.
          5    1    3    3  502    0 -0.22599304573E+02 -0.12112201944E+02 -0.11974586026E+02  0.28605892987E+02  0.41800000000E+01 0. -1.
         -5    1    3    3    0  502  0.94791163038E+02  0.77187969577E+02 -0.99673245123E+02  0.15778331797E+03  0.41800000000E+01 0.  1.
        -11    1    1    2    0    0 -0.53980765080E+02 -0.65524793768E+01 -0.23025091411E+03  0.23658474472E+03  0.00000000000E+00 0. -1.
         11    1    1    2    0    0 -0.18211093385E+02 -0.58523288257E+02 -0.59166566997E+02  0.85189798925E+02  0.00000000000E+00 0.  1.
</event>
<event>
 7    1  0.4394360E-006  0.1027902E+03  0.7561462E-02  0.1274536E+00
          1   -1    0    0  501    0  0.00000000000E+00  0.00000000000E+00  0.37654163938E+02  0.37654163938E+02  0.00000000000E+00 0. -1.
         -1   -1    0    0    0  501 -0.00000000000E+00 -0.00000000000E+00 -0.40121075121E+03  0.40121075121E+03  0.00000000000E+00 0.  1.
         23    2    1    2    0    0  0.70493868273E+01 -0.65347618937E+02 -0.27461027724E+03  0.30883428076E+03  0.12509118054E+03 0.  0.
          5    1    3    3  502    0  0.37980574294E+02 -0.75814612068E+02 -0.25869185571E+03  0.27226701606E+03  0.41800000000E+01 0.  1.
         -5    1    3    3    0  502 -0.30931187467E+02  0.10466993131E+02 -0.15918421538E+02  0.36567264699E+02  0.41800000000E+01 0.  1.
        -11    1    1    2    0    0 -0.23096200483E+02  0.28920451512E+01 -0.48809703703E+02  0.54075739269E+02  0.00000000000E+00 0.  1.
         11    1    1    2    0    0  0.16046813656E+02  0.62455573786E+02 -0.40136606331E+02  0.75954895123E+02  0.00000000000E+00 0. -1.
</event>
<event>
 7    1  0.4394360E-006  0.7115664E+02  0.7561462E-02  0.1356203E+00
          1   -1    0    0  501    0  0.00000000000E+00  0.00000000000E+00  0.37641342632E+03  0.37641342632E+03  0.00000000000E+00 0. -1.
         -1   -1    0    0    0  501 -0.00000000000E+00 -0.00000000000E+00 -0.38522627092E+02  0.38522627092E+02  0.00000000000E+00 0.  1.
         23    2    1    2    0    0  0.31933912260E+02 -0.23255336951E+02  0.13174383063E+03  0.18591623524E+03  0.12509126335E+03 0.  0.
          5    1    3    3  502    0 -0.20022462524E+02 -0.12991470424E+02 -0.15915722128E+02  0.28990686783E+02  0.41800000000E+01 0.  1.
         -5    1    3    3    0  502  0.51956374785E+02 -0.10263866528E+02  0.14765955276E+03  0.15692554846E+03  0.41800000000E+01 0.  1.
        -11    1    1    2    0    0  0.23632426311E+01 -0.14069914348E+02 -0.23413324857E+01  0.14457843661E+02  0.00000000000E+00 0.  1.
         11    1    1    2    0    0 -0.34297154891E+02  0.37325251300E+02  0.20848830108E+03  0.21456197451E+03  0.00000000000E+00 0. -1.
</event>
<event>
 7    1  0.4394360E-006  0.1281426E+03  0.7561462E-02  0.1230238E+00
         -2   -1    0    0    0  501 -0.00000000000E+00  0.00000000000E+00  0.11886700571E+03  0.11886700571E+03  0.00000000000E+00 0.  1.
          2   -1    0    0  501    0  0.00000000000E+00 -0.00000000000E+00 -0.24864131881E+03  0.24864131881E+03  0.00000000000E+00 0. -1.
         23    2    1    2    0    0  0.92938861441E+01  0.12436148663E+03 -0.19820235808E+02  0.17774140698E+03  0.12508801035E+03 0.  0.
          5    1    3    3  502    0 -0.31151193057E+01  0.88718214237E+02  0.47262528520E+02  0.10065706387E+03  0.41800000000E+01 0. -1.
         -5    1    3    3    0  502  0.12409005450E+02  0.35643272390E+02 -0.67082764328E+02  0.77084343110E+02  0.41800000000E+01 0. -1.
        -11    1    1    2    0    0  0.13034611612E+02 -0.35488152689E+02  0.97230970643E+01  0.39036504681E+02  0.00000000000E+00 0.  1.
         11    1    1    2    0    0 -0.22328497756E+02 -0.88873333938E+02 -0.11967717436E+03  0.15073041285E+03  0.00000000000E+00 0. -1.
</event>
<event>
 7    1  0.4394360E-006  0.1151472E+03  0.7561462E-02  0.1251324E+00
         -1   -1    0    0    0  501 -0.00000000000E+00  0.00000000000E+00  0.11928167327E+03  0.11928167327E+03  0.00000000000E+00 0.  1.
          1   -1    0    0  501    0  0.00000000000E+00 -0.00000000000E+00 -0.14646217128E+03  0.14646217128E+03  0.00000000000E+00 0. -1.
         23    2    1    2    0    0  0.49647842013E+02 -0.43774954708E+01  0.41655633176E+02  0.14095967369E+03  0.12510142745E+03 0.  0.
          5    1    3    3  502    0  0.48376393250E+02  0.51426450711E+02  0.46705713572E+02  0.84757603416E+02  0.41800000000E+01 0.  1.
         -5    1    3    3    0  502  0.12714487632E+01 -0.55803946182E+02 -0.50500803961E+01  0.56202070277E+02  0.41800000000E+01 0.  1.
        -11    1    1    2    0    0 -0.47291757822E+01  0.43662379477E+02 -0.23264586330E+02  0.49699189754E+02  0.00000000000E+00 0.  1.
         11    1    1    2    0    0 -0.44918666231E+02 -0.39284884006E+02 -0.45571544851E+02  0.75084981104E+02  0.00000000000E+00 0. -1.
</event>
<event>
 7    1  0.4394360E-006  0.9231741E+02  0.7561462E-02  0.1297335E+00
         -3   -1    0    0    0  501 -0.00000000000E+00  0.00000000000E+00  0.18867966750E+03  0.18867966750E+03  0.00000000000E+00 0.  1.
          3   -1    0    0  501    0  0.00000000000E+00 -0.00000000000E+00 -0.62985038839E+02  0.62985038839E+02  0.00000000000E+00 0. -1.
         23    2    1    2    0    0 -0.26404644019E+01 -0.27662126445E+01  0.92861287018E+02  0.15583656249E+03  0.12508873489E+03 0.  0.
          5    1    3    3  502    0  0.12154360962E+02 -0.61858062379E+02  0.56583745843E+02  0.84813566517E+02  0.41800000000E+01 0. -1.
         -5    1    3    3    0  502 -0.14794825364E+02  0.59091849735E+02  0.36277541175E+02  0.71022995969E+02  0.41800000000E+01 0. -1.
        -11    1    1    2    0    0  0.15747821273E+02 -0.25083123701E+02  0.51803541919E+02  0.59672136922E+02  0.00000000000E+00 0.  1.
         11    1    1    2    0    0 -0.13107356871E+02  0.27849336346E+02 -0.18970200273E+02  0.36156006934E+02  0.00000000000E+00 0. -1.
</event>
<event>
 6    1  0.4394360E-006  0.1319596E+03  0.7561462E-02  0.1224577E+00
          3   -1    0    0  501    0  0.00000000000E+00  0.00000000000E+00  0.77656170678E+03  0.77656170678E+03  0.00000000000E+00 0. -1.
         -3   -1    0    0    0  501 -0.00000000000E+00 -0.00000000000E+00 -0.31817047157E+02  0.31817047157E+02  0.00000000000E+00 0.  1.
          5    1    1    2  502    0 -0.69881094602E+02 -0.41158858248E+02  0.27294016126E+03  0.28476520683E+03  0.41800000000E+01 0. -1.
         -5    1    1    2    0  502  0.19365064106E+02 -0.43734988001E+02  0.19917195528E+02  0.51980015015E+02  0.41800000000E+01 0.  1.
        -11    1    1    2    0    0  0.26396784784E+02 -0.16062694875E+02  0.90137397115E+02  0.95286676782E+02  0.00000000000E+00 0.  1.
         11    1    1    2    0    0  0.24119245712E+02  0.10095654112E+03  0.36174990573E+03  0.37634685531E+03  0.00000000000E+00 0. -1.
</event>
<event>
 7    1  0.4394360E-006  0.1248655E+03  0.7561462E-02  0.1235280E+00
         -1   -1    0    0    0  501 -0.00000000000E+00  0.00000000000E+00  0.89943631882E+02  0.89943631882E+02  0.00000000000E+00 0.  1.
          1   -1    0    0  501    0  0.00000000000E+00 -0.00000000000E+00 -0.27421668490E+03  0.27421668490E+03  0.00000000000E+00 0. -1.
         23    2    1    2    0    0  0.73031302314E+01  0.10941067222E+03 -0.13341624104E+03  0.21323790172E+03  0.12508588429E+03 0.  0.
          5    1    3    3  502    0  0.23789951334E+02  0.98073269785E+02 -0.26551145964E+02  0.10443545271E+03  0.41800000000E+01 0.  1.
         -5    1    3    3    0  502 -0.16486821102E+02  0.11337402438E+02 -0.10686509508E+03  0.10880244901E+03  0.41800000000E+01 0.  1.
        -11    1    1    2    0    0  0.27032003071E+02 -0.23685473686E+02  0.13468619401E+02  0.38381435126E+02  0.00000000000E+00 0.  1.
         11    1    1    2    0    0 -0.34335133302E+02 -0.85725198538E+02 -0.64325431371E+02  0.11254097993E+03  0.00000000000E+00 0. -1.
</event>
<event>
 7    1  0.4394360E-006  0.9259079E+02  0.7561462E-02  0.1296696E+00
          2   -1    0    0  501    0  0.00000000000E+00  0.00000000000E+00  0.77188491462E+03  0.77188491462E+03  0.00000000000E+00 0. -1.
         -2   -1    0    0    0  501 -0.00000000000E+00 -0.00000000000E+00 -0.16181742134E+02  0.16181742134E+02  0.00000000000E+00 0.  1.
         23    2    1    2    0    0  0.20595619187E+02 -0.32269035209E+01  0.37267654342E+03  0.39366065668E+03  0.12508522762E+03 0.  0.
          5    1    3    3  502    0 -0.30512960052E+01 -0.43883946995E+02  0.46738662701E+02  0.64320185029E+02  0.41800000000E+01 0. -1.
         -5    1    3    3    0  502  0.23646915192E+02  0.40657043474E+02  0.32593788071E+03  0.32934047165E+03  0.41800000000E+01 0. -1.
        -11    1    1    2    0    0  0.19144844608E+02 -0.34193831860E+02  0.17532168665E+03  0.17964809218E+03  0.00000000000E+00 0. -1.
         11    1    1    2    0    0 -0.39740463796E+02  0.37420735381E+02  0.20770494242E+03  0.21475790790E+03  0.00000000000E+00 0.  1.
</event>
<event>
 7    1  0.4394360E-006  0.1169242E+03  0.7561462E-02  0.1248259E+00
         -1   -1    0    0    0  501 -0.00000000000E+00  0.00000000000E+00  0.43763539468E+02  0.43763539468E+02  0.00000000000E+00 0.  1.
          1   -1    0    0  501    0  0.00000000000E+00 -0.00000000000E+00 -0.41116764081E+03  0.41116764081E+03  0.00000000000E+00 0. -1.
         23    2    1    2    0    0  0.15788398986E+02  0.70636606859E+02 -0.15045449709E+03  0.20861896218E+03  0.12508601806E+03 0.  0.
          5    1    3    3  502    0 -0.20748691186E+02  0.79904248255E+02 -0.39989543570E+02  0.91825013314E+02  0.41800000000E+01 0. -1.
         -5    1    3    3    0  502  0.36537090172E+02 -0.92676413958E+01 -0.11046495352E+03  0.11679394886E+03  0.41800000000E+01 0. -1.
        -11    1    1    2    0    0 -0.51849173038E+02 -0.34944671527E+02 -0.89894752961E+02  0.10950129416E+03  0.00000000000E+00 0. -1.
         11    1    1    2    0    0  0.36060774051E+02 -0.35691935332E+02 -0.12705485129E+03  0.13681092394E+03  0.00000000000E+00 0.  1.
</event>
<event>
 7    1  0.4394360E-006  0.1006310E+03  0.7561462E-02  0.1278975E+00
          1   -1    0    0  501    0  0.00000000000E+00  0.00000000000E+00  0.43280680536E+03  0.43280680536E+03  0.00000000000E+00 0. -1.
         -1   -1    0    0    0  501 -0.00000000000E+00 -0.00000000000E+00 -0.37694372442E+02  0.37694372442E+02  0.00000000000E+00 0.  1.
         23    2    1    2    0    0  0.22851863130E+02 -0.43249284099E+02  0.13628032197E+03  0.19134310757E+03  0.12508857036E+03 0.  0.
          5    1    3    3  502    0 -0.24420312158E+01 -0.68132289451E+02  0.22234055013E+02  0.71831733828E+02  0.41800000000E+01 0.  1.
         -5    1    3    3    0  502  0.25293894345E+02  0.24883005352E+02  0.11404626696E+03  0.11951137374E+03  0.41800000000E+01 0.  1.
        -11    1    1    2    0    0  0.52076459663E+01  0.62810526656E+02  0.21196352956E+03  0.22113529727E+03  0.00000000000E+00 0. -1.
         11    1    1    2    0    0 -0.28059509096E+02 -0.19561242557E+02  0.46868581387E+02  0.58022772963E+02  0.00000000000E+00 0.  1.
</event>
<event>
 7    1  0.4394360E-006  0.1239695E+03  0.7561462E-02  0.1236689E+00
         -2   -1    0    0    0  501 -0.00000000000E+00  0.00000000000E+00  0.17869934493E+02  0.17869934493E+02  0.00000000000E+00 0.  1.
          2   -1    0    0  501    0  0.00000000000E+00 -0.00000000000E+00 -0.88846186704E+03  0.88846186704E+03  0.00000000000E+00 0. -1.
         23    2    1    2    0    0  0.12338985583E+02 -0.61707040391E+02 -0.46183198473E+03  0.48259458342E+03  0.12509492568E+03 0.  0.
          5    1    3    3  502    0 -0.33263984631E+02 -0.80964108955E+02 -0.24670969450E+03  0.26181066703E+03  0.41800000000E+01 0.  1.
         -5    1    3    3    0  502  0.45602970214E+02  0.19257068565E+02 -0.21512229024E+03  0.22078391639E+03  0.41800000000E+01 0.  1.
        -11    1    1    2    0    0  0.70796675268E+01  0.82138238678E+02 -0.32789295375E+03  0.33809850793E+03  0.00000000000E+00 0.  1.
         11    1    1    2    0    0 -0.19418653110E+02 -0.20431198287E+02 -0.80866994067E+02  0.85638710181E+02  0.00000000000E+00 0. -1.
</event>
<event>
 7    1  0.4394360E-006  0.1075233E+03  0.7561462E-02  0.1265226E+00
          2   -1    0    0  501    0  0.00000000000E+00  0.00000000000E+00  0.73217055712E+02  0.73217055712E+02  0.00000000000E+00 0.  1.
         -2   -1    0    0    0  501 -0.00000000000E+00 -0.00000000000E+00 -0.17608687001E+03  0.17608687001E+03  0.00000000000E+00 0. -1.
         23    2    1    2    0    0 -0.28446549723E+02 -0.13316781431E+02 -0.77400007584E+02  0.15041728736E+03  0.12509219121E+03 0.  0.
          5    1    3    3  502    0  0.23630729307E+02  0.44790360844E+02 -0.31815339937E+02  0.59952281420E+02  0.41800000000E+01 0.  1.
         -5    1    3    3    0  502 -0.52077279030E+02 -0.58107142275E+02 -0.45584667647E+02  0.90465005936E+02  0.41800000000E+01 0.  1.
        -11    1    1    2    0    0  0.35316675337E+02 -0.27462786835E+02  0.82934465039E+01  0.45500038160E+02  0.00000000000E+00 0.  1.
         11    1    1    2    0    0 -0.68701256145E+01  0.40779568266E+02 -0.33763253219E+02  0.53386600208E+02  0.00000000000E+00 0. -1.
</event>
<event>
 7    1  0.4394360E-006  0.1167966E+03  0.7561462E-02  0.1248477E+00
          1   -1    0    0  501    0  0.00000000000E+00  0.00000000000E+00  0.10719272646E+04  0.10719272646E+04  0.00000000000E+00 0. -1.
         -1   -1    0    0    0  501 -0.00000000000E+00 -0.00000000000E+00 -0.19230479205E+02  0.19230479205E+02  0.00000000000E+00 0.  1.
         23    2    1    2    0    0 -0.60896493525E+02  0.70147722705E+02  0.51078038833E+03  0.53401617887E+03  0.12509032042E+03 0.  0.
          5    1    3    3  502    0 -0.23248698326E+02  0.60796092905E+02  0.47975360130E+03  0.48416697249E+03  0.41800000000E+01 0. -1.
         -5    1    3    3    0  502 -0.37647795199E+02  0.93516298007E+01  0.31026787031E+02  0.49849206380E+02  0.41800000000E+01 0. -1.
        -11    1    1    2    0    0  0.29106122895E+02 -0.88141910817E+02  0.39094701628E+03  0.40181554521E+03  0.00000000000E+00 0.  1.
         11    1    1    2    0    0  0.31790370630E+02  0.17994188111E+02  0.15096938074E+03  0.15532601969E+03  0.00000000000E+00 0. -1.
</event>
<event>
 7    1  0.4394360E-006  0.9325267E+02  0.7561462E-02  0.1295161E+00
          2   -1    0    0  501    0  0.00000000000E+00  0.00000000000E+00  0.33842255243E+03  0.33842255243E+03  0.00000000000E+00 0.  1.
         -2   -1    0    0    0  501 -0.00000000000E+00 -0.00000000000E+00 -0.36391457469E+02  0.36391457469E+02  0.00000000000E+00 0. -1.
         23    2    1    2    0    0 -0.39155316095E+02  0.14478284912E+02  0.17890049430E+03  0.22225146999E+03  0.12509024558E+03 0.  0.
          5    1    3    3  502    0  0.45272899364E+02  0.13005799519E+02  0.61599715147E+02  0.77658119629E+02  0.41800000000E+01 0.  1.
         -5    1    3    3    0  502 -0.84428215460E+02  0.14724853934E+01  0.11730077915E+03  0.14459335036E+03  0.41800000000E+01 0.  1.
        -11    1    1    2    0    0  0.11247576911E+02 -0.22906692377E+02  0.12063343588E+03  0.12330308348E+03  0.00000000000E+00 0.  1.
         11    1    1    2    0    0  0.27907739184E+02  0.84284074643E+01  0.24971647798E+01  0.29259456432E+02  0.00000000000E+00 0. -1.
</event>
<event>
 7    1  0.4394360E-006  0.2841000E+03  0.7561462E-02  0.1093470E+00
          2   -1    0    0  501    0  0.00000000000E+00  0.00000000000E+00  0.55983070264E+03  0.55983070264E+03  0.00000000000E+00 0. -1.
         -2   -1    0    0    0  501 -0.00000000000E+00 -0.00000000000E+00 -0.15140472170E+03  0.15140472170E+03  0.00000000000E+00 0.  1.
         23    2    1    2    0    0 -0.19318033119E+02 -0.26841983525E+03  0.23027400751E+03  0.37562718441E+03  0.12508904338E+03 0.  0.
          5    1    3    3  502    0  0.24138736553E+02 -0.38998405507E+01  0.39264704302E+02  0.46444340480E+02  0.41800000000E+01 0. -1.
         -5    1    3    3    0  502 -0.43456769672E+02 -0.26451999470E+03  0.19100930320E+03  0.32918284393E+03  0.41800000000E+01 0. -1.
        -11    1    1    2    0    0  0.36847067910E+02  0.11221571299E+03  0.11899551481E+03  0.16766038650E+03  0.00000000000E+00 0. -1.
         11    1    1    2    0    0 -0.17529034790E+02  0.15620412226E+03  0.59156458620E+02  0.16794785342E+03  0.00000000000E+00 0.  1.
</event>
<event>
 6    1  0.4394360E-006  0.1280537E+03  0.7561462E-02  0.1230373E+00
          2   -1    0    0  501    0  0.00000000000E+00  0.00000000000E+00  0.45522067612E+03  0.45522067612E+03  0.00000000000E+00 0. -1.
         -2   -1    0    0    0  501 -0.00000000000E+00 -0.00000000000E+00 -0.25886241169E+03  0.25886241169E+03  0.00000000000E+00 0.  1.
          5    1    1    2  502    0  0.67987089014E+02  0.33769923086E+02  0.13100054107E+03  0.15146374530E+03  0.41800000000E+01 0. -1.
         -5    1    1    2    0  502 -0.76611836286E+02  0.44564258238E+02 -0.22691146132E+03  0.24364242292E+03  0.41800000000E+01 0.  1.
        -11    1    1    2    0    0  0.18647198698E+02 -0.79733054157E+01  0.22828874088E+01  0.20408409870E+02  0.00000000000E+00 0.  1.
         11    1    1    2    0    0 -0.10022451426E+02 -0.70360875908E+02  0.28998629727E+03  0.29856850972E+03  0.00000000000E+00 0. -1.
</event>
<event>
 7    1  0.4394360E-006  0.9023031E+02  0.7561462E-02  0.1302295E+00
         -3   -1    0    0    0  501 -0.00000000000E+00  0.00000000000E+00  0.19258586586E+03  0.19258586586E+03  0.00000000000E+00 0.  1.
          3   -1    0    0  501    0  0.00000000000E+00 -0.00000000000E+00 -0.73612810783E+02  0.73612810783E+02  0.00000000000E+00 0. -1.
         23    2    1    2    0    0 -0.30321771458E+02  0.29601338671E+02  0.76548857904E+02  0.15265204991E+03  0.12508905475E+03 0.  0.
          5    1    3    3  502    0 -0.28797028404E+02 -0.41336517645E+02  0.34113750112E+01  0.50666422958E+02  0.41800000000E+01 0. -1.
         -5    1    3    3    0  502 -0.15247430540E+01  0.70937856315E+02  0.73137482893E+02  0.10198562695E+03  0.41800000000E+01 0. -1.
        -11    1    1    2    0    0  0.15725529112E+02 -0.38603007638E+02 -0.21822910297E+02  0.47050227187E+02  0.00000000000E+00 0. -1.
         11    1    1    2    0    0  0.14596242346E+02  0.90016689667E+01  0.64247107473E+02  0.66496399553E+02  0.00000000000E+00 0.  1.
</event>
<event>
 7    1  0.4394360E-006  0.1343990E+03  0.7561462E-02  0.1221071E+00
          2   -1    0    0  501    0  0.00000000000E+00  0.00000000000E+00  0.21715927014E+03  0.21715927014E+03  0.00000000000E+00 0.  1.
         -2   -1    0    0    0  501 -0.00000000000E+00 -0.00000000000E+00 -0.10866193313E+03  0.10866193313E+03  0.00000000000E+00 0. -1.
         23    2    1    2    0    0  0.53907391433E+02  0.71597004411E+02 -0.62829556796E+01  0.15401289282E+03  0.12509339603E+03 0.  0.
          5    1    3    3  502    0 -0.37949017380E+02  0.12652612227E+02 -0.18191750306E+02  0.44143274635E+02  0.41800000000E+01 0.  1.
         -5    1    3    3    0  502  0.91856408813E+02  0.58944392184E+02  0.11908794627E+02  0.10986961818E+03  0.41800000000E+01 0.  1.
        -11    1    1    2    0    0 -0.33797232118E+01  0.17016218041E+02  0.44971087265E+02  0.48201378561E+02  0.00000000000E+00 0.  1.
         11    1    1    2    0    0 -0.50527668221E+02 -0.88613222452E+02  0.69809205429E+02  0.12360693189E+03  0.00000000000E+00 0. -1.
</event>
<event>
 7    1  0.4394360E-006  0.2065836E+03  0.7561462E-02  0.1144300E+00
          1   -1    0    0  501    0  0.00000000000E+00  0.00000000000E+00  0.55491859237E+03  0.55491859237E+03  0.00000000000E+00 0. -1.
         -1   -1    0    0    0  501 -0.00000000000E+00 -0.00000000000E+00 -0.90154120584E+02  0.90154120584E+02  0.00000000000E+00 0.  1.
         23    2    1    2    0    0 -0.17839978167E+03 -0.78850207729E+02  0.22370450211E+03  0.32207634191E+03  0.12508248636E+03 0.  0.
          5    1    3    3  502    0 -0.81394287097E+02 -0.59728892160E+02  0.31413888622E+02  0.10581528873E+03  0.41800000000E+01 0. -1.
         -5    1    3    3    0  502 -0.97005494577E+02 -0.19121315569E+02  0.19229061349E+03  0.21626105318E+03  0.41800000000E+01 0. -1.
        -11    1    1    2    0    0  0.11827894153E+03  0.56177784567E+01  0.11284838293E+03  0.16357330153E+03  0.00000000000E+00 0. -1.
         11    1    1    2    0    0  0.60120840147E+02  0.73232429273E+02  0.12821158674E+03  0.15942306951E+03  0.00000000000E+00 0.  1.
</event>
<event>
 6    1  0.4394360E-006  0.1021214E+03  0.7561462E-02  0.1275897E+00
          1   -1    0    0  501    0  0.00000000000E+00  0.00000000000E+00  0.11000224216E+03  0.11000224216E+03  0.00000000000E+00 0. -1.
         -1   -1    0    0    0  501 -0.00000000000E+00 -0.00000000000E+00 -0.15579645147E+03  0.15579645147E+03  0.00000000000E+00 0.  1.
          5    1    1    2  502    0  0.23637988471E+02  0.73984151757E+02 -0.47389099343E+02  0.91080230274E+02  0.41800000000E+01 0. -1.
         -5    1    1    2    0  502 -0.30012769609E+02 -0.46194689046E+02 -0.42133450419E+02  0.69479606215E+02  0.41800000000E+01 0.  1.
        -11    1    1    2    0    0  0.14030757581E+02 -0.47785992879E+02 -0.68904303274E+01  0.50277642187E+02  0.00000000000E+00 0.  1.
         11    1    1    2    0    0 -0.76559764439E+01  0.19996530168E+02  0.50618770779E+02  0.54961214955E+02  0.00000000000E+00 0. -1.
</event>
<event>
 7    1  0.4394360E-006  0.1062428E+03  0.7561462E-02  0.1267690E+00
          1   -1    0    0  501    0  0.00000000000E+00  0.00000000000E+00  0.16188023123E+03  0.16188023123E+03  0.00000000000E+00 0. -1.
         -1   -1    0    0    0  501 -0.00000000000E+00 -0.00000000000E+00 -0.73183503460E+02  0.73183503460E+02  0.00000000000E+00 0.  1.
         23    2    1    2    0    0  0.20141653218E+02 -0.65593024254E+01  0.43669872405E+02  0.13415367103E+03  0.12506573892E+03 0.  0.
          5    1    3    3  502    0  0.71888274842E+02 -0.10005501271E+02  0.13296239729E+02  0.73907350828E+02  0.41800000000E+01 0.  1.
         -5    1    3    3    0  502 -0.51746621625E+02  0.34461988458E+01  0.30373632677E+02  0.60246320203E+02  0.41800000000E+01 0.  1.
        -11    1    1    2    0    0 -0.35303374249E+02  0.38598903571E+02  0.38300511784E+02  0.64831572502E+02  0.00000000000E+00 0. -1.
         11    1    1    2    0    0  0.15161721032E+02 -0.32039601145E+02  0.67263435809E+01  0.36078491157E+02  0.00000000000E+00 0.  1.
</event>
<event>
 7    1  0.4394360E-006  0.1542869E+03  0.7561462E-02  0.1195302E+00
         -2   -1    0    0    0  501 -0.00000000000E+00  0.00000000000E+00  0.40644619405E+03  0.40644619405E+03  0.00000000000E+00 0.  1.
          2   -1    0    0  501    0  0.00000000000E+00 -0.00000000000E+00 -0.69859342784E+02  0.69859342784E+02  0.00000000000E+00 0. -1.
         23    2    1    2    0    0 -0.20528826872E+02 -0.12682620909E+03  0.19499384661E+03  0.26490801142E+03  0.12508930511E+03 0.  0.
          5    1    3    3  502    0  0.29395227920E+02 -0.11896718621E+03  0.10419602594E+03  0.16090853004E+03  0.41800000000E+01 0. -1.
         -5    1    3    3    0  502 -0.49924054791E+02 -0.78590228807E+01  0.90797820671E+02  0.10399948137E+03  0.41800000000E+01 0. -1.
        -11    1    1    2    0    0  0.33703132305E+02  0.94978619577E+02  0.47936436892E+02  0.11160081221E+03  0.00000000000E+00 0. -1.
         11    1    1    2    0    0 -0.13174305434E+02  0.31847589515E+02  0.93656567767E+02  0.99796713210E+02  0.00000000000E+00 0.  1.
</event>
<event>
 7    1  0.4394360E-006  0.1356435E+03  0.7561462E-02  0.1219314E+00
          1   -1    0    0  501    0  0.00000000000E+00  0.00000000000E+00  0.11490858953E+03  0.11490858953E+03  0.00000000000E+00 0. -1.
         -1   -1    0    0    0  501 -0.00000000000E+00 -0.00000000000E+00 -0.20106001250E+03  0.20106001250E+03  0.00000000000E+00 0.  1.
         23    2    1    2    0    0 -0.65150880466E+02  0.51082470472E+02 -0.11096264443E+03  0.18658630733E+03  0.12509070953E+03 0.  0.
          5    1    3    3  502    0 -0.97786313900E+02  0.19974664072E+02 -0.53151165265E+02  0.11315329938E+03  0.41800000000E+01 0. -1.
         -5    1    3    3    0  502  0.32635433434E+02  0.31107806400E+02 -0.57811479164E+02  0.73433007957E+02  0.41800000000E+01 0. -1.
        -11    1    1    2    0    0 -0.86452638050E+01 -0.51597112352E+02  0.28845290445E+01  0.52395830913E+02  0.00000000000E+00 0.  1.
         11    1    1    2    0    0  0.73796144271E+02  0.51464188011E+00  0.21926692407E+02  0.76986463781E+02  0.00000000000E+00 0. -1.
</event>
<event>
 7    1  0.4394360E-006  0.1157538E+03  0.7561462E-02  0.1250271E+00
         -4   -1    0    0    0  501 -0.00000000000E+00  0.00000000000E+00  0.32386402935E+03  0.32386402935E+03  0.00000000000E+00 0. -1.
          4   -1    0    0  501    0  0.00000000000E+00 -0.00000000000E+00 -0.42562778689E+02  0.42562778689E+02  0.00000000000E+00 0.  1.
         23    2    1    2    0    0 -0.19852081354E+01  0.44976267753E+02  0.17292631589E+03  0.21811799445E+03  0.12508054629E+03 0.  0.
          5    1    3    3  502    0  0.50822871894E+02  0.56682017718E+02  0.12101736225E+03  0.14303317729E+03  0.41800000000E+01 0.  1.
         -5    1    3    3    0  502 -0.52808080030E+02 -0.11705749966E+02  0.51908953647E+02  0.75084817156E+02  0.41800000000E+01 0.  1.
        -11    1    1    2    0    0 -0.16647186289E+02 -0.68789501961E+02  0.80438430198E+02  0.10714226731E+03  0.00000000000E+00 0.  1.
         11    1    1    2    0    0  0.18632394424E+02  0.23813234208E+02  0.27936504569E+02  0.41166546285E+02  0.00000000000E+00 0. -1.
</event>
<event>
 7    1  0.4394360E-006  0.1269192E+03  0.7561462E-02  0.1232100E+00
         -1   -1    0    0    0  501 -0.00000000000E+00  0.00000000000E+00  0.36788457673E+02  0.36788457673E+02  0.00000000000E+00 0.  1.
          1   -1    0    0  501    0  0.00000000000E+00 -0.00000000000E+00 -0.55165501301E+03  0.55165501301E+03  0.00000000000E+00 0. -1.
         23    2    1    2    0    0  0.49984570046E+02 -0.74215976033E+02 -0.23318611428E+03  0.27933694631E+03  0.12508755869E+03 0.  0.
          5    1    3    3  502    0  0.51384557836E+02  0.17833991034E+02 -0.48756190753E+02  0.73164626405E+02  0.41800000000E+01 0.  1.
         -5    1    3    3    0  502 -0.13999877900E+01 -0.92049967067E+02 -0.18442992353E+03  0.20617231991E+03  0.41800000000E+01 0.  1.
        -11    1    1    2    0    0 -0.55771959580E+02  0.31555968027E+02 -0.78101595866E+02  0.10102549119E+03  0.00000000000E+00 0.  1.
         11    1    1    2    0    0  0.57873895336E+01  0.42660008005E+02 -0.20357884518E+03  0.20808103317E+03  0.00000000000E+00 0. -1.
</event>
<event>
 7    1  0.4394360E-006  0.1096359E+03  0.7561462E-02  0.1261246E+00
         -1   -1    0    0    0  501 -0.00000000000E+00  0.00000000000E+00  0.52024990224E+03  0.52024990224E+03  0.00000000000E+00 0.  1.
          1   -1    0    0  501    0  0.00000000000E+00 -0.00000000000E+00 -0.41276017011E+02  0.41276017011E+02  0.00000000000E+00 0. -1.
         23    2    1    2    0    0  0.45402739748E+02 -0.62288128065E+02  0.37956288561E+03  0.40700929693E+03  0.12508942394E+03 0.  0.
          5    1    3    3  502    0  0.10616840043E+02  0.13773868009E+02 -0.43688664390E+00  0.17891338753E+02  0.41800000000E+01 0. -1.
         -5    1    3    3    0  502  0.34785899706E+02 -0.76061996073E+02  0.37999977226E+03  0.38911795818E+03  0.41800000000E+01 0. -1.
        -11    1    1    2    0    0  0.14509029768E+02  0.55479013718E+02  0.40392259493E+02  0.70142480245E+02  0.00000000000E+00 0.  1.
         11    1    1    2    0    0 -0.59911769516E+02  0.68091143468E+01  0.59018740127E+02  0.84374142075E+02  0.00000000000E+00 0. -1.
</event>
<event>
 6    1  0.4394360E-006  0.9886837E+02  0.7561462E-02  0.1282694E+00
         -1   -1    0    0    0  501 -0.00000000000E+00  0.00000000000E+00  0.53292201043E+02  0.53292201043E+02  0.00000000000E+00 0.  1.
          1   -1    0    0  501    0  0.00000000000E+00 -0.00000000000E+00 -0.53735869281E+03  0.53735869281E+03  0.00000000000E+00 0. -1.
          5    1    1    2  502    0 -0.14315687101E+02  0.16918812751E+02 -0.11288042268E+03  0.11511145619E+03  0.41800000000E+01 0. -1.
         -5    1    1    2    0  502 -0.17648573235E+02  0.60904069392E+02  0.18937772299E+02  0.66309044824E+02  0.41800000000E+01 0.  1.
        -11    1    1    2    0    0  0.28935503103E+02  0.44775864402E+01 -0.40121956940E+02  0.49669744803E+02  0.00000000000E+00 0.  1.
         11    1    1    2    0    0  0.30287572328E+01 -0.82300468584E+02 -0.35000188445E+03  0.35956064804E+03  0.00000000000E+00 0. -1.
</event>
<event>
 7    1  0.4394360E-006  0.1582965E+03  0.7561462E-02  0.1190634E+00
          2   -1    0    0  501    0  0.00000000000E+00  0.00000000000E+00  0.49692663944E+03  0.49692663944E+03  0.00000000000E+00 0. -1.
         -2   -1    0    0    0  501 -0.00000000000E+00 -0.00000000000E+00 -0.52007393599E+02  0.52007393599E+02  0.00000000000E+00 0.  1.
         23    2    1    2    0    0  0.94884751361E+02 -0.68819894031E+02  0.22203191938E+03  0.28050964089E+03  0.12509273182E+03 0.  0.
          5    1    3    3  502    0 -0.29156565956E+02 -0.14247787149E+02  0.24282045089E+02  0.40745489207E+02  0.41800000000E+01 0. -1.
         -5    1    3    3    0  502  0.12404131732E+03 -0.54572106882E+02  0.19774987429E+03  0.23976415168E+03  0.41800000000E+01 0. -1.
        -11    1    1    2    0    0 -0.68893794309E+02 -0.59353422016E+01  0.86564503409E+02  0.11079258293E+03  0.00000000000E+00 0.  1.
         11    1    1    2    0    0 -0.25990957052E+02  0.74755236233E+02  0.13632282306E+03  0.15763180922E+03  0.00000000000E+00 0. -1.
</event>
<event>
 7    1  0.4394360E-006  0.1179205E+03  0.7561462E-02  0.1246568E+00
         -3   -1    0    0    0  501 -0.00000000000E+00  0.00000000000E+00  0.18327203100E+03  0.18327203100E+03  0.00000000000E+00 0.  1.
          3   -1    0    0  501    0  0.00000000000E+00 -0.00000000000E+00 -0.83031461833E+02  0.83031461833E+02  0.00000000000E+00 0. -1.
         23    2    1    2    0    0 -0.14508796341E+02  0.58533705099E+02  0.64188912445E+02  0.15298577064E+03  0.12509088590E+03 0.  0.
          5    1    3    3  502    0 -0.68796086629E+02  0.44887870434E+02  0.44383824618E+02  0.93462392090E+02  0.41800000000E+01 0.  1.
         -5    1    3    3    0  502  0.54287290288E+02  0.13645834665E+02  0.19805087826E+02  0.59523378552E+02  0.41800000000E+01 0.  1.
        -11    1    1    2    0    0  0.36435916215E+02 -0.16264953836E+01  0.37505062407E+02  0.52314923146E+02  0.00000000000E+00 0.  1.
         11    1    1    2    0    0 -0.21927119874E+02 -0.56907209715E+02 -0.14534056804E+01  0.61002799048E+02  0.00000000000E+00 0. -1.
</event>
<event>
 7    1  0.4394360E-006  0.9056400E+02  0.7561462E-02  0.1301492E+00
         -1   -1    0    0    0  501 -0.00000000000E+00  0.00000000000E+00  0.18251771684E+03  0.18251771684E+03  0.00000000000E+00 0.  1.
          1   -1    0    0  501    0  0.00000000000E+00 -0.00000000000E+00 -0.19589340608E+03  0.19589340608E+03  0.00000000000E+00 0. -1.
         23    2    1    2    0    0 -0.13924955181E+02 -0.80399001164E+02  0.12381699859E+03  0.19400146102E+03  0.12509202202E+03 0.  0.
          5    1    3    3  502    0 -0.84298320852E+01 -0.78964967124E+02  0.14843402958E+03  0.16839436344E+03  0.41800000000E+01 0.  1.
         -5    1    3    3    0  502 -0.54951230962E+01 -0.14340340397E+01 -0.24617030991E+02  0.25607097576E+02  0.41800000000E+01 0.  1.
        -11    1    1    2    0    0 -0.11887768568E+02  0.61301296281E+02 -0.13886307083E+03  0.15225675817E+03  0.00000000000E+00 0. -1.
         11    1    1    2    0    0  0.25812723750E+02  0.19097704883E+02  0.16703830006E+01  0.32152903734E+02  0.00000000000E+00 0.  1.
</event>
<event>
 7    1  0.4394360E-006  0.1758345E+03  0.7561462E-02  0.1171896E+00
         -1   -1    0    0    0  501 -0.00000000000E+00  0.00000000000E+00  0.14134240027E+03  0.14134240027E+03  0.00000000000E+00 0.  1.
          1   -1    0    0  501    0  0.00000000000E+00 -0.00000000000E+00 -0.26261737275E+03  0.26261737275E+03  0.00000000000E+00 0. -1.
         23    2    1    2    0    0  0.15182222739E+03  0.34774008546E+02 -0.34458009249E+02  0.20273812215E+03  0.12512462335E+03 0.  0.
          5    1    3    3  502    0  0.12919954252E+03 -0.25044026260E+02 -0.38804412011E+01  0.13172795931E+03  0.41800000000E+01 0.  1.
         -5    1    3    3    0  502  0.22622684870E+02  0.59818034806E+02 -0.30577568048E+02  0.71010162840E+02  0.41800000000E+01 0.  1.
        -11    1    1    2    0    0 -0.87661601185E+02 -0.16550531886E+02 -0.99167732958E+02  0.13338933873E+03  0.00000000000E+00 0. -1.
         11    1    1    2    0    0 -0.64160626209E+02 -0.18223476660E+02  0.12350769735E+02  0.67832312139E+02  0.00000000000E+00 0.  1.
</event>
<event>
 7    1  0.4394360E-006  0.1120612E+03  0.7561462E-02  0.1256800E+00
          1   -1    0    0  501    0  0.00000000000E+00  0.00000000000E+00  0.77791134509E+02  0.77791134509E+02  0.00000000000E+00 0. -1.
         -1   -1    0    0    0  501 -0.00000000000E+00 -0.00000000000E+00 -0.22089748420E+03  0.22089748420E+03  0.00000000000E+00 0.  1.
         23    2    1    2    0    0  0.21470711748E+02 -0.39904891715E+02 -0.87813806191E+02  0.15940882182E+03  0.12508603467E+03 0.  0.
          5    1    3    3  502    0 -0.50996943209E+02 -0.95409811248E+01 -0.49753148768E+02  0.72003935655E+02  0.41800000000E+01 0.  1.
         -5    1    3    3    0  502  0.72467654957E+02 -0.30363910590E+02 -0.38060657423E+02  0.87404886161E+02  0.41800000000E+01 0.  1.
        -11    1    1    2    0    0 -0.24137412960E+01 -0.25321465678E+02 -0.65775710533E+02  0.70522669173E+02  0.00000000000E+00 0.  1.
         11    1    1    2    0    0 -0.19056970452E+02  0.65226357393E+02  0.10483167031E+02  0.68757127722E+02  0.00000000000E+00 0. -1.
</event>
<event>
 7    1  0.4394360E-006  0.2422138E+03  0.7561462E-02  0.1118327E+00
         -2   -1    0    0    0  501 -0.00000000000E+00  0.00000000000E+00  0.23972603015E+03  0.23972603015E+03  0.00000000000E+00 0. -1.
          2   -1    0    0  501    0  0.00000000000E+00 -0.00000000000E+00 -0.26612435898E+03  0.26612435898E+03  0.00000000000E+00 0.  1.
         23    2    1    2    0    0 -0.14623783208E+02  0.22631248176E+03 -0.67896026700E+01  0.25908459487E+03  0.12509010415E+03 0.  0.
          5    1    3    3  502    0  0.76227194483E+01 -0.13432946160E+02  0.78615169887E+01  0.17827667926E+02  0.41800000000E+01 0. -1.
         -5    1    3    3    0  502 -0.22246502656E+02  0.23974542792E+03 -0.14651119659E+02  0.24125692694E+03  0.41800000000E+01 0. -1.
        -11    1    1    2    0    0  0.13792301843E+02 -0.72479798942E+02 -0.51090093329E+02  0.89742668119E+02  0.00000000000E+00 0.  1.
         11    1    1    2    0    0  0.83148136554E+00 -0.15383268282E+03  0.31481367170E+02  0.15702312615E+03  0.00000000000E+00 0. -1.
</event>
<event>
 7    1  0.4394360E-006  0.7944085E+02  0.7561462E-02  0.1330646E+00
          1   -1    0    0  501    0  0.00000000000E+00  0.00000000000E+00  0.25405841295E+02  0.25405841295E+02  0.00000000000E+00 0. -1.
         -1   -1    0    0    0  501 -0.00000000000E+00 -0.00000000000E+00 -0.71695628323E+03  0.71695628323E+03  0.00000000000E+00 0.  1.
         23    2    1    2    0    0 -0.19602758811E+02 -0.24053274735E+02 -0.57787906849E+03  0.59207646161E+03  0.12508992929E+03 0.  0.
          5    1    3    3  502    0 -0.62776084412E+01  0.19190477129E+02 -0.10983049079E+02  0.23361989368E+02  0.41800000000E+01 0.  1.
         -5    1    3    3    0  502 -0.13325150370E+02 -0.43243751864E+02 -0.56689601941E+03  0.56871447224E+03  0.41800000000E+01 0.  1.
        -11    1    1    2    0    0  0.10659647512E+01 -0.32904261112E+02 -0.65917800091E+02  0.73681633050E+02  0.00000000000E+00 0.  1.
         11    1    1    2    0    0  0.18536794060E+02  0.56957535848E+02 -0.47753573350E+02  0.76604029865E+02  0.00000000000E+00 0. -1.
</event>
<event>
 7    1  0.4394360E-006  0.1241218E+03  0.7561462E-02  0.1236448E+00
          1   -1    0    0  501    0  0.00000000000E+00  0.00000000000E+00  0.16552883621E+03  0.16552883621E+03  0.00000000000E+00 0. -1.
         -1   -1    0    0    0  501 -0.00000000000E+00 -0.00000000000E+00 -0.11205741807E+03  0.11205741807E+03  0.00000000000E+00 0.  1.
         23    2    1    2    0    0 -0.72214561481E+02 -0.38880224773E+02  0.37767968852E+02  0.15427082763E+03  0.12508578664E+03 0.  0.
          5    1    3    3  502    0 -0.18709760403E+02 -0.76536785833E+02  0.59291230394E+00  0.78903476888E+02  0.41800000000E+01 0. -1.
         -5    1    3    3    0  502 -0.53504801078E+02  0.37656561060E+02  0.37175056548E+02  0.75367350747E+02  0.41800000000E+01 0. -1.
        -11    1    1    2    0    0  0.80226322185E+02  0.19140982428E+02 -0.17070683188E+02  0.84226172917E+02  0.00000000000E+00 0.  1.
         11    1    1    2    0    0 -0.80117607041E+01  0.19739242345E+02  0.32774132477E+02  0.39089253735E+02  0.00000000000E+00 0. -1.
</event>
<event>
 7    1  0.4394360E-006  0.2149313E+03  0.7561462E-02  0.1137719E+00
         -2   -1    0    0    0  501 -0.00000000000E+00  0.00000000000E+00  0.68752124986E+02  0.68752124986E+02  0.00000000000E+00 0.  1.
          2   -1    0    0  501    0  0.00000000000E+00 -0.00000000000E+00 -0.69345234611E+03  0.69345234611E+03  0.00000000000E+00 0. -1.
         23    2    1    2    0    0 -0.18793847147E+03  0.17004429155E+01 -0.31075166598E+03  0.38410554643E+03  0.12508681915E+03 0.  0.
          5    1    3    3  502    0 -0.13049268100E+03  0.57179593572E+02 -0.16654753412E+03  0.21921085565E+03  0.41800000000E+01 0.  1.
         -5    1    3    3    0  502 -0.57445790471E+02 -0.55479150657E+02 -0.14420413186E+03  0.16489469077E+03  0.41800000000E+01 0.  1.
        -11    1    1    2    0    0  0.99929529131E+02 -0.44624586963E+02 -0.13193411173E+03  0.17141725231E+03  0.00000000000E+00 0.  1.
         11    1    1    2    0    0  0.88008942338E+02  0.42924144048E+02 -0.18201444342E+03  0.20668167236E+03  0.00000000000E+00 0. -1.
</event>
<event>
 7    1  0.4394360E-006  0.1201617E+03  0.7561462E-02  0.1242831E+00
          1   -1    0    0  501    0  0.00000000000E+00  0.00000000000E+00  0.35049265712E+03  0.35049265712E+03  0.00000000000E+00 0. -1.
         -1   -1    0    0    0  501 -0.00000000000E+00 -0.00000000000E+00 -0.66171644586E+02  0.66171644586E+02  0.00000000000E+00 0.  1.
         23    2    1    2    0    0 -0.78337365367E+02  0.40796176440E+02  0.72471900681E+02  0.16941052345E+03  0.12508668292E+03 0.  0.
          5    1    3    3  502    0 -0.86498040111E+02  0.76226098317E+02  0.63664180022E+02  0.13176846825E+03  0.41800000000E+01 0.  1.
         -5    1    3    3    0  502  0.81606747443E+01 -0.35429921877E+02  0.88077206585E+01  0.37642055201E+02  0.41800000000E+01 0.  1.
        -11    1    1    2    0    0  0.41136504314E+02 -0.20032617592E+02  0.18644660805E+02  0.49407905555E+02  0.00000000000E+00 0.  1.
         11    1    1    2    0    0  0.37200861053E+02 -0.20763558848E+02  0.19320445105E+03  0.19784587270E+03  0.00000000000E+00 0. -1.
</event>
<event>
 7    1  0.4394360E-006  0.1480692E+03  0.7561462E-02  0.1202866E+00
         -4   -1    0    0    0  501 -0.00000000000E+00  0.00000000000E+00  0.62560200437E+02  0.62560200437E+02  0.00000000000E+00 0.  1.
          4   -1    0    0  501    0  0.00000000000E+00 -0.00000000000E+00 -0.38305461607E+03  0.38305461607E+03  0.00000000000E+00 0. -1.
         23    2    1    2    0    0 -0.31778259214E+02  0.10808308540E+03 -0.17206779443E+03  0.24072097754E+03  0.12508977592E+03 0.  0.
          5    1    3    3  502    0 -0.14114318007E+02  0.12869622469E+03 -0.16922012161E+03  0.21310761174E+03  0.41800000000E+01 0.  1.
         -5    1    3    3    0  502 -0.17663941207E+02 -0.20613139290E+02 -0.28476728188E+01  0.27613365801E+02  0.41800000000E+01 0.  1.
        -11    1    1    2    0    0  0.57145994861E+02 -0.94306590175E+02 -0.13076526410E+03  0.17105248310E+03  0.00000000000E+00 0.  1.
         11    1    1    2    0    0 -0.25367735647E+02 -0.13776495223E+02 -0.17661357101E+02  0.33841355870E+02  0.00000000000E+00 0. -1.
</event>
<event>
 6    1  0.4394360E-006  0.1895766E+03  0.7561462E-02  0.1158844E+00
          1   -1    0    0  501    0  0.00000000000E+00  0.00000000000E+00  0.70700702809E+03  0.70700702809E+03  0.00000000000E+00 0. -1.
         -1   -1    0    0    0  501 -0.00000000000E+00 -0.00000000000E+00 -0.62570553951E+02  0.62570553951E+02  0.00000000000E+00 0.  1.
          5    1    1    2  502    0  0.84868773802E+01 -0.28667484864E+02  0.14845580794E+01  0.30224627190E+02  0.41800000000E+01 0. -1.
         -5    1    1    2    0  502  0.16427779629E+03  0.95359978487E+01  0.34553207208E+03  0.38273752735E+03  0.41800000000E+01 0.  1.
        -11    1    1    2    0    0 -0.10724552170E+03 -0.18456607700E+02  0.11086662292E+03  0.15535010901E+03  0.00000000000E+00 0.  1.
         11    1    1    2    0    0 -0.65519151968E+02  0.37588094715E+02  0.18655322106E+03  0.20126531849E+03  0.00000000000E+00 0. -1.
</event>
<event>
 7    1  0.4394360E-006  0.1111531E+03  0.7561462E-02  0.1258449E+00
          1   -1    0    0  501    0  0.00000000000E+00  0.00000000000E+00  0.94787484859E+02  0.94787484859E+02  0.00000000000E+00 0. -1.
         -1   -1    0    0    0  501 -0.00000000000E+00 -0.00000000000E+00 -0.23795465982E+03  0.23795465982E+03  0.00000000000E+00 0.  1.
         23    2    1    2    0    0  0.74454581873E+02 -0.52616478119E+02 -0.12827933406E+03  0.20105566970E+03  0.12512320424E+03 0.  0.
          5    1    3    3  502    0  0.79218534629E+01 -0.19992998278E+02 -0.12485061573E+03  0.12675813343E+03  0.41800000000E+01 0.  1.
         -5    1    3    3    0  502  0.66532728410E+02 -0.32623479842E+02 -0.34287183339E+01  0.74297536272E+02  0.41800000000E+01 0.  1.
        -11    1    1    2    0    0 -0.81186163664E+02  0.85870925320E+01  0.72255937539E+01  0.81958163314E+02  0.00000000000E+00 0. -1.
         11    1    1    2    0    0  0.67315817908E+01  0.44029385587E+02 -0.22113434647E+02  0.49728311659E+02  0.00000000000E+00 0.  1.
</event>
<event>
 7    1  0.3019381E-005  0.2518467E+03  0.7561462E-02  0.1112143E+00
          2   -1    0    0  501    0  0.00000000000E+00  0.00000000000E+00  0.18752633722E+04  0.18752633722E+04  0.00000000000E+00 0.  1.
         -2   -1    0    0    0  501 -0.00000000000E+00 -0.00000000000E+00 -0.38267287290E+02  0.38267287290E+02  0.00000000000E+00 0. -1.
         23    2    1    2    0    0 -0.18006125071E+03  0.16512714043E+03  0.92002446891E+03  0.96009475726E+03  0.12509153856E+03 0.  0.
          5    1    3    3  502    0 -0.26840057653E+02  0.19104011159E+02  0.28442929831E+02  0.43724416458E+02  0.41800000000E+01 0.  1.
         -5    1    3    3    0  502 -0.15322119306E+03  0.14602312927E+03  0.89158153908E+03  0.91637034080E+03  0.41800000000E+01 0.  1.
        -11    1    1    2    0    0  0.17558592767E+03 -0.11824506183E+03  0.79459981258E+03  0.82231452304E+03  0.00000000000E+00 0.  1.
         11    1    1    2    0    0  0.44753230442E+01 -0.46882078594E+02  0.12237180347E+03  0.13112137924E+03  0.00000000000E+00 0. -1.
</event>
<event>
 7    1  0.4394360E-006  0.7209486E+02  0.7561462E-02  0.1353111E+00
         -2   -1    0    0    0  501 -0.00000000000E+00  0.00000000000E+00  0.80349320471E+02  0.80349320471E+02  0.00000000000E+00 0. -1.
          2   -1    0    0  501    0  0.00000000000E+00 -0.00000000000E+00 -0.15898745468E+03  0.15898745468E+03  0.00000000000E+00 0.  1.
         23    2    1    2    0    0 -0.27176872989E+02 -0.13705821940E+02 -0.41727087093E+02  0.13533178042E+03  0.12508840479E+03 0.  0.
          5    1    3    3  502    0 -0.19117633842E+02 -0.37912160889E+02 -0.79109205869E+02  0.89880780594E+02  0.41800000000E+01 0.  1.
         -5    1    3    3    0  502 -0.80592391477E+01  0.24206338949E+02  0.37382118775E+02  0.45450999825E+02  0.41800000000E+01 0.  1.
        -11    1    1    2    0    0  0.16129579220E+02 -0.28116896292E+02  0.15598230417E+02  0.35972600338E+02  0.00000000000E+00 0. -1.
         11    1    1    2    0    0  0.11047293769E+02  0.41822718232E+02 -0.52509277530E+02  0.68032394392E+02  0.00000000000E+00 0.  1.
</event>
<event>
 7    1  0.4394360E-006  0.1376652E+03  0.7561462E-02  0.1216506E+00
          1   -1    0    0  501    0  0.00000000000E+00  0.00000000000E+00  0.38605644966E+03  0.38605644966E+03  0.00000000000E+00 0. -1.
         -1   -1    0    0    0  501 -0.00000000000E+00 -0.00000000000E+00 -0.56603618158E+02  0.56603618158E+02  0.00000000000E+00 0.  1.
         23    2    1    2    0    0  0.46132747737E+02  0.88229395449E+02  0.20825514932E+03  0.26254523331E+03  0.12508851138E+03 0.  0.
          5    1    3    3  502    0 -0.43273635444E+02  0.32886069967E+02  0.76134613767E+02  0.93637881949E+02  0.41800000000E+01 0. -1.
         -5    1    3    3    0  502  0.89406383181E+02  0.55343325482E+02  0.13212053556E+03  0.16890735136E+03  0.41800000000E+01 0. -1.
        -11    1    1    2    0    0 -0.58062299198E+02 -0.53829047542E+02  0.35046434115E+02  0.86585503935E+02  0.00000000000E+00 0. -1.
         11    1    1    2    0    0  0.11929551461E+02 -0.34400347907E+02  0.86151248065E+02  0.93529330573E+02  0.00000000000E+00 0.  1.
</event>
<event>
 7    1  0.4394360E-006  0.1617310E+03  0.7561462E-02  0.1186756E+00
          2   -1    0    0  501    0  0.00000000000E+00  0.00000000000E+00  0.41207621980E+03  0.41207621980E+03  0.00000000000E+00 0. -1.
         -2   -1    0    0    0  501 -0.00000000000E+00 -0.00000000000E+00 -0.66258672495E+02  0.66258672495E+02  0.00000000000E+00 0.  1.
         23    2    1    2    0    0 -0.11270127220E+03 -0.76490485073E+02  0.18965703967E+03  0.26489528501E+03  0.12508936110E+03 0.  0.
          5    1    3    3  502    0 -0.78652067480E+02 -0.10773354952E+03  0.16543600927E+03  0.21255401896E+03  0.41800000000E+01 0. -1.
         -5    1    3    3    0  502 -0.34049204721E+02  0.31243064446E+02  0.24221030400E+02  0.52341266050E+02  0.41800000000E+01 0. -1.
        -11    1    1    2    0    0  0.17779241203E+02  0.36510742382E+02  0.29535197821E+02  0.50214177654E+02  0.00000000000E+00 0.  1.
         11    1    1    2    0    0  0.94922030998E+02  0.39979742691E+02  0.12662530981E+03  0.16322542963E+03  0.00000000000E+00 0. -1.
</event>
<event>
 7    1  0.4394360E-006  0.7767158E+02  0.7561462E-02  0.1335792E+00
          2   -1    0    0  501    0  0.00000000000E+00  0.00000000000E+00  0.70539374800E+03  0.70539374800E+03  0.00000000000E+00 0. -1.
         -2   -1    0    0    0  501 -0.00000000000E+00 -0.00000000000E+00 -0.21311220325E+02  0.21311220325E+02  0.00000000000E+00 0.  1.
         23    2    1    2    0    0 -0.50993032917E+02  0.26121672953E+02  0.36179751820E+03  0.38707624155E+03  0.12509173191E+03 0.  0.
          5    1    3    3  502    0 -0.16021845799E+02  0.24308647782E+02  0.66147621819E+01  0.30146929835E+02  0.41800000000E+01 0. -1.
         -5    1    3    3    0  502 -0.34971187118E+02  0.18130251707E+01  0.35518275602E+03  0.35692931172E+03  0.41800000000E+01 0. -1.
        -11    1    1    2    0    0  0.36843371545E+02  0.20347354987E+02  0.24321410273E+03  0.24682898665E+03  0.00000000000E+00 0.  1.
         11    1    1    2    0    0  0.14149661371E+02 -0.46469027940E+02  0.79070906746E+02  0.92799740130E+02  0.00000000000E+00 0. -1.
</event>
<event>
 7    1  0.4394360E-006  0.1392326E+03  0.7561462E-02  0.1214365E+00
         -2   -1    0    0    0  501 -0.00000000000E+00  0.00000000000E+00  0.20386553019E+03  0.20386553019E+03  0.00000000000E+00 0.  1.
          2   -1    0    0  501    0  0.00000000000E+00 -0.00000000000E+00 -0.14227721210E+03  0.14227721210E+03  0.00000000000E+00 0. -1.
         23    2    1    2    0    0 -0.66122429368E+02  0.10034022946E+03  0.81195079502E+02  0.19151832094E+03  0.12508512703E+03 0.  0.
          5    1    3    3  502    0 -0.30268376132E+02  0.85909692564E+01 -0.29463924708E+02  0.43307904655E+02  0.41800000000E+01 0. -1.
         -5    1    3    3    0  502 -0.35854053236E+02  0.91749260208E+02  0.11065900421E+03  0.14821041628E+03  0.41800000000E+01 0. -1.
        -11    1    1    2    0    0 -0.20427721835E+02 -0.90792298011E+01  0.11385186831E+02  0.25086783619E+02  0.00000000000E+00 0.  1.
         11    1    1    2    0    0  0.86550151202E+02 -0.91260999664E+02 -0.30991948248E+02  0.12953763773E+03  0.00000000000E+00 0. -1.
</event>
<event>
 6    1  0.4394360E-006  0.1383805E+03  0.7561462E-02  0.1215525E+00
         -1   -1    0    0    0  501 -0.00000000000E+00  0.00000000000E+00  0.14642607966E+03  0.14642607966E+03  0.00000000000E+00 0.  1.
          1   -1    0    0  501    0  0.00000000000E+00 -0.00000000000E+00 -0.23187945750E+03  0.23187945750E+03  0.00000000000E+00 0. -1.
          5    1    1    2  502    0 -0.17758058956E+02  0.22056190268E+02 -0.95022173060E+02  0.99239659210E+02  0.41800000000E+01 0. -1.
         -5    1    1    2    0  502 -0.95989819812E+02  0.15701721149E+02  0.66471961138E+02  0.11788377145E+03  0.41800000000E+01 0.  1.
        -11    1    1    2    0    0 -0.74463581548E+01  0.16420066705E+02 -0.59342934718E+01  0.18981113755E+02  0.00000000000E+00 0.  1.
         11    1    1    2    0    0  0.12119423692E+03 -0.54177978122E+02 -0.50968872452E+02  0.14220099274E+03  0.00000000000E+00 0. -1.
</event>
<event>
 7    1  0.4394360E-006  0.1443761E+03  0.7561462E-02  0.1207559E+00
          4   -1    0    0  501    0  0.00000000000E+00  0.00000000000E+00  0.55879252637E+03  0.55879252637E+03  0.00000000000E+00 0. -1.
         -4   -1    0    0    0  501 -0.00000000000E+00 -0.00000000000E+00 -0.43973610385E+02  0.43973610385E+02  0.00000000000E+00 0.  1.
         23    2    1    2    0    0 -0.60689807448E+02 -0.95240010357E+02  0.29536294028E+03  0.34006002759E+03  0.12509054150E+03 0.  0.
          5    1    3    3  502    0  0.35538013192E+02 -0.11287830228E+02  0.42109140378E+02  0.56400510603E+02  0.41800000000E+01 0.  1.
         -5    1    3    3    0  502 -0.96227820639E+02 -0.83952180128E+02  0.25325379990E+03  0.28365951699E+03  0.41800000000E+01 0.  1.
        -11    1    1    2    0    0  0.27386541061E+02  0.83936854105E+02  0.80880660775E+02  0.11973762732E+03  0.00000000000E+00 0.  1.
         11    1    1    2    0    0  0.33303266387E+02  0.11303156252E+02  0.13857531493E+03  0.14296848185E+03  0.00000000000E+00 0. -1.
</event>
<event>
 7    1  0.4394360E-006  0.1789099E+03  0.7561462E-02  0.1168862E+00
         -1   -1    0    0    0  501 -0.00000000000E+00  0.00000000000E+00  0.34405613226E+03  0.34405613226E+03  0.00000000000E+00 0.  1.
          1   -1    0    0  501    0  0.00000000000E+00 -0.00000000000E+00 -0.16430096210E+03  0.16430096210E+03  0.00000000000E+00 0. -1.
         23    2    1    2    0    0  0.15311605112E+03  0.40027928664E+01  0.25243522644E+03  0.31542100028E+03  0.11093383796E+03 0.  0.
          5    1    3    3  502    0  0.11055138896E+03 -0.40198143203E+02  0.11365820245E+03  0.16362505830E+03  0.41800000000E+01 0. -1.
         -5    1    3    3    0  502  0.42564662160E+02  0.44200936069E+02  0.13877702399E+03  0.15179594198E+03  0.41800000000E+01 0.  1.
        -11    1    1    2    0    0 -0.76136344709E+02 -0.47938719613E+02 -0.33133529863E+02  0.95878541003E+02  0.00000000000E+00 0. -1.
         11    1    1    2    0    0 -0.76979706411E+02  0.43935926746E+02 -0.39546526425E+02  0.97057553083E+02  0.00000000000E+00 0.  1.
</event>
<event>
 7    1  0.4394360E-006  0.1107787E+03  0.7561462E-02  0.1259135E+00
         -1   -1    0    0    0  501 -0.00000000000E+00  0.00000000000E+00  0.62083995387E+02  0.62083995387E+02  0.00000000000E+00 0.  1.
          1   -1    0    0  501    0  0.00000000000E+00 -0.00000000000E+00 -0.24111054545E+03  0.24111054545E+03  0.00000000000E+00 0. -1.
         23    2    1    2    0    0 -0.34778853613E+02 -0.19352085214E+02 -0.55482399236E+02  0.14251264841E+03  0.12508991354E+03 0.  0.
          5    1    3    3  502    0 -0.75019785968E+02 -0.22142963123E+02 -0.60361720424E+01  0.78563266705E+02  0.41800000000E+01 0. -1.
         -5    1    3    3    0  502  0.40240932355E+02  0.27908779087E+01 -0.49446227194E+02  0.63949381701E+02  0.41800000000E+01 0. -1.
        -11    1    1    2    0    0 -0.30795257560E+02 -0.76911432967E+01 -0.40910069903E+02  0.51779681275E+02  0.00000000000E+00 0.  1.
         11    1    1    2    0    0  0.65574111173E+02  0.27043228511E+02 -0.82634080924E+02  0.10890221116E+03  0.00000000000E+00 0. -1.
</event>
<event>
 7    1  0.4394360E-006  0.1180260E+03  0.7561462E-02  0.1246389E+00
          1   -1    0    0  501    0  0.00000000000E+00  0.00000000000E+00  0.62725089524E+03  0.62725089524E+03  0.00000000000E+00 0. -1.
         -1   -1    0    0    0  501 -0.00000000000E+00 -0.00000000000E+00 -0.24766413100E+02  0.24766413100E+02  0.00000000000E+00 0.  1.
         23    2    1    2    0    0  0.57166149015E+02  0.13261372829E+02  0.30581605728E+03  0.33558188669E+03  0.12509160316E+03 0.  0.
          5    1    3    3  502    0  0.71079801497E+02  0.49796034547E+02  0.13685984551E+03  0.16211129803E+03  0.41800000000E+01 0. -1.
         -5    1    3    3    0  502 -0.13913652482E+02 -0.36534661718E+02  0.16895621178E+03  0.17347058866E+03  0.41800000000E+01 0. -1.
        -11    1    1    2    0    0 -0.77519613316E+01 -0.48525261260E+02  0.12239804815E+03  0.13189418514E+03  0.00000000000E+00 0.  1.
         11    1    1    2    0    0 -0.49414187683E+02  0.35263888431E+02  0.17427037671E+03  0.18454123650E+03  0.00000000000E+00 0. -1.
</event>
<event>
 7    1  0.4394360E-006  0.1300479E+03  0.7561462E-02  0.1227385E+00
         -1   -1    0    0    0  501 -0.00000000000E+00  0.00000000000E+00  0.30383765456E+02  0.30383765456E+02  0.00000000000E+00 0.  1.
          1   -1    0    0  501    0  0.00000000000E+00 -0.00000000000E+00 -0.75733531017E+03  0.75733531017E+03  0.00000000000E+00 0. -1.
         23    2    1    2    0    0 -0.27927756962E+02 -0.77300137618E+02 -0.21910835244E+03  0.26535343964E+03  0.12509479181E+03 0.  0.
          5    1    3    3  502    0  0.27094848172E+02  0.21551592200E+02 -0.36358499231E+02  0.50378713661E+02  0.41800000000E+01 0. -1.
         -5    1    3    3    0  502 -0.55022605134E+02 -0.98851729819E+02 -0.18274985321E+03  0.21497472598E+03  0.41800000000E+01 0. -1.
        -11    1    1    2    0    0  0.28978654971E+02 -0.52550057603E+01 -0.58442022783E+02  0.65443468402E+02  0.00000000000E+00 0.  1.
         11    1    1    2    0    0 -0.10508980099E+01  0.82555143379E+02 -0.44940116949E+03  0.45692216758E+03  0.00000000000E+00 0. -1.
</event>
<event>
 7    1  0.4394360E-006  0.1016389E+03  0.7561462E-02  0.1276887E+00
          2   -1    0    0  501    0  0.00000000000E+00  0.00000000000E+00  0.78660201820E+03  0.78660201820E+03  0.00000000000E+00 0. -1.
         -2   -1    0    0    0  501 -0.00000000000E+00 -0.00000000000E+00 -0.16453724105E+02  0.16453724105E+02  0.00000000000E+00 0.  1.
         23    2    1    2    0    0  0.21415721887E+02  0.19288732962E+02  0.37917357640E+03  0.40031307118E+03  0.12508903053E+03 0.  0.
          5    1    3    3  502    0 -0.15962018689E+02  0.56569428371E+02  0.29528794760E+03  0.30111016367E+03  0.41800000000E+01 0. -1.
         -5    1    3    3    0  502  0.37377740576E+02 -0.37280695409E+02  0.83885628801E+02  0.99202907518E+02  0.41800000000E+01 0. -1.
        -11    1    1    2    0    0  0.30122343988E+01 -0.51154302084E+02  0.15165975534E+03  0.16008284595E+03  0.00000000000E+00 0. -1.
         11    1    1    2    0    0 -0.24427956285E+02  0.31865569122E+02  0.23931496236E+03  0.24265982517E+03  0.00000000000E+00 0.  1.
</event>
<event>
 7    1  0.4394360E-006  0.1825022E+03  0.7561462E-02  0.1165403E+00
         -2   -1    0    0    0  501 -0.00000000000E+00  0.00000000000E+00  0.17108023772E+03  0.17108023772E+03  0.00000000000E+00 0.  1.
          2   -1    0    0  501    0  0.00000000000E+00 -0.00000000000E+00 -0.23516406262E+03  0.23516406262E+03  0.00000000000E+00 0. -1.
         23    2    1    2    0    0 -0.61581719157E+02 -0.15303338316E+03  0.33658524559E+01  0.20704683581E+03  0.12508212806E+03 0.  0.
          5    1    3    3  502    0  0.20736758490E+02 -0.25037454723E+00  0.24267991079E+02  0.32194465846E+02  0.41800000000E+01 0.  1.
         -5    1    3    3    0  502 -0.82318477646E+02 -0.15278300861E+03 -0.20902138623E+02  0.17485236996E+03  0.41800000000E+01 0.  1.
        -11    1    1    2    0    0  0.15051730452E+02  0.93435327748E+02  0.46052138060E+01  0.94751902646E+02  0.00000000000E+00 0.  1.
         11    1    1    2    0    0  0.46529988705E+02  0.59598055411E+02 -0.72054891164E+02  0.10444556189E+03  0.00000000000E+00 0. -1.
</event>
<event>
 7    1  0.4394360E-006  0.1774601E+03  0.7561462E-02  0.1170284E+00
         -2   -1    0    0    0  501 -0.00000000000E+00  0.00000000000E+00  0.25653097390E+02  0.25653097390E+02  0.00000000000E+00 0.  1.
          2   -1    0    0  501    0  0.00000000000E+00 -0.00000000000E+00 -0.12882050732E+04  0.12882050732E+04  0.00000000000E+00 0. -1.
         23    2    1    2    0    0 -0.14367868422E+03 -0.10801950163E+02 -0.59696173972E+03  0.62671459474E+03  0.12509043982E+03 0.  0.
          5    1    3    3  502    0 -0.12075809319E+03 -0.56767178815E+02 -0.35373336832E+03  0.37808702428E+03  0.41800000000E+01 0.  1.
         -5    1    3    3    0  502 -0.22920591030E+02  0.45965228652E+02 -0.24322837140E+03  0.24862757046E+03  0.41800000000E+01 0.  1.
        -11    1    1    2    0    0  0.27231725515E+02 -0.35353740488E+02 -0.14599342843E+03  0.15266150460E+03  0.00000000000E+00 0. -1.
         11    1    1    2    0    0  0.11644695870E+03  0.46155690651E+02 -0.51959680763E+03  0.53448207123E+03  0.00000000000E+00 0.  1.
</event>
<event>
 7    1  0.4394360E-006  0.8703921E+02  0.7561462E-02  0.1310184E+00
          1   -1    0    0  501    0  0.00000000000E+00  0.00000000000E+00  0.16332296635E+03  0.16332296635E+03  0.00000000000E+00 0. -1.
         -1   -1    0    0    0  501 -0.00000000000E+00 -0.00000000000E+00 -0.11467530257E+03  0.11467530257E+03  0.00000000000E+00 0.  1.
         23    2    1    2    0    0  0.50038081445E+02 -0.88157093390E+01 -0.38869894720E+02  0.14049969603E+03  0.12509104501E+03 0.  0.
          5    1    3    3  502    0  0.66176106938E+02 -0.87332860418E+01 -0.75132992777E+02  0.10058820218E+03  0.41800000000E+01 0. -1.
         -5    1    3    3    0  502 -0.16138025493E+02 -0.82423297197E-01  0.36263098057E+02  0.39911493847E+02  0.41800000000E+01 0. -1.
        -11    1    1    2    0    0  0.71734869876E+01 -0.23671816394E+02  0.62314951331E+02  0.67044514811E+02  0.00000000000E+00 0. -1.
         11    1    1    2    0    0 -0.57211568432E+02  0.32487525733E+02  0.25202607173E+02  0.70454058074E+02  0.00000000000E+00 0.  1.
</event>
<event>
 7    1  0.4394360E-006  0.1026767E+03  0.7561462E-02  0.1274766E+00
          1   -1    0    0  501    0  0.00000000000E+00  0.00000000000E+00  0.12366284062E+03  0.12366284062E+03  0.00000000000E+00 0.  1.
         -1   -1    0    0    0  501 -0.00000000000E+00 -0.00000000000E+00 -0.19843510099E+03  0.19843510099E+03  0.00000000000E+00 0. -1.
         23    2    1    2    0    0 -0.25630389589E+02  0.65769424622E+02 -0.13255974147E+03  0.19545411687E+03  0.12509073770E+03 0.  0.
          5    1    3    3  502    0  0.67498371585E-01  0.67230122331E+02 -0.75824882484E+01  0.67785399849E+02  0.41800000000E+01 0. -1.
         -5    1    3    3    0  502 -0.25697887960E+02 -0.14606977086E+01 -0.12497725322E+03  0.12766871702E+03  0.41800000000E+01 0. -1.
        -11    1    1    2    0    0 -0.19780290257E+01 -0.80568019092E+02  0.48103371168E+02  0.93856553404E+02  0.00000000000E+00 0. -1.
         11    1    1    2    0    0  0.27608418614E+02  0.14798594469E+02  0.96841099316E+01  0.32787271338E+02  0.00000000000E+00 0.  1.
</event>
<event>
 7    1  0.4394360E-006  0.1043779E+03  0.7561462E-02  0.1271350E+00
         -2   -1    0    0    0  501 -0.00000000000E+00  0.00000000000E+00  0.12625615994E+03  0.12625615994E+03  0.00000000000E+00 0.  1.
          2   -1    0    0  501    0  0.00000000000E+00 -0.00000000000E+00 -0.12477904857E+03  0.12477904857E+03  0.00000000000E+00 0. -1.
         23    2    1    2    0    0 -0.27877862281E+02 -0.50169700390E+02  0.26826912816E+02  0.14021835013E+03  0.12508928179E+03 0.  0.
          5    1    3    3  502    0 -0.10584672063E+02 -0.84607188783E+02  0.46000396687E+02  0.96973813846E+02  0.41800000000E+01 0.  1.
         -5    1    3    3    0  502 -0.17293190218E+02  0.34437488392E+02 -0.19173483871E+02  0.43244536284E+02  0.41800000000E+01 0.  1.
        -11    1    1    2    0    0  0.48615591639E+01  0.59566438963E+02 -0.48407478092E+02  0.76909553005E+02  0.00000000000E+00 0. -1.
         11    1    1    2    0    0  0.23016303117E+02 -0.93967385722E+01  0.23057676650E+02  0.33907305370E+02  0.00000000000E+00 0.  1.
</event>
<event>
 7    1  0.4394360E-006  0.7948124E+02  0.7561462E-02  0.1330530E+00
          2   -1    0    0  501    0  0.00000000000E+00  0.00000000000E+00  0.58479504713E+02  0.58479504713E+02  0.00000000000E+00 0. -1.
         -2   -1    0    0    0  501 -0.00000000000E+00 -0.00000000000E+00 -0.21622575351E+03  0.21622575351E+03  0.00000000000E+00 0.  1.
         23    2    1    2    0    0 -0.95670724883E+01  0.14984118105E+02 -0.12264891814E+03  0.17608685323E+03  0.12509104720E+03 0.  0.
          5    1    3    3  502    0 -0.29476995265E+02  0.46131959284E+02 -0.12726032873E+03  0.13859911467E+03  0.41800000000E+01 0.  1.
         -5    1    3    3    0  502  0.19909922777E+02 -0.31147841179E+02  0.46114105961E+01  0.37487738565E+02  0.41800000000E+01 0.  1.
        -11    1    1    2    0    0 -0.16855130915E+02  0.17955684634E+02  0.18198207810E+02  0.30621509048E+02  0.00000000000E+00 0. -1.
         11    1    1    2    0    0  0.26422203404E+02 -0.32939802739E+02 -0.53295538474E+02  0.67996895947E+02  0.00000000000E+00 0.  1.
</event>
<event>
 7    1  0.4394360E-006  0.7746940E+02  0.7561462E-02  0.1336390E+00
          2   -1    0    0  501    0  0.00000000000E+00  0.00000000000E+00  0.63498762970E+03  0.63498762970E+03  0.00000000000E+00 0. -1.
         -2   -1    0    0    0  501 -0.00000000000E+00 -0.00000000000E+00 -0.25566438854E+02  0.25566438854E+02  0.00000000000E+00 0.  1.
         23    2    1    2    0    0  0.25743007280E+01 -0.49815808541E+02  0.22775521818E+03  0.26458925030E+03  0.12508713027E+03 0.  0.
          5    1    3    3  502    0 -0.22103284602E+01 -0.47435496907E+02  0.24314303898E+03  0.24777211651E+03  0.41800000000E+01 0.  1.
         -5    1    3    3    0  502  0.47846291882E+01 -0.23803116338E+01 -0.15387820795E+02  0.16817133786E+02  0.41800000000E+01 0.  1.
        -11    1    1    2    0    0  0.42182194323E+02  0.19830913389E+02  0.11842271024E+03  0.12726563143E+03  0.00000000000E+00 0.  1.
         11    1    1    2    0    0 -0.44756495051E+02  0.29984895152E+02  0.26324326243E+03  0.26869918682E+03  0.00000000000E+00 0. -1.
</event>
<event>
 7    1  0.4394360E-006  0.1129188E+03  0.7561462E-02  0.1255258E+00
         -4   -1    0    0    0  501 -0.00000000000E+00  0.00000000000E+00  0.10877395292E+03  0.10877395292E+03  0.00000000000E+00 0.  1.
          4   -1    0    0  501    0  0.00000000000E+00 -0.00000000000E+00 -0.23004840568E+03  0.23004840568E+03  0.00000000000E+00 0. -1.
         23    2    1    2    0    0  0.91937479066E+02 -0.36278287578E+02 -0.17972883396E+01  0.15943418337E+03  0.12508962537E+03 0.  0.
          5    1    3    3  502    0  0.20074194921E+02 -0.49177243316E+02  0.47384710671E+02  0.71303280200E+02  0.41800000000E+01 0. -1.
         -5    1    3    3    0  502  0.71863284145E+02  0.12898955738E+02 -0.49181999011E+02  0.88130903173E+02  0.41800000000E+01 0. -1.
        -11    1    1    2    0    0 -0.53888821605E+02  0.26940246554E+02 -0.12600749173E+03  0.13966986056E+03  0.00000000000E+00 0.  1.
         11    1    1    2    0    0 -0.38048657461E+02  0.93380410236E+01  0.65303273107E+01  0.39718314662E+02  0.00000000000E+00 0. -1.
</event>
<event>
 7    1  0.4394360E-006  0.2104523E+03  0.7561462E-02  0.1141208E+00
          1   -1    0    0  501    0  0.00000000000E+00  0.00000000000E+00  0.22525408067E+03  0.22525408067E+03  0.00000000000E+00 0. -1.
         -1   -1    0    0    0  501 -0.00000000000E+00 -0.00000000000E+00 -0.23289007593E+03  0.23289007593E+03  0.00000000000E+00 0.  1.
         23    2    1    2    0    0  0.18755465363E+03 -0.72044775362E+02  0.75640788506E+01  0.23679533424E+03  0.12509043638E+03 0.  0.
          5    1    3    3  502    0  0.43054378417E+02 -0.15127745729E+02  0.57571861889E+02  0.73583421184E+02  0.41800000000E+01 0. -1.
         -5    1    3    3    0  502  0.14450027521E+03 -0.56917029633E+02 -0.50007783038E+02  0.16321191306E+03  0.41800000000E+01 0. -1.
        -11    1    1    2    0    0 -0.15037746661E+03  0.14322297772E+02 -0.20702040298E+02  0.15246994835E+03  0.00000000000E+00 0. -1.
         11    1    1    2    0    0 -0.37177187024E+02  0.57722477591E+02  0.55019661885E+01  0.68878874019E+02  0.00000000000E+00 0.  1.
</event>
<event>
 7    1  0.4394360E-006  0.1020118E+03  0.7561462E-02  0.1276121E+00
         -1   -1    0    0    0  501 -0.00000000000E+00  0.00000000000E+00  0.20304322475E+03  0.20304322475E+03  0.00000000000E+00 0.  1.
          1   -1    0    0  501    0  0.00000000000E+00 -0.00000000000E+00 -0.87619546624E+02  0.87619546624E+02  0.00000000000E+00 0. -1.
         23    2    1    2    0    0 -0.60641304204E+02 -0.14777092234E+02  0.11270953741E+03  0.17956691017E+03  0.12508039484E+03 0.  0.
          5    1    3    3  502    0  0.26298974208E+02  0.28748614432E+02  0.15873135238E+02  0.42279400402E+02  0.41800000000E+01 0.  1.
         -5    1    3    3    0  502 -0.86940278411E+02 -0.43525706666E+02  0.96836402176E+02  0.13728750976E+03  0.41800000000E+01 0.  1.
        -11    1    1    2    0    0  0.35333830043E+01  0.95391012060E+01  0.40934090775E+02  0.42179130324E+02  0.00000000000E+00 0.  1.
         11    1    1    2    0    0  0.57107921200E+02  0.52379910283E+01 -0.38219950059E+02  0.68916730888E+02  0.00000000000E+00 0. -1.
</event>
<event>
 7    1  0.4394360E-006  0.7050051E+02  0.7561462E-02  0.1358399E+00
          1   -1    0    0  501    0  0.00000000000E+00  0.00000000000E+00  0.84622329952E+02  0.84622329952E+02  0.00000000000E+00 0. -1.
         -1   -1    0    0    0  501 -0.00000000000E+00 -0.00000000000E+00 -0.17850263794E+03  0.17850263794E+03  0.00000000000E+00 0.  1.
         23    2    1    2    0    0 -0.13079492497E+02  0.23782004691E+01 -0.11236220005E+03  0.16867167307E+03  0.12509252710E+03 0.  0.
          5    1    3    3  502    0 -0.33121656005E+02  0.57735529541E+01  0.16825365081E+02  0.37827811466E+02  0.41800000000E+01 0. -1.
         -5    1    3    3    0  502  0.20042163508E+02 -0.33953524850E+01 -0.12918756513E+03  0.13084386161E+03  0.41800000000E+01 0. -1.
        -11    1    1    2    0    0  0.40688032676E+02 -0.27443891139E+02 -0.65898225074E+01  0.49518773455E+02  0.00000000000E+00 0.  1.
         11    1    1    2    0    0 -0.27608540179E+02  0.25065690669E+02  0.25071714562E+02  0.44934521368E+02  0.00000000000E+00 0. -1.
</event>
<event>
 6    1  0.4394360E-006  0.4843934E+03  0.7561462E-02  0.1017935E+00
          2   -1    0    0  501    0  0.00000000000E+00  0.00000000000E+00  0.19777180824E+04  0.19777180824E+04  0.00000000000E+00 0. -1.
         -2   -1    0    0    0  501 -0.00000000000E+00 -0.00000000000E+00 -0.12088090374E+03  0.12088090374E+03  0.00000000000E+00 0.  1.
          5    1    1    2  502    0  0.42680172290E+03 -0.13657198813E+02  0.92483135219E+03  0.10186641901E+04  0.41800000000E+01 0. -1.
         -5    1    1    2    0  502 -0.45521127789E+03  0.88966552082E+00  0.73851684382E+03  0.86754982568E+03  0.41800000000E+01 0.  1.
        -11    1    1    2    0    0 -0.28570995070E+02  0.50560884964E+01  0.81235356173E+02  0.86261514493E+02  0.00000000000E+00 0.  1.
         11    1    1    2    0    0  0.56980550069E+02  0.77114447963E+01  0.11225362645E+03  0.12612345586E+03  0.00000000000E+00 0. -1.
</event>
<event>
 7    1  0.4394360E-006  0.1095331E+03  0.7561462E-02  0.1261437E+00
          1   -1    0    0  501    0  0.00000000000E+00  0.00000000000E+00  0.21013114255E+03  0.21013114255E+03  0.00000000000E+00 0. -1.
         -1   -1    0    0    0  501 -0.00000000000E+00 -0.00000000000E+00 -0.13622247787E+03  0.13622247787E+03  0.00000000000E+00 0.  1.
         23    2    1    2    0    0 -0.20632990213E+02  0.37524012902E+02 -0.85544616769E+02  0.15747696909E+03  0.12508933810E+03 0.  0.
          5    1    3    3  502    0  0.60056911683E+01 -0.38307230858E+02 -0.62657198570E+02  0.73803178760E+02  0.41800000000E+01 0. -1.
         -5    1    3    3    0  502 -0.26638681381E+02  0.75831243760E+02 -0.22887418199E+02  0.83673790327E+02  0.41800000000E+01 0. -1.
        -11    1    1    2    0    0  0.98570690732E+01 -0.67248058800E+02  0.12375174827E+03  0.14118767093E+03  0.00000000000E+00 0.  1.
         11    1    1    2    0    0  0.10775921139E+02  0.29724045898E+02  0.35701533167E+02  0.47688980398E+02  0.00000000000E+00 0. -1.
</event>
<event>
 7    1  0.4394360E-006  0.1197679E+03  0.7561462E-02  0.1243480E+00
         -2   -1    0    0    0  501 -0.00000000000E+00  0.00000000000E+00  0.46638775780E+03  0.46638775780E+03  0.00000000000E+00 0.  1.
          2   -1    0    0  501    0  0.00000000000E+00 -0.00000000000E+00 -0.41048966570E+02  0.41048966570E+02  0.00000000000E+00 0. -1.
         23    2    1    2    0    0 -0.54600127175E+02  0.19989901804E+02  0.34699592419E+03  0.37340927845E+03  0.12509015856E+03 0.  0.
          5    1    3    3  502    0 -0.60066222146E+02  0.66868762017E+02  0.21059534772E+03  0.22901365736E+03  0.41800000000E+01 0.  1.
         -5    1    3    3    0  502  0.54660949704E+01 -0.46878860213E+02  0.13640057647E+03  0.14439562109E+03  0.41800000000E+01 0.  1.
        -11    1    1    2    0    0 -0.22444261652E+02 -0.96731733223E+01  0.11329113187E+01  0.24466275795E+02  0.00000000000E+00 0. -1.
         11    1    1    2    0    0  0.77044388827E+02 -0.10316728481E+02  0.77209955724E+02  0.10956117013E+03  0.00000000000E+00 0.  1.
</event>
<event>
 7    1  0.4394360E-006  0.1001027E+03  0.7561462E-02  0.1280080E+00
         -2   -1    0    0    0  501 -0.00000000000E+00  0.00000000000E+00  0.17248553706E+02  0.17248553706E+02  0.00000000000E+00 0.  1.
          2   -1    0    0  501    0  0.00000000000E+00 -0.00000000000E+00 -0.75068534412E+03  0.75068534412E+03  0.00000000000E+00 0. -1.
         23    2    1    2    0    0 -0.14955645607E+02 -0.21231367369E+02 -0.35894548786E+03  0.38100470689E+03  0.12509308983E+03 0.  0.
          5    1    3    3  502    0  0.43181594103E+01  0.45469584361E+02 -0.69142634285E+02  0.82971717341E+02  0.41800000000E+01 0. -1.
         -5    1    3    3    0  502 -0.19273805017E+02 -0.66700951729E+02 -0.28980285358E+03  0.29803298955E+03  0.41800000000E+01 0. -1.
        -11    1    1    2    0    0 -0.33054674578E+02  0.21592573074E+01 -0.62947007784E+02  0.71130863150E+02  0.00000000000E+00 0.  1.
         11    1    1    2    0    0  0.48010320184E+02  0.19072110061E+02 -0.31154429477E+03  0.31579832778E+03  0.00000000000E+00 0. -1.
</event>
<event>
 7    1  0.4394360E-006  0.1518624E+03  0.7561462E-02  0.1198203E+00
          1   -1    0    0  501    0  0.00000000000E+00  0.00000000000E+00  0.65732930028E+03  0.65732930028E+03  0.00000000000E+00 0. -1.
         -1   -1    0    0    0  501 -0.00000000000E+00 -0.00000000000E+00 -0.49135770707E+02  0.49135770707E+02  0.00000000000E+00 0.  1.
         23    2    1    2    0    0 -0.53755945401E+02  0.10432858002E+03  0.16042819310E+03  0.23485953942E+03  0.12509054258E+03 0.  0.
          5    1    3    3  502    0 -0.28798978259E+02  0.12905381346E+03  0.10409187122E+03  0.16833555172E+03  0.41800000000E+01 0. -1.
         -5    1    3    3    0  502 -0.24956967142E+02 -0.24725233444E+02  0.56336321878E+02  0.66523987708E+02  0.41800000000E+01 0. -1.
        -11    1    1    2    0    0  0.68581816157E+02 -0.66958659241E+02  0.38737551672E+03  0.39905728725E+03  0.00000000000E+00 0.  1.
         11    1    1    2    0    0 -0.14825870756E+02 -0.37369920777E+02  0.60389819763E+02  0.72548244317E+02  0.00000000000E+00 0. -1.
</event>
<event>
 7    1  0.4394360E-006  0.1036904E+03  0.7561462E-02  0.1272722E+00
          3   -1    0    0  501    0  0.00000000000E+00  0.00000000000E+00  0.14117601014E+03  0.14117601014E+03  0.00000000000E+00 0. -1.
         -3   -1    0    0    0  501 -0.00000000000E+00 -0.00000000000E+00 -0.11137114412E+03  0.11137114412E+03  0.00000000000E+00 0.  1.
         23    2    1    2    0    0  0.30311169130E+02  0.65697222244E+02 -0.11638929857E+02  0.14497671246E+03  0.12509152843E+03 0.  0.
          5    1    3    3  502    0  0.71573400338E+02  0.55777201708E+02  0.18572498417E+02  0.92716007053E+02  0.41800000000E+01 0.  1.
         -5    1    3    3    0  502 -0.41262231208E+02  0.99200205357E+01 -0.30211428274E+02  0.52260705411E+02  0.41800000000E+01 0.  1.
        -11    1    1    2    0    0 -0.26728065366E+02 -0.40985696679E+02 -0.10402687664E+02  0.50024321296E+02  0.00000000000E+00 0.  1.
         11    1    1    2    0    0 -0.35831037635E+01 -0.24711525564E+02  0.51846483542E+02  0.57546120494E+02  0.00000000000E+00 0. -1.
</event>
<event>
 7    1  0.4394360E-006  0.1849512E+03  0.7561462E-02  0.1163095E+00
          1   -1    0    0  501    0  0.00000000000E+00  0.00000000000E+00  0.24714571742E+03  0.24714571742E+03  0.00000000000E+00 0. -1.
         -1   -1    0    0    0  501 -0.00000000000E+00 -0.00000000000E+00 -0.16693689744E+03  0.16693689744E+03  0.00000000000E+00 0.  1.
         23    2    1    2    0    0  0.16007587955E+03 -0.44698987634E+02 -0.12814935478E+02  0.20054711169E+03  0.11150172521E+03 0.  0.
          5    1    3    3  502    0  0.14302952889E+02  0.14654706171E+02 -0.35775602234E+02  0.41433090514E+02  0.41800000000E+01 0. -1.
         -5    1    3    3    0  502  0.14577292666E+03 -0.59353693805E+02  0.22960666757E+02  0.15911402117E+03  0.41800000000E+01 0.  1.
        -11    1    1    2    0    0  0.11997784457E+02 -0.41259203286E+01  0.10858729067E+02  0.16699761896E+02  0.00000000000E+00 0.  1.
         11    1    1    2    0    0 -0.17207366401E+03  0.48824907962E+02  0.82165026385E+02  0.19683574128E+03  0.00000000000E+00 0. -1.
</event>
<event>
 7    1  0.4394360E-006  0.6417189E+02  0.7561462E-02  0.1381114E+00
         -2   -1    0    0    0  501 -0.00000000000E+00  0.00000000000E+00  0.50822191712E+02  0.50822191712E+02  0.00000000000E+00 0. -1.
          2   -1    0    0  501    0  0.00000000000E+00 -0.00000000000E+00 -0.24732785447E+03  0.24732785447E+03  0.00000000000E+00 0.  1.
         23    2    1    2    0    0 -0.15528443929E+00  0.38822339886E+01 -0.74386165816E+02  0.14558801079E+03  0.12508985318E+03 0.  0.
          5    1    3    3  502    0  0.39348648769E+02 -0.61238194274E+01  0.18470988725E+02  0.44096112627E+02  0.41800000000E+01 0.  1.
         -5    1    3    3    0  502 -0.39503933208E+02  0.10006053416E+02 -0.92857154541E+02  0.10149189817E+03  0.41800000000E+01 0.  1.
        -11    1    1    2    0    0  0.22181640765E+02 -0.10212163310E+02 -0.12683476679E+03  0.12916412634E+03  0.00000000000E+00 0.  1.
         11    1    1    2    0    0 -0.22026356325E+02  0.63299293211E+01  0.47152698461E+01  0.23397909050E+02  0.00000000000E+00 0. -1.
</event>
<event>
 7    1  0.4394360E-006  0.1169929E+03  0.7561462E-02  0.1248142E+00
          2   -1    0    0  501    0  0.00000000000E+00  0.00000000000E+00  0.13932026426E+03  0.13932026426E+03  0.00000000000E+00 0.  1.
         -2   -1    0    0    0  501 -0.00000000000E+00 -0.00000000000E+00 -0.10437357006E+03  0.10437357006E+03  0.00000000000E+00 0. -1.
         23    2    1    2    0    0  0.52194316419E+02 -0.96102987527E+01  0.14278451198E+01  0.13589211526E+03  0.12509206105E+03 0.  0.
          5    1    3    3  502    0  0.84255052315E+02 -0.36706582827E+02  0.10943354632E+02  0.92647269112E+02  0.41800000000E+01 0.  1.
         -5    1    3    3    0  502 -0.32060735895E+02  0.27096284074E+02 -0.95155095127E+01  0.43244846145E+02  0.41800000000E+01 0.  1.
        -11    1    1    2    0    0 -0.39237564850E+02 -0.35472048253E+02  0.55405115343E+01  0.53184113894E+02  0.00000000000E+00 0.  1.
         11    1    1    2    0    0 -0.12956751569E+02  0.45082347006E+02  0.27978337551E+02  0.54617605174E+02  0.00000000000E+00 0. -1.
</event>
<event>
 7    1  0.4394360E-006  0.1023913E+03  0.7561462E-02  0.1275346E+00
         -3   -1    0    0    0  501 -0.00000000000E+00  0.00000000000E+00  0.87229294542E+02  0.87229294542E+02  0.00000000000E+00 0.  1.
          3   -1    0    0  501    0  0.00000000000E+00 -0.00000000000E+00 -0.13815952789E+03  0.13815952789E+03  0.00000000000E+00 0. -1.
         23    2    1    2    0    0  0.17149886544E+02  0.90556130741E+01 -0.25547897377E+02  0.12913555355E+03  0.12508866213E+03 0.  0.
          5    1    3    3  502    0 -0.50585858575E+02 -0.45959592231E+01 -0.31073042288E+02  0.59691358554E+02  0.41800000000E+01 0.  1.
         -5    1    3    3    0  502  0.67735745118E+02  0.13651572297E+02  0.55251449115E+01  0.69444195000E+02  0.41800000000E+01 0.  1.
        -11    1    1    2    0    0  0.25655778392E-01  0.36193417197E+02  0.84935009991E+01  0.37176654850E+02  0.00000000000E+00 0.  1.
         11    1    1    2    0    0 -0.17175542322E+02 -0.45249030271E+02 -0.33875836968E+02  0.59076614026E+02  0.00000000000E+00 0. -1.
</event>
<event>
 7    1  0.4394360E-006  0.1142561E+03  0.7561462E-02  0.1252885E+00
          3   -1    0    0  501    0  0.00000000000E+00  0.00000000000E+00  0.18115839584E+03  0.18115839584E+03  0.00000000000E+00 0. -1.
         -3   -1    0    0    0  501 -0.00000000000E+00 -0.00000000000E+00 -0.12601364020E+03  0.12601364020E+03  0.00000000000E+00 0.  1.
         23    2    1    2    0    0 -0.83664332060E+02  0.47926868996E+02 -0.11952768252E+02  0.15839066211E+03  0.12509207786E+03 0.  0.
          5    1    3    3  502    0 -0.81378726250E+02  0.51208731387E+02  0.41369411495E+02  0.10475558154E+03  0.41800000000E+01 0.  1.
         -5    1    3    3    0  502 -0.22856058109E+01 -0.32818623915E+01 -0.53322179746E+02  0.53635080569E+02  0.41800000000E+01 0.  1.
        -11    1    1    2    0    0  0.13615077988E+02 -0.54457006643E+02  0.76047691132E+01  0.56645992218E+02  0.00000000000E+00 0.  1.
         11    1    1    2    0    0  0.70049254072E+02  0.65301376467E+01  0.59492754773E+02  0.92135381718E+02  0.00000000000E+00 0. -1.
</event>
<event>
 7    1  0.4394360E-006  0.7983670E+02  0.7561462E-02  0.1329515E+00
          2   -1    0    0  501    0  0.00000000000E+00  0.00000000000E+00  0.42665825690E+03  0.42665825690E+03  0.00000000000E+00 0. -1.
         -2   -1    0    0    0  501 -0.00000000000E+00 -0.00000000000E+00 -0.39765098471E+02  0.39765098471E+02  0.00000000000E+00 0.  1.
         23    2    1    2    0    0  0.49851075378E+02  0.15997211259E+02  0.12653445077E+03  0.18546953844E+03  0.12508773710E+03 0.  0.
          5    1    3    3  502    0  0.28005002396E+02  0.15180483015E+02  0.14983854831E+03  0.15324421746E+03  0.41800000000E+01 0. -1.
         -5    1    3    3    0  502  0.21846072982E+02  0.81672824381E+00 -0.23304097547E+02  0.32225320979E+02  0.41800000000E+01 0. -1.
        -11    1    1    2    0    0 -0.18400496383E+02  0.38327875706E+02  0.11562216217E+03  0.12319126880E+03  0.00000000000E+00 0.  1.
         11    1    1    2    0    0 -0.31450578995E+02 -0.54325086965E+02  0.14473654550E+03  0.15776254814E+03  0.00000000000E+00 0. -1.
</event>
<event>
 7    1  0.4394360E-006  0.1055027E+03  0.7561462E-02  0.1269132E+00
         -2   -1    0    0    0  501 -0.00000000000E+00  0.00000000000E+00  0.10067786182E+03  0.10067786182E+03  0.00000000000E+00 0.  1.
          2   -1    0    0  501    0  0.00000000000E+00 -0.00000000000E+00 -0.18622669131E+03  0.18622669131E+03  0.00000000000E+00 0. -1.
         23    2    1    2    0    0 -0.71865906655E+01 -0.83338714182E+02 -0.64210836600E+02  0.16360628541E+03  0.12508795594E+03 0.  0.
          5    1    3    3  502    0 -0.25312680450E+02 -0.48347991261E+01 -0.77556064933E+02  0.81832283862E+02  0.41800000000E+01 0. -1.
         -5    1    3    3    0  502  0.18126089785E+02 -0.78503915055E+02  0.13345228333E+02  0.81774001548E+02  0.41800000000E+01 0. -1.
        -11    1    1    2    0    0 -0.27659289648E+02  0.34312573485E+02  0.21907775150E+02  0.49217269479E+02  0.00000000000E+00 0.  1.
         11    1    1    2    0    0  0.34845880314E+02  0.49026140697E+02 -0.43245768040E+02  0.74080998237E+02  0.00000000000E+00 0. -1.
</event>
<event>
 6    1  0.4394360E-006  0.1502513E+03  0.7561462E-02  0.1200165E+00
         -2   -1    0    0    0  501 -0.00000000000E+00  0.00000000000E+00  0.10705067292E+03  0.10705067292E+03  0.00000000000E+00 0.  1.
          2   -1    0    0  501    0  0.00000000000E+00 -0.00000000000E+00 -0.23296390898E+03  0.23296390898E+03  0.00000000000E+00 0. -1.
          5    1    1    2  502    0 -0.64447707217E+02  0.56634597474E+02 -0.62378854907E+02  0.10615827116E+03  0.41800000000E+01 0. -1.
         -5    1    1    2    0  502  0.81666905488E+02  0.33576818464E+02  0.49114817784E+01  0.88535197766E+02  0.41800000000E+01 0.  1.
        -11    1    1    2    0    0  0.35336945790E+02 -0.41978436165E+02 -0.17258013477E+02  0.57521542658E+02  0.00000000000E+00 0.  1.
         11    1    1    2    0    0 -0.52556144060E+02 -0.48232979773E+02 -0.51187849453E+02  0.87799570317E+02  0.00000000000E+00 0. -1.
</event>
<event>
 7    1  0.4394360E-006  0.1047899E+03  0.7561462E-02  0.1270534E+00
         -1   -1    0    0    0  501 -0.00000000000E+00  0.00000000000E+00  0.58053951374E+02  0.58053951374E+02  0.00000000000E+00 0.  1.
          1   -1    0    0  501    0  0.00000000000E+00 -0.00000000000E+00 -0.24393124165E+03  0.24393124165E+03  0.00000000000E+00 0. -1.
         23    2    1    2    0    0  0.22760211726E+01 -0.30999364846E+02 -0.50115183079E+02  0.13829231713E+03  0.12508833882E+03 0.  0.
          5    1    3    3  502    0  0.38838300155E+02 -0.66350042731E+02 -0.22221959820E+02  0.80137566893E+02  0.41800000000E+01 0.  1.
         -5    1    3    3    0  502 -0.36562278983E+02  0.35350677884E+02 -0.27893223260E+02  0.58154750237E+02  0.41800000000E+01 0.  1.
        -11    1    1    2    0    0 -0.37619103183E+02  0.26302660291E+02 -0.37862114724E+02  0.59502660395E+02  0.00000000000E+00 0.  1.
         11    1    1    2    0    0  0.35343082010E+02  0.46967045550E+01 -0.97899992476E+02  0.10419021550E+03  0.00000000000E+00 0. -1.
</event>
<event>
 7    1  0.4394360E-006  0.1122538E+03  0.7561462E-02  0.1256452E+00
         -1   -1    0    0    0  501 -0.00000000000E+00  0.00000000000E+00  0.21497301610E+03  0.21497301610E+03  0.00000000000E+00 0.  1.
          1   -1    0    0  501    0  0.00000000000E+00 -0.00000000000E+00 -0.87374964853E+02  0.87374964853E+02  0.00000000000E+00 0. -1.
         23    2    1    2    0    0  0.84621285345E+00 -0.79150159370E+02  0.67217779887E+02  0.16257128044E+03  0.12508288247E+03 0.  0.
          5    1    3    3  502    0 -0.15405167737E+02 -0.10888983682E+03  0.66156907863E+02  0.12840765014E+03  0.41800000000E+01 0.  1.
         -5    1    3    3    0  502  0.16251380590E+02  0.29739677451E+02  0.10608720235E+01  0.34163630303E+02  0.41800000000E+01 0.  1.
        -11    1    1    2    0    0  0.51809742162E+01  0.14910103843E+02 -0.26928451078E+02  0.31213701605E+02  0.00000000000E+00 0. -1.
         11    1    1    2    0    0 -0.60271870696E+01  0.64240055527E+02  0.87308722441E+02  0.10856299891E+03  0.00000000000E+00 0.  1.
</event>
<event>
 7    1  0.4394360E-006  0.1899226E+03  0.7561462E-02  0.1158531E+00
          1   -1    0    0  501    0  0.00000000000E+00  0.00000000000E+00  0.12332172357E+04  0.12332172357E+04  0.00000000000E+00 0. -1.
         -1   -1    0    0    0  501 -0.00000000000E+00 -0.00000000000E+00 -0.35338973208E+02  0.35338973208E+02  0.00000000000E+00 0.  1.
         23    2    1    2    0    0  0.97872104869E+02 -0.14410363700E+03  0.50467852015E+03  0.54835422548E+03  0.12508853181E+03 0.  0.
          5    1    3    3  502    0  0.11671191553E+03 -0.14234509915E+03  0.49166991801E+03  0.52501483708E+03  0.41800000000E+01 0.  1.
         -5    1    3    3    0  502 -0.18839810663E+02 -0.17585378519E+01  0.13008602143E+02  0.23339388400E+02  0.41800000000E+01 0.  1.
        -11    1    1    2    0    0 -0.71047423264E+02  0.80810887069E+02  0.56069998136E+03  0.57093134869E+03  0.00000000000E+00 0.  1.
         11    1    1    2    0    0 -0.26824681605E+02  0.63292749929E+02  0.13249976102E+03  0.14927063478E+03  0.00000000000E+00 0. -1.
</event>
<event>
 6    1  0.4394360E-006  0.1177915E+03  0.7561462E-02  0.1246785E+00
          1   -1    0    0  501    0  0.00000000000E+00  0.00000000000E+00  0.22619546234E+03  0.22619546234E+03  0.00000000000E+00 0. -1.
         -1   -1    0    0    0  501 -0.00000000000E+00 -0.00000000000E+00 -0.10138570019E+03  0.10138570019E+03  0.00000000000E+00 0.  1.
          5    1    1    2  502    0  0.33522281341E+02  0.75783852807E+02  0.12222291706E+03  0.14772558867E+03  0.41800000000E+01 0.  1.
         -5    1    1    2    0  502 -0.98964679182E+01  0.20337676939E+02 -0.32889371003E+02  0.40134079104E+02  0.41800000000E+01 0.  1.
        -11    1    1    2    0    0  0.26003936391E+02 -0.59396509090E+01 -0.81953773145E+01  0.27904271538E+02  0.00000000000E+00 0.  1.
         11    1    1    2    0    0 -0.49629749813E+02 -0.90181878837E+02  0.43671593409E+02  0.11181722322E+03  0.00000000000E+00 0. -1.
</event>
<event>
 7    1  0.4394360E-006  0.2555929E+03  0.7561462E-02  0.1109820E+00
         -3   -1    0    0    0  501 -0.00000000000E+00  0.00000000000E+00  0.69990795463E+02  0.69990795463E+02  0.00000000000E+00 0.  1.
          3   -1    0    0  501    0  0.00000000000E+00 -0.00000000000E+00 -0.12722600612E+04  0.12722600612E+04  0.00000000000E+00 0. -1.
         23    2    1    2    0    0 -0.23085690175E+03 -0.21028753414E+02 -0.26977617384E+03  0.37704614411E+03  0.12508994069E+03 0.  0.
          5    1    3    3  502    0 -0.10230376652E+03 -0.71151184513E+02 -0.14162218373E+03  0.18868722009E+03  0.41800000000E+01 0.  1.
         -5    1    3    3    0  502 -0.12855313522E+03  0.50122431099E+02 -0.12815399012E+03  0.18835892402E+03  0.41800000000E+01 0.  1.
        -11    1    1    2    0    0  0.53911207904E+02 -0.33294195007E+02 -0.27043884446E+03  0.27776265111E+03  0.00000000000E+00 0. -1.
         11    1    1    2    0    0  0.17694569384E+03  0.54322948421E+02 -0.66205424746E+03  0.68744206147E+03  0.00000000000E+00 0.  1.
</event>
<event>
 7    1  0.4394360E-006  0.9267527E+02  0.7561462E-02  0.1296499E+00
         -2   -1    0    0    0  501 -0.00000000000E+00  0.00000000000E+00  0.86651518656E+02  0.86651518656E+02  0.00000000000E+00 0.  1.
          2   -1    0    0  501    0  0.00000000000E+00 -0.00000000000E+00 -0.24430055745E+03  0.24430055745E+03  0.00000000000E+00 0. -1.
         23    2    1    2    0    0 -0.53143800843E+02  0.25152213919E+02 -0.43453624476E+01  0.13828709671E+03  0.12509013353E+03 0.  0.
          5    1    3    3  502    0 -0.45248454146E+02  0.25490085578E+01 -0.61308689644E+02  0.76355405003E+02  0.41800000000E+01 0. -1.
         -5    1    3    3    0  502 -0.78953466961E+01  0.22603205361E+02  0.56963327196E+02  0.61931691704E+02  0.41800000000E+01 0. -1.
        -11    1    1    2    0    0  0.64442401119E+02 -0.54301951340E+02 -0.12320361512E+03  0.14926706187E+03  0.00000000000E+00 0.  1.
         11    1    1    2    0    0 -0.11298600277E+02  0.29149737422E+02 -0.30100061229E+02  0.43397917530E+02  0.00000000000E+00 0. -1.
</event>
<event>
 7    1  0.4394360E-006  0.1035880E+03  0.7561462E-02  0.1272927E+00
         -1   -1    0    0    0  501 -0.00000000000E+00  0.00000000000E+00  0.22261828875E+03  0.22261828875E+03  0.00000000000E+00 0.  1.
          1   -1    0    0  501    0  0.00000000000E+00 -0.00000000000E+00 -0.62419550313E+02  0.62419550313E+02  0.00000000000E+00 0. -1.
         23    2    1    2    0    0  0.53941025730E+01  0.70717929386E+01  0.14632776601E+03  0.19271374819E+03  0.12509063529E+03 0.  0.
          5    1    3    3  502    0 -0.50801646463E+02  0.35514370704E+02  0.67733513315E+02  0.91909624283E+02  0.41800000000E+01 0. -1.
         -5    1    3    3    0  502  0.56195749036E+02 -0.28442577765E+02  0.78594252694E+02  0.10080412390E+03  0.41800000000E+01 0. -1.
        -11    1    1    2    0    0  0.35674035107E+02  0.10605877409E+02  0.26705480173E+02  0.45807249293E+02  0.00000000000E+00 0.  1.
         11    1    1    2    0    0 -0.41068137680E+02 -0.17677670348E+02 -0.12834507749E+02  0.46516841580E+02  0.00000000000E+00 0. -1.
</event>
<event>
 7    1  0.4394360E-006  0.8422443E+02  0.7561462E-02  0.1317473E+00
         -1   -1    0    0    0  501 -0.00000000000E+00  0.00000000000E+00  0.63978814894E+02  0.63978814894E+02  0.00000000000E+00 0.  1.
          1   -1    0    0  501    0  0.00000000000E+00 -0.00000000000E+00 -0.24001252280E+03  0.24001252280E+03  0.00000000000E+00 0. -1.
         23    2    1    2    0    0 -0.65685283725E+01  0.18179122471E+02 -0.29593046181E+02  0.12999035043E+03  0.12509243288E+03 0.  0.
          5    1    3    3  502    0 -0.51299878607E+02 -0.29874114290E+02 -0.48551241665E+01  0.59709169148E+02  0.41800000000E+01 0.  1.
         -5    1    3    3    0  502  0.44731350235E+02  0.48053236760E+02 -0.24737922014E+02  0.70281181283E+02  0.41800000000E+01 0.  1.
        -11    1    1    2    0    0 -0.45937090992E+01  0.10995634097E+02  0.93266088536E+01  0.15132473862E+02  0.00000000000E+00 0.  1.
         11    1    1    2    0    0  0.11162237472E+02 -0.29174756567E+02 -0.15576727058E+03  0.15886851340E+03  0.00000000000E+00 0. -1.
</event>
<event>
 7    1  0.4394360E-006  0.8685051E+02  0.7561462E-02  0.1310663E+00
         -4   -1    0    0    0  501 -0.00000000000E+00  0.00000000000E+00  0.20881847441E+03  0.20881847441E+03  0.00000000000E+00 0.  1.
          4   -1    0    0  501    0  0.00000000000E+00 -0.00000000000E+00 -0.80370669566E+02  0.80370669566E+02  0.00000000000E+00 0. -1.
         23    2    1    2    0    0 -0.18177318183E+02  0.61699270619E+02  0.10585565858E+03  0.17604268924E+03  0.12509353736E+03 0.  0.
          5    1    3    3  502    0 -0.77734828396E+01  0.34032316039E+02 -0.24150082295E+02  0.42653539658E+02  0.41800000000E+01 0.  1.
         -5    1    3    3    0  502 -0.10403835343E+02  0.27666954580E+02  0.13000574088E+03  0.13338914959E+03  0.41800000000E+01 0.  1.
        -11    1    1    2    0    0 -0.53188017058E+01 -0.79209047215E+02  0.26253176646E+02  0.83615740721E+02  0.00000000000E+00 0.  1.
         11    1    1    2    0    0  0.23496119889E+02  0.17509776596E+02 -0.36610303897E+01  0.29530714007E+02  0.00000000000E+00 0. -1.
</event>
<event>
 7    1  0.4394360E-006  0.1479604E+03  0.7561462E-02  0.1203002E+00
         -1   -1    0    0    0  501 -0.00000000000E+00  0.00000000000E+00  0.39428870385E+03  0.39428870385E+03  0.00000000000E+00 0.  1.
          1   -1    0    0  501    0  0.00000000000E+00 -0.00000000000E+00 -0.72631621592E+02  0.72631621592E+02  0.00000000000E+00 0. -1.
         23    2    1    2    0    0 -0.43596393868E+02 -0.98895549781E+02  0.26810865972E+03  0.31497847296E+03  0.12509280429E+03 0.  0.
          5    1    3    3  502    0 -0.39415356355E+02  0.13542741081E+02  0.29785030204E+02  0.51396464633E+02  0.41800000000E+01 0. -1.
         -5    1    3    3    0  502 -0.41810375129E+01 -0.11243829086E+03  0.23832362952E+03  0.26358200833E+03  0.41800000000E+01 0. -1.
        -11    1    1    2    0    0  0.50070136487E+02  0.11427049327E+03  0.41945955559E+02  0.13162153087E+03  0.00000000000E+00 0.  1.
         11    1    1    2    0    0 -0.64737426192E+01 -0.15374943487E+02  0.11602466980E+02  0.20320321621E+02  0.00000000000E+00 0. -1.
</event>
<event>
 7    1  0.4394360E-006  0.8583016E+02  0.7561462E-02  0.1313276E+00
          1   -1    0    0  501    0  0.00000000000E+00  0.00000000000E+00  0.48105997950E+02  0.48105997950E+02  0.00000000000E+00 0. -1.
         -1   -1    0    0    0  501 -0.00000000000E+00 -0.00000000000E+00 -0.31203593598E+03  0.31203593598E+03  0.00000000000E+00 0.  1.
         23    2    1    2    0    0  0.55879186017E+02  0.96292709428E+01 -0.18300386949E+03  0.22800618215E+03  0.12361713701E+03 0.  0.
          5    1    3    3  502    0  0.42680832477E+02  0.22657872150E+02 -0.47424699457E+01  0.48733931224E+02  0.41800000000E+01 0. -1.
         -5    1    3    3    0  502  0.13198353539E+02 -0.13028601207E+02 -0.17826139954E+03  0.17927225093E+03  0.41800000000E+01 0.  1.
        -11    1    1    2    0    0 -0.41429575290E+01 -0.42597900613E+02 -0.38288861213E+02  0.57426319112E+02  0.00000000000E+00 0.  1.
         11    1    1    2    0    0 -0.51736228488E+02  0.32968629670E+02 -0.42637207321E+02  0.74709432661E+02  0.00000000000E+00 0. -1.
</event>
<event>
 7    1  0.4394360E-006  0.2795746E+03  0.7561462E-02  0.1095921E+00
         -1   -1    0    0    0  501 -0.00000000000E+00  0.00000000000E+00  0.88977936603E+02  0.88977936603E+02  0.00000000000E+00 0.  1.
          1   -1    0    0  501    0  0.00000000000E+00 -0.00000000000E+00 -0.89325592903E+03  0.89325592903E+03  0.00000000000E+00 0. -1.
         23    2    1    2    0    0  0.17242088744E+03 -0.19240116707E+03 -0.35907551064E+03  0.45969555503E+03  0.12505042764E+03 0.  0.
          5    1    3    3  502    0  0.67275315540E+02 -0.16341033408E+03 -0.20202593603E+03  0.26844153292E+03  0.41800000000E+01 0.  1.
         -5    1    3    3    0  502  0.10514557190E+03 -0.28990832986E+02 -0.15704957461E+03  0.19125402211E+03  0.41800000000E+01 0.  1.
        -11    1    1    2    0    0 -0.56938420791E+02  0.10693025924E+02 -0.10532005570E+03  0.12020249040E+03  0.00000000000E+00 0. -1.
         11    1    1    2    0    0 -0.11548246665E+03  0.18170814115E+03 -0.33988242608E+03  0.40233582020E+03  0.00000000000E+00 0.  1.
</event>
<event>
 7    1  0.4394360E-006  0.1167412E+03  0.7561462E-02  0.1248572E+00
          2   -1    0    0  501    0  0.00000000000E+00  0.00000000000E+00  0.80878452211E+02  0.80878452211E+02  0.00000000000E+00 0. -1.
         -2   -1    0    0    0  501 -0.00000000000E+00 -0.00000000000E+00 -0.18393591119E+03  0.18393591119E+03  0.00000000000E+00 0.  1.
         23    2    1    2    0    0  0.53507256136E+02 -0.13188838816E+02 -0.69780676594E+02  0.15347357779E+03  0.12509126399E+03 0.  0.
          5    1    3    3  502    0  0.93082954550E+02 -0.49302150284E+01 -0.62174050373E+02  0.11212416505E+03  0.41800000000E+01 0. -1.
         -5    1    3    3    0  502 -0.39575698414E+02 -0.82586237879E+01 -0.76066262207E+01  0.41349412744E+02  0.41800000000E+01 0. -1.
        -11    1    1    2    0    0 -0.72831441755E+02 -0.49877566111E+01 -0.40977203435E+02  0.83716353393E+02  0.00000000000E+00 0. -1.
         11    1    1    2    0    0  0.19324185619E+02  0.18176595427E+02  0.77004210462E+01  0.27624432219E+02  0.00000000000E+00 0.  1.
</event>
<event>
 7    1  0.4394360E-006  0.1825609E+03  0.7561462E-02  0.1165347E+00
          2   -1    0    0  501    0  0.00000000000E+00  0.00000000000E+00  0.12533410054E+04  0.12533410054E+04  0.00000000000E+00 0. -1.
         -2   -1    0    0    0  501 -0.00000000000E+00 -0.00000000000E+00 -0.37062680656E+02  0.37062680656E+02  0.00000000000E+00 0.  1.
         23    2    1    2    0    0 -0.16576188496E+03 -0.56671072391E+02  0.44128681468E+03  0.49098709358E+03  0.12508261391E+03 0.  0.
          5    1    3    3  502    0 -0.82610036592E+02 -0.34335621936E+02  0.81744868913E+02  0.12125613004E+03  0.41800000000E+01 0. -1.
         -5    1    3    3    0  502 -0.83151848369E+02 -0.22335450455E+02  0.35954194576E+03  0.36973096354E+03  0.41800000000E+01 0. -1.
        -11    1    1    2    0    0  0.21950618824E+01  0.22065643988E+02  0.40867843964E+02  0.46496146201E+02  0.00000000000E+00 0.  1.
         11    1    1    2    0    0  0.16356682308E+03  0.34605428402E+02  0.73412366612E+03  0.75292044629E+03  0.00000000000E+00 0. -1.
</event>
<event>
 6    1  0.4394360E-006  0.1087104E+03  0.7561462E-02  0.1262977E+00
          1   -1    0    0  501    0  0.00000000000E+00  0.00000000000E+00  0.14498722481E+03  0.14498722481E+03  0.00000000000E+00 0. -1.
         -1   -1    0    0    0  501 -0.00000000000E+00 -0.00000000000E+00 -0.13568232041E+03  0.13568232041E+03  0.00000000000E+00 0.  1.
          5    1    1    2  502    0 -0.15572224743E+02 -0.63803673320E+02  0.28070090789E+02  0.71545826639E+02  0.41800000000E+01 0. -1.
         -5    1    1    2    0  502  0.52156401126E+02  0.16983278870E+02 -0.70361167979E+02  0.89313427316E+02  0.41800000000E+01 0.  1.
        -11    1    1    2    0    0  0.17088327111E+02  0.38716130540E+02 -0.35036565107E+01  0.42464400342E+02  0.00000000000E+00 0.  1.
         11    1    1    2    0    0 -0.53672503494E+02  0.81042639099E+01  0.55099638099E+02  0.77345890928E+02  0.00000000000E+00 0. -1.
</event>
<event>
 7    1  0.4394360E-006  0.1599116E+03  0.7561462E-02  0.1188797E+00
          1   -1    0    0  501    0  0.00000000000E+00  0.00000000000E+00  0.42607970491E+03  0.42607970491E+03  0.00000000000E+00 0. -1.
         -1   -1    0    0    0  501 -0.00000000000E+00 -0.00000000000E+00 -0.71264005534E+02  0.71264005534E+02  0.00000000000E+00 0.  1.
         23    2    1    2    0    0  0.12052249310E+03  0.61513756434E+02  0.17961032815E+03  0.25733059081E+03  0.12509815912E+03 0.  0.
          5    1    3    3  502    0  0.12666846965E+03  0.84943836151E+02  0.17526338325E+03  0.23236841957E+03  0.41800000000E+01 0.  1.
         -5    1    3    3    0  502 -0.61459765525E+01 -0.23430079717E+02  0.43469448993E+01  0.24962171245E+02  0.41800000000E+01 0.  1.
        -11    1    1    2    0    0 -0.55990319330E+02 -0.53854362282E+02  0.34453996047E+02  0.84984034025E+02  0.00000000000E+00 0.  1.
         11    1    1    2    0    0 -0.64532173767E+02 -0.76593941516E+01  0.14075137518E+03  0.15502908561E+03  0.00000000000E+00 0. -1.
</event>
<event>
 7    1  0.4394360E-006  0.1044874E+03  0.7561462E-02  0.1271133E+00
          1   -1    0    0  501    0  0.00000000000E+00  0.00000000000E+00  0.37584955808E+03  0.37584955808E+03  0.00000000000E+00 0. -1.
         -1   -1    0    0    0  501 -0.00000000000E+00 -0.00000000000E+00 -0.48759692629E+02  0.48759692629E+02  0.00000000000E+00 0.  1.
         23    2    1    2    0    0  0.55885868472E+01 -0.73273724694E+02  0.12049025299E+03  0.18858954823E+03  0.12509134902E+03 0.  0.
          5    1    3    3  502    0  0.35973885999E+02 -0.62589893249E+02  0.94867875153E+01  0.72932069408E+02  0.41800000000E+01 0. -1.
         -5    1    3    3    0  502 -0.30385299151E+02 -0.10683831446E+02  0.11100346548E+03  0.11565747882E+03  0.41800000000E+01 0. -1.
        -11    1    1    2    0    0  0.30345885206E+02  0.10985745427E+02  0.25390687342E+02  0.41063930100E+02  0.00000000000E+00 0.  1.
         11    1    1    2    0    0 -0.35934472054E+02  0.62287979267E+02  0.18120892512E+03  0.19495577238E+03  0.00000000000E+00 0. -1.
</event>
<event>
 7    1  0.4394360E-006  0.7477433E+02  0.7561462E-02  0.1344571E+00
         -2   -1    0    0    0  501 -0.00000000000E+00  0.00000000000E+00  0.26723510414E+02  0.26723510414E+02  0.00000000000E+00 0. -1.
          2   -1    0    0  501    0  0.00000000000E+00 -0.00000000000E+00 -0.58251571741E+03  0.58251571741E+03  0.00000000000E+00 0.  1.
         23    2    1    2    0    0  0.57563197579E+02 -0.94286924434E+01 -0.26721680748E+03  0.30075747298E+03  0.12509122030E+03 0.  0.
          5    1    3    3  502    0  0.53564359686E+02 -0.12037066260E+02 -0.28577253744E+02  0.62033566916E+02  0.41800000000E+01 0. -1.
         -5    1    3    3    0  502  0.39988378924E+01  0.26083738168E+01 -0.23863955374E+03  0.23872390606E+03  0.41800000000E+01 0. -1.
        -11    1    1    2    0    0 -0.45202970907E+02  0.36685045203E+02 -0.26221589091E+03  0.26860058557E+03  0.00000000000E+00 0.  1.
         11    1    1    2    0    0 -0.12360226672E+02 -0.27256352759E+02 -0.26359508603E+02  0.39881169277E+02  0.00000000000E+00 0. -1.
</event>
<event>
 7    1  0.4394360E-006  0.1270972E+03  0.7561462E-02  0.1231828E+00
          2   -1    0    0  501    0  0.00000000000E+00  0.00000000000E+00  0.25537406093E+03  0.25537406093E+03  0.00000000000E+00 0. -1.
         -2   -1    0    0    0  501 -0.00000000000E+00 -0.00000000000E+00 -0.14801651637E+03  0.14801651637E+03  0.00000000000E+00 0.  1.
         23    2    1    2    0    0 -0.94322939989E+02  0.26705481591E+02 -0.76234462423E+02  0.17626499564E+03  0.12509058986E+03 0.  0.
          5    1    3    3  502    0 -0.50549694672E+02 -0.47747921342E+02 -0.50526310702E+02  0.86055308361E+02  0.41800000000E+01 0. -1.
         -5    1    3    3    0  502 -0.43773245316E+02  0.74453402933E+02 -0.25708151721E+02  0.90209687278E+02  0.41800000000E+01 0. -1.
        -11    1    1    2    0    0  0.18110084047E+02 -0.61952358803E+01 -0.73592722851E+01  0.20506461918E+02  0.00000000000E+00 0.  1.
         11    1    1    2    0    0  0.76212855942E+02 -0.20510245711E+02  0.19095127927E+03  0.20661911975E+03  0.00000000000E+00 0. -1.
</event>
<event>
 7    1  0.4394360E-006  0.1213755E+03  0.7561462E-02  0.1240845E+00
          2   -1    0    0  501    0  0.00000000000E+00  0.00000000000E+00  0.70438918760E+02  0.70438918760E+02  0.00000000000E+00 0. -1.
         -2   -1    0    0    0  501 -0.00000000000E+00 -0.00000000000E+00 -0.24675440100E+03  0.24675440100E+03  0.00000000000E+00 0.  1.
         23    2    1    2    0    0  0.22083377680E+02  0.55693034178E+02 -0.15752664192E+03  0.20988600294E+03  0.12509237262E+03 0.  0.
          5    1    3    3  502    0 -0.38360678336E+02 -0.18573850353E+02 -0.50596921464E+02  0.66287633997E+02  0.41800000000E+01 0.  1.
         -5    1    3    3    0  502  0.60444056016E+02  0.74266884531E+02 -0.10692972045E+03  0.14359836894E+03  0.41800000000E+01 0.  1.
        -11    1    1    2    0    0 -0.53031580037E+02 -0.49445893159E+02 -0.44838570373E+01  0.72645370158E+02  0.00000000000E+00 0. -1.
         11    1    1    2    0    0  0.30948202357E+02 -0.62471410182E+01 -0.14304983288E+02  0.34661946669E+02  0.00000000000E+00 0.  1.
</event>
<event>
 7    1  0.4394360E-006  0.1461651E+03  0.7561462E-02  0.1205266E+00
          2   -1    0    0  501    0  0.00000000000E+00  0.00000000000E+00  0.69810700631E+02  0.69810700631E+02  0.00000000000E+00 0. -1.
         -2   -1    0    0    0  501 -0.00000000000E+00 -0.00000000000E+00 -0.34753555487E+03  0.34753555487E+03  0.00000000000E+00 0.  1.
         23    2    1    2    0    0  0.99252048158E+02  0.12355998110E+02 -0.20928517883E+03  0.26353702561E+03  0.12509131878E+03 0.  0.
          5    1    3    3  502    0  0.68955620518E+01  0.54891640085E+02 -0.51000614203E+02  0.75360307697E+02  0.41800000000E+01 0. -1.
         -5    1    3    3    0  502  0.92356486106E+02 -0.42535641975E+02 -0.15828456463E+03  0.18817671791E+03  0.41800000000E+01 0. -1.
        -11    1    1    2    0    0 -0.56440167172E+02  0.38714120621E+02 -0.19616829619E+02  0.71197581491E+02  0.00000000000E+00 0. -1.
         11    1    1    2    0    0 -0.42811880986E+02 -0.51070118731E+02 -0.48822845785E+02  0.82611648399E+02  0.00000000000E+00 0.  1.
</event>
<event>
 7    1  0.4394360E-006  0.1037266E+03  0.7561462E-02  0.1272649E+00
          1   -1    0    0  501    0  0.00000000000E+00  0.00000000000E+00  0.43895721813E+02  0.43895721813E+02  0.00000000000E+00 0. -1.
         -1   -1    0    0    0  501 -0.00000000000E+00 -0.00000000000E+00 -0.44632095811E+03  0.44632095811E+03  0.00000000000E+00 0.  1.
         23    2    1    2    0    0  0.60769771607E+02 -0.59840502444E+02 -0.25989756195E+03  0.30077869254E+03  0.12508888163E+03 0.  0.
          5    1    3    3  502    0 -0.17848338083E+02 -0.20833666353E+02 -0.17966409897E+03  0.18179457001E+03  0.41800000000E+01 0. -1.
         -5    1    3    3    0  502  0.78618109690E+02 -0.39006836091E+02 -0.80233462973E+02  0.11898412253E+03  0.41800000000E+01 0. -1.
        -11    1    1    2    0    0 -0.25280475207E+02  0.38816507104E+01 -0.11478681263E+03  0.11760179417E+03  0.00000000000E+00 0.  1.
         11    1    1    2    0    0 -0.35489296400E+02  0.55958851734E+02 -0.27740861723E+02  0.71836193214E+02  0.00000000000E+00 0. -1.
</event>
<event>
 7    1  0.4394360E-006  0.9565384E+02  0.7561462E-02  0.1289710E+00
         -1   -1    0    0    0  501 -0.00000000000E+00  0.00000000000E+00  0.25553904542E+02  0.25553904542E+02  0.00000000000E+00 0.  1.
          1   -1    0    0  501    0  0.00000000000E+00 -0.00000000000E+00 -0.52762599764E+03  0.52762599764E+03  0.00000000000E+00 0. -1.
         23    2    1    2    0    0 -0.63729650777E+01 -0.42749040206E+02 -0.25770764884E+03  0.28970444359E+03  0.12508931707E+03 0.  0.
          5    1    3    3  502    0 -0.44522150135E+02 -0.11291674721E+02 -0.22635724632E+03  0.23100822309E+03  0.41800000000E+01 0. -1.
         -5    1    3    3    0  502  0.38149185057E+02 -0.31457365485E+02 -0.31350402520E+02  0.58696220508E+02  0.41800000000E+01 0. -1.
        -11    1    1    2    0    0 -0.10651344031E+02 -0.24223126179E+02 -0.42028326574E+02  0.49664788394E+02  0.00000000000E+00 0. -1.
         11    1    1    2    0    0  0.17024309109E+02  0.66972166384E+02 -0.20233611768E+03  0.21381067020E+03  0.00000000000E+00 0.  1.
</event>
<event>
 7    1  0.4394360E-006  0.1521492E+03  0.7561462E-02  0.1197857E+00
          2   -1    0    0  501    0  0.00000000000E+00  0.00000000000E+00  0.21717309701E+03  0.21717309701E+03  0.00000000000E+00 0. -1.
         -2   -1    0    0    0  501 -0.00000000000E+00 -0.00000000000E+00 -0.15501718979E+03  0.15501718979E+03  0.00000000000E+00 0.  1.
         23    2    1    2    0    0 -0.84714379057E+02  0.11291487296E+03 -0.11895098093E+02  0.18898477662E+03  0.12508979926E+03 0.  0.
          5    1    3    3  502    0 -0.88574481981E+02  0.11345872353E+03  0.29673675750E+02  0.14702489665E+03  0.41800000000E+01 0. -1.
         -5    1    3    3    0  502  0.38601029239E+01 -0.54385056454E+00 -0.41568773842E+02  0.41959879966E+02  0.41800000000E+01 0. -1.
        -11    1    1    2    0    0 -0.65451801745E+01 -0.31859579083E+02  0.48667731734E+02  0.58535632524E+02  0.00000000000E+00 0.  1.
         11    1    1    2    0    0  0.91259559231E+02 -0.81055293879E+02  0.25383273578E+02  0.12466987765E+03  0.00000000000E+00 0. -1.
</event>
<event>
 7    1  0.4394360E-006  0.3134085E+03  0.7561462E-02  0.1078724E+00
          2   -1    0    0  501    0  0.00000000000E+00  0.00000000000E+00  0.28563378554E+03  0.28563378554E+03  0.00000000000E+00 0.  1.
         -2   -1    0    0    0  501 -0.00000000000E+00 -0.00000000000E+00 -0.39410168225E+03  0.39410168225E+03  0.00000000000E+00 0. -1.
         23    2    1    2    0    0  0.19443593289E+03  0.22894487272E+03 -0.15924370156E+03  0.36225058984E+03  0.12508335865E+03 0.  0.
          5    1    3    3  502    0  0.88325774673E+02  0.19165976933E+03 -0.85724216339E+02  0.22781796092E+03  0.41800000000E+01 0. -1.
         -5    1    3    3    0  502  0.10611015821E+03  0.37285103387E+02 -0.73519485221E+02  0.13443262892E+03  0.41800000000E+01 0. -1.
        -11    1    1    2    0    0 -0.10191443783E+02 -0.31638977518E+02  0.33166213829E+02  0.46956236695E+02  0.00000000000E+00 0.  1.
         11    1    1    2    0    0 -0.18424448910E+03 -0.19730589520E+03  0.17609591018E+02  0.27052864126E+03  0.00000000000E+00 0. -1.
</event>
<event>
 7    1  0.4394360E-006  0.1035544E+03  0.7561462E-02  0.1272994E+00
          2   -1    0    0  501    0  0.00000000000E+00  0.00000000000E+00  0.46163046863E+03  0.46163046863E+03  0.00000000000E+00 0. -1.
         -2   -1    0    0    0  501 -0.00000000000E+00 -0.00000000000E+00 -0.29814149252E+02  0.29814149252E+02  0.00000000000E+00 0.  1.
         23    2    1    2    0    0  0.40911542197E+02 -0.20378013938E+02  0.25893275037E+03  0.29117581962E+03  0.12509264960E+03 0.  0.
          5    1    3    3  502    0  0.26452336159E+02 -0.70274155712E+02  0.19298659737E+03  0.20712190182E+03  0.41800000000E+01 0. -1.
         -5    1    3    3    0  502  0.14459206038E+02  0.49896141775E+02  0.65946152998E+02  0.84053917805E+02  0.41800000000E+01 0. -1.
        -11    1    1    2    0    0 -0.38011531504E+02 -0.17466428385E+02  0.15049814862E+03  0.15620385842E+03  0.00000000000E+00 0. -1.
         11    1    1    2    0    0 -0.29000106936E+01  0.37844442322E+02  0.22385420392E+02  0.44064939837E+02  0.00000000000E+00 0.  1.
</event>
<event>
 7    1  0.4394360E-006  0.1401947E+03  0.7561462E-02  0.1213067E+00
         -1   -1    0    0    0  501 -0.00000000000E+00  0.00000000000E+00  0.10173962671E+03  0.10173962671E+03  0.00000000000E+00 0.  1.
          1   -1    0    0  501    0  0.00000000000E+00 -0.00000000000E+00 -0.27052048530E+03  0.27052048530E+03  0.00000000000E+00 0. -1.
         23    2    1    2    0    0  0.84151683672E+02 -0.77698426008E+02 -0.27124849083E+02  0.17176618464E+03  0.12509721611E+03 0.  0.
          5    1    3    3  502    0  0.57784377412E+02 -0.10414217148E+03 -0.48352789339E+02  0.12860828430E+03  0.41800000000E+01 0.  1.
         -5    1    3    3    0  502  0.26367306260E+02  0.26443745476E+02  0.21227940256E+02  0.43157900340E+02  0.41800000000E+01 0.  1.
        -11    1    1    2    0    0 -0.10544917859E+02  0.39160590405E+02 -0.54125014033E+01  0.40915062080E+02  0.00000000000E+00 0.  1.
         11    1    1    2    0    0 -0.73606765812E+02  0.38537835603E+02 -0.13624350810E+03  0.15957886529E+03  0.00000000000E+00 0. -1.
</event>
<event>
 7    1  0.4394360E-006  0.1517703E+03  0.7561462E-02  0.1198314E+00
          1   -1    0    0  501    0  0.00000000000E+00  0.00000000000E+00  0.32349396639E+03  0.32349396639E+03  0.00000000000E+00 0. -1.
         -1   -1    0    0    0  501 -0.00000000000E+00 -0.00000000000E+00 -0.10040515341E+03  0.10040515341E+03  0.00000000000E+00 0.  1.
         23    2    1    2    0    0  0.13604647170E+03  0.37296813781E+02  0.82553540702E+02  0.20581991698E+03  0.12508819434E+03 0.  0.
          5    1    3    3  502    0  0.14205636527E+03  0.34437910847E+02  0.10631427432E+03  0.18079319108E+03  0.41800000000E+01 0.  1.
         -5    1    3    3    0  502 -0.60098935753E+01  0.28589029346E+01 -0.23760733620E+02  0.25026725893E+02  0.41800000000E+01 0.  1.
        -11    1    1    2    0    0 -0.61272831442E+02 -0.42385360163E+02  0.11847335814E+03  0.13995290357E+03  0.00000000000E+00 0. -1.
         11    1    1    2    0    0 -0.74773640254E+02  0.50885463818E+01  0.22061914138E+02  0.78126299263E+02  0.00000000000E+00 0.  1.
</event>
<event>
 7    1  0.4394360E-006  0.9387346E+02  0.7561462E-02  0.1293734E+00
         -1   -1    0    0    0  501 -0.00000000000E+00  0.00000000000E+00  0.10778528881E+04  0.10778528881E+04  0.00000000000E+00 0.  1.
          1   -1    0    0  501    0  0.00000000000E+00 -0.00000000000E+00 -0.19871980499E+02  0.19871980499E+02  0.00000000000E+00 0. -1.
         23    2    1    2    0    0  0.51867045362E+02  0.60343454560E+02  0.78313854472E+03  0.79704786391E+03  0.12509114371E+03 0.  0.
          5    1    3    3  502    0  0.62009145410E+02  0.33300302493E+02  0.18168958581E+03  0.19489130882E+03  0.41800000000E+01 0.  1.
         -5    1    3    3    0  502 -0.10142100048E+02  0.27043152067E+02  0.60144895891E+03  0.60215655509E+03  0.41800000000E+01 0.  1.
        -11    1    1    2    0    0 -0.28221277072E+02 -0.57737668439E+02  0.26846250013E+03  0.27604744667E+03  0.00000000000E+00 0.  1.
         11    1    1    2    0    0 -0.23645768290E+02 -0.26057861205E+01  0.63798627441E+01  0.24629558014E+02  0.00000000000E+00 0. -1.
</event>
<event>
 7    1  0.4394360E-006  0.1551977E+03  0.7561462E-02  0.1194228E+00
          2   -1    0    0  501    0  0.00000000000E+00  0.00000000000E+00  0.11323946936E+03  0.11323946936E+03  0.00000000000E+00 0. -1.
         -2   -1    0    0    0  501 -0.00000000000E+00 -0.00000000000E+00 -0.37344252198E+03  0.37344252198E+03  0.00000000000E+00 0.  1.
         23    2    1    2    0    0  0.51454204906E+02  0.99937763219E+02 -0.29227287525E+03  0.33718883818E+03  0.12505113859E+03 0.  0.
          5    1    3    3  502    0  0.70079955383E+02  0.40923697976E+01 -0.12789061784E+03  0.14595009479E+03  0.41800000000E+01 0. -1.
         -5    1    3    3    0  502 -0.18625750477E+02  0.95845393422E+02 -0.16438225741E+03  0.19123874339E+03  0.41800000000E+01 0. -1.
        -11    1    1    2    0    0 -0.25147178554E+02  0.11637359980E+02 -0.66498469528E+01  0.28496126071E+02  0.00000000000E+00 0. -1.
         11    1    1    2    0    0 -0.26307026351E+02 -0.11157512320E+03  0.38719669579E+02  0.12099702709E+03  0.00000000000E+00 0.  1.
</event>
<event>
 7    1  0.4394360E-006  0.1297918E+03  0.7561462E-02  0.1227765E+00
         -2   -1    0    0    0  501 -0.00000000000E+00  0.00000000000E+00  0.25920635491E+02  0.25920635491E+02  0.00000000000E+00 0.  1.
          2   -1    0    0  501    0  0.00000000000E+00 -0.00000000000E+00 -0.90230428452E+03  0.90230428452E+03  0.00000000000E+00 0. -1.
         23    2    1    2    0    0 -0.69726573228E+01 -0.10625817946E+03 -0.43196988578E+03  0.46215025677E+03  0.12508180908E+03 0.  0.
          5    1    3    3  502    0 -0.18458599764E+02 -0.85697587403E+01 -0.28192980456E+03  0.28269426554E+03  0.41800000000E+01 0.  1.
         -5    1    3    3    0  502  0.11485942441E+02 -0.97688420724E+02 -0.15004008122E+03  0.17945599123E+03  0.41800000000E+01 0.  1.
        -11    1    1    2    0    0 -0.22769195612E+02 -0.65517297185E+01 -0.69388330881E+02  0.73321905960E+02  0.00000000000E+00 0.  1.
         11    1    1    2    0    0  0.29741852935E+02  0.11280990918E+03 -0.37502543236E+03  0.39275275727E+03  0.00000000000E+00 0. -1.
</event>
<event>
 7    1  0.4394360E-006  0.1784323E+03  0.7561462E-02  0.1169329E+00
          1   -1    0    0  501    0  0.00000000000E+00  0.00000000000E+00  0.57924200657E+03  0.57924200657E+03  0.00000000000E+00 0. -1.
         -1   -1    0    0    0  501 -0.00000000000E+00 -0.00000000000E+00 -0.10978654616E+03  0.10978654616E+03  0.00000000000E+00 0.  1.
         23    2    1    2    0    0 -0.49708889081E+02  0.14201000458E+03  0.87247073756E+01  0.19586007493E+03  0.12508890189E+03 0.  0.
          5    1    3    3  502    0  0.14210624286E+02  0.12947709261E+03  0.32823222081E+01  0.13036297554E+03  0.41800000000E+01 0.  1.
         -5    1    3    3    0  502 -0.63919513368E+02  0.12532911973E+02  0.54423851675E+01  0.65497099386E+02  0.41800000000E+01 0.  1.
        -11    1    1    2    0    0 -0.11426588402E+02 -0.46409775287E+02  0.60163649321E+02  0.76838134180E+02  0.00000000000E+00 0. -1.
         11    1    1    2    0    0  0.61135477483E+02 -0.95600229297E+02  0.40056710371E+03  0.41633034363E+03  0.00000000000E+00 0.  1.
</event>
<event>
 7    1  0.4394360E-006  0.1328668E+03  0.7561462E-02  0.1223263E+00
          1   -1    0    0  501    0  0.00000000000E+00  0.00000000000E+00  0.84224378423E+02  0.84224378423E+02  0.00000000000E+00 0. -1.
         -1   -1    0    0    0  501 -0.00000000000E+00 -0.00000000000E+00 -0.25297608120E+03  0.25297608120E+03  0.00000000000E+00 0.  1.
         23    2    1    2    0    0  0.26938502873E+02 -0.85732060404E+02 -0.13342957263E+03  0.20378000641E+03  0.12508865273E+03 0.  0.
          5    1    3    3  502    0  0.10779800412E+01 -0.11325131571E+03 -0.82226736554E+02  0.14002046692E+03  0.41800000000E+01 0.  1.
         -5    1    3    3    0  502  0.25860522832E+02  0.27519255309E+02 -0.51202836071E+02  0.63759539488E+02  0.41800000000E+01 0.  1.
        -11    1    1    2    0    0 -0.34932002072E+02  0.95555999787E+02 -0.65115798643E+01  0.10194898007E+03  0.00000000000E+00 0. -1.
         11    1    1    2    0    0  0.79934991984E+01 -0.98239393838E+01 -0.28810550289E+02  0.31471473153E+02  0.00000000000E+00 0.  1.
</event>
<event>
 7    1  0.4394360E-006  0.1508116E+03  0.7561462E-02  0.1199479E+00
         -3   -1    0    0    0  501 -0.00000000000E+00  0.00000000000E+00  0.11862259646E+04  0.11862259646E+04  0.00000000000E+00 0.  1.
          3   -1    0    0  501    0  0.00000000000E+00 -0.00000000000E+00 -0.30480689866E+02  0.30480689866E+02  0.00000000000E+00 0. -1.
         23    2    1    2    0    0  0.77714970240E+02  0.85204181160E+02  0.93722891124E+03  0.95254606818E+03  0.12508641354E+03 0.  0.
          5    1    3    3  502    0  0.27630058971E+02  0.10828969170E+03  0.53772519550E+03  0.54923213286E+03  0.41800000000E+01 0. -1.
         -5    1    3    3    0  502  0.50084911270E+02 -0.23085510545E+02  0.39950371574E+03  0.40331393532E+03  0.41800000000E+01 0. -1.
        -11    1    1    2    0    0 -0.48935657981E+02 -0.49085654047E+01  0.13939645890E+03  0.14781801443E+03  0.00000000000E+00 0.  1.
         11    1    1    2    0    0 -0.28779312259E+02 -0.80295615755E+02  0.79119904600E+02  0.11634257186E+03  0.00000000000E+00 0. -1.
</event>
<event>
 7    1  0.4394360E-006  0.1007899E+03  0.7561462E-02  0.1278644E+00
          2   -1    0    0  501    0  0.00000000000E+00  0.00000000000E+00  0.20136517024E+02  0.20136517024E+02  0.00000000000E+00 0. -1.
         -2   -1    0    0    0  501 -0.00000000000E+00 -0.00000000000E+00 -0.66899000992E+03  0.66899000992E+03  0.00000000000E+00 0.  1.
         23    2    1    2    0    0  0.27937010770E+02  0.42052345974E+01 -0.46546209041E+03  0.48280396578E+03  0.12508617508E+03 0.  0.
          5    1    3    3  502    0 -0.18361163215E+02  0.55727150289E+02 -0.20926451501E+03  0.21737469318E+03  0.41800000000E+01 0. -1.
         -5    1    3    3    0  502  0.46298173986E+02 -0.51521915692E+02 -0.25619757540E+03  0.26542927260E+03  0.41800000000E+01 0. -1.
        -11    1    1    2    0    0 -0.50442565419E+02 -0.59386518554E+01 -0.50843442711E+02  0.71866373629E+02  0.00000000000E+00 0. -1.
         11    1    1    2    0    0  0.22505554649E+02  0.17334172580E+01 -0.13254795978E+03  0.13445618754E+03  0.00000000000E+00 0.  1.
</event>
<event>
 7    1  0.4394360E-006  0.1035634E+03  0.7561462E-02  0.1272976E+00
         -2   -1    0    0    0  501 -0.00000000000E+00  0.00000000000E+00  0.27486499651E+04  0.27486499651E+04  0.00000000000E+00 0.  1.
          2   -1    0    0  501    0  0.00000000000E+00 -0.00000000000E+00 -0.90689684053E+01  0.90689684053E+01  0.00000000000E+00 0. -1.
         23    2    1    2    0    0  0.13029130294E+02  0.25911770788E+02  0.24156649990E+04  0.24190754116E+04  0.12508909426E+03 0.  0.
          5    1    3    3  502    0  0.12284724860E+02 -0.47080296573E+02  0.61906617061E+03  0.62098942405E+03  0.41800000000E+01 0. -1.
         -5    1    3    3    0  502  0.74440543368E+00  0.72992067362E+02  0.17965988284E+04  0.17980859876E+04  0.41800000000E+01 0. -1.
        -11    1    1    2    0    0  0.17743591207E+02 -0.45404609560E+02  0.26446333671E+03  0.26891870530E+03  0.00000000000E+00 0.  1.
         11    1    1    2    0    0 -0.30772721501E+02  0.19492838772E+02  0.59452660964E+02  0.69724816584E+02  0.00000000000E+00 0. -1.
</event>
<event>
 7    1  0.4394360E-006  0.9131583E+02  0.7561462E-02  0.1299696E+00
          2   -1    0    0  501    0  0.00000000000E+00  0.00000000000E+00  0.38123230636E+03  0.38123230636E+03  0.00000000000E+00 0. -1.
         -2   -1    0    0    0  501 -0.00000000000E+00 -0.00000000000E+00 -0.41341920422E+02  0.41341920422E+02  0.00000000000E+00 0.  1.
         23    2    1    2    0    0  0.61074192149E+01  0.55530092851E+02  0.14630484494E+03  0.20043280089E+03  0.12508920113E+03 0.  0.
          5    1    3    3  502    0  0.16253188666E+02  0.77182217908E+02  0.15555233523E+03  0.17445705001E+03  0.41800000000E+01 0.  1.
         -5    1    3    3    0  502 -0.10145769451E+02 -0.21652125057E+02 -0.92474902876E+01  0.25975750882E+02  0.41800000000E+01 0.  1.
        -11    1    1    2    0    0 -0.31359351621E+02 -0.33108922848E+02  0.18009191879E+03  0.18577596432E+03  0.00000000000E+00 0.  1.
         11    1    1    2    0    0  0.25251932406E+02 -0.22421170003E+02  0.13493622200E+02  0.36365461562E+02  0.00000000000E+00 0. -1.
</event>
<event>
 7    1  0.4394360E-006  0.9567416E+02  0.7561462E-02  0.1289665E+00
          2   -1    0    0  501    0  0.00000000000E+00  0.00000000000E+00  0.46562393213E+02  0.46562393213E+02  0.00000000000E+00 0. -1.
         -2   -1    0    0    0  501 -0.00000000000E+00 -0.00000000000E+00 -0.30459305367E+03  0.30459305367E+03  0.00000000000E+00 0.  1.
         23    2    1    2    0    0 -0.12905220628E+02  0.20510971686E+02 -0.21143199409E+03  0.24685686303E+03  0.12509027950E+03 0.  0.
          5    1    3    3  502    0 -0.27148594993E+02 -0.43598229476E+02 -0.14262324602E+03  0.15164667662E+03  0.41800000000E+01 0.  1.
         -5    1    3    3    0  502  0.14243374365E+02  0.64109201162E+02 -0.68808748064E+02  0.95210186414E+02  0.41800000000E+01 0.  1.
        -11    1    1    2    0    0 -0.19955813668E+02  0.15495696670E+02  0.12086572998E+02  0.28007791082E+02  0.00000000000E+00 0. -1.
         11    1    1    2    0    0  0.32861034296E+02 -0.36006668356E+02 -0.58685239366E+02  0.76290792764E+02  0.00000000000E+00 0.  1.
</event>
<event>
 7    1  0.4394360E-006  0.8683966E+02  0.7561462E-02  0.1310691E+00
         -1   -1    0    0    0  501 -0.00000000000E+00  0.00000000000E+00  0.68029721268E+02  0.68029721268E+02  0.00000000000E+00 0.  1.
          1   -1    0    0  501    0  0.00000000000E+00 -0.00000000000E+00 -0.44677021587E+03  0.44677021587E+03  0.00000000000E+00 0. -1.
         23    2    1    2    0    0  0.55559180242E+02 -0.43185372437E+02 -0.29156447399E+02  0.14773290919E+03  0.12658244401E+03 0.  0.
          5    1    3    3  502    0  0.27406968060E+02 -0.10139196711E+02 -0.77316439147E+02  0.82760191944E+02  0.41800000000E+01 0. -1.
         -5    1    3    3    0  502  0.28152212182E+02 -0.33046175726E+02  0.48159991749E+02  0.64972717244E+02  0.41800000000E+01 0.  1.
        -11    1    1    2    0    0  0.40530585020E+01  0.40680562734E+02 -0.68935928537E+02  0.80146726139E+02  0.00000000000E+00 0.  1.
         11    1    1    2    0    0 -0.59612238744E+02  0.25048097037E+01 -0.28064811867E+03  0.28692030181E+03  0.00000000000E+00 0. -1.
</event>
<event>
 7    1  0.4394360E-006  0.1091250E+03  0.7561462E-02  0.1262199E+00
          2   -1    0    0  501    0  0.00000000000E+00  0.00000000000E+00  0.18461390297E+03  0.18461390297E+03  0.00000000000E+00 0. -1.
         -2   -1    0    0    0  501 -0.00000000000E+00 -0.00000000000E+00 -0.73329031989E+02  0.73329031989E+02  0.00000000000E+00 0.  1.
         23    2    1    2    0    0  0.35773056941E+02 -0.19735133047E+02  0.27848898324E+02  0.12479692846E+03  0.11458413998E+03 0.  0.
          5    1    3    3  502    0  0.65637743584E+02 -0.46921242787E+02  0.14692540852E+02  0.82117352394E+02  0.41800000000E+01 0. -1.
         -5    1    3    3    0  502 -0.29864686643E+02  0.27186109739E+02  0.13156357472E+02  0.42679576064E+02  0.41800000000E+01 0.  1.
        -11    1    1    2    0    0 -0.23338947174E+02  0.54847953421E+02  0.26791286372E+02  0.65351185721E+02  0.00000000000E+00 0.  1.
         11    1    1    2    0    0 -0.12434109767E+02 -0.35112820374E+02  0.56644686289E+02  0.67794820784E+02  0.00000000000E+00 0. -1.
</event>
<event>
 7    1  0.4394360E-006  0.1711030E+03  0.7561462E-02  0.1176702E+00
         -1   -1    0    0    0  501 -0.00000000000E+00  0.00000000000E+00  0.22245258221E+03  0.22245258221E+03  0.00000000000E+00 0. -1.
          1   -1    0    0  501    0  0.00000000000E+00 -0.00000000000E+00 -0.21252696676E+03  0.21252696676E+03  0.00000000000E+00 0.  1.
         23    2    1    2    0    0 -0.32027060330E+02  0.15191226669E+03  0.11121980963E+03  0.22830266329E+03  0.12509672517E+03 0.  0.
          5    1    3    3  502    0 -0.16011646755E+02  0.16098088953E+03  0.58121691719E+02  0.17195005983E+03  0.41800000000E+01 0. -1.
         -5    1    3    3    0  502 -0.16015413575E+02 -0.90686228376E+01  0.53098117909E+02  0.56352603468E+02  0.41800000000E+01 0. -1.
        -11    1    1    2    0    0 -0.96154836865E+01 -0.57735098464E+02 -0.83818033677E+02  0.10223141342E+03  0.00000000000E+00 0.  1.
         11    1    1    2    0    0  0.41642544016E+02 -0.94177168229E+02 -0.17476160496E+02  0.10444547225E+03  0.00000000000E+00 0. -1.
</event>
<event>
 7    1  0.4394360E-006  0.1482352E+03  0.7561462E-02  0.1202659E+00
          1   -1    0    0  501    0  0.00000000000E+00  0.00000000000E+00  0.77378852868E+03  0.77378852868E+03  0.00000000000E+00 0. -1.
         -1   -1    0    0    0  501 -0.00000000000E+00 -0.00000000000E+00 -0.41213098004E+02  0.41213098004E+02  0.00000000000E+00 0.  1.
         23    2    1    2    0    0 -0.42056195921E+01  0.13694209553E+03  0.28231476783E+03  0.33784413851E+03  0.12516472758E+03 0.  0.
          5    1    3    3  502    0  0.74713280811E+01  0.80375326879E+02  0.26551534233E+03  0.27754618234E+03  0.41800000000E+01 0. -1.
         -5    1    3    3    0  502 -0.11676947673E+02  0.56566768646E+02  0.16799425494E+02  0.60297956176E+02  0.41800000000E+01 0. -1.
        -11    1    1    2    0    0 -0.25771795501E+02 -0.12112340751E+03  0.34308505138E+03  0.36474980161E+03  0.00000000000E+00 0.  1.
         11    1    1    2    0    0  0.29977415093E+02 -0.15818688014E+02  0.10717561147E+03  0.11240768657E+03  0.00000000000E+00 0. -1.
</event>
<event>
 7    1  0.4394360E-006  0.2739614E+03  0.7561462E-02  0.1099034E+00
         -1   -1    0    0    0  501 -0.00000000000E+00  0.00000000000E+00  0.16661015596E+04  0.16661015596E+04  0.00000000000E+00 0.  1.
          1   -1    0    0  501    0  0.00000000000E+00 -0.00000000000E+00 -0.52745473486E+02  0.52745473486E+02  0.00000000000E+00 0. -1.
         23    2    1    2    0    0  0.19094185562E+03  0.16795907922E+03  0.11389767332E+04  0.11737044759E+04  0.12508058791E+03 0.  0.
          5    1    3    3  502    0  0.14249582885E+03  0.45584164327E+02  0.67565179294E+03  0.69203019802E+03  0.41800000000E+01 0. -1.
         -5    1    3    3    0  502  0.48446026768E+02  0.12237491489E+03  0.46332494021E+03  0.48167427783E+03  0.41800000000E+01 0. -1.
        -11    1    1    2    0    0 -0.10722382173E+03 -0.14392174424E+03  0.34951024606E+03  0.39289671481E+03  0.00000000000E+00 0. -1.
         11    1    1    2    0    0 -0.83718033890E+02 -0.24037334976E+02  0.12486910687E+03  0.15224584238E+03  0.00000000000E+00 0.  1.
</event>
<event>
 7    1  0.4394360E-006  0.1777370E+03  0.7561462E-02  0.1170011E+00
         -1   -1    0    0    0  501 -0.00000000000E+00  0.00000000000E+00  0.26825943175E+03  0.26825943175E+03  0.00000000000E+00 0.  1.
          1   -1    0    0  501    0  0.00000000000E+00 -0.00000000000E+00 -0.17275192019E+03  0.17275192019E+03  0.00000000000E+00 0. -1.
         23    2    1    2    0    0  0.58314679760E+02 -0.14596236454E+03  0.15064602515E+03  0.25108017288E+03  0.12506564109E+03 0.  0.
          5    1    3    3  502    0  0.77137907754E+02 -0.50345307257E+02  0.32265332469E+02  0.97690484976E+02  0.41800000000E+01 0. -1.
         -5    1    3    3    0  502 -0.18823227994E+02 -0.95617057278E+02  0.11838069268E+03  0.15338968790E+03  0.41800000000E+01 0. -1.
        -11    1    1    2    0    0 -0.44242580270E+02  0.42633983396E+02  0.16250314730E+02  0.63554190877E+02  0.00000000000E+00 0.  1.
         11    1    1    2    0    0 -0.14072099490E+02  0.10332838114E+03 -0.71388828326E+02  0.12637698818E+03  0.00000000000E+00 0. -1.
</event>
<event>
 7    1  0.4394360E-006  0.1179227E+03  0.7561462E-02  0.1246564E+00
          1   -1    0    0  501    0  0.00000000000E+00  0.00000000000E+00  0.99599805949E+03  0.99599805949E+03  0.00000000000E+00 0. -1.
         -1   -1    0    0    0  501 -0.00000000000E+00 -0.00000000000E+00 -0.15049097105E+02  0.15049097105E+02  0.00000000000E+00 0.  1.
         23    2    1    2    0    0  0.38374774935E+02 -0.40019935465E+02  0.51982507423E+03  0.53753111395E+03  0.12508945634E+03 0.  0.
          5    1    3    3  502    0  0.17234924640E+02  0.41851648535E+02  0.26875464958E+03  0.27257134329E+03  0.41800000000E+01 0. -1.
         -5    1    3    3    0  502  0.21139850295E+02 -0.81871584000E+02  0.25107042465E+03  0.26495977067E+03  0.41800000000E+01 0. -1.
        -11    1    1    2    0    0 -0.29142939764E+02 -0.26008357843E+02  0.12976058897E+03  0.13551219895E+03  0.00000000000E+00 0. -1.
         11    1    1    2    0    0 -0.92318351714E+01  0.66028293308E+02  0.33136329920E+03  0.33800384369E+03  0.00000000000E+00 0.  1.
</event>
<event>
 7    1  0.4394360E-006  0.1188038E+03  0.7561462E-02  0.1245084E+00
         -2   -1    0    0    0  501 -0.00000000000E+00  0.00000000000E+00  0.59301936578E+02  0.59301936578E+02  0.00000000000E+00 0.  1.
          2   -1    0    0  501    0  0.00000000000E+00 -0.00000000000E+00 -0.26942307912E+03  0.26942307912E+03  0.00000000000E+00 0. -1.
         23    2    1    2    0    0  0.48649712042E+02 -0.49401311029E+02 -0.74280273810E+02  0.15175626847E+03  0.11271699929E+03 0.  0.
          5    1    3    3  502    0  0.82031102368E+02 -0.14686432226E+02 -0.53628688987E+02  0.99188213664E+02  0.41800000000E+01 0. -1.
         -5    1    3    3    0  502 -0.33381390326E+02 -0.34714878802E+02 -0.20651584823E+02  0.52568054806E+02  0.41800000000E+01 0.  1.
        -11    1    1    2    0    0 -0.46659453995E+02  0.70549979899E+02 -0.12972384451E+03  0.15486342417E+03  0.00000000000E+00 0. -1.
         11    1    1    2    0    0 -0.19902580466E+01 -0.21148668871E+02 -0.61170242168E+01  0.22105323055E+02  0.00000000000E+00 0.  1.
</event>
<event>
 7    1  0.4394360E-006  0.8596713E+02  0.7561462E-02  0.1312923E+00
          1   -1    0    0  501    0  0.00000000000E+00  0.00000000000E+00  0.97790870313E+02  0.97790870313E+02  0.00000000000E+00 0. -1.
         -1   -1    0    0    0  501 -0.00000000000E+00 -0.00000000000E+00 -0.15399794263E+03  0.15399794263E+03  0.00000000000E+00 0.  1.
         23    2    1    2    0    0  0.15858038588E+02  0.48767858447E+02 -0.73321908900E+02  0.14334960989E+03  0.11199654872E+03 0.  0.
          5    1    3    3  502    0 -0.26984100122E+02 -0.18274596772E+02  0.30336236904E+01  0.32996633454E+02  0.41800000000E+01 0. -1.
         -5    1    3    3    0  502  0.42842138710E+02  0.67042455219E+02 -0.76355532591E+02  0.11035297644E+03  0.41800000000E+01 0.  1.
        -11    1    1    2    0    0  0.88306255697E+01 -0.17154347906E+02  0.51884412297E+02  0.55355612538E+02  0.00000000000E+00 0. -1.
         11    1    1    2    0    0 -0.24688664158E+02 -0.31613510542E+02 -0.34769575710E+02  0.53083590512E+02  0.00000000000E+00 0.  1.
</event>
<event>
 6    1  0.4394360E-006  0.1135195E+03  0.7561462E-02  0.1254188E+00
          1   -1    0    0  501    0  0.00000000000E+00  0.00000000000E+00  0.19819856109E+03  0.19819856109E+03  0.00000000000E+00 0. -1.
         -1   -1    0    0    0  501 -0.00000000000E+00 -0.00000000000E+00 -0.10374850820E+03  0.10374850820E+03  0.00000000000E+00 0.  1.
          5    1    1    2  502    0 -0.38224914369E+02 -0.26920857166E+02  0.23898151846E+02  0.52673244543E+02  0.41800000000E+01 0. -1.
         -5    1    1    2    0  502  0.20448981737E+02  0.77606972213E+02 -0.45313697364E+02  0.92259452410E+02  0.41800000000E+01 0.  1.
        -11    1    1    2    0    0  0.22714497019E+01  0.23670242297E+02  0.79988246421E+01  0.25088265181E+02  0.00000000000E+00 0.  1.
         11    1    1    2    0    0  0.15504482930E+02 -0.74356357344E+02  0.10786677377E+03  0.13192610716E+03  0.00000000000E+00 0. -1.
</event>
<event>
 7    1  0.4394360E-006  0.8335235E+02  0.7561462E-02  0.1319798E+00
          3   -1    0    0  501    0  0.00000000000E+00  0.00000000000E+00  0.47398390496E+03  0.47398390496E+03  0.00000000000E+00 0. -1.
         -3   -1    0    0    0  501 -0.00000000000E+00 -0.00000000000E+00 -0.32317646290E+02  0.32317646290E+02  0.00000000000E+00 0.  1.
         23    2    1    2    0    0  0.47328271598E+02 -0.35158661571E+02  0.21587026114E+03  0.25636761380E+03  0.12509311327E+03 0.  0.
          5    1    3    3  502    0  0.60485064739E+02 -0.29277289295E+02  0.36914449143E+02  0.76783798295E+02  0.41800000000E+01 0. -1.
         -5    1    3    3    0  502 -0.13156793141E+02 -0.58813722766E+01  0.17895581199E+03  0.17958381551E+03  0.41800000000E+01 0. -1.
        -11    1    1    2    0    0 -0.33000389112E+02 -0.11976463303E+02  0.17752243592E+03  0.18096042830E+03  0.00000000000E+00 0. -1.
         11    1    1    2    0    0 -0.14327882486E+02  0.47135124874E+02  0.48273561604E+02  0.68973509142E+02  0.00000000000E+00 0.  1.
</event>
<event>
 7    1  0.4394360E-006  0.3161196E+03  0.7561462E-02  0.1077449E+00
         -1   -1    0    0    0  501 -0.00000000000E+00  0.00000000000E+00  0.28774158902E+03  0.28774158902E+03  0.00000000000E+00 0.  1.
          1   -1    0    0  501    0  0.00000000000E+00 -0.00000000000E+00 -0.61571217347E+03  0.61571217347E+03  0.00000000000E+00 0. -1.
         23    2    1    2    0    0  0.46132913776E+02  0.30801868210E+03  0.11468947186E+03  0.35468987977E+03  0.12508989407E+03 0.  0.
          5    1    3    3  502    0 -0.86788718883E+01  0.10141872464E+03  0.96176624025E+02  0.14010173423E+03  0.41800000000E+01 0. -1.
         -5    1    3    3    0  502  0.54811785664E+02  0.20659995747E+03  0.18512847833E+02  0.21458814554E+03  0.41800000000E+01 0. -1.
        -11    1    1    2    0    0 -0.42992968842E+02 -0.10404208421E+03 -0.10319070517E+03  0.15271369385E+03  0.00000000000E+00 0.  1.
         11    1    1    2    0    0 -0.31399449338E+01 -0.20397659790E+03 -0.33946935113E+03  0.39605018886E+03  0.00000000000E+00 0. -1.
</event>
<event>
 7    1  0.4394360E-006  0.8828488E+02  0.7561462E-02  0.1307059E+00
         -2   -1    0    0    0  501 -0.00000000000E+00  0.00000000000E+00  0.19346443425E+02  0.19346443425E+02  0.00000000000E+00 0.  1.
          2   -1    0    0  501    0  0.00000000000E+00 -0.00000000000E+00 -0.73897986805E+03  0.73897986805E+03  0.00000000000E+00 0. -1.
         23    2    1    2    0    0  0.11561341254E+02  0.40442601805E+02 -0.48820924973E+03  0.50573285604E+03  0.12509269163E+03 0.  0.
          5    1    3    3  502    0  0.42342988073E+02  0.35021862492E+02 -0.46040653544E+03  0.46369290459E+03  0.41800000000E+01 0. -1.
         -5    1    3    3    0  502 -0.30781646819E+02  0.54207393132E+01 -0.27802714288E+02  0.42039951444E+02  0.41800000000E+01 0. -1.
        -11    1    1    2    0    0 -0.19099716717E+02  0.20790770231E+02 -0.27009604326E+02  0.39071396587E+02  0.00000000000E+00 0.  1.
         11    1    1    2    0    0  0.75383754623E+01 -0.61233372036E+02 -0.20441457057E+03  0.21352205885E+03  0.00000000000E+00 0. -1.
</event>
<event>
 6    1  0.4394360E-006  0.1508515E+03  0.7561462E-02  0.1199431E+00
          2   -1    0    0  501    0  0.00000000000E+00  0.00000000000E+00  0.78948180813E+02  0.78948180813E+02  0.00000000000E+00 0. -1.
         -2   -1    0    0    0  501 -0.00000000000E+00 -0.00000000000E+00 -0.31704948346E+03  0.31704948346E+03  0.00000000000E+00 0.  1.
          5    1    1    2  502    0  0.11012923556E+03  0.10892975506E+01 -0.54100509400E+02  0.12277610766E+03  0.41800000000E+01 0. -1.
         -5    1    1    2    0  502 -0.13786099113E+02  0.47460347061E+02 -0.90043131619E+02  0.10279970342E+03  0.41800000000E+01 0.  1.
        -11    1    1    2    0    0 -0.97342289596E+02 -0.40987970539E+01 -0.59388634940E+02  0.11410228500E+03  0.00000000000E+00 0.  1.
         11    1    1    2    0    0  0.99915314638E+00 -0.44450847558E+02 -0.34569026687E+02  0.56319568195E+02  0.00000000000E+00 0. -1.
</event>
<event>
 7    1  0.4394360E-006  0.9316359E+02  0.7561462E-02  0.1295367E+00
         -1   -1    0    0    0  501 -0.00000000000E+00  0.00000000000E+00  0.22020044540E+03  0.22020044540E+03  0.00000000000E+00 0.  1.
          1   -1    0    0  501    0  0.00000000000E+00 -0.00000000000E+00 -0.69041079106E+02  0.69041079106E+02  0.00000000000E+00 0. -1.
         23    2    1    2    0    0  0.42963103390E+02 -0.13039131558E+02  0.12776966700E+03  0.18435931910E+03  0.12508966196E+03 0.  0.
          5    1    3    3  502    0 -0.34593787699E+01 -0.42542751572E+02  0.12149256455E+03  0.12884008947E+03  0.41800000000E+01 0. -1.
         -5    1    3    3    0  502  0.46422482160E+02  0.29503620014E+02  0.62771024461E+01  0.55519229633E+02  0.41800000000E+01 0. -1.
        -11    1    1    2    0    0 -0.44992917131E+02 -0.24127966129E+02  0.39273677567E+02  0.64412289907E+02  0.00000000000E+00 0.  1.
         11    1    1    2    0    0  0.20298137401E+01  0.37167097687E+02 -0.15883978275E+02  0.40469915494E+02  0.00000000000E+00 0. -1.
</event>
<event>
 6    1  0.4394360E-006  0.1043089E+03  0.7561462E-02  0.1271487E+00
         -1   -1    0    0    0  501 -0.00000000000E+00  0.00000000000E+00  0.10327583815E+04  0.10327583815E+04  0.00000000000E+00 0.  1.
          1   -1    0    0  501    0  0.00000000000E+00 -0.00000000000E+00 -0.20139641294E+02  0.20139641294E+02  0.00000000000E+00 0. -1.
          5    1    1    2  502    0 -0.18394677525E+02  0.51930990852E+01  0.18576161433E+01  0.19653385894E+02  0.41800000000E+01 0. -1.
         -5    1    1    2    0  502 -0.61946665917E+02  0.25105527479E+02  0.60077367373E+03  0.60449495976E+03  0.41800000000E+01 0.  1.
        -11    1    1    2    0    0 -0.15906034219E+01 -0.39591815345E+02  0.18322755870E+03  0.18746301003E+03  0.00000000000E+00 0. -1.
         11    1    1    2    0    0  0.81931946864E+02  0.92931887811E+01  0.22675989168E+03  0.24128666716E+03  0.00000000000E+00 0.  1.
</event>
<event>
 7    1  0.4394360E-006  0.8628467E+02  0.7561462E-02  0.1312107E+00
         -1   -1    0    0    0  501 -0.00000000000E+00  0.00000000000E+00  0.96129464545E+02  0.96129464545E+02  0.00000000000E+00 0.  1.
          1   -1    0    0  501    0  0.00000000000E+00 -0.00000000000E+00 -0.14459132839E+03  0.14459132839E+03  0.00000000000E+00 0. -1.
         23    2    1    2    0    0 -0.58253574845E+01 -0.21391704791E+02  0.12711922225E+02  0.12767371923E+03  0.12508975095E+03 0.  0.
          5    1    3    3  502    0  0.38616398259E+02  0.29706276228E+02 -0.19402135397E+02  0.52608025241E+02  0.41800000000E+01 0. -1.
         -5    1    3    3    0  502 -0.44441755743E+02 -0.51097981019E+02  0.32114057622E+02  0.75065693993E+02  0.41800000000E+01 0. -1.
        -11    1    1    2    0    0 -0.19999366606E+02  0.22332468349E+02  0.14341601173E+02  0.33232443957E+02  0.00000000000E+00 0.  1.
         11    1    1    2    0    0  0.25824724090E+02 -0.94076355805E+00 -0.75515387239E+02  0.79814629739E+02  0.00000000000E+00 0. -1.
</event>
<event>
 7    1  0.4394360E-006  0.9954306E+02  0.7561462E-02  0.1281260E+00
         -3   -1    0    0    0  501 -0.00000000000E+00  0.00000000000E+00  0.33870855356E+03  0.33870855356E+03  0.00000000000E+00 0.  1.
          3   -1    0    0  501    0  0.00000000000E+00 -0.00000000000E+00 -0.52430164111E+02  0.52430164111E+02  0.00000000000E+00 0. -1.
         23    2    1    2    0    0 -0.33289070746E+02 -0.70261663384E+02  0.20207560042E+03  0.25005371733E+03  0.12508976653E+03 0.  0.
          5    1    3    3  502    0 -0.52371298623E+02 -0.48012345255E+02  0.33079435698E+02  0.78483499428E+02  0.41800000000E+01 0. -1.
         -5    1    3    3    0  502  0.19082227877E+02 -0.22249318129E+02  0.16899616472E+03  0.17157021790E+03  0.41800000000E+01 0. -1.
        -11    1    1    2    0    0 -0.11351028893E+02  0.46241083187E+02  0.76072491263E+02  0.89744679832E+02  0.00000000000E+00 0.  1.
         11    1    1    2    0    0  0.44640099639E+02  0.24020580197E+02  0.81302977641E+01  0.51340320514E+02  0.00000000000E+00 0. -1.
</event>
<event>
 7    1  0.4394360E-006  0.9642316E+02  0.7561462E-02  0.1288003E+00
         -2   -1    0    0    0  501 -0.00000000000E+00  0.00000000000E+00  0.23311796334E+02  0.23311796334E+02  0.00000000000E+00 0.  1.
          2   -1    0    0  501    0  0.00000000000E+00 -0.00000000000E+00 -0.54569875073E+03  0.54569875073E+03  0.00000000000E+00 0. -1.
         23    2    1    2    0    0 -0.45565911993E+01  0.23155870048E+02 -0.24499857083E+03  0.27609501393E+03  0.12508876917E+03 0.  0.
          5    1    3    3  502    0 -0.56743812060E+02  0.76805035676E+01 -0.19046570166E+03  0.19893090824E+03  0.41800000000E+01 0.  1.
         -5    1    3    3    0  502  0.52187220860E+02  0.15475366480E+02 -0.54532869161E+02  0.77164105695E+02  0.41800000000E+01 0.  1.
        -11    1    1    2    0    0 -0.28179410505E+02  0.13877469309E+02 -0.42300782860E+02  0.52687945124E+02  0.00000000000E+00 0.  1.
         11    1    1    2    0    0  0.32736001704E+02 -0.37033339357E+02 -0.23508760071E+03  0.24022758801E+03  0.00000000000E+00 0. -1.
</event>
<event>
 7    1  0.4394360E-006  0.9508994E+02  0.7561462E-02  0.1290974E+00
         -1   -1    0    0    0  501 -0.00000000000E+00  0.00000000000E+00  0.10129471588E+03  0.10129471588E+03  0.00000000000E+00 0.  1.
          1   -1    0    0  501    0  0.00000000000E+00 -0.00000000000E+00 -0.17884588496E+03  0.17884588496E+03  0.00000000000E+00 0. -1.
         23    2    1    2    0    0  0.32665162070E+02 -0.48228702763E+02 -0.19339922742E+02  0.13933438403E+03  0.12508803850E+03 0.  0.
          5    1    3    3  502    0 -0.40887422482E+02 -0.15709752825E+02  0.21577197334E+02  0.49006382195E+02  0.41800000000E+01 0.  1.
         -5    1    3    3    0  502  0.73552584552E+02 -0.32518949938E+02 -0.40917120077E+02  0.90328001831E+02  0.41800000000E+01 0.  1.
        -11    1    1    2    0    0 -0.11778901969E+02 -0.13457902751E+01  0.32915705007E+02  0.34985673056E+02  0.00000000000E+00 0.  1.
         11    1    1    2    0    0 -0.20886260102E+02  0.49574493038E+02 -0.91126951344E+02  0.10582054376E+03  0.00000000000E+00 0. -1.
</event>
<event>
 7    1  0.4394360E-006  0.1028958E+03  0.7561462E-02  0.1274322E+00
         -1   -1    0    0    0  501 -0.00000000000E+00  0.00000000000E+00  0.39257641741E+02  0.39257641741E+02  0.00000000000E+00 0.  1.
          1   -1    0    0  501    0  0.00000000000E+00 -0.00000000000E+00 -0.45962662502E+03  0.45962662502E+03  0.00000000000E+00 0. -1.
         23    2    1    2    0    0  0.44896146390E+02 -0.63213457543E+02 -0.20970083178E+03  0.25618879630E+03  0.12508659132E+03 0.  0.
          5    1    3    3  502    0  0.22414079329E+02  0.52283844423E+01  0.96264587591E+01  0.25295613538E+02  0.41800000000E+01 0. -1.
         -5    1    3    3    0  502  0.22482067061E+02 -0.68441841985E+02 -0.21932729053E+03  0.23089318276E+03  0.41800000000E+01 0. -1.
        -11    1    1    2    0    0 -0.19453135005E+02  0.78285404881E+02 -0.10181755805E+03  0.12989936184E+03  0.00000000000E+00 0.  1.
         11    1    1    2    0    0 -0.25443011384E+02 -0.15071947338E+02 -0.10885059345E+03  0.11279610862E+03  0.00000000000E+00 0. -1.
</event>
<event>
 6    1  0.4394360E-006  0.1594104E+03  0.7561462E-02  0.1189364E+00
         -2   -1    0    0    0  501 -0.00000000000E+00  0.00000000000E+00  0.10229205213E+03  0.10229205213E+03  0.00000000000E+00 0.  1.
          2   -1    0    0  501    0  0.00000000000E+00 -0.00000000000E+00 -0.63533597795E+03  0.63533597795E+03  0.00000000000E+00 0. -1.
          5    1    1    2  502    0 -0.17977467016E+02 -0.53692502994E+02 -0.21913795704E+03  0.22637356474E+03  0.41800000000E+01 0. -1.
         -5    1    1    2    0  502 -0.56199887299E+02  0.10338706612E+03  0.43726810985E+02  0.12560580867E+03  0.41800000000E+01 0.  1.
        -11    1    1    2    0    0  0.41292777788E+01  0.34514588196E+02 -0.87945335649E+02  0.94565796119E+02  0.00000000000E+00 0.  1.
         11    1    1    2    0    0  0.70048076537E+02 -0.84209151324E+02 -0.26968744411E+03  0.29108286055E+03  0.00000000000E+00 0. -1.
</event>
<event>
 7    1  0.4394360E-006  0.1316189E+03  0.7561462E-02  0.1225073E+00
          3   -1    0    0  501    0  0.00000000000E+00  0.00000000000E+00  0.15080062920E+03  0.15080062920E+03  0.00000000000E+00 0. -1.
         -3   -1    0    0    0  501 -0.00000000000E+00 -0.00000000000E+00 -0.14242525639E+03  0.14242525639E+03  0.00000000000E+00 0.  1.
         23    2    1    2    0    0 -0.28270250722E+02 -0.96553498634E+02  0.28391471954E+02  0.16301900770E+03  0.12508931216E+03 0.  0.
          5    1    3    3  502    0 -0.69647762091E+02 -0.58097257572E+02 -0.14531667064E+02  0.91949681073E+02  0.41800000000E+01 0. -1.
         -5    1    3    3    0  502  0.41377511369E+02 -0.38456241062E+02  0.42923139019E+02  0.71069326625E+02  0.41800000000E+01 0. -1.
        -11    1    1    2    0    0  0.33022310684E+02  0.18993542029E+02 -0.34227304325E+02  0.51212654716E+02  0.00000000000E+00 0.  1.
         11    1    1    2    0    0 -0.47520599621E+01  0.77559956605E+02  0.14211205186E+02  0.78994223177E+02  0.00000000000E+00 0. -1.
</event>
<event>
 7    1  0.4394360E-006  0.8509136E+02  0.7561462E-02  0.1315194E+00
          3   -1    0    0  501    0  0.00000000000E+00  0.00000000000E+00  0.11853920390E+03  0.11853920390E+03  0.00000000000E+00 0. -1.
         -3   -1    0    0    0  501 -0.00000000000E+00 -0.00000000000E+00 -0.10112288536E+03  0.10112288536E+03  0.00000000000E+00 0.  1.
         23    2    1    2    0    0  0.15152393386E+02  0.62872607200E+01  0.10532254145E+02  0.12660246740E+03  0.12509249258E+03 0.  0.
          5    1    3    3  502    0 -0.29993277841E+02  0.10648326428E+02 -0.44687096605E+02  0.55021746376E+02  0.41800000000E+01 0.  1.
         -5    1    3    3    0  502  0.45145671227E+02 -0.43610657077E+01  0.55219350750E+02  0.71580721021E+02  0.41800000000E+01 0.  1.
        -11    1    1    2    0    0  0.36698317401E+02  0.10262308910E+02 -0.65732299734E+00  0.38111855869E+02  0.00000000000E+00 0. -1.
         11    1    1    2    0    0 -0.51850710787E+02 -0.16549569630E+02  0.75413873869E+01  0.54947765994E+02  0.00000000000E+00 0.  1.
</event>
<event>
 7    1  0.4394360E-006  0.1248771E+03  0.7561462E-02  0.1235261E+00
          2   -1    0    0  501    0  0.00000000000E+00  0.00000000000E+00  0.21262724850E+03  0.21262724850E+03  0.00000000000E+00 0. -1.
         -2   -1    0    0    0  501 -0.00000000000E+00 -0.00000000000E+00 -0.95550829433E+02  0.95550829433E+02  0.00000000000E+00 0.  1.
         23    2    1    2    0    0  0.27264475622E+02 -0.86364113804E+02  0.65619069333E+02  0.16779499784E+03  0.12508871755E+03 0.  0.
          5    1    3    3  502    0 -0.48361728903E+02 -0.16552731563E+02  0.18482792463E+02  0.54515463512E+02  0.41800000000E+01 0.  1.
         -5    1    3    3    0  502  0.75626204525E+02 -0.69811382241E+02  0.47136276869E+02  0.11327953433E+03  0.41800000000E+01 0.  1.
        -11    1    1    2    0    0  0.49854773962E+01  0.30920235535E+02 -0.25366240753E+02  0.40303376042E+02  0.00000000000E+00 0.  1.
         11    1    1    2    0    0 -0.32249953018E+02  0.55443878268E+02  0.76823590491E+02  0.10007970405E+03  0.00000000000E+00 0. -1.
</event>
<event>
 6    1  0.4394360E-006  0.1987180E+03  0.7561462E-02  0.1150825E+00
         -2   -1    0    0    0  501 -0.00000000000E+00  0.00000000000E+00  0.12084628309E+04  0.12084628309E+04  0.00000000000E+00 0.  1.
          2   -1    0    0  501    0  0.00000000000E+00 -0.00000000000E+00 -0.44579306977E+02  0.44579306977E+02  0.00000000000E+00 0. -1.
          5    1    1    2  502    0 -0.83970400402E+02 -0.22381339945E+01  0.10074703440E+03  0.13123823653E+03  0.41800000000E+01 0. -1.
         -5    1    1    2    0  502 -0.67554406778E+02 -0.92254237533E+02  0.67903147243E+03  0.68860413532E+03  0.41800000000E+01 0.  1.
        -11    1    1    2    0    0  0.12415740477E+03  0.28380957798E+02  0.22062206328E+03  0.25474425357E+03  0.00000000000E+00 0.  1.
         11    1    1    2    0    0  0.27367402413E+02  0.66111413729E+02  0.16348295386E+03  0.17845551251E+03  0.00000000000E+00 0. -1.
</event>
<event>
 7    1  0.4394360E-006  0.7476043E+02  0.7561462E-02  0.1344615E+00
         -1   -1    0    0    0  501 -0.00000000000E+00  0.00000000000E+00  0.73945866092E+02  0.73945866092E+02  0.00000000000E+00 0.  1.
          1   -1    0    0  501    0  0.00000000000E+00 -0.00000000000E+00 -0.20248473970E+03  0.20248473970E+03  0.00000000000E+00 0. -1.
         23    2    1    2    0    0 -0.46514224693E+02 -0.29754782496E+02 -0.55430344413E+02  0.14754387336E+03  0.12509097211E+03 0.  0.
          5    1    3    3  502    0 -0.47258594704E+02 -0.20495681407E+01  0.30981423063E+02  0.56700057125E+02  0.41800000000E+01 0. -1.
         -5    1    3    3    0  502  0.74437001051E+00 -0.27705214355E+02 -0.86411767476E+02  0.90843816231E+02  0.41800000000E+01 0. -1.
        -11    1    1    2    0    0  0.54169439882E+02  0.13183213735E+02 -0.88776601382E+02  0.10483038822E+03  0.00000000000E+00 0. -1.
         11    1    1    2    0    0 -0.76552151886E+01  0.16571568762E+02  0.15668072189E+02  0.24056344214E+02  0.00000000000E+00 0.  1.
</event>
<event>
 7    1  0.4394360E-006  0.9689854E+02  0.7561462E-02  0.1286956E+00
          2   -1    0    0  501    0  0.00000000000E+00  0.00000000000E+00  0.25896292650E+03  0.25896292650E+03  0.00000000000E+00 0. -1.
         -2   -1    0    0    0  501 -0.00000000000E+00 -0.00000000000E+00 -0.76599386523E+02  0.76599386523E+02  0.00000000000E+00 0.  1.
         23    2    1    2    0    0 -0.13875548419E+01 -0.48018015040E+02  0.93777931493E+01  0.13432285293E+03  0.12508809191E+03 0.  0.
          5    1    3    3  502    0 -0.25694621238E+02 -0.78156648533E+02 -0.20906380859E+02  0.84989554835E+02  0.41800000000E+01 0.  1.
         -5    1    3    3    0  502  0.24307066397E+02  0.30138633493E+02  0.30284174008E+02  0.49333298095E+02  0.41800000000E+01 0.  1.
        -11    1    1    2    0    0  0.56885294996E+01 -0.11485033775E+02 -0.48193570354E+01  0.13692756148E+02  0.00000000000E+00 0.  1.
         11    1    1    2    0    0 -0.43009746577E+01  0.59503048815E+02  0.17780510387E+03  0.18754670395E+03  0.00000000000E+00 0. -1.
</event>
<event>
 7    1  0.4394360E-006  0.1495733E+03  0.7561462E-02  0.1200998E+00
         -4   -1    0    0    0  501 -0.00000000000E+00  0.00000000000E+00  0.47149469254E+02  0.47149469254E+02  0.00000000000E+00 0.  1.
          4   -1    0    0  501    0  0.00000000000E+00 -0.00000000000E+00 -0.58378399435E+03  0.58378399435E+03  0.00000000000E+00 0. -1.
         23    2    1    2    0    0  0.10573837807E+03  0.19860463003E+02 -0.16594641072E+03  0.23400907600E+03  0.12508794440E+03 0.  0.
          5    1    3    3  502    0  0.98995044538E+02  0.61608258924E+02 -0.91445957298E+02  0.14824112762E+03  0.41800000000E+01 0.  1.
         -5    1    3    3    0  502  0.67433335353E+01 -0.41747795921E+02 -0.74500453417E+02  0.85767948389E+02  0.41800000000E+01 0.  1.
        -11    1    1    2    0    0 -0.12846880516E+02  0.31367133234E+02 -0.12048477701E+03  0.12516197856E+03  0.00000000000E+00 0. -1.
         11    1    1    2    0    0 -0.92891497557E+02 -0.51227596237E+02 -0.25020333737E+03  0.27176240904E+03  0.00000000000E+00 0.  1.
</event>
<event>
 7    1  0.4394360E-006  0.7902890E+02  0.7561462E-02  0.1331830E+00
          2   -1    0    0  501    0  0.00000000000E+00  0.00000000000E+00  0.97797666406E+03  0.97797666406E+03  0.00000000000E+00 0. -1.
         -2   -1    0    0    0  501 -0.00000000000E+00 -0.00000000000E+00 -0.15741613622E+02  0.15741613622E+02  0.00000000000E+00 0.  1.
         23    2    1    2    0    0 -0.18214846832E+02  0.44705290940E+02  0.39439377978E+03  0.41656281127E+03  0.12509108088E+03 0.  0.
          5    1    3    3  502    0 -0.20802970946E+02  0.45562426439E+02  0.46000576029E+02  0.68133866016E+02  0.41800000000E+01 0.  1.
         -5    1    3    3    0  502  0.25881241142E+01 -0.85713549916E+00  0.34839320375E+03  0.34842894525E+03  0.41800000000E+01 0.  1.
        -11    1    1    2    0    0  0.49432460463E+02 -0.14388429911E+01  0.24594488937E+03  0.25086754877E+03  0.00000000000E+00 0. -1.
         11    1    1    2    0    0 -0.31217613631E+02 -0.43266447949E+02  0.32189638129E+03  0.32628791765E+03  0.00000000000E+00 0.  1.
</event>
<event>
 7    1  0.4394360E-006  0.1460617E+03  0.7561462E-02  0.1205398E+00
          2   -1    0    0  501    0  0.00000000000E+00  0.00000000000E+00  0.58176975902E+03  0.58176975902E+03  0.00000000000E+00 0.  1.
         -2   -1    0    0    0  501 -0.00000000000E+00 -0.00000000000E+00 -0.40748779517E+02  0.40748779517E+02  0.00000000000E+00 0. -1.
         23    2    1    2    0    0  0.97041201560E+02 -0.23033303496E+02  0.20128105478E+03  0.25711573908E+03  0.12508761889E+03 0.  0.
          5    1    3    3  502    0  0.21901994229E+02 -0.68455218539E+02  0.94856752129E+02  0.11908438236E+03  0.41800000000E+01 0. -1.
         -5    1    3    3    0  502  0.75139207331E+02  0.45421915043E+02  0.10642430265E+03  0.13803135673E+03  0.41800000000E+01 0. -1.
        -11    1    1    2    0    0 -0.44356745880E+02  0.54958269420E+02  0.14755096926E+03  0.16358245875E+03  0.00000000000E+00 0. -1.
         11    1    1    2    0    0 -0.52684455680E+02 -0.31924965924E+02  0.19218895546E+03  0.20182034070E+03  0.00000000000E+00 0.  1.
</event>
<event>
 7    1  0.4394360E-006  0.1100069E+03  0.7561462E-02  0.1260557E+00
         -1   -1    0    0    0  501 -0.00000000000E+00  0.00000000000E+00  0.20232250836E+03  0.20232250836E+03  0.00000000000E+00 0.  1.
          1   -1    0    0  501    0  0.00000000000E+00 -0.00000000000E+00 -0.62171671795E+02  0.62171671795E+02  0.00000000000E+00 0. -1.
         23    2    1    2    0    0 -0.24822395527E+02 -0.71190948808E+01  0.98543537198E+02  0.16132384710E+03  0.12509085533E+03 0.  0.
          5    1    3    3  502    0 -0.58316137964E+02 -0.46025808071E+02  0.71300998088E+02  0.10305557571E+03  0.41800000000E+01 0.  1.
         -5    1    3    3    0  502  0.33493742437E+02  0.38906713190E+02  0.27242539110E+02  0.58268271391E+02  0.41800000000E+01 0.  1.
        -11    1    1    2    0    0  0.59171365000E+02  0.82709764987E+00  0.30173005406E+02  0.66425482924E+02  0.00000000000E+00 0.  1.
         11    1    1    2    0    0 -0.34348969473E+02  0.62919972310E+01  0.11434293961E+02  0.36744850135E+02  0.00000000000E+00 0. -1.
</event>
<event>
 7    1  0.4394360E-006  0.1732644E+03  0.7561462E-02  0.1174486E+00
          1   -1    0    0  501    0  0.00000000000E+00  0.00000000000E+00  0.13592298871E+04  0.13592298871E+04  0.00000000000E+00 0. -1.
         -1   -1    0    0    0  501 -0.00000000000E+00 -0.00000000000E+00 -0.26662061877E+02  0.26662061877E+02  0.00000000000E+00 0.  1.
         23    2    1    2    0    0 -0.45970574264E+01 -0.15074075183E+03  0.82281354097E+03  0.84582096287E+03  0.12508825220E+03 0.  0.
          5    1    3    3  502    0 -0.51745336414E+02 -0.30889607098E+02  0.37507024385E+03  0.37990381399E+03  0.41800000000E+01 0. -1.
         -5    1    3    3    0  502  0.47148278988E+02 -0.11985114473E+03  0.44774329712E+03  0.46591714888E+03  0.41800000000E+01 0. -1.
        -11    1    1    2    0    0  0.22368976810E+02  0.47525481698E+02  0.31105488410E+03  0.31545868740E+03  0.00000000000E+00 0. -1.
         11    1    1    2    0    0 -0.17771919383E+02  0.10321527013E+03  0.19869940016E+03  0.22461229871E+03  0.00000000000E+00 0.  1.
</event>
<event>
 7    1  0.4394360E-006  0.1314998E+03  0.7561462E-02  0.1225247E+00
          2   -1    0    0  501    0  0.00000000000E+00  0.00000000000E+00  0.33163247643E+03  0.33163247643E+03  0.00000000000E+00 0.  1.
         -2   -1    0    0    0  501 -0.00000000000E+00 -0.00000000000E+00 -0.35370612071E+03  0.35370612071E+03  0.00000000000E+00 0. -1.
         23    2    1    2    0    0 -0.46177178545E+02 -0.11175303499E+03 -0.31282083298E+03  0.35794545341E+03  0.12508797471E+03 0.  0.
          5    1    3    3  502    0  0.13990147118E+02 -0.43419019746E+02 -0.23088978644E+03  0.23539010467E+03  0.41800000000E+01 0.  1.
         -5    1    3    3    0  502 -0.60167325663E+02 -0.68334015248E+02 -0.81931046540E+02  0.12255534874E+03  0.41800000000E+01 0.  1.
        -11    1    1    2    0    0  0.18779671477E+02  0.87388872290E+02  0.27180566516E+03  0.28612551560E+03  0.00000000000E+00 0.  1.
         11    1    1    2    0    0  0.27397507067E+02  0.24364162704E+02  0.18941523538E+02  0.41267628133E+02  0.00000000000E+00 0. -1.
</event>
<event>
 7    1  0.4394360E-006  0.1986084E+03  0.7561462E-02  0.1150918E+00
         -1   -1    0    0    0  501 -0.00000000000E+00  0.00000000000E+00  0.81543869322E+02  0.81543869322E+02  0.00000000000E+00 0.  1.
          1   -1    0    0  501    0  0.00000000000E+00 -0.00000000000E+00 -0.76588453011E+03  0.76588453011E+03  0.00000000000E+00 0. -1.
         23    2    1    2    0    0  0.91766095333E+02 -0.14736088627E+03 -0.11015343908E+03  0.24066023856E+03  0.12508926106E+03 0.  0.
          5    1    3    3  502    0  0.11297728272E+03 -0.69307669861E+02 -0.75213495893E+02  0.15245314650E+03  0.41800000000E+01 0.  1.
         -5    1    3    3    0  502 -0.21211187386E+02 -0.78053216405E+02 -0.34939943183E+02  0.88207092068E+02  0.41800000000E+01 0.  1.
        -11    1    1    2    0    0 -0.39841805775E+02  0.11670490558E+03 -0.47450099830E+03  0.49026380844E+03  0.00000000000E+00 0. -1.
         11    1    1    2    0    0 -0.51924289557E+02  0.30655980682E+02 -0.99686223413E+02  0.11650435243E+03  0.00000000000E+00 0.  1.
</event>
<event>
 7    1  0.4394360E-006  0.7168449E+02  0.7561462E-02  0.1354457E+00
          1   -1    0    0  501    0  0.00000000000E+00  0.00000000000E+00  0.99126017118E+02  0.99126017118E+02  0.00000000000E+00 0. -1.
         -1   -1    0    0    0  501 -0.00000000000E+00 -0.00000000000E+00 -0.17350112888E+03  0.17350112888E+03  0.00000000000E+00 0.  1.
         23    2    1    2    0    0 -0.29261805912E+02 -0.25786528885E+02 -0.10703644058E+03  0.16918641161E+03  0.12508414730E+03 0.  0.
          5    1    3    3  502    0 -0.81402758185E+01  0.37659182473E+01 -0.12709638500E+03  0.12748101706E+03  0.41800000000E+01 0.  1.
         -5    1    3    3    0  502 -0.21121530093E+02 -0.29552447132E+02  0.20059944418E+02  0.41705394555E+02  0.41800000000E+01 0.  1.
        -11    1    1    2    0    0  0.60407824055E+02  0.25992912495E+02  0.14350199813E+02  0.67310214245E+02  0.00000000000E+00 0. -1.
         11    1    1    2    0    0 -0.31146018143E+02 -0.20638360988E+00  0.18311129003E+02  0.36130520142E+02  0.00000000000E+00 0.  1.
</event>
<event>
 7    1  0.4394360E-006  0.2789579E+03  0.7561462E-02  0.1096259E+00
         -1   -1    0    0    0  501 -0.00000000000E+00  0.00000000000E+00  0.15826254136E+04  0.15826254136E+04  0.00000000000E+00 0.  1.
          1   -1    0    0  501    0  0.00000000000E+00 -0.00000000000E+00 -0.69601339041E+02  0.69601339041E+02  0.00000000000E+00 0. -1.
         23    2    1    2    0    0 -0.12421284315E+03 -0.24486289636E+03  0.11451772219E+04  0.11842574322E+04  0.12509247707E+03 0.  0.
          5    1    3    3  502    0 -0.10670428982E+03 -0.16511723584E+03  0.56265391329E+03  0.59602550749E+03  0.41800000000E+01 0.  1.
         -5    1    3    3    0  502 -0.17508553334E+02 -0.79745660515E+02  0.58252330862E+03  0.58823192475E+03  0.41800000000E+01 0.  1.
        -11    1    1    2    0    0  0.92474713768E+02  0.12473742137E+03  0.26289624418E+03  0.30532840054E+03  0.00000000000E+00 0. -1.
         11    1    1    2    0    0  0.31738129386E+02  0.12012547499E+03  0.10495060852E+03  0.16264091990E+03  0.00000000000E+00 0.  1.
</event>
<event>
 7    1  0.4394360E-006  0.1052434E+03  0.7561462E-02  0.1269641E+00
          1   -1    0    0  501    0  0.00000000000E+00  0.00000000000E+00  0.16602532727E+03  0.16602532727E+03  0.00000000000E+00 0. -1.
         -1   -1    0    0    0  501 -0.00000000000E+00 -0.00000000000E+00 -0.14408326945E+03  0.14408326945E+03  0.00000000000E+00 0.  1.
         23    2    1    2    0    0 -0.26790935615E+02  0.39607907903E+02 -0.87184005918E+02  0.15979708431E+03  0.12509003424E+03 0.  0.
          5    1    3    3  502    0  0.25426269440E+02  0.68563684287E+02 -0.39151485743E+02  0.83052906129E+02  0.41800000000E+01 0.  1.
         -5    1    3    3    0  502 -0.52217205055E+02 -0.28955776384E+02 -0.48032520176E+02  0.76744178178E+02  0.41800000000E+01 0.  1.
        -11    1    1    2    0    0  0.30471261892E+02  0.64793958544E+01 -0.68950695893E+00  0.31160163539E+02  0.00000000000E+00 0.  1.
         11    1    1    2    0    0 -0.36803262769E+01 -0.46087303757E+02  0.10981557070E+03  0.11915134887E+03  0.00000000000E+00 0. -1.
</event>
<event>
 6    1  0.4394360E-006  0.1005359E+03  0.7561462E-02  0.1279173E+00
          1   -1    0    0  501    0  0.00000000000E+00  0.00000000000E+00  0.22741630946E+03  0.22741630946E+03  0.00000000000E+00 0. -1.
         -1   -1    0    0    0  501 -0.00000000000E+00 -0.00000000000E+00 -0.99970864907E+02  0.99970864907E+02  0.00000000000E+00 0.  1.
          5    1    1    2  502    0  0.29208007994E+02 -0.58264224904E+02  0.45838015339E+01  0.65469926464E+02  0.41800000000E+01 0. -1.
         -5    1    1    2    0  502 -0.35667984221E+02  0.50083740190E+02 -0.41281184944E+02  0.74176780465E+02  0.41800000000E+01 0.  1.
        -11    1    1    2    0    0 -0.21828478611E+02 -0.23220778349E+02  0.20226464168E+02  0.37746481668E+02  0.00000000000E+00 0.  1.
         11    1    1    2    0    0  0.28288454838E+02  0.31401263063E+02  0.14391636379E+03  0.14999398576E+03  0.00000000000E+00 0. -1.
</event>
<event>
 7    1  0.4394360E-006  0.1130813E+03  0.7561462E-02  0.1254968E+00
         -1   -1    0    0    0  501 -0.00000000000E+00  0.00000000000E+00  0.60324514465E+02  0.60324514465E+02  0.00000000000E+00 0.  1.
          1   -1    0    0  501    0  0.00000000000E+00 -0.00000000000E+00 -0.22282697450E+03  0.22282697450E+03  0.00000000000E+00 0. -1.
         23    2    1    2    0    0  0.23756023278E+02  0.34877976404E+02 -0.90395070149E+02  0.15999590385E+03  0.12508636481E+03 0.  0.
          5    1    3    3  502    0  0.48770316840E+02  0.69039614292E+02 -0.79411351214E+02  0.11605450120E+03  0.41800000000E+01 0. -1.
         -5    1    3    3    0  502 -0.25014293562E+02 -0.34161637888E+02 -0.10983718936E+02  0.43941402655E+02  0.41800000000E+01 0. -1.
        -11    1    1    2    0    0  0.30463181360E+02  0.60425608690E+01 -0.15382695599E+02  0.34657542964E+02  0.00000000000E+00 0.  1.
         11    1    1    2    0    0 -0.54219204637E+02 -0.40920537273E+02 -0.56724694285E+02  0.88498042148E+02  0.00000000000E+00 0. -1.
</event>
<event>
 7    1  0.4394360E-006  0.7418999E+02  0.7561462E-02  0.1346398E+00
          2   -1    0    0  501    0  0.00000000000E+00  0.00000000000E+00  0.22339613899E+03  0.22339613899E+03  0.00000000000E+00 0. -1.
         -2   -1    0    0    0  501 -0.00000000000E+00 -0.00000000000E+00 -0.55568274134E+02  0.55568274134E+02  0.00000000000E+00 0.  1.
         23    2    1    2    0    0  0.17067235062E+01 -0.46597519922E+01  0.65289455008E+02  0.14118959507E+03  0.12508861910E+03 0.  0.
          5    1    3    3  502    0 -0.19435912081E+01 -0.31346309734E+02  0.95429880075E+02  0.10055199198E+03  0.41800000000E+01 0.  1.
         -5    1    3    3    0  502  0.36503147143E+01  0.26686557742E+02 -0.30140425067E+02  0.40637603089E+02  0.41800000000E+01 0.  1.
        -11    1    1    2    0    0 -0.44334824616E+02  0.12571999342E+02  0.68940964140E+02  0.82924594529E+02  0.00000000000E+00 0. -1.
         11    1    1    2    0    0  0.42628101109E+02 -0.79122473494E+01  0.33597445705E+02  0.54850223520E+02  0.00000000000E+00 0.  1.
</event>
<event>
 7    1  0.4394360E-006  0.1148923E+03  0.7561462E-02  0.1251769E+00
          2   -1    0    0  501    0  0.00000000000E+00  0.00000000000E+00  0.70546433859E+03  0.70546433859E+03  0.00000000000E+00 0. -1.
         -2   -1    0    0    0  501 -0.00000000000E+00 -0.00000000000E+00 -0.27402922177E+02  0.27402922177E+02  0.00000000000E+00 0.  1.
         23    2    1    2    0    0 -0.81427852721E+02  0.27480715052E+02  0.33242203243E+03  0.36542843382E+03  0.12509135742E+03 0.  0.
          5    1    3    3  502    0 -0.75103600817E+02  0.44348171496E+02  0.10202440205E+03  0.13428984393E+03  0.41800000000E+01 0.  1.
         -5    1    3    3    0  502 -0.63242519041E+01 -0.16867456444E+02  0.23039763038E+03  0.23113858989E+03  0.41800000000E+01 0.  1.
        -11    1    1    2    0    0  0.16825814331E+02  0.32002259428E+02  0.83843359324E+02  0.91306963257E+02  0.00000000000E+00 0. -1.
         11    1    1    2    0    0  0.64602038390E+02 -0.59482974481E+02  0.26179602466E+03  0.27613186369E+03  0.00000000000E+00 0.  1.
</event>
<event>
 7    1  0.4394360E-006  0.8301589E+02  0.7561462E-02  0.1320704E+00
          2   -1    0    0  501    0  0.00000000000E+00  0.00000000000E+00  0.67400486206E+02  0.67400486206E+02  0.00000000000E+00 0. -1.
         -2   -1    0    0    0  501 -0.00000000000E+00 -0.00000000000E+00 -0.19999795383E+03  0.19999795383E+03  0.00000000000E+00 0.  1.
         23    2    1    2    0    0  0.89691127825E+01  0.53061572052E+01 -0.12118373202E+03  0.17447488463E+03  0.12508952064E+03 0.  0.
          5    1    3    3  502    0 -0.46729344354E+01 -0.51449549531E+02 -0.16236667912E+02  0.54313849505E+02  0.41800000000E+01 0.  1.
         -5    1    3    3    0  502  0.13642047218E+02  0.56755706736E+02 -0.10494706410E+03  0.12016103513E+03  0.41800000000E+01 0.  1.
        -11    1    1    2    0    0 -0.16411379172E+02 -0.27636523708E+02  0.30847379061E+02  0.44549653241E+02  0.00000000000E+00 0. -1.
         11    1    1    2    0    0  0.74422663892E+01  0.22330366503E+02 -0.42261114669E+02  0.48373902161E+02  0.00000000000E+00 0.  1.
</event>
<event>
 7    1  0.4394360E-006  0.1487271E+03  0.7561462E-02  0.1202046E+00
         -1   -1    0    0    0  501 -0.00000000000E+00  0.00000000000E+00  0.44583159313E+03  0.44583159313E+03  0.00000000000E+00 0.  1.
          1   -1    0    0  501    0  0.00000000000E+00 -0.00000000000E+00 -0.57847127360E+02  0.57847127360E+02  0.00000000000E+00 0. -1.
         23    2    1    2    0    0 -0.71412397351E+02  0.73348296217E+02  0.29578885830E+03  0.33707237474E+03  0.12508810519E+03 0.  0.
          5    1    3    3  502    0 -0.89604304023E+02  0.94760845220E+02  0.21571327811E+03  0.25210759576E+03  0.41800000000E+01 0.  1.
         -5    1    3    3    0  502  0.18191906671E+02 -0.21412549003E+02  0.80075580194E+02  0.84964778976E+02  0.41800000000E+01 0.  1.
        -11    1    1    2    0    0  0.91984455203E+02 -0.42121371104E+02  0.71298193817E+02  0.12376906861E+03  0.00000000000E+00 0.  1.
         11    1    1    2    0    0 -0.20572057852E+02 -0.31226925112E+02  0.20897413653E+02  0.42837277150E+02  0.00000000000E+00 0. -1.
</event>
<event>
 7    1  0.4394360E-006  0.9410500E+02  0.7561462E-02  0.1293205E+00
          2   -1    0    0  501    0  0.00000000000E+00  0.00000000000E+00  0.42259682913E+03  0.42259682913E+03  0.00000000000E+00 0. -1.
         -2   -1    0    0    0  501 -0.00000000000E+00 -0.00000000000E+00 -0.36988587519E+02  0.36988587519E+02  0.00000000000E+00 0.  1.
         23    2    1    2    0    0 -0.60111802467E+02 -0.11849436848E+02  0.20132207031E+03  0.24480772198E+03  0.12508559787E+03 0.  0.
          5    1    3    3  502    0 -0.20334895536E+02  0.19471003224E+02  0.19082313154E+03  0.19293410242E+03  0.41800000000E+01 0.  1.
         -5    1    3    3    0  502 -0.39776906931E+02 -0.31320440072E+02  0.10498938772E+02  0.51873619564E+02  0.41800000000E+01 0.  1.
        -11    1    1    2    0    0  0.64761052492E+02 -0.26750756490E+02  0.10174208226E+03  0.12353561509E+03  0.00000000000E+00 0.  1.
         11    1    1    2    0    0 -0.46492500248E+01  0.38600193338E+02  0.82544089032E+02  0.91242079577E+02  0.00000000000E+00 0. -1.
</event>
<event>
 7    1  0.4394360E-006  0.8676708E+02  0.7561462E-02  0.1310875E+00
         -2   -1    0    0    0  501 -0.00000000000E+00  0.00000000000E+00  0.10250510352E+03  0.10250510352E+03  0.00000000000E+00 0.  1.
          2   -1    0    0  501    0  0.00000000000E+00 -0.00000000000E+00 -0.20587200633E+03  0.20587200633E+03  0.00000000000E+00 0. -1.
         23    2    1    2    0    0  0.19609944172E+02 -0.60810082020E+02  0.20362355408E+02  0.14192996360E+03  0.12508826109E+03 0.  0.
          5    1    3    3  502    0  0.20619550767E+01 -0.18426839071E+02  0.70985970209E+02  0.73486600298E+02  0.41800000000E+01 0.  1.
         -5    1    3    3    0  502  0.17547989096E+02 -0.42383242949E+02 -0.50623614800E+02  0.68443363298E+02  0.41800000000E+01 0.  1.
        -11    1    1    2    0    0  0.10783575778E+02 -0.19672562086E+02 -0.42852526705E+02  0.48369765872E+02  0.00000000000E+00 0.  1.
         11    1    1    2    0    0 -0.30393519950E+02  0.80482644106E+02 -0.80876731509E+02  0.11807738038E+03  0.00000000000E+00 0. -1.
</event>
<event>
 7    1  0.4394360E-006  0.8570609E+02  0.7561462E-02  0.1313596E+00
          2   -1    0    0  501    0  0.00000000000E+00  0.00000000000E+00  0.16010719434E+03  0.16010719434E+03  0.00000000000E+00 0. -1.
         -2   -1    0    0    0  501 -0.00000000000E+00 -0.00000000000E+00 -0.10299450039E+03  0.10299450039E+03  0.00000000000E+00 0.  1.
         23    2    1    2    0    0  0.15193515945E+02 -0.65083154663E+02  0.17839199430E+02  0.14293947355E+03  0.12508715408E+03 0.  0.
          5    1    3    3  502    0 -0.22646905975E+02 -0.44814175752E+01  0.56799505214E+02  0.61454223991E+02  0.41800000000E+01 0.  1.
         -5    1    3    3    0  502  0.37840421920E+02 -0.60601737088E+02 -0.38960305785E+02  0.81485249561E+02  0.41800000000E+01 0.  1.
        -11    1    1    2    0    0 -0.19567576564E+01  0.62944154601E+02 -0.14600293409E+02  0.64644907507E+02  0.00000000000E+00 0.  1.
         11    1    1    2    0    0 -0.13236758289E+02  0.21390000626E+01  0.53873787931E+02  0.55517313671E+02  0.00000000000E+00 0. -1.
</event>
<event>
 7    1  0.4394360E-006  0.1310366E+03  0.7561462E-02  0.1225926E+00
          1   -1    0    0  501    0  0.00000000000E+00  0.00000000000E+00  0.74502594360E+02  0.74502594360E+02  0.00000000000E+00 0. -1.
         -1   -1    0    0    0  501 -0.00000000000E+00 -0.00000000000E+00 -0.26153886878E+03  0.26153886878E+03  0.00000000000E+00 0.  1.
         23    2    1    2    0    0  0.26784930405E+02  0.88363082404E+02 -0.99873067218E+02  0.18479168939E+03  0.12509145487E+03 0.  0.
          5    1    3    3  502    0 -0.13176991379E+02 -0.28597839034E+02 -0.18656134157E+02  0.36837389170E+02  0.41800000000E+01 0. -1.
         -5    1    3    3    0  502  0.39961921783E+02  0.11696092144E+03 -0.81216933062E+02  0.14795430022E+03  0.41800000000E+01 0. -1.
        -11    1    1    2    0    0  0.13566109395E+02 -0.46735559310E+02 -0.78883517502E+02  0.92686898544E+02  0.00000000000E+00 0.  1.
         11    1    1    2    0    0 -0.40351039800E+02 -0.41627523094E+02 -0.82796897039E+01  0.58562875215E+02  0.00000000000E+00 0. -1.
</event>
<event>
 7    1  0.4394360E-006  0.8280503E+02  0.7561462E-02  0.1321274E+00
          2   -1    0    0  501    0  0.00000000000E+00  0.00000000000E+00  0.16662500193E+03  0.16662500193E+03  0.00000000000E+00 0.  1.
         -2   -1    0    0    0  501 -0.00000000000E+00 -0.00000000000E+00 -0.64091051173E+02  0.64091051173E+02  0.00000000000E+00 0. -1.
         23    2    1    2    0    0 -0.92066347145E+01  0.45202576686E+01  0.49566599161E+01  0.12485806546E+03  0.12433733623E+03 0.  0.
          5    1    3    3  502    0 -0.43239557347E+02 -0.46182313895E+02 -0.52072645431E+00  0.63405118030E+02  0.41800000000E+01 0. -1.
         -5    1    3    3    0  502  0.34032922633E+02  0.50702571564E+02  0.54773863704E+01  0.61452947428E+02  0.41800000000E+01 0.  1.
        -11    1    1    2    0    0 -0.15750121175E+02 -0.26553859096E+01  0.35621825054E+02  0.39038850028E+02  0.00000000000E+00 0. -1.
         11    1    1    2    0    0  0.24956755889E+02 -0.18648717590E+01  0.61955465788E+02  0.66819137619E+02  0.00000000000E+00 0.  1.
</event>
<event>
 7    1  0.4394360E-006  0.8474092E+02  0.7561462E-02  0.1316111E+00
         -2   -1    0    0    0  501 -0.00000000000E+00  0.00000000000E+00  0.52213532926E+02  0.52213532926E+02  0.00000000000E+00 0.  1.
          2   -1    0    0  501    0  0.00000000000E+00 -0.00000000000E+00 -0.28439813332E+03  0.28439813332E+03  0.00000000000E+00 0. -1.
         23    2    1    2    0    0  0.35211805458E+02  0.15682811752E+02 -0.68800762681E+02  0.14787230005E+03  0.12508737085E+03 0.  0.
          5    1    3    3  502    0  0.46038523140E+02  0.41809293749E+02  0.10831252812E+02  0.63264137504E+02  0.41800000000E+01 0.  1.
         -5    1    3    3    0  502 -0.10826717681E+02 -0.26126481997E+02 -0.79632015492E+02  0.84608162542E+02  0.41800000000E+01 0.  1.
        -11    1    1    2    0    0  0.20670277198E+02 -0.58756066659E+00 -0.10314190596E+03  0.10519438366E+03  0.00000000000E+00 0. -1.
         11    1    1    2    0    0 -0.55882082656E+02 -0.15095251086E+02 -0.60241931750E+02  0.83544982544E+02  0.00000000000E+00 0.  1.
</event>
<event>
 7    1  0.4394360E-006  0.9037798E+02  0.7561462E-02  0.1301939E+00
         -2   -1    0    0    0  501 -0.00000000000E+00  0.00000000000E+00  0.53073605515E+02  0.53073605515E+02  0.00000000000E+00 0.  1.
          2   -1    0    0  501    0  0.00000000000E+00 -0.00000000000E+00 -0.32507125648E+03  0.32507125648E+03  0.00000000000E+00 0. -1.
         23    2    1    2    0    0  0.28802997988E+02 -0.70194034730E+02 -0.13812880454E+03  0.20120499097E+03  0.12508823503E+03 0.  0.
          5    1    3    3  502    0  0.23761983836E+02 -0.27237951513E+02  0.16958992302E+02  0.40144958568E+02  0.41800000000E+01 0. -1.
         -5    1    3    3    0  502  0.50410141512E+01 -0.42956083217E+02 -0.15508779684E+03  0.16106003240E+03  0.41800000000E+01 0. -1.
        -11    1    1    2    0    0 -0.19356023517E+02 -0.88690067846E+01 -0.12962981475E+00  0.21291588283E+02  0.00000000000E+00 0.  1.
         11    1    1    2    0    0 -0.94469744712E+01  0.79063041515E+02 -0.13373921662E+03  0.15564828274E+03  0.00000000000E+00 0. -1.
</event>
<event>
 7    1  0.4394360E-006  0.9880701E+02  0.7561462E-02  0.1282825E+00
         -3   -1    0    0    0  501 -0.00000000000E+00  0.00000000000E+00  0.13336458574E+03  0.13336458574E+03  0.00000000000E+00 0.  1.
          3   -1    0    0  501    0  0.00000000000E+00 -0.00000000000E+00 -0.10424398430E+03  0.10424398430E+03  0.00000000000E+00 0. -1.
         23    2    1    2    0    0 -0.26283329451E+02  0.13157351200E+02  0.52971653228E+02  0.13899025783E+03  0.12509343079E+03 0.  0.
          5    1    3    3  502    0  0.39944712786E+02 -0.27340094162E+02  0.81812991133E+01  0.49269330050E+02  0.41800000000E+01 0. -1.
         -5    1    3    3    0  502 -0.66228042237E+02  0.40497445362E+02  0.44790354114E+02  0.89720927777E+02  0.41800000000E+01 0. -1.
        -11    1    1    2    0    0  0.42822908839E+02 -0.26219464283E+02  0.16700863414E+02  0.52916733341E+02  0.00000000000E+00 0.  1.
         11    1    1    2    0    0 -0.16539579388E+02  0.13062113083E+02 -0.40551915204E+02  0.45701578870E+02  0.00000000000E+00 0. -1.
</event>
<event>
 7    1  0.4394360E-006  0.1059763E+03  0.7561462E-02  0.1268208E+00
          2   -1    0    0  501    0  0.00000000000E+00  0.00000000000E+00  0.40226736723E+03  0.40226736723E+03  0.00000000000E+00 0. -1.
         -2   -1    0    0    0  501 -0.00000000000E+00 -0.00000000000E+00 -0.50349216042E+02  0.50349216042E+02  0.00000000000E+00 0.  1.
         23    2    1    2    0    0  0.90472726014E+02  0.60570090441E+01  0.15882290729E+03  0.22157161591E+03  0.12508902264E+03 0.  0.
          5    1    3    3  502    0  0.44576915333E+02 -0.51414587296E+01  0.16741331328E+03  0.17337308280E+03  0.41800000000E+01 0. -1.
         -5    1    3    3    0  502  0.45895810682E+02  0.11198467774E+02 -0.85904059826E+01  0.48198533106E+02  0.41800000000E+01 0. -1.
        -11    1    1    2    0    0 -0.76082668357E+02 -0.37542420324E+02  0.16826129837E+03  0.18844062799E+03  0.00000000000E+00 0. -1.
         11    1    1    2    0    0 -0.14390057658E+02  0.31485411280E+02  0.24833945517E+02  0.42604339365E+02  0.00000000000E+00 0.  1.
</event>
<event>
 7    1  0.4394360E-006  0.8720974E+02  0.7561462E-02  0.1309753E+00
         -1   -1    0    0    0  501 -0.00000000000E+00  0.00000000000E+00  0.25692037346E+03  0.25692037346E+03  0.00000000000E+00 0.  1.
          1   -1    0    0  501    0  0.00000000000E+00 -0.00000000000E+00 -0.13340943593E+03  0.13340943593E+03  0.00000000000E+00 0. -1.
         23    2    1    2    0    0 -0.13779492752E+02  0.30019222271E+02  0.21882042347E+03  0.25420586772E+03  0.12508883774E+03 0.  0.
          5    1    3    3  502    0  0.68251171593E+01 -0.24105693709E+02 -0.23805250204E+01  0.25510899491E+02  0.41800000000E+01 0.  1.
         -5    1    3    3    0  502 -0.20604609911E+02  0.54124915980E+02  0.22120094849E+03  0.22869496822E+03  0.41800000000E+01 0.  1.
        -11    1    1    2    0    0  0.46702590099E+02 -0.45313648883E+00 -0.72758198484E+02  0.86458618432E+02  0.00000000000E+00 0. -1.
         11    1    1    2    0    0 -0.32923097347E+02 -0.29566085782E+02 -0.22551287452E+02  0.49665323246E+02  0.00000000000E+00 0.  1.
</event>
<event>
 7    1  0.4394360E-006  0.9889679E+02  0.7561462E-02  0.1282633E+00
         -1   -1    0    0    0  501 -0.00000000000E+00  0.00000000000E+00  0.97138769483E+02  0.97138769483E+02  0.00000000000E+00 0.  1.
          1   -1    0    0  501    0  0.00000000000E+00 -0.00000000000E+00 -0.23447086449E+03  0.23447086449E+03  0.00000000000E+00 0. -1.
         23    2    1    2    0    0 -0.62432468841E+02  0.41746777659E+02  0.14510264572E+02  0.14662495273E+03  0.12509085647E+03 0.  0.
          5    1    3    3  502    0  0.91893194264E+01  0.22801025662E+02 -0.45039433119E+02  0.51481582129E+02  0.41800000000E+01 0. -1.
         -5    1    3    3    0  502 -0.71621788268E+02  0.18945751998E+02  0.59549697691E+02  0.95143370597E+02  0.41800000000E+01 0. -1.
        -11    1    1    2    0    0  0.64102573406E+02 -0.76960684399E+01 -0.12806881618E+03  0.14342242176E+03  0.00000000000E+00 0. -1.
         11    1    1    2    0    0 -0.16701045648E+01 -0.34050709220E+02 -0.23773543396E+02  0.41562259482E+02  0.00000000000E+00 0.  1.
</event>
<event>
 7    1  0.4394360E-006  0.1154039E+03  0.7561462E-02  0.1250878E+00
         -2   -1    0    0    0  501 -0.00000000000E+00  0.00000000000E+00  0.32775627482E+02  0.32775627482E+02  0.00000000000E+00 0.  1.
          2   -1    0    0  501    0  0.00000000000E+00 -0.00000000000E+00 -0.43177188859E+03  0.43177188859E+03  0.00000000000E+00 0. -1.
         23    2    1    2    0    0 -0.13956337456E+02  0.46373431761E+02 -0.20325007340E+03  0.24351938721E+03  0.12508327260E+03 0.  0.
          5    1    3    3  502    0 -0.15145095551E+02 -0.41716534970E+02 -0.85245700416E+02  0.96197427453E+02  0.41800000000E+01 0.  1.
         -5    1    3    3    0  502  0.11887580951E+01  0.88089966730E+02 -0.11800437298E+03  0.14732195976E+03  0.41800000000E+01 0.  1.
        -11    1    1    2    0    0 -0.36179847048E+02 -0.21181705398E+02 -0.11740832435E+03  0.12466900418E+03  0.00000000000E+00 0. -1.
         11    1    1    2    0    0  0.50136184504E+02 -0.25191726363E+02 -0.78337863360E+02  0.96359124682E+02  0.00000000000E+00 0.  1.
</event>
<event>
 6    1  0.4394360E-006  0.1075146E+03  0.7561462E-02  0.1265243E+00
         -2   -1    0    0    0  501 -0.00000000000E+00  0.00000000000E+00  0.39874740910E+02  0.39874740910E+02  0.00000000000E+00 0.  1.
          2   -1    0    0  501    0  0.00000000000E+00 -0.00000000000E+00 -0.45086807133E+03  0.45086807133E+03  0.00000000000E+00 0. -1.
          5    1    1    2  502    0 -0.27235410761E+01 -0.55186875382E+02 -0.17956652131E+03  0.18792183712E+03  0.41800000000E+01 0. -1.
         -5    1    1    2    0  502  0.28648606030E+02  0.64443903123E+02 -0.21267874584E+02  0.73780445692E+02  0.41800000000E+01 0.  1.
        -11    1    1    2    0    0 -0.23283481752E+02  0.36413868828E+02 -0.12665211827E+03  0.13382394938E+03  0.00000000000E+00 0.  1.
         11    1    1    2    0    0 -0.26415832015E+01 -0.45670896568E+02 -0.83506816254E+02  0.95216580048E+02  0.00000000000E+00 0. -1.
</event>
<event>
 7    1  0.4394360E-006  0.1545885E+03  0.7561462E-02  0.1194945E+00
          1   -1    0    0  501    0  0.00000000000E+00  0.00000000000E+00  0.10326035325E+04  0.10326035325E+04  0.00000000000E+00 0. -1.
         -1   -1    0    0    0  501 -0.00000000000E+00 -0.00000000000E+00 -0.26301320800E+02  0.26301320800E+02  0.00000000000E+00 0.  1.
         23    2    1    2    0    0 -0.85312052029E+02 -0.82149736303E+02  0.42779629219E+03  0.46117652318E+03  0.12508953804E+03 0.  0.
          5    1    3    3  502    0 -0.72592894228E+02  0.47836116349E+01  0.11411803928E+03  0.13539944801E+03  0.41800000000E+01 0. -1.
         -5    1    3    3    0  502 -0.12719157801E+02 -0.86933347937E+02  0.31367825291E+03  0.32577707517E+03  0.41800000000E+01 0. -1.
        -11    1    1    2    0    0  0.63996930021E+02  0.53810805051E+00  0.29898194137E+03  0.30575496379E+03  0.00000000000E+00 0. -1.
         11    1    1    2    0    0  0.21315122008E+02  0.81611628252E+02  0.27952397812E+03  0.29197336631E+03  0.00000000000E+00 0.  1.
</event>
<event>
 6    1  0.4394360E-006  0.3052536E+03  0.7561462E-02  0.1082643E+00
         -2   -1    0    0    0  501 -0.00000000000E+00  0.00000000000E+00  0.28268880306E+03  0.28268880306E+03  0.00000000000E+00 0.  1.
          2   -1    0    0  501    0  0.00000000000E+00 -0.00000000000E+00 -0.11166356978E+04  0.11166356978E+04  0.00000000000E+00 0. -1.
          5    1    1    2  502    0 -0.10088976315E+03 -0.25265037232E+03  0.18102838069E+03  0.32680223677E+03  0.41800000000E+01 0.  1.
         -5    1    1    2    0  502  0.13119547780E+03  0.96735506028E+02 -0.48884055006E+03  0.51531792837E+03  0.41800000000E+01 0. -1.
        -11    1    1    2    0    0 -0.47394010694E+02  0.53228556305E+02 -0.13754981165E+03  0.15491746881E+03  0.00000000000E+00 0.  1.
         11    1    1    2    0    0  0.17088296046E+02  0.10268630999E+03 -0.38858491376E+03  0.40228686695E+03  0.00000000000E+00 0. -1.
</event>
<event>
 7    1  0.4394360E-006  0.9149939E+02  0.7561462E-02  0.1299261E+00
         -2   -1    0    0    0  501 -0.00000000000E+00  0.00000000000E+00  0.43907070892E+02  0.43907070892E+02  0.00000000000E+00 0.  1.
          2   -1    0    0  501    0  0.00000000000E+00 -0.00000000000E+00 -0.53117183301E+03  0.53117183301E+03  0.00000000000E+00 0. -1.
         23    2    1    2    0    0  0.71847949399E+02  0.10044439985E+02 -0.12037085130E+03  0.18813584910E+03  0.12507172849E+03 0.  0.
          5    1    3    3  502    0  0.55523383481E+01  0.83300283469E+01  0.25571665323E+02  0.27777694303E+02  0.41800000000E+01 0. -1.
         -5    1    3    3    0  502  0.66295611051E+02  0.17144116382E+01 -0.14594251662E+03  0.16035815480E+03  0.41800000000E+01 0. -1.
        -11    1    1    2    0    0 -0.45292614231E+02  0.32361883066E+02 -0.91979340318E+02  0.10751237801E+03  0.00000000000E+00 0.  1.
         11    1    1    2    0    0 -0.26555335168E+02 -0.42406323051E+02 -0.27491457049E+03  0.27943067679E+03  0.00000000000E+00 0. -1.
</event>
<event>
 7    1  0.4394360E-006  0.1273320E+03  0.7561462E-02  0.1231469E+00
         -1   -1    0    0    0  501 -0.00000000000E+00  0.00000000000E+00  0.75856978012E+02  0.75856978012E+02  0.00000000000E+00 0.  1.
          1   -1    0    0  501    0  0.00000000000E+00 -0.00000000000E+00 -0.29827000145E+03  0.29827000145E+03  0.00000000000E+00 0. -1.
         23    2    1    2    0    0  0.31322455505E+02  0.97376141760E+02 -0.10424061535E+03  0.19229318660E+03  0.12508938613E+03 0.  0.
          5    1    3    3  502    0  0.73023965016E+02  0.74816922155E+02 -0.39277444348E+02  0.11175983779E+03  0.41800000000E+01 0.  1.
         -5    1    3    3    0  502 -0.41701509510E+02  0.22559219605E+02 -0.64963171004E+02  0.80533348816E+02  0.41800000000E+01 0.  1.
        -11    1    1    2    0    0 -0.97662610536E+01 -0.22690180409E+02  0.14075803038E+02  0.28431538353E+02  0.00000000000E+00 0.  1.
         11    1    1    2    0    0 -0.21556194452E+02 -0.74685961350E+02 -0.13224821112E+03  0.15340225451E+03  0.00000000000E+00 0. -1.
</event>
<event>
 7    1  0.4394360E-006  0.9686383E+02  0.7561462E-02  0.1287033E+00
          1   -1    0    0  501    0  0.00000000000E+00  0.00000000000E+00  0.16665130372E+03  0.16665130372E+03  0.00000000000E+00 0. -1.
         -1   -1    0    0    0  501 -0.00000000000E+00 -0.00000000000E+00 -0.15557801588E+03  0.15557801588E+03  0.00000000000E+00 0.  1.
         23    2    1    2    0    0 -0.44077804359E+02  0.29734927587E+02 -0.10732838061E+03  0.16680993319E+03  0.11609975785E+03 0.  0.
          5    1    3    3  502    0  0.18973050631E+02  0.26478952901E+02  0.92916780991E+01  0.34130913830E+02  0.41800000000E+01 0. -1.
         -5    1    3    3    0  502 -0.63050854991E+02  0.32559746863E+01 -0.11662005871E+03  0.13267901936E+03  0.41800000000E+01 0.  1.
        -11    1    1    2    0    0  0.42551817079E+02 -0.56540617008E+02  0.10136287750E+03  0.12362010938E+03  0.00000000000E+00 0.  1.
         11    1    1    2    0    0  0.15259872802E+01  0.26805689421E+02  0.17038790948E+02  0.31799277028E+02  0.00000000000E+00 0. -1.
</event>
<event>
 7    1  0.4394360E-006  0.6997513E+02  0.7561462E-02  0.1360178E+00
          2   -1    0    0  501    0  0.00000000000E+00  0.00000000000E+00  0.27773090272E+03  0.27773090272E+03  0.00000000000E+00 0. -1.
         -2   -1    0    0    0  501 -0.00000000000E+00 -0.00000000000E+00 -0.43953896693E+02  0.43953896693E+02  0.00000000000E+00 0.  1.
         23    2    1    2    0    0 -0.10482917957E+02  0.21234824296E+02  0.10842543093E+03  0.16722502464E+03  0.12508926996E+03 0.  0.
          5    1    3    3  502    0 -0.23249591500E+02 -0.16895798018E+02 -0.18219024002E+02  0.34284351113E+02  0.41800000000E+01 0.  1.
         -5    1    3    3    0  502  0.12766673544E+02  0.38130622314E+02  0.12664445494E+03  0.13294067353E+03  0.41800000000E+01 0.  1.
        -11    1    1    2    0    0  0.37837936830E+02 -0.20676979583E+02  0.11871853934E+03  0.12630652609E+03  0.00000000000E+00 0. -1.
         11    1    1    2    0    0 -0.27355018873E+02 -0.55784471342E+00  0.66330357467E+01  0.28153248684E+02  0.00000000000E+00 0.  1.
</event>
<event>
 7    1  0.4394360E-006  0.1108594E+03  0.7561462E-02  0.1258987E+00
          1   -1    0    0  501    0  0.00000000000E+00  0.00000000000E+00  0.33032520276E+02  0.33032520276E+02  0.00000000000E+00 0. -1.
         -1   -1    0    0    0  501 -0.00000000000E+00 -0.00000000000E+00 -0.42459806438E+03  0.42459806438E+03  0.00000000000E+00 0.  1.
         23    2    1    2    0    0 -0.90532921005E+01  0.36389704296E+02 -0.27587243948E+03  0.30522221329E+03  0.12509525948E+03 0.  0.
          5    1    3    3  502    0 -0.31640759855E+02 -0.37469009300E+02 -0.14586554661E+03  0.15394575158E+03  0.41800000000E+01 0. -1.
         -5    1    3    3    0  502  0.22587467754E+02  0.73858713596E+02 -0.13000689287E+03  0.15127646171E+03  0.41800000000E+01 0. -1.
        -11    1    1    2    0    0 -0.37101199935E+02 -0.12153178076E+01 -0.67254352398E+02  0.76818773424E+02  0.00000000000E+00 0.  1.
         11    1    1    2    0    0  0.46154492035E+02 -0.35174386488E+02 -0.48438752228E+02  0.75589597943E+02  0.00000000000E+00 0. -1.
</event>
<event>
 7    1  0.4394360E-006  0.9415517E+02  0.7561462E-02  0.1293090E+00
         -3   -1    0    0    0  501 -0.00000000000E+00  0.00000000000E+00  0.53453142588E+02  0.53453142588E+02  0.00000000000E+00 0. -1.
          3   -1    0    0  501    0  0.00000000000E+00 -0.00000000000E+00 -0.33822172209E+03  0.33822172209E+03  0.00000000000E+00 0.  1.
         23    2    1    2    0    0  0.76166863408E+02  0.61761488831E+01 -0.13431022092E+03  0.19881016353E+03  0.12508680899E+03 0.  0.
          5    1    3    3  502    0  0.88127087154E+02  0.90194300491E+01 -0.29892647262E+02  0.93588334577E+02  0.41800000000E+01 0.  1.
         -5    1    3    3    0  502 -0.11960223746E+02 -0.28432811660E+01 -0.10441757366E+03  0.10522182895E+03  0.41800000000E+01 0.  1.
        -11    1    1    2    0    0 -0.99846257521E+01 -0.16865733438E+02  0.77206957629E+01  0.21065489761E+02  0.00000000000E+00 0. -1.
         11    1    1    2    0    0 -0.66182237656E+02  0.10689584555E+02 -0.15817905434E+03  0.17179921138E+03  0.00000000000E+00 0.  1.
</event>
<event>
 7    1  0.4511410E-006  0.2294889E+03  0.7561462E-02  0.1127000E+00
          1   -1    0    0  501    0  0.00000000000E+00  0.00000000000E+00  0.10595743556E+04  0.10595743556E+04  0.00000000000E+00 0.  1.
         -1   -1    0    0    0  501 -0.00000000000E+00 -0.00000000000E+00 -0.51193040921E+02  0.51193040921E+02  0.00000000000E+00 0. -1.
         23    2    1    2    0    0 -0.46348994316E+01  0.20515193246E+03  0.50085571032E+03  0.55553011526E+03  0.12509383966E+03 0.  0.
          5    1    3    3  502    0  0.45673506713E+02  0.24588740466E+02  0.91048576471E+02  0.10487130709E+03  0.41800000000E+01 0. -1.
         -5    1    3    3    0  502 -0.50308406145E+02  0.18056319199E+03  0.40980713384E+03  0.45065880817E+03  0.41800000000E+01 0. -1.
        -11    1    1    2    0    0  0.41059992681E+02 -0.12017952743E+03  0.23021630468E+03  0.26292316131E+03  0.00000000000E+00 0.  1.
         11    1    1    2    0    0 -0.36425093250E+02 -0.84972405026E+02  0.27730929971E+03  0.29231411998E+03  0.00000000000E+00 0. -1.
</event>
<event>
 7    1  0.4394360E-006  0.1222032E+03  0.7561462E-02  0.1239506E+00
          4   -1    0    0  501    0  0.00000000000E+00  0.00000000000E+00  0.64301279055E+02  0.64301279055E+02  0.00000000000E+00 0.  1.
         -4   -1    0    0    0  501 -0.00000000000E+00 -0.00000000000E+00 -0.46005598113E+03  0.46005598113E+03  0.00000000000E+00 0. -1.
         23    2    1    2    0    0 -0.81643193572E+02  0.62921388731E+02 -0.34541091373E+03  0.38155072148E+03  0.12509013360E+03 0.  0.
          5    1    3    3  502    0 -0.73343383012E+02  0.87955062760E+02 -0.33287992422E+03  0.35205377607E+03  0.41800000000E+01 0. -1.
         -5    1    3    3    0  502 -0.82998105598E+01 -0.25033674029E+02 -0.12530989515E+02  0.29496945417E+02  0.41800000000E+01 0. -1.
        -11    1    1    2    0    0  0.71485368355E+02 -0.56086809107E+02  0.13729729731E+00  0.90862021192E+02  0.00000000000E+00 0.  1.
         11    1    1    2    0    0  0.10157825217E+02 -0.68345796243E+01 -0.50481085636E+02  0.51944517504E+02  0.00000000000E+00 0. -1.
</event>
<event>
 7    1  0.4394360E-006  0.1099103E+03  0.7561462E-02  0.1260736E+00
         -1   -1    0    0    0  501 -0.00000000000E+00  0.00000000000E+00  0.52855108666E+03  0.52855108666E+03  0.00000000000E+00 0.  1.
          1   -1    0    0  501    0  0.00000000000E+00 -0.00000000000E+00 -0.27898641656E+02  0.27898641656E+02  0.00000000000E+00 0. -1.
         23    2    1    2    0    0  0.34184911983E+02  0.40310656705E+02  0.32454434885E+03  0.35181030114E+03  0.12509155194E+03 0.  0.
          5    1    3    3  502    0  0.37598500187E+02 -0.35224328425E+02  0.19520282455E+03  0.20193071991E+03  0.41800000000E+01 0. -1.
         -5    1    3    3    0  502 -0.34135882043E+01  0.75534985131E+02  0.12934152429E+03  0.14987958123E+03  0.41800000000E+01 0. -1.
        -11    1    1    2    0    0 -0.52871959673E+01 -0.58184535568E+02  0.15237832742E+03  0.16319482004E+03  0.00000000000E+00 0.  1.
         11    1    1    2    0    0 -0.28897716015E+02  0.17873878863E+02  0.23729768741E+02  0.41444607141E+02  0.00000000000E+00 0. -1.
</event>
<event>
 7    1  0.4394360E-006  0.1043562E+03  0.7561462E-02  0.1271393E+00
          2   -1    0    0  501    0  0.00000000000E+00  0.00000000000E+00  0.39650509803E+03  0.39650509803E+03  0.00000000000E+00 0. -1.
         -2   -1    0    0    0  501 -0.00000000000E+00 -0.00000000000E+00 -0.36557693073E+02  0.36557693073E+02  0.00000000000E+00 0.  1.
         23    2    1    2    0    0  0.39459214110E+02 -0.35216355549E+02  0.19609726745E+03  0.23853604178E+03  0.12509230053E+03 0.  0.
          5    1    3    3  502    0 -0.34307896461E+02  0.47996016424E+01  0.12069810495E+03  0.12564064977E+03  0.41800000000E+01 0. -1.
         -5    1    3    3    0  502  0.73767110571E+02 -0.40015957191E+02  0.75399162499E+02  0.11289539201E+03  0.41800000000E+01 0. -1.
        -11    1    1    2    0    0 -0.60687466343E+02  0.20886184522E+02  0.15443197220E+03  0.16723766117E+03  0.00000000000E+00 0. -1.
         11    1    1    2    0    0  0.21228252233E+02  0.14330171027E+02  0.94181653038E+01  0.27289088153E+02  0.00000000000E+00 0.  1.
</event>
<event>
 7    1  0.4394360E-006  0.1511471E+03  0.7561462E-02  0.1199071E+00
         -1   -1    0    0    0  501 -0.00000000000E+00  0.00000000000E+00  0.10507770403E+04  0.10507770403E+04  0.00000000000E+00 0.  1.
          1   -1    0    0  501    0  0.00000000000E+00 -0.00000000000E+00 -0.29225417393E+02  0.29225417393E+02  0.00000000000E+00 0. -1.
         23    2    1    2    0    0 -0.97554345808E+02 -0.78629751105E+02  0.67974728306E+03  0.70242738016E+03  0.12509343475E+03 0.  0.
          5    1    3    3  502    0 -0.10670456971E+03 -0.10434897242E+03  0.58312321739E+03  0.60193415944E+03  0.41800000000E+01 0.  1.
         -5    1    3    3    0  502  0.91502239051E+01  0.25719221316E+02  0.96624065675E+02  0.10049322072E+03  0.41800000000E+01 0.  1.
        -11    1    1    2    0    0  0.57634295840E+02  0.43707656260E+02  0.30388511168E+03  0.31237514685E+03  0.00000000000E+00 0.  1.
         11    1    1    2    0    0  0.39920049968E+02  0.34922094844E+02  0.37919228194E+02  0.65199930710E+02  0.00000000000E+00 0. -1.
</event>
<event>
 6    1  0.4394360E-006  0.3523329E+03  0.7561462E-02  0.1061662E+00
          1   -1    0    0  501    0  0.00000000000E+00  0.00000000000E+00  0.34395450038E+03  0.34395450038E+03  0.00000000000E+00 0. -1.
         -1   -1    0    0    0  501 -0.00000000000E+00 -0.00000000000E+00 -0.61773205556E+03  0.61773205556E+03  0.00000000000E+00 0.  1.
          5    1    1    2  502    0  0.21040212640E+03 -0.14622223206E+03 -0.39372575778E+03  0.46977381864E+03  0.41800000000E+01 0. -1.
         -5    1    1    2    0  502 -0.27060457342E+03 -0.39120516559E+01 -0.10048250777E+01  0.27066699351E+03  0.41800000000E+01 0.  1.
        -11    1    1    2    0    0 -0.83927160456E+01  0.77070637087E+02  0.22420779572E+02  0.80703235005E+02  0.00000000000E+00 0.  1.
         11    1    1    2    0    0  0.68595163070E+02  0.73063646632E+02  0.98532248109E+02  0.14054250878E+03  0.00000000000E+00 0. -1.
</event>
<event>
 7    1  0.4394360E-006  0.9530651E+02  0.7561462E-02  0.1290487E+00
          1   -1    0    0  501    0  0.00000000000E+00  0.00000000000E+00  0.32975200865E+03  0.32975200865E+03  0.00000000000E+00 0. -1.
         -1   -1    0    0    0  501 -0.00000000000E+00 -0.00000000000E+00 -0.55832133134E+02  0.55832133134E+02  0.00000000000E+00 0.  1.
         23    2    1    2    0    0 -0.26337482355E+02  0.31367834499E+02  0.46626087615E+02  0.13946048622E+03  0.12489047662E+03 0.  0.
          5    1    3    3  502    0  0.29997134897E+02  0.27016776524E+02 -0.25356368776E+02  0.47855534196E+02  0.41800000000E+01 0.  1.
         -5    1    3    3    0  502 -0.56334617252E+02  0.43510579752E+01  0.71982456391E+02  0.91604952019E+02  0.41800000000E+01 0.  1.
        -11    1    1    2    0    0  0.54990184917E+02 -0.33910246955E+02  0.13941202760E+03  0.15365395772E+03  0.00000000000E+00 0.  1.
         11    1    1    2    0    0 -0.28652702562E+02  0.25424124564E+01  0.87881760308E+02  0.92469697848E+02  0.00000000000E+00 0. -1.
</event>
<event>
 6    1  0.4394360E-006  0.3084754E+03  0.7561462E-02  0.1081079E+00
          3   -1    0    0  501    0  0.00000000000E+00  0.00000000000E+00  0.21157509839E+03  0.21157509839E+03  0.00000000000E+00 0. -1.
         -3   -1    0    0    0  501 -0.00000000000E+00 -0.00000000000E+00 -0.48007432389E+03  0.48007432389E+03  0.00000000000E+00 0.  1.
          5    1    1    2  502    0  0.12820578968E+03 -0.25554784728E+03 -0.14622917752E+03  0.32115708230E+03  0.41800000000E+01 0. -1.
         -5    1    1    2    0  502 -0.11452411559E+03  0.16862238220E+03 -0.13081268212E+03  0.24223689032E+03  0.41800000000E+01 0.  1.
        -11    1    1    2    0    0  0.29204146235E+02  0.78059546663E+02 -0.13697277582E+01  0.83354970677E+02  0.00000000000E+00 0.  1.
         11    1    1    2    0    0 -0.42885820321E+02  0.88659184173E+01  0.99123618976E+01  0.44900478977E+02  0.00000000000E+00 0. -1.
</event>
<event>
 7    1  0.4394360E-006  0.1241160E+03  0.7561462E-02  0.1236457E+00
          3   -1    0    0  501    0  0.00000000000E+00  0.00000000000E+00  0.47149478537E+03  0.47149478537E+03  0.00000000000E+00 0. -1.
         -3   -1    0    0    0  501 -0.00000000000E+00 -0.00000000000E+00 -0.49270296086E+02  0.49270296086E+02  0.00000000000E+00 0.  1.
         23    2    1    2    0    0 -0.99160088372E+01  0.96621818834E+02  0.15397531870E+03  0.22088159348E+03  0.12508467719E+03 0.  0.
          5    1    3    3  502    0  0.10203824540E+02 -0.57642925780E+01 -0.16680550604E+02  0.20810052201E+02  0.41800000000E+01 0.  1.
         -5    1    3    3    0  502 -0.20119833377E+02  0.10238611141E+03  0.17065586930E+03  0.20007154128E+03  0.41800000000E+01 0.  1.
        -11    1    1    2    0    0 -0.30500451831E+02 -0.83455612468E+02  0.15146444700E+03  0.17560351796E+03  0.00000000000E+00 0. -1.
         11    1    1    2    0    0  0.40416460668E+02 -0.13166206365E+02  0.11678472359E+03  0.12427997002E+03  0.00000000000E+00 0.  1.
</event>
<event>
 7    1  0.4394360E-006  0.1013606E+03  0.7561462E-02  0.1277461E+00
         -1   -1    0    0    0  501 -0.00000000000E+00  0.00000000000E+00  0.80046227699E+02  0.80046227699E+02  0.00000000000E+00 0.  1.
          1   -1    0    0  501    0  0.00000000000E+00 -0.00000000000E+00 -0.35306539492E+03  0.35306539492E+03  0.00000000000E+00 0. -1.
         23    2    1    2    0    0 -0.17990575185E+02  0.62953742057E+02 -0.38641529696E+01  0.14122899292E+03  0.12507542656E+03 0.  0.
          5    1    3    3  502    0 -0.50012309341E+02  0.22754345480E+02  0.44274199396E+02  0.70687116620E+02  0.41800000000E+01 0.  1.
         -5    1    3    3    0  502  0.32021734156E+02  0.40199396577E+02 -0.48138352366E+02  0.70541876300E+02  0.41800000000E+01 0.  1.
        -11    1    1    2    0    0 -0.19783089545E+02  0.30381242838E+01 -0.11160768747E+02  0.22916448026E+02  0.00000000000E+00 0.  1.
         11    1    1    2    0    0  0.37773664730E+02 -0.65991866341E+02 -0.25799424550E+03  0.26896618167E+03  0.00000000000E+00 0. -1.
</event>
<event>
 7    1  0.4394360E-006  0.1113229E+03  0.7561462E-02  0.1258139E+00
          4   -1    0    0  501    0  0.00000000000E+00  0.00000000000E+00  0.73384311517E+02  0.73384311517E+02  0.00000000000E+00 0. -1.
         -4   -1    0    0    0  501 -0.00000000000E+00 -0.00000000000E+00 -0.21618320607E+03  0.21618320607E+03  0.00000000000E+00 0.  1.
         23    2    1    2    0    0 -0.11548000522E+02 -0.51072029942E+02 -0.12178043907E+03  0.18226640240E+03  0.12509539378E+03 0.  0.
          5    1    3    3  502    0  0.34697646003E+02 -0.60672576225E+02 -0.24739047743E+02  0.74260225068E+02  0.41800000000E+01 0.  1.
         -5    1    3    3    0  502 -0.46245646526E+02  0.96005462831E+01 -0.97041391323E+02  0.10800617733E+03  0.41800000000E+01 0.  1.
        -11    1    1    2    0    0 -0.36629682710E+02  0.23704760252E+01 -0.80774606857E+01  0.37584547133E+02  0.00000000000E+00 0.  1.
         11    1    1    2    0    0  0.48177683233E+02  0.48701553917E+02 -0.12940994807E+02  0.69716568061E+02  0.00000000000E+00 0. -1.
</event>
<event>
 7    1  0.4394360E-006  0.1371911E+03  0.7561462E-02  0.1217159E+00
          1   -1    0    0  501    0  0.00000000000E+00  0.00000000000E+00  0.63945403327E+02  0.63945403327E+02  0.00000000000E+00 0. -1.
         -1   -1    0    0    0  501 -0.00000000000E+00 -0.00000000000E+00 -0.41958167102E+03  0.41958167102E+03  0.00000000000E+00 0.  1.
         23    2    1    2    0    0  0.90049307504E+02  0.52925280068E+02 -0.28359139160E+03  0.32708039073E+03  0.12509013373E+03 0.  0.
          5    1    3    3  502    0 -0.10943497073E+02  0.54216953865E+02 -0.60066069981E+02  0.81759668404E+02  0.41800000000E+01 0.  1.
         -5    1    3    3    0  502  0.10099280458E+03 -0.12916737965E+01 -0.22352532162E+03  0.24532072232E+03  0.41800000000E+01 0.  1.
        -11    1    1    2    0    0 -0.12178949453E+02 -0.36181776203E+02  0.12616158474E+02  0.40207153513E+02  0.00000000000E+00 0. -1.
         11    1    1    2    0    0 -0.77870358051E+02 -0.16743503865E+02 -0.84661034565E+02  0.11623953010E+03  0.00000000000E+00 0.  1.
</event>
<event>
 7    1  0.4394360E-006  0.1585651E+03  0.7561462E-02  0.1190326E+00
         -2   -1    0    0    0  501 -0.00000000000E+00  0.00000000000E+00  0.81858828087E+02  0.81858828087E+02  0.00000000000E+00 0.  1.
          2   -1    0    0  501    0  0.00000000000E+00 -0.00000000000E+00 -0.58082193174E+03  0.58082193174E+03  0.00000000000E+00 0. -1.
         23    2    1    2    0    0  0.33900692385E+01  0.14086075124E+03 -0.68624971543E+02  0.20052832219E+03  0.12509587313E+03 0.  0.
          5    1    3    3  502    0  0.46361341214E+02  0.29399387136E+02 -0.58865373077E+02  0.80599643118E+02  0.41800000000E+01 0.  1.
         -5    1    3    3    0  502 -0.42971271976E+02  0.11146136410E+03 -0.97595984652E+01  0.11992867907E+03  0.41800000000E+01 0.  1.
        -11    1    1    2    0    0  0.88052777782E+01 -0.79211172060E+02 -0.11076153815E+03  0.13645534445E+03  0.00000000000E+00 0.  1.
         11    1    1    2    0    0 -0.12195347017E+02 -0.61649579176E+02 -0.31957659397E+03  0.32569709319E+03  0.00000000000E+00 0. -1.
</event>
<event>
 7    1  0.4394360E-006  0.1248535E+03  0.7561462E-02  0.1235298E+00
          2   -1    0    0  501    0  0.00000000000E+00  0.00000000000E+00  0.45815992493E+03  0.45815992493E+03  0.00000000000E+00 0. -1.
         -2   -1    0    0    0  501 -0.00000000000E+00 -0.00000000000E+00 -0.44247428131E+02  0.44247428131E+02  0.00000000000E+00 0.  1.
         23    2    1    2    0    0  0.90348909216E+02 -0.32782889867E+00  0.20292510918E+03  0.25493189625E+03  0.12509451994E+03 0.  0.
          5    1    3    3  502    0  0.15509741634E+02  0.55551504609E+02  0.10276252708E+03  0.11791577979E+03  0.41800000000E+01 0.  1.
         -5    1    3    3    0  502  0.74839167583E+02 -0.55879333508E+02  0.10016258210E+03  0.13701611646E+03  0.41800000000E+01 0.  1.
        -11    1    1    2    0    0 -0.42282594788E+02  0.19595743069E+02  0.18253353461E+03  0.18838869984E+03  0.00000000000E+00 0. -1.
         11    1    1    2    0    0 -0.48066314428E+02 -0.19267914170E+02  0.28453853008E+02  0.59086756978E+02  0.00000000000E+00 0.  1.
</event>
<event>
 7    1  0.4394360E-006  0.1936963E+03  0.7561462E-02  0.1155169E+00
          2   -1    0    0  501    0  0.00000000000E+00  0.00000000000E+00  0.34136136496E+03  0.34136136496E+03  0.00000000000E+00 0. -1.
         -2   -1    0    0    0  501 -0.00000000000E+00 -0.00000000000E+00 -0.18425940834E+03  0.18425940834E+03  0.00000000000E+00 0.  1.
         23    2    1    2    0    0 -0.18242575548E+03 -0.77531238976E+01 -0.58505539160E+02  0.22893125386E+03  0.12508938280E+03 0.  0.
          5    1    3    3  502    0 -0.14131926424E+03 -0.23548259471E+02 -0.94689486891E+02  0.17178249706E+03  0.41800000000E+01 0.  1.
         -5    1    3    3    0  502 -0.41106491238E+02  0.15795135573E+02  0.36183947731E+02  0.57148756794E+02  0.41800000000E+01 0.  1.
        -11    1    1    2    0    0  0.12961592390E+03  0.42740741722E+02  0.17296075329E+03  0.22032358229E+03  0.00000000000E+00 0. -1.
         11    1    1    2    0    0  0.52809831577E+02 -0.34987617824E+02  0.42646742496E+02  0.76365937156E+02  0.00000000000E+00 0.  1.
</event>
<event>
 7    1  0.4394360E-006  0.8288415E+02  0.7561462E-02  0.1321060E+00
          1   -1    0    0  501    0  0.00000000000E+00  0.00000000000E+00  0.38945202440E+03  0.38945202440E+03  0.00000000000E+00 0. -1.
         -1   -1    0    0    0  501 -0.00000000000E+00 -0.00000000000E+00 -0.49040201935E+02  0.49040201935E+02  0.00000000000E+00 0.  1.
         23    2    1    2    0    0 -0.49696957794E+02  0.30580170430E+02  0.87802894027E+02  0.16359013705E+03  0.12508976897E+03 0.  0.
          5    1    3    3  502    0 -0.35210156819E+02  0.83406746341E+01  0.11780942204E+03  0.12331202017E+03  0.41800000000E+01 0. -1.
         -5    1    3    3    0  502 -0.14486800975E+02  0.22239495796E+02 -0.30006528014E+02  0.40278116878E+02  0.41800000000E+01 0. -1.
        -11    1    1    2    0    0  0.51814218384E+02  0.17240135617E+02  0.17860777091E+03  0.18676903205E+03  0.00000000000E+00 0. -1.
         11    1    1    2    0    0 -0.21172605904E+01 -0.47820306047E+02  0.74001157528E+02  0.88133057239E+02  0.00000000000E+00 0.  1.
</event>
<event>
 7    1  0.4394360E-006  0.1579246E+03  0.7561462E-02  0.1191060E+00
         -2   -1    0    0    0  501 -0.00000000000E+00  0.00000000000E+00  0.25753633227E+02  0.25753633227E+02  0.00000000000E+00 0.  1.
          2   -1    0    0  501    0  0.00000000000E+00 -0.00000000000E+00 -0.10512282037E+04  0.10512282037E+04  0.00000000000E+00 0. -1.
         23    2    1    2    0    0 -0.11466604682E+03  0.29647728009E+02 -0.43043305528E+03  0.46362394522E+03  0.12508899805E+03 0.  0.
          5    1    3    3  502    0 -0.38423460010E+02 -0.48637469152E+02 -0.13526292335E+03  0.14884722543E+03  0.41800000000E+01 0. -1.
         -5    1    3    3    0  502 -0.76242586814E+02  0.78285197161E+02 -0.29517013193E+03  0.31477671979E+03  0.41800000000E+01 0. -1.
        -11    1    1    2    0    0  0.65704415076E+02 -0.58127043521E+02 -0.28539831643E+03  0.29857666079E+03  0.00000000000E+00 0. -1.
         11    1    1    2    0    0  0.48961631748E+02  0.28479315512E+02 -0.30964319874E+03  0.31478123089E+03  0.00000000000E+00 0.  1.
</event>
<event>
 7    1  0.4394360E-006  0.1142623E+03  0.7561462E-02  0.1252874E+00
         -1   -1    0    0    0  501 -0.00000000000E+00  0.00000000000E+00  0.16892522678E+03  0.16892522678E+03  0.00000000000E+00 0.  1.
          1   -1    0    0  501    0  0.00000000000E+00 -0.00000000000E+00 -0.10323826158E+03  0.10323826158E+03  0.00000000000E+00 0. -1.
         23    2    1    2    0    0  0.51372353666E+02  0.26533445911E+02  0.86269993848E+02  0.16258237565E+03  0.12508946623E+03 0.  0.
          5    1    3    3  502    0 -0.34675427625E+02 -0.16889085899E+02  0.39513399453E+02  0.55375153632E+02  0.41800000000E+01 0.  1.
         -5    1    3    3    0  502  0.86047781291E+02  0.43422531809E+02  0.46756594395E+02  0.10720722202E+03  0.41800000000E+01 0.  1.
        -11    1    1    2    0    0 -0.70384520433E+02 -0.21257362361E+02  0.89460760133E+01  0.74066783697E+02  0.00000000000E+00 0.  1.
         11    1    1    2    0    0  0.19012166767E+02 -0.52760835497E+01 -0.29529104663E+02  0.35514329010E+02  0.00000000000E+00 0. -1.
</event>
<event>
 7    1  0.4394360E-006  0.1190037E+03  0.7561462E-02  0.1244750E+00
         -4   -1    0    0    0  501 -0.00000000000E+00  0.00000000000E+00  0.48096589492E+03  0.48096589492E+03  0.00000000000E+00 0. -1.
          4   -1    0    0  501    0  0.00000000000E+00 -0.00000000000E+00 -0.41998835285E+02  0.41998835285E+02  0.00000000000E+00 0.  1.
         23    2    1    2    0    0  0.88187811712E+02 -0.14194131098E+02  0.21089653553E+03  0.26096705501E+03  0.12509153291E+03 0.  0.
          5    1    3    3  502    0  0.14220732052E+02 -0.58343273735E+02  0.12750616136E+03  0.14100163260E+03  0.41800000000E+01 0. -1.
         -5    1    3    3    0  502  0.73967079661E+02  0.44149142637E+02  0.83390374172E+02  0.11996542241E+03  0.41800000000E+01 0. -1.
        -11    1    1    2    0    0 -0.42400499728E+02 -0.33555074577E+01  0.17837823076E+02  0.46122117683E+02  0.00000000000E+00 0.  1.
         11    1    1    2    0    0 -0.45787311984E+02  0.17549638556E+02  0.21023270103E+03  0.21587555752E+03  0.00000000000E+00 0. -1.
</event>
<event>
 6    1  0.4394360E-006  0.1232527E+03  0.7561462E-02  0.1237826E+00
          1   -1    0    0  501    0  0.00000000000E+00  0.00000000000E+00  0.23648773231E+03  0.23648773231E+03  0.00000000000E+00 0. -1.
         -1   -1    0    0    0  501 -0.00000000000E+00 -0.00000000000E+00 -0.39130358177E+03  0.39130358177E+03  0.00000000000E+00 0.  1.
          5    1    1    2  502    0 -0.13542638451E+02  0.37068023410E+02 -0.50872626828E+01  0.40009924485E+02  0.41800000000E+01 0. -1.
         -5    1    1    2    0  502  0.10619241538E+02 -0.98144806334E+02 -0.34796198343E+03  0.36171837887E+03  0.41800000000E+01 0.  1.
        -11    1    1    2    0    0 -0.32273062231E+02  0.65028491721E+02  0.14442999668E+03  0.16164862889E+03  0.00000000000E+00 0. -1.
         11    1    1    2    0    0  0.35196459144E+02 -0.39517087974E+01  0.53803399967E+02  0.64414381831E+02  0.00000000000E+00 0.  1.
</event>
<event>
 7    1  0.4394360E-006  0.1046442E+03  0.7561462E-02  0.1270822E+00
          2   -1    0    0  501    0  0.00000000000E+00  0.00000000000E+00  0.18250437712E+03  0.18250437712E+03  0.00000000000E+00 0.  1.
         -2   -1    0    0    0  501 -0.00000000000E+00 -0.00000000000E+00 -0.10417406730E+03  0.10417406730E+03  0.00000000000E+00 0. -1.
         23    2    1    2    0    0 -0.38458835936E+02  0.33432764404E+02 -0.29619064953E+02  0.13827459839E+03  0.12508294749E+03 0.  0.
          5    1    3    3  502    0  0.23242890400E+02 -0.22651432307E+02 -0.42671273745E+02  0.53773872306E+02  0.41800000000E+01 0. -1.
         -5    1    3    3    0  502 -0.61701726336E+02  0.56084196712E+02  0.13052208791E+02  0.84500726080E+02  0.41800000000E+01 0. -1.
        -11    1    1    2    0    0 -0.31669182828E+01 -0.48654265318E+02  0.86199104161E+02  0.99033087719E+02  0.00000000000E+00 0.  1.
         11    1    1    2    0    0  0.41625754219E+02  0.15221500914E+02  0.21750270614E+02  0.49370758310E+02  0.00000000000E+00 0. -1.
</event>
<event>
 7    1  0.4394360E-006  0.1041073E+03  0.7561462E-02  0.1271889E+00
         -2   -1    0    0    0  501 -0.00000000000E+00  0.00000000000E+00  0.61532095892E+02  0.61532095892E+02  0.00000000000E+00 0.  1.
          2   -1    0    0  501    0  0.00000000000E+00 -0.00000000000E+00 -0.39078976088E+03  0.39078976088E+03  0.00000000000E+00 0. -1.
         23    2    1    2    0    0  0.10804589875E+02 -0.68192139839E+02 -0.51024572104E+02  0.15168585029E+03  0.12505272136E+03 0.  0.
          5    1    3    3  502    0  0.10197941715E+02 -0.85670385750E+02  0.11030700982E+02  0.87077906348E+02  0.41800000000E+01 0. -1.
         -5    1    3    3    0  502  0.60664816035E+00  0.17478245910E+02 -0.62055273086E+02  0.64607943938E+02  0.41800000000E+01 0. -1.
        -11    1    1    2    0    0 -0.35004937324E+02  0.39736436249E+01 -0.16085756292E+03  0.16467024937E+03  0.00000000000E+00 0.  1.
         11    1    1    2    0    0  0.24200347449E+02  0.64218496215E+02 -0.11737552997E+03  0.13596575711E+03  0.00000000000E+00 0. -1.
</event>
<event>
 7    1  0.4394360E-006  0.1443694E+03  0.7561462E-02  0.1207568E+00
          2   -1    0    0  501    0  0.00000000000E+00  0.00000000000E+00  0.76511594881E+02  0.76511594881E+02  0.00000000000E+00 0.  1.
         -2   -1    0    0    0  501 -0.00000000000E+00 -0.00000000000E+00 -0.29697201355E+03  0.29697201355E+03  0.00000000000E+00 0. -1.
         23    2    1    2    0    0  0.97865405122E+01  0.98039709319E+02 -0.16464796821E+03  0.22905313384E+03  0.12509525854E+03 0.  0.
          5    1    3    3  502    0  0.66033763562E+02  0.54739628108E+02 -0.10897939117E+03  0.13874748616E+03  0.41800000000E+01 0. -1.
         -5    1    3    3    0  502 -0.56247223050E+02  0.43300081211E+02 -0.55668577034E+02  0.90305647679E+02  0.41800000000E+01 0. -1.
        -11    1    1    2    0    0 -0.42832114009E+02 -0.20529803343E+02 -0.30511238250E+02  0.56453507201E+02  0.00000000000E+00 0. -1.
         11    1    1    2    0    0  0.33045573496E+02 -0.77509905976E+02 -0.25301212214E+02  0.87976967392E+02  0.00000000000E+00 0.  1.
</event>
<event>
 7    1  0.4394360E-006  0.9674695E+02  0.7561462E-02  0.1287289E+00
          3   -1    0    0  501    0  0.00000000000E+00  0.00000000000E+00  0.58569219073E+02  0.58569219073E+02  0.00000000000E+00 0. -1.
         -3   -1    0    0    0  501 -0.00000000000E+00 -0.00000000000E+00 -0.22673435915E+03  0.22673435915E+03  0.00000000000E+00 0.  1.
         23    2    1    2    0    0 -0.25816536209E+02  0.35688097720E+02 -0.11531564301E+03  0.17574259243E+03  0.12509047690E+03 0.  0.
          5    1    3    3  502    0  0.32240053996E+02  0.10827521875E+02  0.97048017354E+01  0.35613366709E+02  0.41800000000E+01 0.  1.
         -5    1    3    3    0  502 -0.58056590205E+02  0.24860575846E+02 -0.12502044474E+03  0.14012922572E+03  0.41800000000E+01 0.  1.
        -11    1    1    2    0    0 -0.18967481757E+02 -0.46192606692E+02 -0.29025442866E+02  0.57758104287E+02  0.00000000000E+00 0.  1.
         11    1    1    2    0    0  0.44784017966E+02  0.10504508972E+02 -0.23824054209E+02  0.51802881511E+02  0.00000000000E+00 0. -1.
</event>
<event>
 7    1  0.4394360E-006  0.1199468E+03  0.7561462E-02  0.1243185E+00
          2   -1    0    0  501    0  0.00000000000E+00  0.00000000000E+00  0.34034458636E+03  0.34034458636E+03  0.00000000000E+00 0.  1.
         -2   -1    0    0    0  501 -0.00000000000E+00 -0.00000000000E+00 -0.62855644518E+02  0.62855644518E+02  0.00000000000E+00 0. -1.
         23    2    1    2    0    0 -0.90226627731E+02  0.32602423586E+02  0.15274789592E+03  0.21951043055E+03  0.12509655087E+03 0.  0.
          5    1    3    3  502    0 -0.92263593047E+02  0.23488833321E+02  0.17260893116E+03  0.19716899201E+03  0.41800000000E+01 0. -1.
         -5    1    3    3    0  502  0.20369653160E+01  0.91135902651E+01 -0.19861035245E+02  0.22341438544E+02  0.41800000000E+01 0. -1.
        -11    1    1    2    0    0  0.80811465559E+02 -0.63047555051E+02  0.10148771783E+03  0.14424023029E+03  0.00000000000E+00 0.  1.
         11    1    1    2    0    0  0.94151621720E+01  0.30445131465E+02  0.23253328101E+02  0.39449570041E+02  0.00000000000E+00 0. -1.
</event>
<event>
 7    1  0.4394360E-006  0.1198362E+03  0.7561462E-02  0.1243368E+00
          2   -1    0    0  501    0  0.00000000000E+00  0.00000000000E+00  0.61837210076E+03  0.61837210076E+03  0.00000000000E+00 0. -1.
         -2   -1    0    0    0  501 -0.00000000000E+00 -0.00000000000E+00 -0.24721324336E+02  0.24721324336E+02  0.00000000000E+00 0.  1.
         23    2    1    2    0    0  0.53195115767E+02  0.14539220716E+02  0.29620031951E+03  0.32622591609E+03  0.12509040639E+03 0.  0.
          5    1    3    3  502    0  0.23524529877E+02  0.67762797865E+02  0.19740546437E+03  0.21007520093E+03  0.41800000000E+01 0. -1.
         -5    1    3    3    0  502  0.29670585890E+02 -0.53223577149E+02  0.98794855139E+02  0.11615071517E+03  0.41800000000E+01 0. -1.
        -11    1    1    2    0    0 -0.79321017207E+02 -0.74409677906E+01  0.24811334027E+03  0.26059052438E+03  0.00000000000E+00 0.  1.
         11    1    1    2    0    0  0.26125901440E+02 -0.70982529255E+01  0.49337116641E+02  0.56276984630E+02  0.00000000000E+00 0. -1.
</event>
<event>
 7    1  0.4394360E-006  0.1636101E+03  0.7561462E-02  0.1184680E+00
          2   -1    0    0  501    0  0.00000000000E+00  0.00000000000E+00  0.64553826462E+03  0.64553826462E+03  0.00000000000E+00 0. -1.
         -2   -1    0    0    0  501 -0.00000000000E+00 -0.00000000000E+00 -0.48022354641E+02  0.48022354641E+02  0.00000000000E+00 0.  1.
         23    2    1    2    0    0  0.13659328827E+03  0.19657157786E+02  0.32401760775E+03  0.37373535117E+03  0.12508625955E+03 0.  0.
          5    1    3    3  502    0  0.13548991567E+03  0.41793474874E+02  0.32104399161E+03  0.35098565319E+03  0.41800000000E+01 0.  1.
         -5    1    3    3    0  502  0.11033725954E+01 -0.22136317088E+02  0.29736161345E+01  0.22749697980E+02  0.41800000000E+01 0.  1.
        -11    1    1    2    0    0 -0.43644358505E+02 -0.48737393283E+02  0.14045539786E+03  0.15494477185E+03  0.00000000000E+00 0.  1.
         11    1    1    2    0    0 -0.92948929763E+02  0.29080235497E+02  0.13304290436E+03  0.16488049624E+03  0.00000000000E+00 0. -1.
</event>
<event>
 7    1  0.4394360E-006  0.1166930E+03  0.7561462E-02  0.1248654E+00
         -2   -1    0    0    0  501 -0.00000000000E+00  0.00000000000E+00  0.14583747814E+03  0.14583747814E+03  0.00000000000E+00 0.  1.
          2   -1    0    0  501    0  0.00000000000E+00 -0.00000000000E+00 -0.15136842748E+03  0.15136842748E+03  0.00000000000E+00 0. -1.
         23    2    1    2    0    0 -0.80524877010E+02 -0.48005535920E+02  0.36559182242E+02  0.16053748751E+03  0.12508766443E+03 0.  0.
          5    1    3    3  502    0 -0.10126289281E+03 -0.18143954738E+02  0.57950158862E+02  0.11814850768E+03  0.41800000000E+01 0.  1.
         -5    1    3    3    0  502  0.20738015805E+02 -0.29861581182E+02 -0.21390976620E+02  0.42388979829E+02  0.41800000000E+01 0.  1.
        -11    1    1    2    0    0  0.13013023492E+02  0.61209012536E+01  0.27511819257E+02  0.31043588894E+02  0.00000000000E+00 0.  1.
         11    1    1    2    0    0  0.67511853518E+02  0.41884634666E+02 -0.69601950844E+02  0.10562482922E+03  0.00000000000E+00 0. -1.
</event>
<event>
 7    1  0.4394360E-006  0.1005350E+03  0.7561462E-02  0.1279175E+00
         -4   -1    0    0    0  501 -0.00000000000E+00  0.00000000000E+00  0.13788608370E+03  0.13788608370E+03  0.00000000000E+00 0.  1.
          4   -1    0    0  501    0  0.00000000000E+00 -0.00000000000E+00 -0.10935796008E+03  0.10935796008E+03  0.00000000000E+00 0. -1.
         23    2    1    2    0    0 -0.10862636322E+02  0.97285840217E+01  0.70865635935E+02  0.14452169230E+03  0.12510770949E+03 0.  0.
          5    1    3    3  502    0 -0.49553316603E+02  0.49438477624E+02  0.43870582270E+02  0.82715141569E+02  0.41800000000E+01 0. -1.
         -5    1    3    3    0  502  0.38690680282E+02 -0.39709893602E+02  0.26995053665E+02  0.61806550728E+02  0.41800000000E+01 0. -1.
        -11    1    1    2    0    0 -0.17671092340E+02 -0.33719114517E+02 -0.51777948668E+02  0.64266648867E+02  0.00000000000E+00 0.  1.
         11    1    1    2    0    0  0.28533728662E+02  0.23990530496E+02  0.94404363557E+01  0.38455702612E+02  0.00000000000E+00 0. -1.
</event>
<event>
 6    1  0.4394360E-006  0.8153102E+02  0.7561462E-02  0.1324762E+00
         -2   -1    0    0    0  501 -0.00000000000E+00  0.00000000000E+00  0.40572641495E+02  0.40572641495E+02  0.00000000000E+00 0.  1.
          2   -1    0    0  501    0  0.00000000000E+00 -0.00000000000E+00 -0.19866103159E+03  0.19866103159E+03  0.00000000000E+00 0. -1.
          5    1    1    2  502    0 -0.50096643904E+02  0.39714674563E+02 -0.96495259355E+02  0.11582632077E+03  0.41800000000E+01 0. -1.
         -5    1    1    2    0  502  0.50660782077E+02 -0.21977228138E+02 -0.11176411843E+02  0.56496884684E+02  0.41800000000E+01 0.  1.
        -11    1    1    2    0    0  0.80535738246E+01  0.10989378010E+02 -0.19952242584E+02  0.24160266234E+02  0.00000000000E+00 0.  1.
         11    1    1    2    0    0 -0.86177119975E+01 -0.28726824435E+02 -0.30464476317E+02  0.42750201396E+02  0.00000000000E+00 0. -1.
</event>
<event>
 7    1  0.4394360E-006  0.1046715E+03  0.7561462E-02  0.1270768E+00
         -1   -1    0    0    0  501 -0.00000000000E+00  0.00000000000E+00  0.80620689894E+02  0.80620689894E+02  0.00000000000E+00 0.  1.
          1   -1    0    0  501    0  0.00000000000E+00 -0.00000000000E+00 -0.25523068561E+03  0.25523068561E+03  0.00000000000E+00 0. -1.
         23    2    1    2    0    0  0.73672063456E+02  0.47762027507E+02 -0.59276952821E+02  0.16392119363E+03  0.12509043281E+03 0.  0.
          5    1    3    3  502    0  0.56849246491E+01  0.13556718093E+02 -0.82763800133E+02  0.84163067827E+02  0.41800000000E+01 0. -1.
         -5    1    3    3    0  502  0.67987138807E+02  0.34205309414E+02  0.23486847311E+02  0.79758125805E+02  0.41800000000E+01 0. -1.
        -11    1    1    2    0    0 -0.27082297337E+02 -0.63199334692E+02 -0.33445829770E+02  0.76460645194E+02  0.00000000000E+00 0.  1.
         11    1    1    2    0    0 -0.46589766119E+02  0.15437307185E+02 -0.81887213127E+02  0.95469536680E+02  0.00000000000E+00 0. -1.
</event>
<event>
 7    1  0.4394360E-006  0.1866074E+03  0.7561462E-02  0.1161557E+00
          4   -1    0    0  501    0  0.00000000000E+00  0.00000000000E+00  0.12078107913E+03  0.12078107913E+03  0.00000000000E+00 0. -1.
         -4   -1    0    0    0  501 -0.00000000000E+00 -0.00000000000E+00 -0.37488837382E+03  0.37488837382E+03  0.00000000000E+00 0.  1.
         23    2    1    2    0    0 -0.16253154989E+03  0.67672408250E+02 -0.19239619427E+03  0.28924071923E+03  0.12509132083E+03 0.  0.
          5    1    3    3  502    0 -0.81031802361E+02  0.33676508252E+02 -0.17957342375E+03  0.19991084793E+03  0.41800000000E+01 0.  1.
         -5    1    3    3    0  502 -0.81499747527E+02  0.33995899998E+02 -0.12822770519E+02  0.89329871305E+02  0.41800000000E+01 0.  1.
        -11    1    1    2    0    0 -0.29499142077E+01 -0.26192862999E+02 -0.94793798119E+01  0.28011188971E+02  0.00000000000E+00 0.  1.
         11    1    1    2    0    0  0.16548146409E+03 -0.41479545251E+02 -0.52231720608E+02  0.17841754474E+03  0.00000000000E+00 0. -1.
</event>
<event>
 7    1  0.4394360E-006  0.1230069E+03  0.7561462E-02  0.1238217E+00
          2   -1    0    0  501    0  0.00000000000E+00  0.00000000000E+00  0.11422426171E+03  0.11422426171E+03  0.00000000000E+00 0.  1.
         -2   -1    0    0    0  501 -0.00000000000E+00 -0.00000000000E+00 -0.16662145803E+03  0.16662145803E+03  0.00000000000E+00 0. -1.
         23    2    1    2    0    0 -0.54471245018E+02 -0.45111833958E+02 -0.82629595523E+02  0.16576474472E+03  0.12509239161E+03 0.  0.
          5    1    3    3  502    0 -0.57984242263E+02  0.27991716142E+02 -0.15485138475E+02  0.66354882540E+02  0.41800000000E+01 0. -1.
         -5    1    3    3    0  502  0.35129972445E+01 -0.73103550100E+02 -0.67144457049E+02  0.99409862183E+02  0.41800000000E+01 0. -1.
        -11    1    1    2    0    0  0.63659607134E+02  0.15656553095E+01  0.48898526766E+01  0.63866325370E+02  0.00000000000E+00 0. -1.
         11    1    1    2    0    0 -0.91883621160E+01  0.43546178649E+02  0.25342546526E+02  0.51214649640E+02  0.00000000000E+00 0.  1.
</event>
<event>
 7    1  0.4394360E-006  0.1073283E+03  0.7561462E-02  0.1265599E+00
         -3   -1    0    0    0  501 -0.00000000000E+00  0.00000000000E+00  0.18763197984E+03  0.18763197984E+03  0.00000000000E+00 0.  1.
          3   -1    0    0  501    0  0.00000000000E+00 -0.00000000000E+00 -0.69061761154E+02  0.69061761154E+02  0.00000000000E+00 0. -1.
         23    2    1    2    0    0  0.15672874829E+02 -0.18065309180E+02  0.96302878981E+02  0.15966949197E+03  0.12509239691E+03 0.  0.
          5    1    3    3  502    0  0.68678900455E+02 -0.69929404380E+01  0.34155785860E+02  0.77134834487E+02  0.41800000000E+01 0. -1.
         -5    1    3    3    0  502 -0.53006025626E+02 -0.11072368742E+02  0.62147093121E+02  0.82534657481E+02  0.41800000000E+01 0. -1.
        -11    1    1    2    0    0  0.13472958585E+02  0.47731694838E+02 -0.52589118669E+00  0.49599514782E+02  0.00000000000E+00 0. -1.
         11    1    1    2    0    0 -0.29145833414E+02 -0.29666385658E+02  0.22793230888E+02  0.47424734239E+02  0.00000000000E+00 0.  1.
</event>
<event>
 6    1  0.4394360E-006  0.1762487E+03  0.7561462E-02  0.1171484E+00
          2   -1    0    0  501    0  0.00000000000E+00  0.00000000000E+00  0.45987824240E+03  0.45987824240E+03  0.00000000000E+00 0. -1.
         -2   -1    0    0    0  501 -0.00000000000E+00 -0.00000000000E+00 -0.86130985367E+02  0.86130985367E+02  0.00000000000E+00 0.  1.
          5    1    1    2  502    0 -0.22291844021E+02 -0.87679543135E+02  0.79570346414E+02  0.12055513686E+03  0.41800000000E+01 0. -1.
         -5    1    1    2    0  502 -0.45077317096E+01  0.15255229009E+03  0.54725534358E+02  0.16218778427E+03  0.41800000000E+01 0.  1.
        -11    1    1    2    0    0  0.56493371904E+02 -0.52383437952E+02  0.16217960063E+03  0.17954873572E+03  0.00000000000E+00 0. -1.
         11    1    1    2    0    0 -0.29693796173E+02 -0.12489308998E+02  0.77271775632E+02  0.83717570914E+02  0.00000000000E+00 0.  1.
</event>
<event>
 7    1  0.4394360E-006  0.1006122E+03  0.7561462E-02  0.1279014E+00
         -3   -1    0    0    0  501 -0.00000000000E+00  0.00000000000E+00  0.84232103480E+02  0.84232103480E+02  0.00000000000E+00 0.  1.
          3   -1    0    0  501    0  0.00000000000E+00 -0.00000000000E+00 -0.17381597388E+03  0.17381597388E+03  0.00000000000E+00 0. -1.
         23    2    1    2    0    0  0.65468595943E+01 -0.43004500334E+01  0.67546453532E+01  0.12558509283E+03  0.12515843985E+03 0.  0.
          5    1    3    3  502    0 -0.21445528878E+02 -0.53401975976E+02  0.29152311933E+02  0.64645273904E+02  0.41800000000E+01 0. -1.
         -5    1    3    3    0  502  0.27992388473E+02  0.49101525943E+02 -0.22397666580E+02  0.60939818925E+02  0.41800000000E+01 0. -1.
        -11    1    1    2    0    0 -0.41461503703E+02  0.22822308816E+02 -0.32613612035E+02  0.57476619238E+02  0.00000000000E+00 0.  1.
         11    1    1    2    0    0  0.34914644109E+02 -0.18521858783E+02 -0.63724903718E+02  0.74986365293E+02  0.00000000000E+00 0. -1.
</event>
<event>
 7    1  0.4394360E-006  0.9375611E+02  0.7561462E-02  0.1294002E+00
         -2   -1    0    0    0  501 -0.00000000000E+00  0.00000000000E+00  0.69475296764E+02  0.69475296764E+02  0.00000000000E+00 0.  1.
          2   -1    0    0  501    0  0.00000000000E+00 -0.00000000000E+00 -0.31852771241E+03  0.31852771241E+03  0.00000000000E+00 0. -1.
         23    2    1    2    0    0  0.37523998885E+02 -0.59348363947E+02 -0.40413718593E+02  0.14903420312E+03  0.12509055221E+03 0.  0.
          5    1    3    3  502    0  0.72514122180E+01 -0.53532355103E+02  0.36995434117E+02  0.65608159306E+02  0.41800000000E+01 0.  1.
         -5    1    3    3    0  502  0.30272586667E+02 -0.58160088437E+01 -0.77409152710E+02  0.83426043809E+02  0.41800000000E+01 0.  1.
        -11    1    1    2    0    0 -0.19712867630E+02 -0.15629331833E+02 -0.11488520368E+03  0.11760732625E+03  0.00000000000E+00 0. -1.
         11    1    1    2    0    0 -0.17811131256E+02  0.74977695779E+02 -0.93753493377E+02  0.12136147981E+03  0.00000000000E+00 0.  1.
</event>
<event>
 7    1  0.4394360E-006  0.1737716E+03  0.7561462E-02  0.1173971E+00
         -2   -1    0    0    0  501 -0.00000000000E+00  0.00000000000E+00  0.71602871787E+02  0.71602871787E+02  0.00000000000E+00 0. -1.
          2   -1    0    0  501    0  0.00000000000E+00 -0.00000000000E+00 -0.58866776737E+03  0.58866776737E+03  0.00000000000E+00 0.  1.
         23    2    1    2    0    0  0.12574697283E+03 -0.89801546962E+02 -0.15310990338E+03  0.25093176227E+03  0.12508991882E+03 0.  0.
          5    1    3    3  502    0 -0.15861856489E+01 -0.55716028949E+02 -0.86996912930E+02  0.10340564359E+03  0.41800000000E+01 0. -1.
         -5    1    3    3    0  502  0.12733315848E+03 -0.34085518013E+02 -0.66112990453E+02  0.14752611868E+03  0.41800000000E+01 0. -1.
        -11    1    1    2    0    0 -0.38734074008E+02  0.52136793709E+02 -0.26274791431E+03  0.27065668331E+03  0.00000000000E+00 0.  1.
         11    1    1    2    0    0 -0.87012898823E+02  0.37664753253E+02 -0.10120707789E+03  0.13868219357E+03  0.00000000000E+00 0. -1.
</event>
<event>
 7    1  0.4394360E-006  0.1424683E+03  0.7561462E-02  0.1210046E+00
         -1   -1    0    0    0  501 -0.00000000000E+00  0.00000000000E+00  0.15484263248E+03  0.15484263248E+03  0.00000000000E+00 0.  1.
          1   -1    0    0  501    0  0.00000000000E+00 -0.00000000000E+00 -0.19347181246E+03  0.19347181246E+03  0.00000000000E+00 0. -1.
         23    2    1    2    0    0  0.13275685206E+03 -0.12898109870E+02 -0.42715656673E+02  0.18778401092E+03  0.12508982541E+03 0.  0.
          5    1    3    3  502    0  0.11471828417E+03  0.76116285375E+01  0.22257123478E+02  0.11717966359E+03  0.41800000000E+01 0.  1.
         -5    1    3    3    0  502  0.18038567889E+02 -0.20509738407E+02 -0.64972780151E+02  0.70604347328E+02  0.41800000000E+01 0.  1.
        -11    1    1    2    0    0 -0.26633295655E+02  0.23615143786E+02  0.34546477086E+02  0.49603089950E+02  0.00000000000E+00 0.  1.
         11    1    1    2    0    0 -0.10612355641E+03 -0.10717033916E+02 -0.30460000396E+02  0.11092734408E+03  0.00000000000E+00 0. -1.
</event>
<event>
 7    1  0.4394360E-006  0.1415572E+03  0.7561462E-02  0.1211249E+00
         -1   -1    0    0    0  501 -0.00000000000E+00  0.00000000000E+00  0.40085566319E+03  0.40085566319E+03  0.00000000000E+00 0.  1.
          1   -1    0    0  501    0  0.00000000000E+00 -0.00000000000E+00 -0.63822110713E+02  0.63822110713E+02  0.00000000000E+00 0. -1.
         23    2    1    2    0    0  0.97585861942E+02  0.22773901261E+02  0.26903794592E+03  0.31315623432E+03  0.12507501637E+03 0.  0.
          5    1    3    3  502    0 -0.25545944783E+02  0.26401967864E+02  0.59326520339E+02  0.69905419086E+02  0.41800000000E+01 0.  1.
         -5    1    3    3    0  502  0.12313180672E+03 -0.36280666032E+01  0.20971142558E+03  0.24325081523E+03  0.41800000000E+01 0.  1.
        -11    1    1    2    0    0 -0.55155314787E+02 -0.48344381422E+02  0.70748732737E+02  0.10190520668E+03  0.00000000000E+00 0.  1.
         11    1    1    2    0    0 -0.42430547155E+02  0.25570480161E+02 -0.27531261734E+01  0.49616332908E+02  0.00000000000E+00 0. -1.
</event>
<event>
 7    1  0.4394360E-006  0.3181170E+03  0.7561462E-02  0.1076519E+00
          2   -1    0    0  501    0  0.00000000000E+00  0.00000000000E+00  0.54673584668E+03  0.54673584668E+03  0.00000000000E+00 0. -1.
         -2   -1    0    0    0  501 -0.00000000000E+00 -0.00000000000E+00 -0.18987586310E+03  0.18987586310E+03  0.00000000000E+00 0.  1.
         23    2    1    2    0    0 -0.12434497385E+03  0.27676168714E+03  0.17065208649E+03  0.36990115085E+03  0.12508406288E+03 0.  0.
          5    1    3    3  502    0 -0.14932878908E+03  0.24253917743E+03  0.13972880973E+03  0.31727898214E+03  0.41800000000E+01 0.  1.
         -5    1    3    3    0  502  0.24983815236E+02  0.34222509708E+02  0.30923276757E+02  0.52622168711E+02  0.41800000000E+01 0.  1.
        -11    1    1    2    0    0  0.62168740225E+02 -0.73617353903E+02  0.95646400402E+02  0.13576708352E+03  0.00000000000E+00 0. -1.
         11    1    1    2    0    0  0.62176233621E+02 -0.20314433324E+03  0.90561496696E+02  0.23094347541E+03  0.00000000000E+00 0.  1.
</event>
<event>
 7    1  0.4394360E-006  0.1464897E+03  0.7561462E-02  0.1204854E+00
          1   -1    0    0  501    0  0.00000000000E+00  0.00000000000E+00  0.38123459288E+03  0.38123459288E+03  0.00000000000E+00 0. -1.
         -1   -1    0    0    0  501 -0.00000000000E+00 -0.00000000000E+00 -0.11134443778E+03  0.11134443778E+03  0.00000000000E+00 0.  1.
         23    2    1    2    0    0 -0.41280121405E+02  0.10454257503E+03 -0.20065152399E+02  0.16936643570E+03  0.12509668575E+03 0.  0.
          5    1    3    3  502    0  0.41477163486E+02  0.31704975129E+02  0.13431146935E+02  0.54068740014E+02  0.41800000000E+01 0.  1.
         -5    1    3    3    0  502 -0.82757284891E+02  0.72837599903E+02 -0.33496299334E+02  0.11529769569E+03  0.41800000000E+01 0.  1.
        -11    1    1    2    0    0 -0.11199601185E+02  0.21274669824E+01  0.18565070021E+01  0.11550056307E+02  0.00000000000E+00 0.  1.
         11    1    1    2    0    0  0.52479722589E+02 -0.10667004201E+03  0.28809880050E+03  0.31166253865E+03  0.00000000000E+00 0. -1.
</event>
<event>
 7    1  0.4394360E-006  0.1082828E+03  0.7561462E-02  0.1263783E+00
          1   -1    0    0  501    0  0.00000000000E+00  0.00000000000E+00  0.76256071706E+02  0.76256071706E+02  0.00000000000E+00 0. -1.
         -1   -1    0    0    0  501 -0.00000000000E+00 -0.00000000000E+00 -0.20011133722E+03  0.20011133722E+03  0.00000000000E+00 0.  1.
         23    2    1    2    0    0  0.37632695336E+02 -0.20536266009E+02 -0.11402465434E+03  0.17459690728E+03  0.12507797669E+03 0.  0.
          5    1    3    3  502    0  0.24502878432E+02  0.50893954352E+02 -0.32370891437E+02  0.65237509559E+02  0.41800000000E+01 0.  1.
         -5    1    3    3    0  502  0.13129816904E+02 -0.71430220361E+02 -0.81653762906E+02  0.10935939772E+03  0.41800000000E+01 0.  1.
        -11    1    1    2    0    0 -0.61161810155E+02  0.15942784937E+02 -0.30442327546E+02  0.70154648594E+02  0.00000000000E+00 0.  1.
         11    1    1    2    0    0  0.23529114819E+02  0.45934810718E+01  0.20611716373E+02  0.31615853055E+02  0.00000000000E+00 0. -1.
</event>
<event>
 7    1  0.4394360E-006  0.9516799E+02  0.7561462E-02  0.1290798E+00
          2   -1    0    0  501    0  0.00000000000E+00  0.00000000000E+00  0.14097637664E+03  0.14097637664E+03  0.00000000000E+00 0. -1.
         -2   -1    0    0    0  501 -0.00000000000E+00 -0.00000000000E+00 -0.11615356492E+03  0.11615356492E+03  0.00000000000E+00 0.  1.
         23    2    1    2    0    0  0.36857668987E+02 -0.38792183437E+02 -0.31940290998E+02  0.13975313014E+03  0.12508970355E+03 0.  0.
          5    1    3    3  502    0  0.61916881603E+02  0.23560173517E+02 -0.28778364577E+02  0.72349489779E+02  0.41800000000E+01 0. -1.
         -5    1    3    3    0  502 -0.25059212616E+02 -0.62352356954E+02 -0.31619264217E+01  0.67403640357E+02  0.41800000000E+01 0. -1.
        -11    1    1    2    0    0 -0.23186325829E+01  0.13801757959E+02 -0.23007059046E+02  0.26929339869E+02  0.00000000000E+00 0.  1.
         11    1    1    2    0    0 -0.34539036404E+02  0.24990425479E+02  0.79770161765E+02  0.90447471547E+02  0.00000000000E+00 0. -1.
</event>
<event>
 7    1  0.4394360E-006  0.6018013E+02  0.7561462E-02  0.1397077E+00
         -1   -1    0    0    0  501 -0.00000000000E+00  0.00000000000E+00  0.11219211005E+03  0.11219211005E+03  0.00000000000E+00 0.  1.
          1   -1    0    0  501    0  0.00000000000E+00 -0.00000000000E+00 -0.12082207571E+03  0.12082207571E+03  0.00000000000E+00 0. -1.
         23    2    1    2    0    0 -0.23087095369E+02 -0.33201869758E+01  0.30513634653E+02  0.13085658772E+03  0.12509327334E+03 0.  0.
          5    1    3    3  502    0 -0.32028649515E+02  0.20281253702E+02 -0.40346433261E+02  0.55520002867E+02  0.41800000000E+01 0. -1.
         -5    1    3    3    0  502  0.89415541456E+01 -0.23601440678E+02  0.70860067914E+02  0.75336584853E+02  0.41800000000E+01 0. -1.
        -11    1    1    2    0    0  0.14089655518E+02  0.27466847814E+02  0.20587515853E+02  0.37105146954E+02  0.00000000000E+00 0.  1.
         11    1    1    2    0    0  0.89974398509E+01 -0.24146660838E+02 -0.59731116166E+02  0.65052451083E+02  0.00000000000E+00 0. -1.
</event>
<event>
 7    1  0.4394360E-006  0.1142026E+03  0.7561462E-02  0.1252979E+00
         -2   -1    0    0    0  501 -0.00000000000E+00  0.00000000000E+00  0.31130879929E+02  0.31130879929E+02  0.00000000000E+00 0.  1.
          2   -1    0    0  501    0  0.00000000000E+00 -0.00000000000E+00 -0.46221974717E+03  0.46221974717E+03  0.00000000000E+00 0. -1.
         23    2    1    2    0    0  0.33420138163E+02  0.33408623015E+02 -0.20578831050E+03  0.24541819942E+03  0.12509285407E+03 0.  0.
          5    1    3    3  502    0 -0.40941277099E+02  0.35470668067E+02 -0.12041628280E+03  0.13210567750E+03  0.41800000000E+01 0. -1.
         -5    1    3    3    0  502  0.74361415262E+02 -0.20620450520E+01 -0.85372027702E+02  0.11331252192E+03  0.41800000000E+01 0. -1.
        -11    1    1    2    0    0 -0.63604442704E+02 -0.22127239867E+02 -0.11762853163E+03  0.13554191724E+03  0.00000000000E+00 0.  1.
         11    1    1    2    0    0  0.30184304541E+02 -0.11281383148E+02 -0.10767202511E+03  0.11239051044E+03  0.00000000000E+00 0. -1.
</event>
<event>
 7    1  0.4394360E-006  0.1036907E+03  0.7561462E-02  0.1272721E+00
          2   -1    0    0  501    0  0.00000000000E+00  0.00000000000E+00  0.57872556455E+03  0.57872556455E+03  0.00000000000E+00 0.  1.
         -2   -1    0    0    0  501 -0.00000000000E+00 -0.00000000000E+00 -0.22420604026E+02  0.22420604026E+02  0.00000000000E+00 0. -1.
         23    2    1    2    0    0  0.32337980100E+02  0.12880034008E+02  0.30665596069E+03  0.33301463502E+03  0.12509687718E+03 0.  0.
          5    1    3    3  502    0  0.66851419351E+01 -0.52920458208E+02  0.85913817859E+02  0.10121226467E+03  0.41800000000E+01 0. -1.
         -5    1    3    3    0  502  0.25652838165E+02  0.65800492216E+02  0.22074214283E+03  0.23180237036E+03  0.41800000000E+01 0. -1.
        -11    1    1    2    0    0  0.14939509033E+02 -0.29457598012E+02  0.36725431184E+02  0.49393281997E+02  0.00000000000E+00 0. -1.
         11    1    1    2    0    0 -0.47277489132E+02  0.16577564003E+02  0.21292356866E+03  0.21873825156E+03  0.00000000000E+00 0.  1.
</event>
<event>
 6    1  0.4394360E-006  0.1075062E+03  0.7561462E-02  0.1265259E+00
          1   -1    0    0  501    0  0.00000000000E+00  0.00000000000E+00  0.46991181840E+03  0.46991181840E+03  0.00000000000E+00 0. -1.
         -1   -1    0    0    0  501 -0.00000000000E+00 -0.00000000000E+00 -0.31625734059E+02  0.31625734059E+02  0.00000000000E+00 0.  1.
          5    1    1    2  502    0 -0.40947089011E+02 -0.32244140971E+02  0.88216073236E+02  0.10254704629E+03  0.41800000000E+01 0. -1.
         -5    1    1    2    0  502  0.65466122735E+02  0.39967417585E+02  0.75968317708E+02  0.10803640770E+03  0.41800000000E+01 0.  1.
        -11    1    1    2    0    0  0.11754275028E+02 -0.37299488964E+02  0.19631677240E+03  0.20017414914E+03  0.00000000000E+00 0. -1.
         11    1    1    2    0    0 -0.36273308752E+02  0.29576212349E+02  0.77784920997E+02  0.90779949324E+02  0.00000000000E+00 0.  1.
</event>
<event>
 7    1  0.4394360E-006  0.2332794E+03  0.7561462E-02  0.1124353E+00
          1   -1    0    0  501    0  0.00000000000E+00  0.00000000000E+00  0.68524652093E+02  0.68524652093E+02  0.00000000000E+00 0. -1.
         -1   -1    0    0    0  501 -0.00000000000E+00 -0.00000000000E+00 -0.87109208900E+03  0.87109208900E+03  0.00000000000E+00 0.  1.
         23    2    1    2    0    0 -0.44905903399E+02  0.21186666790E+03 -0.50171232822E+03  0.56057690705E+03  0.12500873286E+03 0.  0.
          5    1    3    3  502    0  0.42282098586E+02  0.94680303410E+02 -0.19843351809E+03  0.22393184056E+03  0.41800000000E+01 0.  1.
         -5    1    3    3    0  502 -0.87188001985E+02  0.11718636449E+03 -0.30327881014E+03  0.33664506649E+03  0.41800000000E+01 0.  1.
        -11    1    1    2    0    0  0.36831457381E+02 -0.16127412894E+03 -0.27674245317E+03  0.32241632450E+03  0.00000000000E+00 0.  1.
         11    1    1    2    0    0  0.80744460181E+01 -0.50592538961E+02 -0.24112655507E+02  0.56623509540E+02  0.00000000000E+00 0. -1.
</event>
<event>
 7    1  0.4394360E-006  0.1201553E+03  0.7561462E-02  0.1242841E+00
         -2   -1    0    0    0  501 -0.00000000000E+00  0.00000000000E+00  0.12760481228E+03  0.12760481228E+03  0.00000000000E+00 0.  1.
          2   -1    0    0  501    0  0.00000000000E+00 -0.00000000000E+00 -0.12462822086E+03  0.12462822086E+03  0.00000000000E+00 0. -1.
         23    2    1    2    0    0  0.51236663391E+02  0.39292908821E+02  0.18050876423E+02  0.14189588385E+03  0.12505790401E+03 0.  0.
          5    1    3    3  502    0  0.89095745789E+02  0.13171562342E+02 -0.49560993322E+01  0.90297161045E+02  0.41800000000E+01 0.  1.
         -5    1    3    3    0  502 -0.37859082398E+02  0.26121346480E+02  0.23006975755E+02  0.51598722807E+02  0.41800000000E+01 0.  1.
        -11    1    1    2    0    0 -0.54323964344E+02 -0.61204630898E+02 -0.25718611385E+02  0.85781973147E+02  0.00000000000E+00 0.  1.
         11    1    1    2    0    0  0.30873009528E+01  0.21911722077E+02  0.10644326381E+02  0.24555176148E+02  0.00000000000E+00 0. -1.
</event>
<event>
 7    1  0.4394360E-006  0.1072377E+03  0.7561462E-02  0.1265772E+00
         -1   -1    0    0    0  501 -0.00000000000E+00  0.00000000000E+00  0.84489092603E+02  0.84489092603E+02  0.00000000000E+00 0.  1.
          1   -1    0    0  501    0  0.00000000000E+00 -0.00000000000E+00 -0.16151235038E+03  0.16151235038E+03  0.00000000000E+00 0. -1.
         23    2    1    2    0    0  0.19008231629E+02 -0.16899409526E+02 -0.28315565163E+01  0.12768288942E+03  0.12509196468E+03 0.  0.
          5    1    3    3  502    0  0.43474663343E+02  0.42293873157E+02  0.11600048285E+02  0.61893873523E+02  0.41800000000E+01 0.  1.
         -5    1    3    3    0  502 -0.24466431714E+02 -0.59193282683E+02 -0.14431604801E+02  0.65789015897E+02  0.41800000000E+01 0.  1.
        -11    1    1    2    0    0  0.20049460766E+02 -0.25108811089E+02 -0.40847784531E+02  0.51970903133E+02  0.00000000000E+00 0.  1.
         11    1    1    2    0    0 -0.39057692395E+02  0.42008220615E+02 -0.33343916728E+02  0.66347650427E+02  0.00000000000E+00 0. -1.
</event>
<event>
 7    1  0.4394360E-006  0.9768910E+02  0.7561462E-02  0.1285232E+00
          1   -1    0    0  501    0  0.00000000000E+00  0.00000000000E+00  0.29148452336E+03  0.29148452336E+03  0.00000000000E+00 0. -1.
         -1   -1    0    0    0  501 -0.00000000000E+00 -0.00000000000E+00 -0.60938491610E+02  0.60938491610E+02  0.00000000000E+00 0.  1.
         23    2    1    2    0    0 -0.58310754873E+02  0.50241117607E+02  0.12141699262E+03  0.19057332690E+03  0.12510712528E+03 0.  0.
          5    1    3    3  502    0 -0.26760828545E+02 -0.78755348505E+01 -0.19881948829E+02  0.34509857763E+02  0.41800000000E+01 0.  1.
         -5    1    3    3    0  502 -0.31549926328E+02  0.58116652457E+02  0.14129894145E+03  0.15606346914E+03  0.41800000000E+01 0.  1.
        -11    1    1    2    0    0  0.68475284155E+02 -0.23651750255E+02  0.31187983923E+02  0.78873063662E+02  0.00000000000E+00 0.  1.
         11    1    1    2    0    0 -0.10164529282E+02 -0.26589367351E+02  0.77941055198E+02  0.82976624401E+02  0.00000000000E+00 0. -1.
</event>
<event>
 7    1  0.4394360E-006  0.1193497E+03  0.7561462E-02  0.1244174E+00
          2   -1    0    0  501    0  0.00000000000E+00  0.00000000000E+00  0.18447792082E+03  0.18447792082E+03  0.00000000000E+00 0.  1.
         -2   -1    0    0    0  501 -0.00000000000E+00 -0.00000000000E+00 -0.10517743389E+03  0.10517743389E+03  0.00000000000E+00 0. -1.
         23    2    1    2    0    0  0.64074986281E+02 -0.46277776472E+02  0.47489790868E+01  0.14803965706E+03  0.12508377512E+03 0.  0.
          5    1    3    3  502    0  0.42873925439E+02 -0.87799317538E+02  0.17893400635E+02  0.99421023073E+02  0.41800000000E+01 0. -1.
         -5    1    3    3    0  502  0.21201060842E+02  0.41521541066E+02 -0.13144421548E+02  0.48618633991E+02  0.41800000000E+01 0. -1.
        -11    1    1    2    0    0 -0.72851817305E+02  0.38671166544E+02  0.18704361416E+02  0.84573633850E+02  0.00000000000E+00 0. -1.
         11    1    1    2    0    0  0.87768310242E+01  0.76066099277E+01  0.55847146433E+02  0.57042063797E+02  0.00000000000E+00 0.  1.
</event>
<event>
 7    1  0.4394360E-006  0.1590895E+03  0.7561462E-02  0.1189729E+00
         -1   -1    0    0    0  501 -0.00000000000E+00  0.00000000000E+00  0.23041172039E+03  0.23041172039E+03  0.00000000000E+00 0.  1.
          1   -1    0    0  501    0  0.00000000000E+00 -0.00000000000E+00 -0.13399176150E+03  0.13399176150E+03  0.00000000000E+00 0. -1.
         23    2    1    2    0    0 -0.34425632901E+02  0.70134452101E+02  0.59468799249E+02  0.15902161848E+03  0.12508945395E+03 0.  0.
          5    1    3    3  502    0 -0.49028934791E+02  0.10117498672E+03  0.40319980842E+02  0.11951312748E+03  0.41800000000E+01 0.  1.
         -5    1    3    3    0  502  0.14603301891E+02 -0.31040534615E+02  0.19148818406E+02  0.39508491007E+02  0.41800000000E+01 0.  1.
        -11    1    1    2    0    0 -0.42613223851E+02  0.24447653457E+02 -0.38087797266E+02  0.62163131413E+02  0.00000000000E+00 0. -1.
         11    1    1    2    0    0  0.77038856751E+02 -0.94582105559E+02  0.75038956898E+02  0.14321873199E+03  0.00000000000E+00 0.  1.
</event>
<event>
 7    1  0.4394360E-006  0.1045335E+03  0.7561462E-02  0.1271042E+00
         -1   -1    0    0    0  501 -0.00000000000E+00  0.00000000000E+00  0.11240042203E+03  0.11240042203E+03  0.00000000000E+00 0.  1.
          1   -1    0    0  501    0  0.00000000000E+00 -0.00000000000E+00 -0.13074368487E+03  0.13074368487E+03  0.00000000000E+00 0. -1.
         23    2    1    2    0    0 -0.82880002915E+01  0.55951697805E+01  0.44117572745E+02  0.13301302899E+03  0.12508440663E+03 0.  0.
          5    1    3    3  502    0 -0.57957509540E+02  0.32036025966E+02  0.10073629787E+02  0.67114307631E+02  0.41800000000E+01 0.  1.
         -5    1    3    3    0  502  0.49669509248E+02 -0.26440856185E+02  0.34043942958E+02  0.65898721360E+02  0.41800000000E+01 0.  1.
        -11    1    1    2    0    0 -0.29481163766E+02  0.24232480544E+02 -0.44837040983E+02  0.58878793928E+02  0.00000000000E+00 0. -1.
         11    1    1    2    0    0  0.37769164058E+02 -0.29827650324E+02 -0.17623794597E+02  0.51252283983E+02  0.00000000000E+00 0.  1.
</event>
<event>
 6    1  0.4394360E-006  0.1244345E+03  0.7561462E-02  0.1235956E+00
         -2   -1    0    0    0  501 -0.00000000000E+00  0.00000000000E+00  0.18467209575E+02  0.18467209575E+02  0.00000000000E+00 0.  1.
          2   -1    0    0  501    0  0.00000000000E+00 -0.00000000000E+00 -0.95325766117E+03  0.95325766117E+03  0.00000000000E+00 0. -1.
          5    1    1    2  502    0  0.36597809087E+02 -0.88594949005E+02 -0.22901726024E+03  0.24830393172E+03  0.41800000000E+01 0. -1.
         -5    1    1    2    0  502 -0.29296753437E+02  0.38923707338E+02 -0.14521301132E+03  0.15322416850E+03  0.41800000000E+01 0.  1.
        -11    1    1    2    0    0  0.39595966736E+02  0.39718281831E+02 -0.27842477220E+03  0.28401714080E+03  0.00000000000E+00 0.  1.
         11    1    1    2    0    0 -0.46897022386E+02  0.99529598361E+01 -0.28213540784E+03  0.28617962973E+03  0.00000000000E+00 0. -1.
</event>
<event>
 7    1  0.4394360E-006  0.1451672E+03  0.7561462E-02  0.1206540E+00
          2   -1    0    0  501    0  0.00000000000E+00  0.00000000000E+00  0.16388112419E+03  0.16388112419E+03  0.00000000000E+00 0. -1.
         -2   -1    0    0    0  501 -0.00000000000E+00 -0.00000000000E+00 -0.17003116934E+03  0.17003116934E+03  0.00000000000E+00 0.  1.
         23    2    1    2    0    0  0.51357467997E+00 -0.96354694024E+02 -0.84843664336E+02  0.17924931624E+03  0.12508948467E+03 0.  0.
          5    1    3    3  502    0  0.58803919701E+02 -0.74896447695E+02 -0.56937495764E+02  0.11102580634E+03  0.41800000000E+01 0.  1.
         -5    1    3    3    0  502 -0.58290345021E+02 -0.21458246329E+02 -0.27906168572E+02  0.68223509896E+02  0.41800000000E+01 0.  1.
        -11    1    1    2    0    0 -0.29900419414E+02  0.98849145009E+02  0.56218320311E+02  0.11758268618E+03  0.00000000000E+00 0. -1.
         11    1    1    2    0    0  0.29386844734E+02 -0.24944509850E+01  0.22475298878E+02  0.37080291110E+02  0.00000000000E+00 0.  1.
</event>
<event>
 7    1  0.4394360E-006  0.1150147E+03  0.7561462E-02  0.1251555E+00
          1   -1    0    0  501    0  0.00000000000E+00  0.00000000000E+00  0.10831679613E+03  0.10831679613E+03  0.00000000000E+00 0. -1.
         -1   -1    0    0    0  501 -0.00000000000E+00 -0.00000000000E+00 -0.14927320095E+03  0.14927320095E+03  0.00000000000E+00 0.  1.
         23    2    1    2    0    0  0.37174597046E+02 -0.17401930613E+02 -0.73869392360E+02  0.15095895246E+03  0.12508853003E+03 0.  0.
          5    1    3    3  502    0  0.71935559420E+02 -0.45028965629E+02 -0.60809565068E+02  0.10448735837E+03  0.41800000000E+01 0. -1.
         -5    1    3    3    0  502 -0.34760962373E+02  0.27627035016E+02 -0.13059827292E+02  0.46471594096E+02  0.41800000000E+01 0. -1.
        -11    1    1    2    0    0 -0.20276484103E+02 -0.37710706534E+02  0.68220416483E+01  0.43356354172E+02  0.00000000000E+00 0.  1.
         11    1    1    2    0    0 -0.16898112944E+02  0.55112637147E+02  0.26090945890E+02  0.63274690452E+02  0.00000000000E+00 0. -1.
</event>
<event>
 7    1  0.4394360E-006  0.1553484E+03  0.7561462E-02  0.1194051E+00
         -4   -1    0    0    0  501 -0.00000000000E+00  0.00000000000E+00  0.37786865224E+03  0.37786865224E+03  0.00000000000E+00 0.  1.
          4   -1    0    0  501    0  0.00000000000E+00 -0.00000000000E+00 -0.76908372053E+02  0.76908372053E+02  0.00000000000E+00 0. -1.
         23    2    1    2    0    0 -0.12397868731E+03  0.42698198788E+02  0.19689147759E+03  0.26760012224E+03  0.12509884248E+03 0.  0.
          5    1    3    3  502    0 -0.83074572995E+01 -0.37249455097E+02  0.60558744486E+02  0.71703345010E+02  0.41800000000E+01 0.  1.
         -5    1    3    3    0  502 -0.11567123001E+03  0.79947653885E+02  0.13633273310E+03  0.19589677723E+03  0.41800000000E+01 0.  1.
        -11    1    1    2    0    0  0.70485105001E+02 -0.18215357251E+02  0.10567562667E+03  0.12832492875E+03  0.00000000000E+00 0. -1.
         11    1    1    2    0    0  0.53493582308E+02 -0.24482841537E+02 -0.16068240739E+01  0.58851973302E+02  0.00000000000E+00 0.  1.
</event>
<event>
 7    1  0.4394360E-006  0.1453196E+03  0.7561462E-02  0.1206345E+00
         -2   -1    0    0    0  501 -0.00000000000E+00  0.00000000000E+00  0.72266014719E+02  0.72266014719E+02  0.00000000000E+00 0.  1.
          2   -1    0    0  501    0  0.00000000000E+00 -0.00000000000E+00 -0.44354149901E+03  0.44354149901E+03  0.00000000000E+00 0. -1.
         23    2    1    2    0    0 -0.12545003774E+03  0.59301792401E+02 -0.23605991977E+03  0.30110405312E+03  0.12523957255E+03 0.  0.
          5    1    3    3  502    0 -0.71778466453E+02  0.59681344044E+02 -0.47133158134E+02  0.10465666758E+03  0.41800000000E+01 0. -1.
         -5    1    3    3    0  502 -0.53671571291E+02 -0.37955164361E+00 -0.18892676163E+03  0.19644738554E+03  0.41800000000E+01 0. -1.
        -11    1    1    2    0    0  0.86808523621E+01 -0.17141343837E+02  0.11592404760E+02  0.22440292208E+02  0.00000000000E+00 0.  1.
         11    1    1    2    0    0  0.11676918538E+03 -0.42160448564E+02 -0.14680796928E+03  0.19226316840E+03  0.00000000000E+00 0. -1.
</event>
<event>
 7    1  0.4394360E-006  0.1056940E+03  0.7561462E-02  0.1268758E+00
         -1   -1    0    0    0  501 -0.00000000000E+00  0.00000000000E+00  0.57061578072E+02  0.57061578072E+02  0.00000000000E+00 0.  1.
          1   -1    0    0  501    0  0.00000000000E+00 -0.00000000000E+00 -0.44618115646E+03  0.44618115646E+03  0.00000000000E+00 0. -1.
         23    2    1    2    0    0 -0.34688819338E+02 -0.25395629745E+01 -0.15860161147E+02  0.11724380619E+03  0.11083682516E+03 0.  0.
          5    1    3    3  502    0  0.36648526979E+02 -0.16835233730E+02  0.63907394978E+01  0.41046967925E+02  0.41800000000E+01 0. -1.
         -5    1    3    3    0  502 -0.71337346317E+02  0.14295670756E+02 -0.22250900645E+02  0.76196838264E+02  0.41800000000E+01 0.  1.
        -11    1    1    2    0    0 -0.31616847796E+02  0.14905769331E+01 -0.10517920791E+03  0.10983857546E+03  0.00000000000E+00 0.  1.
         11    1    1    2    0    0  0.66305667133E+02  0.10489860414E+01 -0.26808020934E+03  0.27616035288E+03  0.00000000000E+00 0. -1.
</event>
<event>
 7    1  0.4394360E-006  0.1336878E+03  0.7561462E-02  0.1222084E+00
         -1   -1    0    0    0  501 -0.00000000000E+00  0.00000000000E+00  0.59486025397E+02  0.59486025397E+02  0.00000000000E+00 0.  1.
          1   -1    0    0  501    0  0.00000000000E+00 -0.00000000000E+00 -0.66875249864E+03  0.66875249864E+03  0.00000000000E+00 0. -1.
         23    2    1    2    0    0  0.55617154806E+01 -0.98752856865E+02 -0.74640586904E+02  0.17609664947E+03  0.12512295283E+03 0.  0.
          5    1    3    3  502    0 -0.29894873667E+02 -0.86743016759E+02 -0.95946631040E+02  0.13282049102E+03  0.41800000000E+01 0. -1.
         -5    1    3    3    0  502  0.35456589148E+02 -0.12009840106E+02  0.21306044135E+02  0.43276158448E+02  0.41800000000E+01 0. -1.
        -11    1    1    2    0    0  0.38339460335E+02  0.11236326887E+02 -0.14520704115E+03  0.15060296830E+03  0.00000000000E+00 0.  1.
         11    1    1    2    0    0 -0.43901175816E+02  0.87516529978E+02 -0.38941884518E+03  0.40153890626E+03  0.00000000000E+00 0. -1.
</event>
<event>
 7    1  0.4394360E-006  0.1906782E+03  0.7561462E-02  0.1157851E+00
          1   -1    0    0  501    0  0.00000000000E+00  0.00000000000E+00  0.57136648110E+03  0.57136648110E+03  0.00000000000E+00 0. -1.
         -1   -1    0    0    0  501 -0.00000000000E+00 -0.00000000000E+00 -0.88101352548E+02  0.88101352548E+02  0.00000000000E+00 0.  1.
         23    2    1    2    0    0 -0.14135826988E+03  0.12729237169E+03  0.14950668983E+03  0.27236575763E+03  0.12508136261E+03 0.  0.
          5    1    3    3  502    0 -0.10910348006E+03  0.90227699523E+02  0.16796368552E+03  0.21971317479E+03  0.41800000000E+01 0. -1.
         -5    1    3    3    0  502 -0.32254789812E+02  0.37064672172E+02 -0.18456995696E+02  0.52652582834E+02  0.41800000000E+01 0. -1.
        -11    1    1    2    0    0  0.47635998406E+02 -0.48216652580E+02  0.77115609476E+02  0.10266864738E+03  0.00000000000E+00 0.  1.
         11    1    1    2    0    0  0.93722271470E+02 -0.79075719115E+02  0.25664282924E+03  0.28443342864E+03  0.00000000000E+00 0. -1.
</event>
<event>
 7    1  0.4394360E-006  0.1379361E+03  0.7561462E-02  0.1216133E+00
         -2   -1    0    0    0  501 -0.00000000000E+00  0.00000000000E+00  0.41625395524E+02  0.41625395524E+02  0.00000000000E+00 0.  1.
          2   -1    0    0  501    0  0.00000000000E+00 -0.00000000000E+00 -0.65602931298E+03  0.65602931298E+03  0.00000000000E+00 0. -1.
         23    2    1    2    0    0 -0.11485830444E+03  0.11361922193E+02 -0.22976598183E+03  0.28594035359E+03  0.12509179043E+03 0.  0.
          5    1    3    3  502    0 -0.64538466374E+02 -0.31363169860E+02 -0.34407410277E+02  0.79688169433E+02  0.41800000000E+01 0.  1.
         -5    1    3    3    0  502 -0.50319838070E+02  0.42725092053E+02 -0.19535857155E+03  0.20625218416E+03  0.41800000000E+01 0.  1.
        -11    1    1    2    0    0  0.12548639891E+03 -0.15512362326E+02 -0.37783516141E+03  0.39843051953E+03  0.00000000000E+00 0. -1.
         11    1    1    2    0    0 -0.10628094466E+02  0.41504401328E+01 -0.68027742225E+01  0.13283835380E+02  0.00000000000E+00 0.  1.
</event>
<event>
 7    1  0.4394360E-006  0.1376041E+03  0.7561462E-02  0.1216590E+00
          1   -1    0    0  501    0  0.00000000000E+00  0.00000000000E+00  0.10154774089E+03  0.10154774089E+03  0.00000000000E+00 0. -1.
         -1   -1    0    0    0  501 -0.00000000000E+00 -0.00000000000E+00 -0.24527398745E+03  0.24527398745E+03  0.00000000000E+00 0.  1.
         23    2    1    2    0    0 -0.10687423985E+03 -0.14615636997E+02 -0.11795566357E+03  0.20297329621E+03  0.12509556514E+03 0.  0.
          5    1    3    3  502    0 -0.10156944558E+03  0.24627186308E+02 -0.33882688027E+02  0.10994707604E+03  0.41800000000E+01 0.  1.
         -5    1    3    3    0  502 -0.53047942717E+01 -0.39242823305E+02 -0.84072975543E+02  0.93026220173E+02  0.41800000000E+01 0.  1.
        -11    1    1    2    0    0  0.87189641181E+01 -0.23831102250E+02  0.16504571190E+02  0.30271151942E+02  0.00000000000E+00 0. -1.
         11    1    1    2    0    0  0.98155275733E+02  0.38446739246E+02 -0.42275154183E+02  0.11357728018E+03  0.00000000000E+00 0.  1.
</event>
<event>
 7    1  0.4394360E-006  0.1178545E+03  0.7561462E-02  0.1246679E+00
         -1   -1    0    0    0  501 -0.00000000000E+00  0.00000000000E+00  0.27815060643E+02  0.27815060643E+02  0.00000000000E+00 0.  1.
          1   -1    0    0  501    0  0.00000000000E+00 -0.00000000000E+00 -0.53566883938E+03  0.53566883938E+03  0.00000000000E+00 0. -1.
         23    2    1    2    0    0 -0.15197423823E+02 -0.52721265618E+02 -0.25169661496E+03  0.28637565325E+03  0.12509730315E+03 0.  0.
          5    1    3    3  502    0  0.46163682184E+02 -0.52852308548E+02 -0.96125657020E+02  0.11908848143E+03  0.41800000000E+01 0. -1.
         -5    1    3    3    0  502 -0.61361106007E+02  0.13104292986E+00 -0.15557095794E+03  0.16728717182E+03  0.41800000000E+01 0. -1.
        -11    1    1    2    0    0 -0.20009899104E+02 -0.16703217815E+02 -0.44248842226E+02  0.51355170975E+02  0.00000000000E+00 0.  1.
         11    1    1    2    0    0  0.35207322928E+02  0.69424483433E+02 -0.21190832155E+03  0.22575307579E+03  0.00000000000E+00 0. -1.
</event>
<event>
 6    1  0.4394360E-006  0.1295648E+03  0.7561462E-02  0.1228103E+00
         -1   -1    0    0    0  501 -0.00000000000E+00  0.00000000000E+00  0.11175827611E+03  0.11175827611E+03  0.00000000000E+00 0.  1.
          1   -1    0    0  501    0  0.00000000000E+00 -0.00000000000E+00 -0.20064575842E+03  0.20064575842E+03  0.00000000000E+00 0. -1.
          5    1    1    2  502    0  0.26390839961E+02  0.22467783909E+02 -0.29345122929E+02  0.45605771426E+02  0.41800000000E+01 0. -1.
         -5    1    1    2    0  502 -0.27851111141E+02 -0.10826691612E+03  0.26057030269E+02  0.11486448862E+03  0.41800000000E+01 0.  1.
        -11    1    1    2    0    0 -0.34946019550E+02  0.52136657712E+02 -0.13128055187E+02  0.64123327992E+02  0.00000000000E+00 0.  1.
         11    1    1    2    0    0  0.36406290730E+02  0.33662474503E+02 -0.72471334469E+02  0.87810446498E+02  0.00000000000E+00 0. -1.
</event>
<event>
 7    1  0.4394360E-006  0.1199445E+03  0.7561462E-02  0.1243189E+00
          2   -1    0    0  501    0  0.00000000000E+00  0.00000000000E+00  0.36072687532E+03  0.36072687532E+03  0.00000000000E+00 0. -1.
         -2   -1    0    0    0  501 -0.00000000000E+00 -0.00000000000E+00 -0.60602868285E+02  0.60602868285E+02  0.00000000000E+00 0.  1.
         23    2    1    2    0    0 -0.64802199030E+02 -0.76809805735E+02  0.18473505233E+03  0.24285539139E+03  0.12146040634E+03 0.  0.
          5    1    3    3  502    0 -0.41450806776E+02 -0.21567175473E+02  0.17594940167E+03  0.18209606473E+03  0.41800000000E+01 0. -1.
         -5    1    3    3    0  502 -0.23351392254E+02 -0.55242630262E+02  0.87856506589E+01  0.60759326659E+02  0.41800000000E+01 0.  1.
        -11    1    1    2    0    0  0.86584069342E+02  0.59989246091E+02  0.73843157216E+02  0.12864028365E+03  0.00000000000E+00 0. -1.
         11    1    1    2    0    0 -0.21781870313E+02  0.16820559644E+02  0.41545797489E+02  0.49834068569E+02  0.00000000000E+00 0.  1.
</event>
<event>
 7    1  0.4394360E-006  0.1670595E+03  0.7561462E-02  0.1180949E+00
          1   -1    0    0  501    0  0.00000000000E+00  0.00000000000E+00  0.55668134190E+02  0.55668134190E+02  0.00000000000E+00 0. -1.
         -1   -1    0    0    0  501 -0.00000000000E+00 -0.00000000000E+00 -0.64347452027E+03  0.64347452027E+03  0.00000000000E+00 0.  1.
         23    2    1    2    0    0 -0.16143094969E+02  0.14650013857E+03 -0.39995446422E+03  0.44422333379E+03  0.12509159332E+03 0.  0.
          5    1    3    3  502    0  0.64533831202E+01  0.13743612465E+03 -0.39595423789E+03  0.41919871829E+03  0.41800000000E+01 0.  1.
         -5    1    3    3    0  502 -0.22596478089E+02  0.90640139208E+01 -0.40002263315E+01  0.25024615503E+02  0.41800000000E+01 0.  1.
        -11    1    1    2    0    0  0.52907249075E+02 -0.86335389626E+02 -0.10054034616E+03  0.14269315931E+03  0.00000000000E+00 0.  1.
         11    1    1    2    0    0 -0.36764154107E+02 -0.60164748946E+02 -0.87311575696E+02  0.11222616136E+03  0.00000000000E+00 0. -1.
</event>
<event>
 7    1  0.4394360E-006  0.1490455E+03  0.7561462E-02  0.1201651E+00
          2   -1    0    0  501    0  0.00000000000E+00  0.00000000000E+00  0.11820753059E+04  0.11820753059E+04  0.00000000000E+00 0.  1.
         -2   -1    0    0    0  501 -0.00000000000E+00 -0.00000000000E+00 -0.25751605469E+02  0.25751605469E+02  0.00000000000E+00 0. -1.
         23    2    1    2    0    0 -0.50838690985E+02  0.10004666580E+03  0.34604813224E+03  0.38469616411E+03  0.12509165045E+03 0.  0.
          5    1    3    3  502    0 -0.83137716340E+02  0.77115330187E+02  0.31301872630E+03  0.33295172239E+03  0.41800000000E+01 0.  1.
         -5    1    3    3    0  502  0.32299025355E+02  0.22931335611E+02  0.33029405943E+02  0.51744441718E+02  0.41800000000E+01 0.  1.
        -11    1    1    2    0    0 -0.14934579145E+02 -0.71572841738E+02  0.39245612965E+03  0.39920862595E+03  0.00000000000E+00 0.  1.
         11    1    1    2    0    0  0.65773270130E+02 -0.28473824060E+02  0.41781943855E+03  0.42392212133E+03  0.00000000000E+00 0. -1.
</event>
<event>
 7    1  0.4394360E-006  0.1280211E+03  0.7561462E-02  0.1230422E+00
          1   -1    0    0  501    0  0.00000000000E+00  0.00000000000E+00  0.24925923528E+03  0.24925923528E+03  0.00000000000E+00 0. -1.
         -1   -1    0    0    0  501 -0.00000000000E+00 -0.00000000000E+00 -0.74664496065E+02  0.74664496065E+02  0.00000000000E+00 0.  1.
         23    2    1    2    0    0  0.60801849884E+02  0.43922981474E+02  0.56556788764E+02  0.15646853140E+03  0.12513048275E+03 0.  0.
          5    1    3    3  502    0  0.98008926275E+02  0.32994531335E+02  0.25454214899E+02  0.10658226017E+03  0.41800000000E+01 0.  1.
         -5    1    3    3    0  502 -0.37207076391E+02  0.10928450139E+02  0.31102573864E+02  0.49886271227E+02  0.41800000000E+01 0.  1.
        -11    1    1    2    0    0 -0.43498663463E+02  0.19594618544E+02  0.26109255293E+02  0.54385439328E+02  0.00000000000E+00 0.  1.
         11    1    1    2    0    0 -0.17303186421E+02 -0.63517600018E+02  0.91928695162E+02  0.11306976062E+03  0.00000000000E+00 0. -1.
</event>
<event>
 7    1  0.4394360E-006  0.1284600E+03  0.7561462E-02  0.1229759E+00
          2   -1    0    0  501    0  0.00000000000E+00  0.00000000000E+00  0.27311323958E+02  0.27311323958E+02  0.00000000000E+00 0. -1.
         -2   -1    0    0    0  501 -0.00000000000E+00 -0.00000000000E+00 -0.68514758545E+03  0.68514758545E+03  0.00000000000E+00 0.  1.
         23    2    1    2    0    0  0.57603901566E+02  0.62150377519E+02 -0.38281378629E+03  0.41155207293E+03  0.12509130608E+03 0.  0.
          5    1    3    3  502    0  0.53702004212E+02 -0.21413176590E+02 -0.23103969003E+03  0.23820000033E+03  0.41800000000E+01 0.  1.
         -5    1    3    3    0  502  0.39018973542E+01  0.83563554109E+02 -0.15177409626E+03  0.17335207260E+03  0.41800000000E+01 0.  1.
        -11    1    1    2    0    0  0.91227967572E+00 -0.56390044476E+02 -0.18481149697E+03  0.19322515049E+03  0.00000000000E+00 0.  1.
         11    1    1    2    0    0 -0.58516181241E+02 -0.57603330434E+01 -0.90210978233E+02  0.10768168599E+03  0.00000000000E+00 0. -1.
</event>
<event>
 7    1  0.4394360E-006  0.7489202E+02  0.7561462E-02  0.1344206E+00
          1   -1    0    0  501    0  0.00000000000E+00  0.00000000000E+00  0.26667036203E+03  0.26667036203E+03  0.00000000000E+00 0.  1.
         -1   -1    0    0    0  501 -0.00000000000E+00 -0.00000000000E+00 -0.44478871179E+02  0.44478871179E+02  0.00000000000E+00 0. -1.
         23    2    1    2    0    0 -0.10442585770E+02 -0.14180933929E+01  0.14326179698E+03  0.19047892477E+03  0.12508884730E+03 0.  0.
          5    1    3    3  502    0  0.31158668278E+02  0.17278596581E+02 -0.41532534615E+01  0.36112801373E+02  0.41800000000E+01 0. -1.
         -5    1    3    3    0  502 -0.41601254048E+02 -0.18696689974E+02  0.14741505045E+03  0.15436612340E+03  0.41800000000E+01 0. -1.
        -11    1    1    2    0    0  0.17995080147E+01 -0.32783776251E+02  0.78828729998E+02  0.85393107962E+02  0.00000000000E+00 0.  1.
         11    1    1    2    0    0  0.86430777553E+01  0.34201869644E+02  0.10096387386E+00  0.35277200483E+02  0.00000000000E+00 0. -1.
</event>
<event>
 7    1  0.4394360E-006  0.2710237E+03  0.7561462E-02  0.1100695E+00
          2   -1    0    0  501    0  0.00000000000E+00  0.00000000000E+00  0.25607277080E+03  0.25607277080E+03  0.00000000000E+00 0. -1.
         -2   -1    0    0    0  501 -0.00000000000E+00 -0.00000000000E+00 -0.33103635857E+03  0.33103635857E+03  0.00000000000E+00 0.  1.
         23    2    1    2    0    0  0.25528440649E+03 -0.45161137557E+02 -0.11322532373E+03  0.30931708369E+03  0.12508967897E+03 0.  0.
          5    1    3    3  502    0  0.62313193337E+02 -0.60059695702E+02 -0.33324440345E+01  0.86710314812E+02  0.41800000000E+01 0.  1.
         -5    1    3    3    0  502  0.19297121316E+03  0.14898558145E+02 -0.10989287970E+03  0.22260676888E+03  0.41800000000E+01 0.  1.
        -11    1    1    2    0    0 -0.34661576330E+02  0.19312162901E+02  0.39032206319E+02  0.55658760674E+02  0.00000000000E+00 0. -1.
         11    1    1    2    0    0 -0.22062283016E+03  0.25848974656E+02 -0.77047035390E+00  0.22213328500E+03  0.00000000000E+00 0.  1.
</event>
<event>
 7    1  0.4394360E-006  0.1079999E+03  0.7561462E-02  0.1264319E+00
         -1   -1    0    0    0  501 -0.00000000000E+00  0.00000000000E+00  0.86692685630E+03  0.86692685630E+03  0.00000000000E+00 0.  1.
          1   -1    0    0  501    0  0.00000000000E+00 -0.00000000000E+00 -0.17293558522E+02  0.17293558522E+02  0.00000000000E+00 0. -1.
         23    2    1    2    0    0 -0.30708982766E+02 -0.23615901071E+02  0.62887960330E+03  0.64236902587E+03  0.12509059732E+03 0.  0.
          5    1    3    3  502    0  0.20194425467E+02  0.39431087483E+02  0.14307449897E+03  0.14983460927E+03  0.41800000000E+01 0. -1.
         -5    1    3    3    0  502 -0.50903408233E+02 -0.63046988553E+02  0.48580510433E+03  0.49253441660E+03  0.41800000000E+01 0. -1.
        -11    1    1    2    0    0 -0.79595643681E+01  0.45323672595E+02  0.63214578623E+02  0.78189979619E+02  0.00000000000E+00 0. -1.
         11    1    1    2    0    0  0.38668547134E+02 -0.21707771525E+02  0.15753911586E+03  0.16366140934E+03  0.00000000000E+00 0.  1.
</event>
<event>
 7    1  0.4394360E-006  0.1130383E+03  0.7561462E-02  0.1255045E+00
          2   -1    0    0  501    0  0.00000000000E+00  0.00000000000E+00  0.77270915599E+03  0.77270915599E+03  0.00000000000E+00 0. -1.
         -2   -1    0    0    0  501 -0.00000000000E+00 -0.00000000000E+00 -0.22623888977E+02  0.22623888977E+02  0.00000000000E+00 0.  1.
         23    2    1    2    0    0  0.65231055170E+02 -0.15059468390E+01  0.28868036805E+03  0.32131205143E+03  0.12509085124E+03 0.  0.
          5    1    3    3  502    0  0.28917669504E+02  0.54558243685E+02  0.74150568782E+02  0.96584744211E+02  0.41800000000E+01 0. -1.
         -5    1    3    3    0  502  0.36313385666E+02 -0.56064190524E+02  0.21452979927E+03  0.22472730722E+03  0.41800000000E+01 0. -1.
        -11    1    1    2    0    0 -0.69044950478E+01  0.31098064984E+02  0.66493515264E+02  0.73730246641E+02  0.00000000000E+00 0.  1.
         11    1    1    2    0    0 -0.58326560122E+02 -0.29592118145E+02  0.39491138370E+03  0.40029074689E+03  0.00000000000E+00 0. -1.
</event>
<event>
 7    1  0.4394360E-006  0.1180503E+03  0.7561462E-02  0.1246349E+00
          1   -1    0    0  501    0  0.00000000000E+00  0.00000000000E+00  0.54822414803E+03  0.54822414803E+03  0.00000000000E+00 0. -1.
         -1   -1    0    0    0  501 -0.00000000000E+00 -0.00000000000E+00 -0.33759821645E+02  0.33759821645E+02  0.00000000000E+00 0.  1.
         23    2    1    2    0    0 -0.27581800366E+02 -0.76012139713E+02  0.32214636621E+03  0.35491494537E+03  0.12509091131E+03 0.  0.
          5    1    3    3  502    0  0.42248481965E+02  0.12921716407E+01  0.12302169353E+03  0.13014766004E+03  0.41800000000E+01 0. -1.
         -5    1    3    3    0  502 -0.69830282331E+02 -0.77304311354E+02  0.19912467268E+03  0.22476728533E+03  0.41800000000E+01 0. -1.
        -11    1    1    2    0    0  0.34857719709E+02  0.41971790541E+02  0.18310593661E+03  0.19106144521E+03  0.00000000000E+00 0. -1.
         11    1    1    2    0    0 -0.72759193431E+01  0.34040349172E+02  0.92120235686E+01  0.36007579095E+02  0.00000000000E+00 0.  1.
</event>
<event>
 7    1  0.4394360E-006  0.7795098E+02  0.7561462E-02  0.1334969E+00
         -1   -1    0    0    0  501 -0.00000000000E+00  0.00000000000E+00  0.76346504099E+02  0.76346504099E+02  0.00000000000E+00 0.  1.
          1   -1    0    0  501    0  0.00000000000E+00 -0.00000000000E+00 -0.17141358092E+03  0.17141358092E+03  0.00000000000E+00 0. -1.
         23    2    1    2    0    0 -0.14099810504E+02 -0.38899556584E+02 -0.62711140998E+02  0.14591623073E+03  0.12508748549E+03 0.  0.
          5    1    3    3  502    0 -0.30766219350E+02 -0.50597074533E+00  0.30578994966E+02  0.43581688731E+02  0.41800000000E+01 0. -1.
         -5    1    3    3    0  502  0.16666408846E+02 -0.38393585839E+02 -0.93290135964E+02  0.10233454200E+03  0.41800000000E+01 0. -1.
        -11    1    1    2    0    0 -0.24053221579E+02  0.37569379328E+02 -0.43260434321E+02  0.62140815163E+02  0.00000000000E+00 0. -1.
         11    1    1    2    0    0  0.38153032084E+02  0.13301772566E+01  0.10904498498E+02  0.39703039130E+02  0.00000000000E+00 0.  1.
</event>
<event>
 7    1  0.4394360E-006  0.9444989E+02  0.7561462E-02  0.1292420E+00
          2   -1    0    0  501    0  0.00000000000E+00  0.00000000000E+00  0.61275335873E+02  0.61275335873E+02  0.00000000000E+00 0. -1.
         -2   -1    0    0    0  501 -0.00000000000E+00 -0.00000000000E+00 -0.27686488699E+03  0.27686488699E+03  0.00000000000E+00 0.  1.
         23    2    1    2    0    0 -0.51199746885E+02 -0.50697444361E+02 -0.11484755154E+03  0.18448540985E+03  0.12511299455E+03 0.  0.
          5    1    3    3  502    0  0.17242507385E+02 -0.43249917955E+02 -0.10484010003E+03  0.11479014957E+03  0.41800000000E+01 0. -1.
         -5    1    3    3    0  502 -0.68442254270E+02 -0.74475264060E+01 -0.10007451515E+02  0.69695260277E+02  0.41800000000E+01 0. -1.
        -11    1    1    2    0    0  0.26178797899E+02  0.17023458570E+02 -0.10679628448E+03  0.11126802766E+03  0.00000000000E+00 0.  1.
         11    1    1    2    0    0  0.25020948986E+02  0.33673985791E+02  0.60542849045E+01  0.42386785357E+02  0.00000000000E+00 0. -1.
</event>
<event>
 7    1  0.4394360E-006  0.1173389E+03  0.7561462E-02  0.1247553E+00
          1   -1    0    0  501    0  0.00000000000E+00  0.00000000000E+00  0.12272137221E+04  0.12272137221E+04  0.00000000000E+00 0. -1.
         -1   -1    0    0    0  501 -0.00000000000E+00 -0.00000000000E+00 -0.18702125352E+02  0.18702125352E+02  0.00000000000E+00 0.  1.
         23    2    1    2    0    0  0.55184061217E+02 -0.88460806886E+02  0.72252943509E+03  0.74064468041E+03  0.12504064570E+03 0.  0.
          5    1    3    3  502    0  0.38171644554E+02 -0.44802767604E+02  0.98337298842E+02  0.11468242750E+03  0.41800000000E+01 0. -1.
         -5    1    3    3    0  502  0.17012416663E+02 -0.43658039282E+02  0.62419213625E+03  0.62596225291E+03  0.41800000000E+01 0. -1.
        -11    1    1    2    0    0 -0.13498556842E+02 -0.13122236711E+02  0.24454278572E+02  0.30861235776E+02  0.00000000000E+00 0.  1.
         11    1    1    2    0    0 -0.41685504375E+02  0.10158304360E+03  0.46152788311E+03  0.47440993129E+03  0.00000000000E+00 0. -1.
</event>
<event>
 7    1  0.4394360E-006  0.1006265E+03  0.7561462E-02  0.1278984E+00
         -4   -1    0    0    0  501 -0.00000000000E+00  0.00000000000E+00  0.18505290491E+03  0.18505290491E+03  0.00000000000E+00 0.  1.
          4   -1    0    0  501    0  0.00000000000E+00 -0.00000000000E+00 -0.12408508040E+03  0.12408508040E+03  0.00000000000E+00 0. -1.
         23    2    1    2    0    0 -0.10457401355E+02 -0.69811934618E+02  0.10196153171E+03  0.17437329386E+03  0.12258396390E+03 0.  0.
          5    1    3    3  502    0 -0.65914532149E+01 -0.74633992099E+01 -0.28058369178E+02  0.30064831018E+02  0.41800000000E+01 0. -1.
         -5    1    3    3    0  502 -0.38659481403E+01 -0.62348535409E+02  0.13001990088E+03  0.14430846284E+03  0.41800000000E+01 0.  1.
        -11    1    1    2    0    0  0.51336127354E+02  0.54842130249E+01 -0.10569047482E+02  0.52698949979E+02  0.00000000000E+00 0.  1.
         11    1    1    2    0    0 -0.40878725999E+02  0.64327721594E+02 -0.30424659706E+02  0.82065741469E+02  0.00000000000E+00 0. -1.
</event>
<event>
 7    1  0.4394360E-006  0.1480242E+03  0.7561462E-02  0.1202922E+00
         -4   -1    0    0    0  501 -0.00000000000E+00  0.00000000000E+00  0.35395139995E+02  0.35395139995E+02  0.00000000000E+00 0.  1.
          4   -1    0    0  501    0  0.00000000000E+00 -0.00000000000E+00 -0.69666868344E+03  0.69666868344E+03  0.00000000000E+00 0. -1.
         23    2    1    2    0    0 -0.41576587651E+02 -0.10247890749E+03 -0.28357324596E+03  0.32907659728E+03  0.12508829655E+03 0.  0.
          5    1    3    3  502    0 -0.54877964378E+02  0.64028215713E+01 -0.73415870092E+02  0.91977983668E+02  0.41800000000E+01 0. -1.
         -5    1    3    3    0  502  0.13301376728E+02 -0.10888172906E+03 -0.21015737586E+03  0.23709861361E+03  0.41800000000E+01 0. -1.
        -11    1    1    2    0    0  0.61256887202E+02  0.83213990390E+02 -0.22199010247E+03  0.24486032758E+03  0.00000000000E+00 0.  1.
         11    1    1    2    0    0 -0.19680299552E+02  0.19264917099E+02 -0.15571019502E+03  0.15812689858E+03  0.00000000000E+00 0. -1.
</event>
<event>
 7    1  0.4394360E-006  0.1090772E+03  0.7561462E-02  0.1262288E+00
          2   -1    0    0  501    0  0.00000000000E+00  0.00000000000E+00  0.28986644883E+03  0.28986644883E+03  0.00000000000E+00 0. -1.
         -2   -1    0    0    0  501 -0.00000000000E+00 -0.00000000000E+00 -0.55683643405E+02  0.55683643405E+02  0.00000000000E+00 0.  1.
         23    2    1    2    0    0  0.44374303437E+02 -0.35957744610E+02  0.83097102611E+02  0.16067069946E+03  0.12509159444E+03 0.  0.
          5    1    3    3  502    0 -0.63467089754E+01  0.31698759292E+02  0.66977650505E+02  0.74488724802E+02  0.41800000000E+01 0.  1.
         -5    1    3    3    0  502  0.50721012412E+02 -0.67656503902E+02  0.16119452106E+02  0.86181974661E+02  0.41800000000E+01 0.  1.
        -11    1    1    2    0    0 -0.51026204857E+02  0.58363475583E+02  0.86302437210E+02  0.11600896316E+03  0.00000000000E+00 0.  1.
         11    1    1    2    0    0  0.66519014202E+01 -0.22405730973E+02  0.64783265604E+02  0.68870429614E+02  0.00000000000E+00 0. -1.
</event>
<event>
 7    1  0.4394360E-006  0.1164143E+03  0.7561462E-02  0.1249132E+00
         -1   -1    0    0    0  501 -0.00000000000E+00  0.00000000000E+00  0.15191102172E+03  0.15191102172E+03  0.00000000000E+00 0.  1.
          1   -1    0    0  501    0  0.00000000000E+00 -0.00000000000E+00 -0.11201722636E+03  0.11201722636E+03  0.00000000000E+00 0. -1.
         23    2    1    2    0    0 -0.32816736201E+02 -0.57151882783E+02  0.51043987894E+02  0.15032601486E+03  0.12509654737E+03 0.  0.
          5    1    3    3  502    0  0.85354706115E+01 -0.74573514685E+02 -0.84939491433E+01  0.75655025763E+02  0.41800000000E+01 0. -1.
         -5    1    3    3    0  502 -0.41352206812E+02  0.17421631903E+02  0.59537937038E+02  0.74670989099E+02  0.41800000000E+01 0. -1.
        -11    1    1    2    0    0  0.44348038931E+02 -0.91552028788E+01  0.57157220799E+00  0.45286786059E+02  0.00000000000E+00 0.  1.
         11    1    1    2    0    0 -0.11531302731E+02  0.66307085662E+02 -0.11721764740E+02  0.68315447157E+02  0.00000000000E+00 0. -1.
</event>
<event>
 7    1  0.4394360E-006  0.1482331E+03  0.7561462E-02  0.1202661E+00
          1   -1    0    0  501    0  0.00000000000E+00  0.00000000000E+00  0.21972810510E+03  0.21972810510E+03  0.00000000000E+00 0. -1.
         -1   -1    0    0    0  501 -0.00000000000E+00 -0.00000000000E+00 -0.13416905851E+03  0.13416905851E+03  0.00000000000E+00 0.  1.
         23    2    1    2    0    0 -0.12826925355E+03 -0.27428594626E+02  0.20267632414E+02  0.18238527621E+03  0.12509309671E+03 0.  0.
          5    1    3    3  502    0 -0.88506154352E+01  0.29022543863E+02 -0.28189282653E+02  0.41626307815E+02  0.41800000000E+01 0. -1.
         -5    1    3    3    0  502 -0.11941863811E+03 -0.56451138488E+02  0.48456915067E+02  0.14075896839E+03  0.41800000000E+01 0. -1.
        -11    1    1    2    0    0  0.45441096916E+02 -0.27583295005E+01 -0.19195558640E+02  0.49406185261E+02  0.00000000000E+00 0.  1.
         11    1    1    2    0    0  0.82828156629E+02  0.30186924126E+02  0.84486972814E+02  0.12210570214E+03  0.00000000000E+00 0. -1.
</event>
<event>
 7    1  0.4394360E-006  0.6582768E+02  0.7561462E-02  0.1374885E+00
         -1   -1    0    0    0  501 -0.00000000000E+00  0.00000000000E+00  0.28575293954E+03  0.28575293954E+03  0.00000000000E+00 0.  1.
          1   -1    0    0  501    0  0.00000000000E+00 -0.00000000000E+00 -0.52727197967E+02  0.52727197967E+02  0.00000000000E+00 0. -1.
         23    2    1    2    0    0 -0.26862286006E+02 -0.22375530890E+02  0.19508507887E+03  0.23436797579E+03  0.12509161957E+03 0.  0.
          5    1    3    3  502    0 -0.63210801846E+01 -0.28183290614E+02  0.20735188272E+03  0.20939562936E+03  0.41800000000E+01 0.  1.
         -5    1    3    3    0  502 -0.20541205821E+02  0.58077597241E+01 -0.12266803857E+02  0.24972346435E+02  0.41800000000E+01 0.  1.
        -11    1    1    2    0    0 -0.11161908325E+02  0.38003420898E+02  0.47557811050E+02  0.61891789352E+02  0.00000000000E+00 0.  1.
         11    1    1    2    0    0  0.38024194331E+02 -0.15627890008E+02 -0.96171483400E+01  0.42220372367E+02  0.00000000000E+00 0. -1.
</event>
<event>
 6    1  0.4394360E-006  0.2107456E+03  0.7561462E-02  0.1140977E+00
          2   -1    0    0  501    0  0.00000000000E+00  0.00000000000E+00  0.11613505093E+03  0.11613505093E+03  0.00000000000E+00 0. -1.
         -2   -1    0    0    0  501 -0.00000000000E+00 -0.00000000000E+00 -0.38745757962E+03  0.38745757962E+03  0.00000000000E+00 0.  1.
          5    1    1    2  502    0  0.30896437577E+02 -0.18866943599E+03 -0.12863642119E+03  0.23046810450E+03  0.41800000000E+01 0. -1.
         -5    1    1    2    0  502 -0.26583397031E+02  0.93463924889E+02 -0.64222835730E+02  0.11655139331E+03  0.41800000000E+01 0.  1.
        -11    1    1    2    0    0 -0.40205770829E+02  0.87495050962E+02 -0.42742309040E+02  0.10535080889E+03  0.00000000000E+00 0.  1.
         11    1    1    2    0    0  0.35892730283E+02  0.77104601429E+01 -0.35720962732E+02  0.51222323857E+02  0.00000000000E+00 0. -1.
</event>
<event>
 7    1  0.4394360E-006  0.1092275E+03  0.7561462E-02  0.1262007E+00
          1   -1    0    0  501    0  0.00000000000E+00  0.00000000000E+00  0.13413214863E+03  0.13413214863E+03  0.00000000000E+00 0. -1.
         -1   -1    0    0    0  501 -0.00000000000E+00 -0.00000000000E+00 -0.10002247363E+03  0.10002247363E+03  0.00000000000E+00 0.  1.
         23    2    1    2    0    0 -0.37219254169E+02  0.13319741930E+02  0.10189589342E+02  0.13143788181E+03  0.12493758697E+03 0.  0.
          5    1    3    3  502    0 -0.25822419459E+02  0.62617302801E+02  0.33374418090E+02  0.75624388524E+02  0.41800000000E+01 0.  1.
         -5    1    3    3    0  502 -0.11396834710E+02 -0.49297560871E+02 -0.23184828748E+02  0.55813493290E+02  0.41800000000E+01 0.  1.
        -11    1    1    2    0    0 -0.30632035059E+02  0.22717785670E+00  0.91128116395E+01  0.31959607595E+02  0.00000000000E+00 0. -1.
         11    1    1    2    0    0  0.67851289228E+02 -0.13546919787E+02  0.14807274015E+02  0.70757132852E+02  0.00000000000E+00 0.  1.
</event>
<event>
 7    1  0.4394360E-006  0.1349776E+03  0.7561462E-02  0.1220251E+00
         -2   -1    0    0    0  501 -0.00000000000E+00  0.00000000000E+00  0.63658100630E+02  0.63658100630E+02  0.00000000000E+00 0.  1.
          2   -1    0    0  501    0  0.00000000000E+00 -0.00000000000E+00 -0.41372901900E+03  0.41372901900E+03  0.00000000000E+00 0. -1.
         23    2    1    2    0    0  0.10104972579E+03 -0.64117461128E+02 -0.17548307909E+03  0.24650318070E+03  0.12508961247E+03 0.  0.
          5    1    3    3  502    0  0.52601461238E+02 -0.46793101072E+02 -0.18131905335E+03  0.19455225400E+03  0.41800000000E+01 0. -1.
         -5    1    3    3    0  502  0.48448264550E+02 -0.17324360055E+02  0.58359742577E+01  0.51950926698E+02  0.41800000000E+01 0. -1.
        -11    1    1    2    0    0  0.58763477868E+01  0.37042890054E+02 -0.25190258671E+02  0.45180264484E+02  0.00000000000E+00 0. -1.
         11    1    1    2    0    0 -0.10692607358E+03  0.27074571073E+02 -0.14939758061E+03  0.18570367444E+03  0.00000000000E+00 0.  1.
</event>
<event>
 7    1  0.4394360E-006  0.1122675E+03  0.7561462E-02  0.1256428E+00
          1   -1    0    0  501    0  0.00000000000E+00  0.00000000000E+00  0.10014629626E+03  0.10014629626E+03  0.00000000000E+00 0. -1.
         -1   -1    0    0    0  501 -0.00000000000E+00 -0.00000000000E+00 -0.17978289346E+03  0.17978289346E+03  0.00000000000E+00 0.  1.
         23    2    1    2    0    0  0.70919915986E+02  0.31550176856E+02 -0.45082115854E+02  0.15396935632E+03  0.12509643229E+03 0.  0.
          5    1    3    3  502    0 -0.13815562987E+02  0.66916269459E+01 -0.61957591554E+02  0.63967673109E+02  0.41800000000E+01 0.  1.
         -5    1    3    3    0  502  0.84735478973E+02  0.24858549910E+02  0.16875475700E+02  0.90001683209E+02  0.41800000000E+01 0.  1.
        -11    1    1    2    0    0  0.16713314858E+02 -0.27884798697E+02 -0.16312821868E+02  0.36373136367E+02  0.00000000000E+00 0.  1.
         11    1    1    2    0    0 -0.87633230843E+02 -0.36653781594E+01 -0.18241659479E+02  0.89586697035E+02  0.00000000000E+00 0. -1.
</event>
<event>
 7    1  0.4394360E-006  0.1201479E+03  0.7561462E-02  0.1242853E+00
          1   -1    0    0  501    0  0.00000000000E+00  0.00000000000E+00  0.15444766701E+03  0.15444766701E+03  0.00000000000E+00 0. -1.
         -1   -1    0    0    0  501 -0.00000000000E+00 -0.00000000000E+00 -0.15224948417E+03  0.15224948417E+03  0.00000000000E+00 0.  1.
         23    2    1    2    0    0 -0.21122868282E+02  0.90973364484E+02 -0.54645185546E+02  0.16539525882E+03  0.12508863548E+03 0.  0.
          5    1    3    3  502    0 -0.49302787211E+02  0.29831852547E+02  0.23315813860E+02  0.62304123692E+02  0.41800000000E+01 0.  1.
         -5    1    3    3    0  502  0.28179918929E+02  0.61141511937E+02 -0.77960999405E+02  0.10309113512E+03  0.41800000000E+01 0.  1.
        -11    1    1    2    0    0 -0.24664539909E+02 -0.31259239965E+02  0.52549797565E+02  0.65931485925E+02  0.00000000000E+00 0. -1.
         11    1    1    2    0    0  0.45787408191E+02 -0.59714124519E+02  0.42935708175E+01  0.75370406436E+02  0.00000000000E+00 0.  1.
</event>
<event>
 7    1  0.4394360E-006  0.1333383E+03  0.7561462E-02  0.1222585E+00
         -1   -1    0    0    0  501 -0.00000000000E+00  0.00000000000E+00  0.59581009375E+02  0.59581009375E+02  0.00000000000E+00 0.  1.
          1   -1    0    0  501    0  0.00000000000E+00 -0.00000000000E+00 -0.36930549565E+03  0.36930549565E+03  0.00000000000E+00 0. -1.
         23    2    1    2    0    0 -0.84433449047E+02  0.40338683293E+02 -0.11147051184E+03  0.19191108949E+03  0.12509186454E+03 0.  0.
          5    1    3    3  502    0 -0.10271269809E+03  0.61703414152E+02 -0.11113937479E+03  0.16348285138E+03  0.41800000000E+01 0. -1.
         -5    1    3    3    0  502  0.18279249044E+02 -0.21364730859E+02 -0.33113704545E+00  0.28428238109E+02  0.41800000000E+01 0. -1.
        -11    1    1    2    0    0  0.36615466183E+01 -0.37349651861E+02 -0.11487639955E+03  0.12085110918E+03  0.00000000000E+00 0. -1.
         11    1    1    2    0    0  0.80771902428E+02 -0.29890314316E+01 -0.83377574892E+02  0.11612430635E+03  0.00000000000E+00 0.  1.
</event>
<event>
 7    1  0.4394360E-006  0.1039404E+03  0.7561462E-02  0.1272221E+00
          1   -1    0    0  501    0  0.00000000000E+00  0.00000000000E+00  0.79930665031E+02  0.79930665031E+02  0.00000000000E+00 0. -1.
         -1   -1    0    0    0  501 -0.00000000000E+00 -0.00000000000E+00 -0.26884969308E+03  0.26884969308E+03  0.00000000000E+00 0.  1.
         23    2    1    2    0    0  0.70588028196E+01  0.25861010474E+02 -0.22119371098E+03  0.25543803063E+03  0.12491321449E+03 0.  0.
          5    1    3    3  502    0 -0.54999290225E+02  0.92562208201E+01 -0.60824713081E+02  0.82630004663E+02  0.41800000000E+01 0. -1.
         -5    1    3    3    0  502  0.62058093045E+02  0.16604789654E+02 -0.16036899789E+03  0.17280802596E+03  0.41800000000E+01 0.  1.
        -11    1    1    2    0    0 -0.51248595169E+01 -0.56571619624E+02  0.21616342914E+02  0.60777286983E+02  0.00000000000E+00 0. -1.
         11    1    1    2    0    0 -0.19339433026E+01  0.30710609150E+02  0.10658340012E+02  0.32565040502E+02  0.00000000000E+00 0.  1.
</event>
<event>
 7    1  0.4394360E-006  0.1136231E+03  0.7561462E-02  0.1254004E+00
         -2   -1    0    0    0  501 -0.00000000000E+00  0.00000000000E+00  0.65211826896E+02  0.65211826896E+02  0.00000000000E+00 0. -1.
          2   -1    0    0  501    0  0.00000000000E+00 -0.00000000000E+00 -0.27969502607E+03  0.27969502607E+03  0.00000000000E+00 0.  1.
         23    2    1    2    0    0  0.30273834614E+02 -0.67294175161E+02 -0.79414424126E+02  0.16552897615E+03  0.12509268609E+03 0.  0.
          5    1    3    3  502    0  0.78449509097E+02 -0.34264676041E+02 -0.56444647148E+02  0.10262487073E+03  0.41800000000E+01 0.  1.
         -5    1    3    3    0  502 -0.48175674483E+02 -0.33029499120E+02 -0.22969776978E+02  0.62904105418E+02  0.41800000000E+01 0.  1.
        -11    1    1    2    0    0 -0.21443841262E+02  0.77791174971E+01 -0.11301920667E+03  0.11529828305E+03  0.00000000000E+00 0.  1.
         11    1    1    2    0    0 -0.88299933514E+01  0.59515057663E+02 -0.22049568372E+02  0.64079593762E+02  0.00000000000E+00 0. -1.
</event>
<event>
 7    1  0.4394360E-006  0.1077867E+03  0.7561462E-02  0.1264724E+00
          2   -1    0    0  501    0  0.00000000000E+00  0.00000000000E+00  0.88020424102E+02  0.88020424102E+02  0.00000000000E+00 0. -1.
         -2   -1    0    0    0  501 -0.00000000000E+00 -0.00000000000E+00 -0.24967389085E+03  0.24967389085E+03  0.00000000000E+00 0.  1.
         23    2    1    2    0    0  0.12742430365E+02 -0.95546394073E+02 -0.14084191390E+03  0.21160602143E+03  0.12509668518E+03 0.  0.
          5    1    3    3  502    0 -0.16865363998E+02 -0.54944017740E+02 -0.14970075984E+03  0.16040908791E+03  0.41800000000E+01 0. -1.
         -5    1    3    3    0  502  0.29607794363E+02 -0.40602376333E+02  0.88588459334E+01  0.51196933523E+02  0.41800000000E+01 0. -1.
        -11    1    1    2    0    0 -0.16648759161E+02  0.57089933295E+01  0.20594671362E+02  0.27090852238E+02  0.00000000000E+00 0. -1.
         11    1    1    2    0    0  0.39063287969E+01  0.89837400744E+02 -0.41406224207E+02  0.98997441281E+02  0.00000000000E+00 0.  1.
</event>
<event>
 7    1  0.4394360E-006  0.1187986E+03  0.7561462E-02  0.1245092E+00
         -1   -1    0    0    0  501 -0.00000000000E+00  0.00000000000E+00  0.80106916599E+03  0.80106916599E+03  0.00000000000E+00 0.  1.
          1   -1    0    0  501    0  0.00000000000E+00 -0.00000000000E+00 -0.45472511920E+02  0.45472511920E+02  0.00000000000E+00 0. -1.
         23    2    1    2    0    0 -0.61972121597E+02  0.49128977205E+02  0.70149136049E+03  0.71693207570E+03  0.12508905655E+03 0.  0.
          5    1    3    3  502    0 -0.95857569786E+02  0.49792221420E+02  0.60487365981E+03  0.61445712278E+03  0.41800000000E+01 0. -1.
         -5    1    3    3    0  502  0.33885448188E+02 -0.66324421520E+00  0.96617700680E+02  0.10247495292E+03  0.41800000000E+01 0. -1.
        -11    1    1    2    0    0  0.94471510974E+01 -0.41151693410E+02  0.62902318400E+02  0.75758908351E+02  0.00000000000E+00 0.  1.
         11    1    1    2    0    0  0.52524970500E+02 -0.79772837944E+01 -0.87970248264E+01  0.53850693854E+02  0.00000000000E+00 0. -1.
</event>
<event>
 7    1  0.4394360E-006  0.1203833E+03  0.7561462E-02  0.1242466E+00
         -1   -1    0    0    0  501 -0.00000000000E+00  0.00000000000E+00  0.20299751333E+03  0.20299751333E+03  0.00000000000E+00 0.  1.
          1   -1    0    0  501    0  0.00000000000E+00 -0.00000000000E+00 -0.78198220560E+02  0.78198220560E+02  0.00000000000E+00 0. -1.
         23    2    1    2    0    0 -0.29491916707E+02 -0.53852370033E+02  0.87905675465E+02  0.16475619198E+03  0.12508934451E+03 0.  0.
          5    1    3    3  502    0 -0.11090826994E+01  0.38064022616E+02  0.45673170840E+02  0.59612170039E+02  0.41800000000E+01 0. -1.
         -5    1    3    3    0  502 -0.28382834008E+02 -0.91916392649E+02  0.42232504624E+02  0.10514402194E+03  0.41800000000E+01 0. -1.
        -11    1    1    2    0    0 -0.92896084491E+01  0.65122892563E+02  0.38130917613E+02  0.76034563449E+02  0.00000000000E+00 0.  1.
         11    1    1    2    0    0  0.38781525157E+02 -0.11270522531E+02 -0.12373003117E+01  0.40404978451E+02  0.00000000000E+00 0. -1.
</event>
<event>
 7    1  0.4394360E-006  0.9583179E+02  0.7561462E-02  0.1289314E+00
          3   -1    0    0  501    0  0.00000000000E+00  0.00000000000E+00  0.14469036089E+02  0.14469036089E+02  0.00000000000E+00 0. -1.
         -3   -1    0    0    0  501 -0.00000000000E+00 -0.00000000000E+00 -0.10148046505E+04  0.10148046505E+04  0.00000000000E+00 0.  1.
         23    2    1    2    0    0  0.21534160404E+02  0.28867345290E+02 -0.72906032229E+03  0.74058902451E+03  0.12508439551E+03 0.  0.
          5    1    3    3  502    0 -0.47506421200E+02  0.21408257475E+02 -0.44832868350E+03  0.45136598720E+03  0.41800000000E+01 0. -1.
         -5    1    3    3    0  502  0.69040581604E+02  0.74590878154E+01 -0.28073163879E+03  0.28922303732E+03  0.41800000000E+01 0. -1.
        -11    1    1    2    0    0 -0.42551611631E+02 -0.18923034626E+02 -0.25746173272E+03  0.26163957023E+03  0.00000000000E+00 0.  1.
         11    1    1    2    0    0  0.21017451227E+02 -0.99443106645E+01 -0.13813559422E+02  0.27045091876E+02  0.00000000000E+00 0. -1.
</event>
<event>
 7    1  0.4394360E-006  0.8577561E+02  0.7561462E-02  0.1313417E+00
         -1   -1    0    0    0  501 -0.00000000000E+00  0.00000000000E+00  0.45069948731E+02  0.45069948731E+02  0.00000000000E+00 0.  1.
          1   -1    0    0  501    0  0.00000000000E+00 -0.00000000000E+00 -0.41605179732E+03  0.41605179732E+03  0.00000000000E+00 0. -1.
         23    2    1    2    0    0 -0.70692359467E+01  0.34383889728E+02 -0.70452246159E+02  0.14490772872E+03  0.12166554518E+03 0.  0.
          5    1    3    3  502    0 -0.29746675723E+02 -0.16479357036E+02 -0.81113541113E+02  0.88052898173E+02  0.41800000000E+01 0. -1.
         -5    1    3    3    0  502  0.22677439777E+02  0.50863246764E+02  0.10661294953E+02  0.56854830544E+02  0.41800000000E+01 0.  1.
        -11    1    1    2    0    0  0.18041469788E+02 -0.55111829353E+02 -0.27695329615E+03  0.28295924904E+03  0.00000000000E+00 0.  1.
         11    1    1    2    0    0 -0.10972233842E+02  0.20727939625E+02 -0.23576306273E+02  0.33254768290E+02  0.00000000000E+00 0. -1.
</event>
<event>
 7    1  0.4394360E-006  0.1025006E+03  0.7561462E-02  0.1275124E+00
          1   -1    0    0  501    0  0.00000000000E+00  0.00000000000E+00  0.13467240356E+03  0.13467240356E+03  0.00000000000E+00 0. -1.
         -1   -1    0    0    0  501 -0.00000000000E+00 -0.00000000000E+00 -0.11766585959E+03  0.11766585959E+03  0.00000000000E+00 0.  1.
         23    2    1    2    0    0 -0.17942138726E+02 -0.35103427837E+02 -0.40992225950E+02  0.13739362222E+03  0.12506987588E+03 0.  0.
          5    1    3    3  502    0 -0.45542314105E+02 -0.71407893597E+02 -0.20607574153E+02  0.87265881961E+02  0.41800000000E+01 0.  1.
         -5    1    3    3    0  502  0.27600175379E+02  0.36304465759E+02 -0.20384651797E+02  0.50127740264E+02  0.41800000000E+01 0.  1.
        -11    1    1    2    0    0  0.41759674440E+02  0.23421025881E+02 -0.34608453917E+01  0.48004086425E+02  0.00000000000E+00 0.  1.
         11    1    1    2    0    0 -0.23817535714E+02  0.11682401956E+02  0.61459615310E+02  0.66940554502E+02  0.00000000000E+00 0. -1.
</event>
<event>
 7    1  0.4394360E-006  0.1488881E+03  0.7561462E-02  0.1201846E+00
         -1   -1    0    0    0  501 -0.00000000000E+00  0.00000000000E+00  0.46346996953E+02  0.46346996953E+02  0.00000000000E+00 0.  1.
          1   -1    0    0  501    0  0.00000000000E+00 -0.00000000000E+00 -0.65268754499E+03  0.65268754499E+03  0.00000000000E+00 0. -1.
         23    2    1    2    0    0  0.95371455768E+02  0.59279050690E+02 -0.17143770570E+03  0.24009836775E+03  0.12508644545E+03 0.  0.
          5    1    3    3  502    0  0.39372991237E+02  0.84726111430E+02 -0.14604548020E+03  0.17342289665E+03  0.41800000000E+01 0. -1.
         -5    1    3    3    0  502  0.55998464530E+02 -0.25447060740E+02 -0.25392225502E+02  0.66675471097E+02  0.41800000000E+01 0. -1.
        -11    1    1    2    0    0 -0.31797434880E+02  0.22549665125E+02 -0.76573513993E+02  0.85924777029E+02  0.00000000000E+00 0.  1.
         11    1    1    2    0    0 -0.63574020887E+02 -0.81828715814E+02 -0.35832932834E+03  0.37301139716E+03  0.00000000000E+00 0. -1.
</event>
<event>
 7    1  0.4394360E-006  0.1221293E+03  0.7561462E-02  0.1239625E+00
          1   -1    0    0  501    0  0.00000000000E+00  0.00000000000E+00  0.28797405321E+03  0.28797405321E+03  0.00000000000E+00 0. -1.
         -1   -1    0    0    0  501 -0.00000000000E+00 -0.00000000000E+00 -0.64789946970E+02  0.64789946970E+02  0.00000000000E+00 0.  1.
         23    2    1    2    0    0 -0.43827435308E+02 -0.56525387608E+02  0.69269384995E+02  0.15988082029E+03  0.12509062902E+03 0.  0.
          5    1    3    3  502    0 -0.31382037816E+02 -0.96276689506E+02  0.56898763631E+02  0.11622811597E+03  0.41800000000E+01 0.  1.
         -5    1    3    3    0  502 -0.12445397492E+02  0.39751301898E+02  0.12370621364E+02  0.43652704318E+02  0.41800000000E+01 0.  1.
        -11    1    1    2    0    0  0.14502199946E+02 -0.16729649298E+02  0.26809859961E+01  0.22302077366E+02  0.00000000000E+00 0.  1.
         11    1    1    2    0    0  0.29325235361E+02  0.73255036906E+02  0.15123373525E+03  0.17058110252E+03  0.00000000000E+00 0. -1.
</event>
<event>
 7    1  0.4394360E-006  0.6450952E+02  0.7561462E-02  0.1379826E+00
          1   -1    0    0  501    0  0.00000000000E+00  0.00000000000E+00  0.95158165008E+02  0.95158165008E+02  0.00000000000E+00 0. -1.
         -1   -1    0    0    0  501 -0.00000000000E+00 -0.00000000000E+00 -0.16894996058E+03  0.16894996058E+03  0.00000000000E+00 0.  1.
         23    2    1    2    0    0 -0.10959175570E+02  0.49048854161E+02 -0.86390556179E+02  0.16012924091E+03  0.12510856075E+03 0.  0.
          5    1    3    3  502    0 -0.48759137256E+01  0.52436564704E+02  0.17705801751E+02  0.55716565474E+02  0.41800000000E+01 0.  1.
         -5    1    3    3    0  502 -0.60832618448E+01 -0.33877105425E+01 -0.10409635793E+03  0.10441267544E+03  0.41800000000E+01 0.  1.
        -11    1    1    2    0    0 -0.15850880117E+02 -0.33539508499E+02 -0.32465762177E+02  0.49296802580E+02  0.00000000000E+00 0.  1.
         11    1    1    2    0    0  0.26810055687E+02 -0.15509345662E+02  0.45064522785E+02  0.54682082099E+02  0.00000000000E+00 0. -1.
</event>
<event>
 7    1  0.4394360E-006  0.1545844E+03  0.7561462E-02  0.1194950E+00
         -1   -1    0    0    0  501 -0.00000000000E+00  0.00000000000E+00  0.62706236633E+02  0.62706236633E+02  0.00000000000E+00 0.  1.
          1   -1    0    0  501    0  0.00000000000E+00 -0.00000000000E+00 -0.42064553869E+03  0.42064553869E+03  0.00000000000E+00 0. -1.
         23    2    1    2    0    0 -0.11806350506E+02  0.11836321945E+03 -0.16093523471E+03  0.23600093075E+03  0.12508816056E+03 0.  0.
          5    1    3    3  502    0 -0.67789935977E+02  0.66922396962E+02 -0.76007186595E+02  0.12193706348E+03  0.41800000000E+01 0. -1.
         -5    1    3    3    0  502  0.55983585471E+02  0.51440822487E+02 -0.84928048117E+02  0.11406386727E+03  0.41800000000E+01 0. -1.
        -11    1    1    2    0    0 -0.29256077615E+02 -0.49546311416E+02 -0.13258469088E+03  0.14453184877E+03  0.00000000000E+00 0. -1.
         11    1    1    2    0    0  0.41062428121E+02 -0.68816908033E+02 -0.64419376463E+02  0.10281899580E+03  0.00000000000E+00 0.  1.
</event>
<event>
 7    1  0.4394360E-006  0.9703223E+02  0.7561462E-02  0.1286663E+00
          3   -1    0    0  501    0  0.00000000000E+00  0.00000000000E+00  0.37060289048E+03  0.37060289048E+03  0.00000000000E+00 0. -1.
         -3   -1    0    0    0  501 -0.00000000000E+00 -0.00000000000E+00 -0.44358036572E+02  0.44358036572E+02  0.00000000000E+00 0.  1.
         23    2    1    2    0    0 -0.29341186684E+02  0.60707935967E+02  0.18521409767E+03  0.23345358467E+03  0.12509978214E+03 0.  0.
          5    1    3    3  502    0 -0.10214260524E+02 -0.30960012990E+02  0.10518865272E+03  0.11020425846E+03  0.41800000000E+01 0.  1.
         -5    1    3    3    0  502 -0.19126926161E+02  0.91667948957E+02  0.80025444952E+02  0.12324932620E+03  0.41800000000E+01 0.  1.
        -11    1    1    2    0    0  0.21172340618E+02 -0.41530335227E+02  0.15126542631E+03  0.15828539398E+03  0.00000000000E+00 0. -1.
         11    1    1    2    0    0  0.81688460662E+01 -0.19177600740E+02 -0.10234670071E+02  0.23221948404E+02  0.00000000000E+00 0.  1.
</event>
<event>
 7    1  0.4394360E-006  0.1414398E+03  0.7561462E-02  0.1211405E+00
         -1   -1    0    0    0  501 -0.00000000000E+00  0.00000000000E+00  0.73966124766E+02  0.73966124766E+02  0.00000000000E+00 0.  1.
          1   -1    0    0  501    0  0.00000000000E+00 -0.00000000000E+00 -0.31490672122E+03  0.31490672122E+03  0.00000000000E+00 0. -1.
         23    2    1    2    0    0  0.44133298012E+02 -0.92025902963E+02 -0.13899986378E+03  0.21303666012E+03  0.12508853510E+03 0.  0.
          5    1    3    3  502    0 -0.34814474348E+02  0.49950627202E+01 -0.21893334657E+02  0.41638789345E+02  0.41800000000E+01 0. -1.
         -5    1    3    3    0  502  0.78947772360E+02 -0.97020965683E+02 -0.11710652912E+03  0.17139787077E+03  0.41800000000E+01 0. -1.
        -11    1    1    2    0    0  0.16480188350E+02  0.36745930669E+02 -0.82084548622E+02  0.91431576336E+02  0.00000000000E+00 0. -1.
         11    1    1    2    0    0 -0.60613486362E+02  0.55279972294E+02 -0.19856184059E+02  0.84404609538E+02  0.00000000000E+00 0.  1.
</event>
<event>
 7    1  0.4394360E-006  0.1073881E+03  0.7561462E-02  0.1265485E+00
         -2   -1    0    0    0  501 -0.00000000000E+00  0.00000000000E+00  0.41505202061E+02  0.41505202061E+02  0.00000000000E+00 0.  1.
          2   -1    0    0  501    0  0.00000000000E+00 -0.00000000000E+00 -0.31837330262E+03  0.31837330262E+03  0.00000000000E+00 0. -1.
         23    2    1    2    0    0  0.99335770731E+01  0.28639093430E+02 -0.11656272552E+03  0.17364226620E+03  0.12508354810E+03 0.  0.
          5    1    3    3  502    0  0.60906276723E+02 -0.84138825445E+00 -0.27906440551E+02  0.67130650993E+02  0.41800000000E+01 0.  1.
         -5    1    3    3    0  502 -0.50972699650E+02  0.29480481685E+02 -0.88656284970E+02  0.10651161521E+03  0.41800000000E+01 0.  1.
        -11    1    1    2    0    0  0.12733564760E+02  0.29584525725E+02 -0.50406780869E+02  0.59818319865E+02  0.00000000000E+00 0.  1.
         11    1    1    2    0    0 -0.22667141833E+02 -0.58223619155E+02 -0.10989859417E+03  0.12641791861E+03  0.00000000000E+00 0. -1.
</event>
<event>
 7    1  0.4394360E-006  0.9054757E+02  0.7561462E-02  0.1301531E+00
         -2   -1    0    0    0  501 -0.00000000000E+00  0.00000000000E+00  0.22228795962E+02  0.22228795962E+02  0.00000000000E+00 0. -1.
          2   -1    0    0  501    0  0.00000000000E+00 -0.00000000000E+00 -0.77900994478E+03  0.77900994478E+03  0.00000000000E+00 0.  1.
         23    2    1    2    0    0  0.66359814214E+02 -0.25168070596E+02 -0.35389434957E+03  0.38200342839E+03  0.12509337282E+03 0.  0.
          5    1    3    3  502    0  0.33966602746E+02 -0.23224441551E+02 -0.19000133642E+02  0.45514637929E+02  0.41800000000E+01 0. -1.
         -5    1    3    3    0  502  0.32393211468E+02 -0.19436290447E+01 -0.33489421593E+03  0.33648879046E+03  0.41800000000E+01 0. -1.
        -11    1    1    2    0    0 -0.67708861031E+02  0.48726651274E+02 -0.36644950788E+03  0.37582445135E+03  0.00000000000E+00 0.  1.
         11    1    1    2    0    0  0.13490468171E+01 -0.23558580679E+02 -0.36437291371E+02  0.43410861007E+02  0.00000000000E+00 0. -1.
</event>
<event>
 7    1  0.4394360E-006  0.8340514E+02  0.7561462E-02  0.1319657E+00
         -1   -1    0    0    0  501 -0.00000000000E+00  0.00000000000E+00  0.15947394916E+03  0.15947394916E+03  0.00000000000E+00 0.  1.
          1   -1    0    0  501    0  0.00000000000E+00 -0.00000000000E+00 -0.93094880567E+02  0.93094880567E+02  0.00000000000E+00 0. -1.
         23    2    1    2    0    0  0.16107761996E+02  0.34806864055E+02  0.87575931211E+02  0.15744264433E+03  0.12509062613E+03 0.  0.
          5    1    3    3  502    0  0.39005133407E+02  0.32189198267E+02 -0.14450573773E+02  0.52762073496E+02  0.41800000000E+01 0. -1.
         -5    1    3    3    0  502 -0.22897371411E+02  0.26176657877E+01  0.10202650498E+03  0.10468057084E+03  0.41800000000E+01 0. -1.
        -11    1    1    2    0    0 -0.40899445173E+02  0.93939059097E+01 -0.11704665216E+02  0.43566148229E+02  0.00000000000E+00 0.  1.
         11    1    1    2    0    0  0.24791683177E+02 -0.44200769965E+02 -0.94921974066E+01  0.51560037159E+02  0.00000000000E+00 0. -1.
</event>
<event>
 7    1  0.4394360E-006  0.1354211E+03  0.7561462E-02  0.1219626E+00
         -2   -1    0    0    0  501 -0.00000000000E+00  0.00000000000E+00  0.43867814117E+02  0.43867814117E+02  0.00000000000E+00 0.  1.
          2   -1    0    0  501    0  0.00000000000E+00 -0.00000000000E+00 -0.48790496112E+03  0.48790496112E+03  0.00000000000E+00 0. -1.
         23    2    1    2    0    0 -0.91933759921E+02  0.34280965924E+02 -0.24769581770E+03  0.29432644431E+03  0.12509131414E+03 0.  0.
          5    1    3    3  502    0 -0.30803535780E+02 -0.43404073690E+02 -0.13020304334E+03  0.14072340362E+03  0.41800000000E+01 0. -1.
         -5    1    3    3    0  502 -0.61130224142E+02  0.77685039614E+02 -0.11749277436E+03  0.15360304069E+03  0.41800000000E+01 0. -1.
        -11    1    1    2    0    0  0.52230827238E+02  0.15833202352E+02 -0.14663267992E+03  0.15646051397E+03  0.00000000000E+00 0. -1.
         11    1    1    2    0    0  0.39702932684E+02 -0.50114168276E+02 -0.49708649387E+02  0.80985816965E+02  0.00000000000E+00 0.  1.
</event>
<event>
 7    1  0.4394360E-006  0.6272530E+02  0.7561462E-02  0.1386738E+00
         -1   -1    0    0    0  501 -0.00000000000E+00  0.00000000000E+00  0.53977310662E+02  0.53977310662E+02  0.00000000000E+00 0.  1.
          1   -1    0    0  501    0  0.00000000000E+00 -0.00000000000E+00 -0.25465221639E+03  0.25465221639E+03  0.00000000000E+00 0. -1.
         23    2    1    2    0    0 -0.21604699781E+02 -0.75693368456E+01 -0.60940781501E+02  0.14101332344E+03  0.12508765177E+03 0.  0.
          5    1    3    3  502    0 -0.25348622736E+02 -0.18400889107E+01  0.35710384021E+02  0.44030018496E+02  0.41800000000E+01 0. -1.
         -5    1    3    3    0  502  0.37439229541E+01 -0.57292479349E+01 -0.96651165522E+02  0.96983304943E+02  0.41800000000E+01 0. -1.
        -11    1    1    2    0    0 -0.31266021202E+02  0.20318451035E+02 -0.45644973453E+02  0.58939521001E+02  0.00000000000E+00 0.  1.
         11    1    1    2    0    0  0.52870720984E+02 -0.12749114189E+02 -0.94089150770E+02  0.10867668261E+03  0.00000000000E+00 0. -1.
</event>
<event>
 7    1  0.4394360E-006  0.1111595E+03  0.7561462E-02  0.1258438E+00
         -1   -1    0    0    0  501 -0.00000000000E+00  0.00000000000E+00  0.17820981788E+02  0.17820981788E+02  0.00000000000E+00 0.  1.
          1   -1    0    0  501    0  0.00000000000E+00 -0.00000000000E+00 -0.81386640590E+03  0.81386640590E+03  0.00000000000E+00 0. -1.
         23    2    1    2    0    0  0.17887583708E+01 -0.50449156272E+02 -0.36432089825E+03  0.38849098908E+03  0.12508882711E+03 0.  0.
          5    1    3    3  502    0 -0.54316790885E+02 -0.59346068383E+01 -0.93951491572E+02  0.10876529087E+03  0.41800000000E+01 0. -1.
         -5    1    3    3    0  502  0.56105549256E+02 -0.44514549433E+02 -0.27036940668E+03  0.27972569821E+03  0.41800000000E+01 0. -1.
        -11    1    1    2    0    0 -0.41315958992E+02  0.31434851768E+02 -0.16765713215E+03  0.17551088951E+03  0.00000000000E+00 0.  1.
         11    1    1    2    0    0  0.39527200621E+02  0.19014304503E+02 -0.26406739370E+03  0.26768550910E+03  0.00000000000E+00 0. -1.
</event>
<event>
 7    1  0.4394360E-006  0.9025224E+02  0.7561462E-02  0.1302242E+00
         -2   -1    0    0    0  501 -0.00000000000E+00  0.00000000000E+00  0.37687701777E+02  0.37687701777E+02  0.00000000000E+00 0.  1.
          2   -1    0    0  501    0  0.00000000000E+00 -0.00000000000E+00 -0.43859483439E+03  0.43859483439E+03  0.00000000000E+00 0. -1.
         23    2    1    2    0    0  0.20875519884E+02 -0.64209267705E+02 -0.22507344987E+03  0.26622467425E+03  0.12513553433E+03 0.  0.
          5    1    3    3  502    0 -0.22654405953E+02 -0.37603418384E+01  0.54151507289E+01  0.23961605482E+02  0.41800000000E+01 0.  1.
         -5    1    3    3    0  502  0.43529925837E+02 -0.60448925867E+02 -0.23048860060E+03  0.24226306877E+03  0.41800000000E+01 0.  1.
        -11    1    1    2    0    0 -0.35551247424E+02  0.35121074993E+02 -0.16969947406E+03  0.17690475573E+03  0.00000000000E+00 0. -1.
         11    1    1    2    0    0  0.14675727540E+02  0.29088192712E+02 -0.61342086813E+01  0.33153106192E+02  0.00000000000E+00 0.  1.
</event>
<event>
 7    1  0.4394360E-006  0.2406469E+03  0.7561462E-02  0.1119363E+00
         -1   -1    0    0    0  501 -0.00000000000E+00  0.00000000000E+00  0.80668810470E+02  0.80668810470E+02  0.00000000000E+00 0.  1.
          1   -1    0    0  501    0  0.00000000000E+00 -0.00000000000E+00 -0.93473317639E+03  0.93473317639E+03  0.00000000000E+00 0. -1.
         23    2    1    2    0    0  0.22530116575E+03 -0.52554280511E+02 -0.25252678494E+03  0.36460417162E+03  0.12507540591E+03 0.  0.
          5    1    3    3  502    0  0.26192799629E+02  0.15319296746E+02 -0.10039850136E+03  0.10496701901E+03  0.41800000000E+01 0.  1.
         -5    1    3    3    0  502  0.19910836612E+03 -0.67873577256E+02 -0.15212828358E+03  0.25963715261E+03  0.41800000000E+01 0. -1.
        -11    1    1    2    0    0 -0.20049076525E+03  0.67199086703E+02 -0.57061441864E+03  0.60853354793E+03  0.00000000000E+00 0. -1.
         11    1    1    2    0    0 -0.24810400502E+02 -0.14644806192E+02 -0.30923162348E+02  0.42264267308E+02  0.00000000000E+00 0.  1.
</event>
<event>
 7    1  0.4394360E-006  0.1401009E+03  0.7561462E-02  0.1213193E+00
         -2   -1    0    0    0  501 -0.00000000000E+00  0.00000000000E+00  0.33127859708E+03  0.33127859708E+03  0.00000000000E+00 0.  1.
          2   -1    0    0  501    0  0.00000000000E+00 -0.00000000000E+00 -0.98511560440E+02  0.98511560440E+02  0.00000000000E+00 0. -1.
         23    2    1    2    0    0 -0.10497415652E+03  0.92230198568E+01  0.23871106722E+03  0.28936773162E+03  0.12508426303E+03 0.  0.
          5    1    3    3  502    0  0.11809844759E+02  0.20635046905E+02  0.90784184013E+00  0.24157279872E+02  0.41800000000E+01 0. -1.
         -5    1    3    3    0  502 -0.11678400128E+03 -0.11412027049E+02  0.23780322538E+03  0.26521045175E+03  0.41800000000E+01 0. -1.
        -11    1    1    2    0    0  0.35099341704E+02 -0.47432970230E+02  0.80783399640E+01  0.59557619408E+02  0.00000000000E+00 0.  1.
         11    1    1    2    0    0  0.69874814819E+02  0.38209950374E+02 -0.14022370539E+02  0.80864806493E+02  0.00000000000E+00 0. -1.
</event>
<event>
 7    1  0.4394360E-006  0.9723993E+02  0.7561462E-02  0.1286209E+00
         -1   -1    0    0    0  501 -0.00000000000E+00  0.00000000000E+00  0.94626382290E+02  0.94626382290E+02  0.00000000000E+00 0.  1.
          1   -1    0    0  501    0  0.00000000000E+00 -0.00000000000E+00 -0.12546756965E+03  0.12546756965E+03  0.00000000000E+00 0. -1.
         23    2    1    2    0    0  0.18557120566E+02  0.79023121387E+01 -0.55573398954E+00  0.12273812448E+03  0.12106826628E+03 0.  0.
          5    1    3    3  502    0  0.60939724001E+02 -0.12224552983E+02 -0.27916851743E+02  0.68263553000E+02  0.41800000000E+01 0. -1.
         -5    1    3    3    0  502 -0.42382603434E+02  0.20126865122E+02  0.27361117753E+02  0.54474571482E+02  0.41800000000E+01 0.  1.
        -11    1    1    2    0    0 -0.46141819646E+02  0.15738340376E+02  0.19444142058E+01  0.48790814962E+02  0.00000000000E+00 0. -1.
         11    1    1    2    0    0  0.27584699080E+02 -0.23640652514E+02 -0.32229867572E+02  0.48565012492E+02  0.00000000000E+00 0.  1.
</event>
<event>
 7    1  0.4394360E-006  0.1452440E+03  0.7561462E-02  0.1206442E+00
         -1   -1    0    0    0  501 -0.00000000000E+00  0.00000000000E+00  0.56109938103E+02  0.56109938103E+02  0.00000000000E+00 0.  1.
          1   -1    0    0  501    0  0.00000000000E+00 -0.00000000000E+00 -0.39545162505E+03  0.39545162505E+03  0.00000000000E+00 0. -1.
         23    2    1    2    0    0  0.68543864706E+02 -0.72906661600E+02 -0.20228229024E+03  0.25802934385E+03  0.12508946659E+03 0.  0.
          5    1    3    3  502    0 -0.35671960356E+02 -0.13811141871E+02 -0.67096699134E+02  0.77347759050E+02  0.41800000000E+01 0. -1.
         -5    1    3    3    0  502  0.10421582506E+03 -0.59095519729E+02 -0.13518559110E+03  0.18068158480E+03  0.41800000000E+01 0. -1.
        -11    1    1    2    0    0 -0.74337659159E+02  0.17432406711E+02 -0.54146080983E+02  0.93604350641E+02  0.00000000000E+00 0.  1.
         11    1    1    2    0    0  0.57937944531E+01  0.55474254889E+02 -0.82913315723E+02  0.99927868654E+02  0.00000000000E+00 0. -1.
</event>
<event>
 7    1  0.4394360E-006  0.1141703E+03  0.7561462E-02  0.1253036E+00
          2   -1    0    0  501    0  0.00000000000E+00  0.00000000000E+00  0.19363286002E+03  0.19363286002E+03  0.00000000000E+00 0. -1.
         -2   -1    0    0    0  501 -0.00000000000E+00 -0.00000000000E+00 -0.94445268867E+02  0.94445268867E+02  0.00000000000E+00 0.  1.
         23    2    1    2    0    0  0.96473182604E+01 -0.77950976048E+02  0.38847367140E+02  0.15273740119E+03  0.12510064098E+03 0.  0.
          5    1    3    3  502    0 -0.31985253256E+02 -0.24282794664E+02 -0.34192387444E+02  0.52908433181E+02  0.41800000000E+01 0. -1.
         -5    1    3    3    0  502  0.41632571516E+02 -0.53668181385E+02  0.73039754585E+02  0.99828968010E+02  0.41800000000E+01 0. -1.
        -11    1    1    2    0    0  0.37270387477E+02  0.12353885453E+02  0.10921949400E+02  0.40755235825E+02  0.00000000000E+00 0.  1.
         11    1    1    2    0    0 -0.46917705738E+02  0.65597090596E+02  0.49418274610E+02  0.94585491867E+02  0.00000000000E+00 0. -1.
</event>
<event>
 7    1  0.4394360E-006  0.1292508E+03  0.7561462E-02  0.1228572E+00
          1   -1    0    0  501    0  0.00000000000E+00  0.00000000000E+00  0.72652074843E+03  0.72652074843E+03  0.00000000000E+00 0. -1.
         -1   -1    0    0    0  501 -0.00000000000E+00 -0.00000000000E+00 -0.30743593871E+02  0.30743593871E+02  0.00000000000E+00 0.  1.
         23    2    1    2    0    0  0.75199339818E+02  0.68768166133E+02  0.35037151365E+03  0.38573432560E+03  0.12508705361E+03 0.  0.
          5    1    3    3  502    0 -0.12634010676E+02 -0.85510514577E+00 -0.40926444438E+01  0.13948891322E+02  0.41800000000E+01 0. -1.
         -5    1    3    3    0  502  0.87833350494E+02  0.69623271279E+02  0.35446415810E+03  0.37178543427E+03  0.41800000000E+01 0. -1.
        -11    1    1    2    0    0 -0.66608171625E+02 -0.29942745069E+01  0.12938384570E+03  0.14555340510E+03  0.00000000000E+00 0.  1.
         11    1    1    2    0    0 -0.85911681921E+01 -0.65773891626E+02  0.21602179520E+03  0.22597661160E+03  0.00000000000E+00 0. -1.
</event>
<event>
 7    1  0.4394360E-006  0.1160589E+03  0.7561462E-02  0.1249744E+00
          2   -1    0    0  501    0  0.00000000000E+00  0.00000000000E+00  0.13911296037E+03  0.13911296037E+03  0.00000000000E+00 0. -1.
         -2   -1    0    0    0  501 -0.00000000000E+00 -0.00000000000E+00 -0.15897081642E+03  0.15897081642E+03  0.00000000000E+00 0.  1.
         23    2    1    2    0    0 -0.83329480699E+02 -0.48513447420E+02 -0.51528463326E+02  0.16613271444E+03  0.12509012488E+03 0.  0.
          5    1    3    3  502    0 -0.72221129049E+02 -0.59077666044E+02  0.17736157059E+02  0.95068952732E+02  0.41800000000E+01 0.  1.
         -5    1    3    3    0  502 -0.11108351650E+02  0.10564218624E+02 -0.69264620385E+02  0.71063761712E+02  0.41800000000E+01 0.  1.
        -11    1    1    2    0    0  0.79478846976E+02  0.55277449889E+01  0.38108136319E+02  0.88315758136E+02  0.00000000000E+00 0.  1.
         11    1    1    2    0    0  0.38506337229E+01  0.42985702432E+02 -0.64375290404E+01  0.43635304213E+02  0.00000000000E+00 0. -1.
</event>
<event>
 7    1  0.4394360E-006  0.5701459E+02  0.7561462E-02  0.1410805E+00
         -1   -1    0    0    0  501 -0.00000000000E+00  0.00000000000E+00  0.52018421001E+02  0.52018421001E+02  0.00000000000E+00 0.  1.
          1   -1    0    0  501    0  0.00000000000E+00 -0.00000000000E+00 -0.22941050763E+03  0.22941050763E+03  0.00000000000E+00 0. -1.
         23    2    1    2    0    0 -0.49519039300E+01  0.44841054528E+02 -0.64714475730E+02  0.14788945881E+03  0.12509231445E+03 0.  0.
          5    1    3    3  502    0 -0.27439529502E+01  0.34655786544E+02 -0.10258143983E+03  0.10839269817E+03  0.41800000000E+01 0. -1.
         -5    1    3    3    0  502 -0.22079509799E+01  0.10185267983E+02  0.37866964097E+02  0.39496760644E+02  0.41800000000E+01 0. -1.
        -11    1    1    2    0    0  0.27890017089E+02 -0.24056929410E+02 -0.82318206717E+02  0.90182459841E+02  0.00000000000E+00 0. -1.
         11    1    1    2    0    0 -0.22938113159E+02 -0.20784125118E+02 -0.30359404187E+02  0.43357009984E+02  0.00000000000E+00 0.  1.
</event>
<event>
 7    1  0.4394360E-006  0.1131904E+03  0.7561462E-02  0.1254773E+00
         -2   -1    0    0    0  501 -0.00000000000E+00  0.00000000000E+00  0.75602715137E+02  0.75602715137E+02  0.00000000000E+00 0.  1.
          2   -1    0    0  501    0  0.00000000000E+00 -0.00000000000E+00 -0.38601211258E+03  0.38601211258E+03  0.00000000000E+00 0. -1.
         23    2    1    2    0    0 -0.44457328024E+02  0.88801058709E+02 -0.59647013297E+02  0.17049726185E+03  0.12509783395E+03 0.  0.
          5    1    3    3  502    0 -0.61708029650E+02  0.48939805980E+02  0.18484471234E+02  0.81006997287E+02  0.41800000000E+01 0. -1.
         -5    1    3    3    0  502  0.17250701626E+02  0.39861252730E+02 -0.78131484531E+02  0.89490264558E+02  0.41800000000E+01 0. -1.
        -11    1    1    2    0    0  0.42431759836E+01 -0.41819216176E+02 -0.10918106991E+02  0.43428751355E+02  0.00000000000E+00 0.  1.
         11    1    1    2    0    0  0.40214152040E+02 -0.46981842533E+02 -0.23984427715E+03  0.24768881452E+03  0.00000000000E+00 0. -1.
</event>
<event>
 7    1  0.4394360E-006  0.8319407E+02  0.7561462E-02  0.1320224E+00
          1   -1    0    0  501    0  0.00000000000E+00  0.00000000000E+00  0.75688260075E+03  0.75688260075E+03  0.00000000000E+00 0. -1.
         -1   -1    0    0    0  501 -0.00000000000E+00 -0.00000000000E+00 -0.19139343866E+02  0.19139343866E+02  0.00000000000E+00 0.  1.
         23    2    1    2    0    0  0.46205680177E+02  0.39206375310E+02  0.34413282655E+03  0.36711054038E+03  0.11256394539E+03 0.  0.
          5    1    3    3  502    0  0.11251463708E+02  0.27440612915E+02  0.32302607252E+03  0.32441161909E+03  0.41800000000E+01 0. -1.
         -5    1    3    3    0  502  0.34954216469E+02  0.11765762395E+02  0.21106754033E+02  0.42698921292E+02  0.41800000000E+01 0.  1.
        -11    1    1    2    0    0 -0.15811713030E+02 -0.60290144044E+02  0.32540731013E+03  0.33132284742E+03  0.00000000000E+00 0. -1.
         11    1    1    2    0    0 -0.30393967148E+02  0.21083768734E+02  0.68203120205E+02  0.77588556816E+02  0.00000000000E+00 0.  1.
</event>
<event>
 7    1  0.4394360E-006  0.1553826E+03  0.7561462E-02  0.1194011E+00
         -1   -1    0    0    0  501 -0.00000000000E+00  0.00000000000E+00  0.11942730499E+03  0.11942730499E+03  0.00000000000E+00 0.  1.
          1   -1    0    0  501    0  0.00000000000E+00 -0.00000000000E+00 -0.26837730975E+03  0.26837730975E+03  0.00000000000E+00 0. -1.
         23    2    1    2    0    0 -0.78587663266E+02 -0.88122931459E+02  0.69980919290E+01  0.17215698163E+03  0.12508949264E+03 0.  0.
          5    1    3    3  502    0  0.17885197677E+02  0.19068181126E+02 -0.64795265687E+01  0.27256787997E+02  0.41800000000E+01 0.  1.
         -5    1    3    3    0  502 -0.96472860943E+02 -0.10719111258E+03  0.13477618498E+02  0.14490019364E+03  0.41800000000E+01 0.  1.
        -11    1    1    2    0    0  0.58588508806E+02  0.10062041278E+03 -0.94924367603E+02  0.15022555174E+03  0.00000000000E+00 0.  1.
         11    1    1    2    0    0  0.19999154460E+02 -0.12497481319E+02 -0.61023729086E+02  0.65422081364E+02  0.00000000000E+00 0. -1.
</event>
<event>
 7    1  0.4394360E-006  0.1722500E+03  0.7561462E-02  0.1175522E+00
         -1   -1    0    0    0  501 -0.00000000000E+00  0.00000000000E+00  0.53949836185E+03  0.53949836185E+03  0.00000000000E+00 0.  1.
          1   -1    0    0  501    0  0.00000000000E+00 -0.00000000000E+00 -0.67346343711E+02  0.67346343711E+02  0.00000000000E+00 0. -1.
         23    2    1    2    0    0 -0.12668733833E+03 -0.79664069778E+02  0.32063913406E+03  0.37530447909E+03  0.12509177443E+03 0.  0.
          5    1    3    3  502    0  0.18777228322E+02 -0.39407824265E+02  0.65140981129E+02  0.78526306034E+02  0.41800000000E+01 0.  1.
         -5    1    3    3    0  502 -0.14546456665E+03 -0.40256245513E+02  0.25549815293E+03  0.29677817306E+03  0.41800000000E+01 0.  1.
        -11    1    1    2    0    0  0.77536619524E+02  0.48085138249E+02  0.14691349591E+03  0.17293837968E+03  0.00000000000E+00 0.  1.
         11    1    1    2    0    0  0.49150718802E+02  0.31578931529E+02  0.45993881715E+01  0.58601846787E+02  0.00000000000E+00 0. -1.
</event>
<event>
 7    1  0.4394360E-006  0.1075778E+03  0.7561462E-02  0.1265122E+00
         -1   -1    0    0    0  501 -0.00000000000E+00  0.00000000000E+00  0.65899318564E+03  0.65899318564E+03  0.00000000000E+00 0.  1.
          1   -1    0    0  501    0  0.00000000000E+00 -0.00000000000E+00 -0.21189781853E+02  0.21189781853E+02  0.00000000000E+00 0. -1.
         23    2    1    2    0    0 -0.39840912143E+02  0.20546389403E+02  0.37451750740E+03  0.39739046611E+03  0.12508543804E+03 0.  0.
          5    1    3    3  502    0  0.35945397679E+02 -0.16204239624E+02  0.61193521026E+02  0.72916173868E+02  0.41800000000E+01 0.  1.
         -5    1    3    3    0  502 -0.75786309821E+02  0.36750629027E+02  0.31332398637E+03  0.32447429224E+03  0.41800000000E+01 0.  1.
        -11    1    1    2    0    0  0.37655337629E+02 -0.49469017611E+02  0.10626562894E+03  0.12311576686E+03  0.00000000000E+00 0. -1.
         11    1    1    2    0    0  0.21855745141E+01  0.28922628207E+02  0.15702026744E+03  0.15967673452E+03  0.00000000000E+00 0.  1.
</event>
<event>
 7    1  0.4394360E-006  0.1405860E+03  0.7561462E-02  0.1212543E+00
         -1   -1    0    0    0  501 -0.00000000000E+00  0.00000000000E+00  0.12116428720E+03  0.12116428720E+03  0.00000000000E+00 0.  1.
          1   -1    0    0  501    0  0.00000000000E+00 -0.00000000000E+00 -0.19460121285E+03  0.19460121285E+03  0.00000000000E+00 0. -1.
         23    2    1    2    0    0 -0.61642812188E+02  0.57890249068E+02 -0.96359671188E+01  0.15130515758E+03  0.12509708875E+03 0.  0.
          5    1    3    3  502    0 -0.91325558490E+02  0.71546560041E+01 -0.11015270833E+02  0.92359922735E+02  0.41800000000E+01 0.  1.
         -5    1    3    3    0  502  0.29682746302E+02  0.50735593064E+02  0.13793037138E+01  0.58945234840E+02  0.41800000000E+01 0.  1.
        -11    1    1    2    0    0  0.54277243954E+02 -0.85882869167E+02 -0.83873668494E+01  0.10194230893E+03  0.00000000000E+00 0.  1.
         11    1    1    2    0    0  0.73655682348E+01  0.27992620098E+02 -0.55413591685E+02  0.62518033549E+02  0.00000000000E+00 0. -1.
</event>
<event>
 7    1  0.4394360E-006  0.1269007E+03  0.7561462E-02  0.1232128E+00
         -4   -1    0    0    0  501 -0.00000000000E+00  0.00000000000E+00  0.80094755621E+02  0.80094755621E+02  0.00000000000E+00 0. -1.
          4   -1    0    0  501    0  0.00000000000E+00 -0.00000000000E+00 -0.26389398809E+03  0.26389398809E+03  0.00000000000E+00 0.  1.
         23    2    1    2    0    0 -0.52848298102E+02 -0.42366793807E+02 -0.22259820870E+02  0.14397171656E+03  0.12507784661E+03 0.  0.
          5    1    3    3  502    0 -0.59975685074E+02  0.30136786744E+02 -0.22755539365E+02  0.70997152669E+02  0.41800000000E+01 0. -1.
         -5    1    3    3    0  502  0.71273869725E+01 -0.72503580551E+02  0.49571849556E+00  0.72974563888E+02  0.41800000000E+01 0. -1.
        -11    1    1    2    0    0 -0.13482889244E+02  0.45217213774E+02 -0.94718486524E+02  0.10582049146E+03  0.00000000000E+00 0.  1.
         11    1    1    2    0    0  0.66331187345E+02 -0.28504199664E+01 -0.66820925078E+02  0.94196535694E+02  0.00000000000E+00 0. -1.
</event>
<event>
 7    1  0.4394360E-006  0.2224271E+03  0.7561462E-02  0.1132086E+00
         -1   -1    0    0    0  501 -0.00000000000E+00  0.00000000000E+00  0.39062248816E+02  0.39062248816E+02  0.00000000000E+00 0.  1.
          1   -1    0    0  501    0  0.00000000000E+00 -0.00000000000E+00 -0.15558713435E+04  0.15558713435E+04  0.00000000000E+00 0. -1.
         23    2    1    2    0    0 -0.17413172736E+03 -0.11189278788E+03 -0.52977445659E+03  0.58236605154E+03  0.12508952268E+03 0.  0.
          5    1    3    3  502    0 -0.13491926067E+03 -0.28340615528E+02 -0.22514639341E+03  0.26403554354E+03  0.41800000000E+01 0.  1.
         -5    1    3    3    0  502 -0.39212466694E+02 -0.83552172355E+02 -0.30462806318E+03  0.31833050800E+03  0.41800000000E+01 0.  1.
        -11    1    1    2    0    0  0.86020717625E+02  0.22273744419E+02 -0.26037443190E+03  0.27511911664E+03  0.00000000000E+00 0.  1.
         11    1    1    2    0    0  0.88111009738E+02  0.89619043464E+02 -0.72666020615E+03  0.73744842409E+03  0.00000000000E+00 0. -1.
</event>
<event>
 7    1  0.4394360E-006  0.9823937E+02  0.7561462E-02  0.1284042E+00
         -2   -1    0    0    0  501 -0.00000000000E+00  0.00000000000E+00  0.54313830884E+03  0.54313830884E+03  0.00000000000E+00 0.  1.
          2   -1    0    0  501    0  0.00000000000E+00 -0.00000000000E+00 -0.29093428516E+02  0.29093428516E+02  0.00000000000E+00 0. -1.
         23    2    1    2    0    0 -0.14771333750E+02 -0.24547568711E+02  0.41284747824E+03  0.43233547142E+03  0.12510053611E+03 0.  0.
          5    1    3    3  502    0 -0.40377996906E+02  0.35888083560E+02  0.11245946447E+03  0.12483164953E+03  0.41800000000E+01 0. -1.
         -5    1    3    3    0  502  0.25606663156E+02 -0.60435652271E+02  0.30038801377E+03  0.30750382190E+03  0.41800000000E+01 0. -1.
        -11    1    1    2    0    0  0.26665978102E+02  0.45323490129E+02  0.21726111971E+02  0.56897426014E+02  0.00000000000E+00 0. -1.
         11    1    1    2    0    0 -0.11894644352E+02 -0.20775921418E+02  0.79471290119E+02  0.82998839921E+02  0.00000000000E+00 0.  1.
</event>
<event>
 7    1  0.4394360E-006  0.2988842E+03  0.7561462E-02  0.1085800E+00
          2   -1    0    0  501    0  0.00000000000E+00  0.00000000000E+00  0.26169188726E+04  0.26169188726E+04  0.00000000000E+00 0. -1.
         -2   -1    0    0    0  501 -0.00000000000E+00 -0.00000000000E+00 -0.39339424238E+02  0.39339424238E+02  0.00000000000E+00 0.  1.
         23    2    1    2    0    0 -0.10903112195E+03  0.26825219167E+03  0.99629878783E+03  0.10450387811E+04  0.12509098890E+03 0.  0.
          5    1    3    3  502    0  0.13388281835E+02  0.42936883338E+02  0.29256339216E+03  0.29602978376E+03  0.41800000000E+01 0. -1.
         -5    1    3    3    0  502 -0.12241940379E+03  0.22531530834E+03  0.70373539567E+03  0.74900899735E+03  0.41800000000E+01 0. -1.
        -11    1    1    2    0    0  0.67456296534E+02 -0.22984798199E+03  0.14252733641E+04  0.14452628167E+04  0.00000000000E+00 0.  1.
         11    1    1    2    0    0  0.41574825419E+02 -0.38404209686E+02  0.15600729645E+03  0.16595669910E+03  0.00000000000E+00 0. -1.
</event>
<event>
 7    1  0.4394360E-006  0.9606768E+02  0.7561462E-02  0.1288789E+00
         -1   -1    0    0    0  501 -0.00000000000E+00  0.00000000000E+00  0.26969816543E+03  0.26969816543E+03  0.00000000000E+00 0.  1.
          1   -1    0    0  501    0  0.00000000000E+00 -0.00000000000E+00 -0.14044267030E+03  0.14044267030E+03  0.00000000000E+00 0. -1.
         23    2    1    2    0    0 -0.47394413692E+02  0.34899860259E+02  0.22686444167E+03  0.26566728788E+03  0.12508957694E+03 0.  0.
          5    1    3    3  502    0  0.97689299881E+01  0.32426675424E+02  0.19897197977E+03  0.20187680007E+03  0.41800000000E+01 0.  1.
         -5    1    3    3    0  502 -0.57163343680E+02  0.24731848348E+01  0.27892461897E+02  0.63790487806E+02  0.41800000000E+01 0.  1.
        -11    1    1    2    0    0  0.70637322178E+02 -0.30714755409E+02 -0.51465505784E+02  0.92637604513E+02  0.00000000000E+00 0.  1.
         11    1    1    2    0    0 -0.23242908486E+02 -0.41851048504E+01 -0.46143440757E+02  0.51835943345E+02  0.00000000000E+00 0. -1.
</event>
<event>
 7    1  0.4394360E-006  0.1024913E+03  0.7561462E-02  0.1275143E+00
          2   -1    0    0  501    0  0.00000000000E+00  0.00000000000E+00  0.45825027404E+03  0.45825027404E+03  0.00000000000E+00 0. -1.
         -2   -1    0    0    0  501 -0.00000000000E+00 -0.00000000000E+00 -0.32036538671E+02  0.32036538671E+02  0.00000000000E+00 0.  1.
         23    2    1    2    0    0 -0.10938013545E+02 -0.49878442178E+02  0.19891014769E+03  0.24046134345E+03  0.12509561026E+03 0.  0.
          5    1    3    3  502    0 -0.50139241643E+02  0.32216589823E+00  0.15506344005E+03  0.16302205428E+03  0.41800000000E+01 0.  1.
         -5    1    3    3    0  502  0.39201228098E+02 -0.50200608076E+02  0.43846707645E+02  0.77439289169E+02  0.41800000000E+01 0.  1.
        -11    1    1    2    0    0  0.11952314661E+02 -0.18731835469E+02  0.12289260216E+03  0.12488527196E+03  0.00000000000E+00 0. -1.
         11    1    1    2    0    0 -0.10143011163E+01  0.68610277647E+02  0.10441098551E+03  0.12494019729E+03  0.00000000000E+00 0.  1.
</event>
<event>
 7    1  0.4394360E-006  0.1310013E+03  0.7561462E-02  0.1225977E+00
         -2   -1    0    0    0  501 -0.00000000000E+00  0.00000000000E+00  0.24609481359E+02  0.24609481359E+02  0.00000000000E+00 0. -1.
          2   -1    0    0  501    0  0.00000000000E+00 -0.00000000000E+00 -0.98234532605E+03  0.98234532605E+03  0.00000000000E+00 0.  1.
         23    2    1    2    0    0 -0.37426988091E+02  0.93150240398E+02 -0.37040677424E+03  0.40364125666E+03  0.12508932390E+03 0.  0.
          5    1    3    3  502    0 -0.50849233550E+02  0.10593382344E+03 -0.19867215376E+03  0.23085865065E+03  0.41800000000E+01 0.  1.
         -5    1    3    3    0  502  0.13422245460E+02 -0.12783583044E+02 -0.17173462048E+03  0.17278260601E+03  0.41800000000E+01 0.  1.
        -11    1    1    2    0    0  0.60664687521E+02 -0.64818744845E+02 -0.51088228804E+03  0.51853870273E+03  0.00000000000E+00 0.  1.
         11    1    1    2    0    0 -0.23237699430E+02 -0.28331495553E+02 -0.76446782413E+02  0.84774848018E+02  0.00000000000E+00 0. -1.
</event>
<event>
 7    1  0.4394360E-006  0.1348051E+03  0.7561462E-02  0.1220495E+00
          1   -1    0    0  501    0  0.00000000000E+00  0.00000000000E+00  0.27199051778E+03  0.27199051778E+03  0.00000000000E+00 0. -1.
         -1   -1    0    0    0  501 -0.00000000000E+00 -0.00000000000E+00 -0.79202468164E+02  0.79202468164E+02  0.00000000000E+00 0.  1.
         23    2    1    2    0    0 -0.89039593653E+02 -0.38046577816E+02  0.12497800045E+03  0.20159346264E+03  0.12507930389E+03 0.  0.
          5    1    3    3  502    0  0.24447571750E+02  0.16468865056E+02  0.39056025135E+02  0.49109599673E+02  0.41800000000E+01 0.  1.
         -5    1    3    3    0  502 -0.11348716540E+03 -0.54515442872E+02  0.85921975312E+02  0.15248386296E+03  0.41800000000E+01 0.  1.
        -11    1    1    2    0    0  0.37330952595E+02 -0.14589964831E+02 -0.11076808180E+02  0.41583203038E+02  0.00000000000E+00 0.  1.
         11    1    1    2    0    0  0.51708641058E+02  0.52636542648E+02  0.78886857345E+02  0.10801632027E+03  0.00000000000E+00 0. -1.
</event>
<event>
 7    1  0.4394360E-006  0.1011201E+03  0.7561462E-02  0.1277958E+00
          1   -1    0    0  501    0  0.00000000000E+00  0.00000000000E+00  0.43267466242E+03  0.43267466242E+03  0.00000000000E+00 0. -1.
         -1   -1    0    0    0  501 -0.00000000000E+00 -0.00000000000E+00 -0.46537350123E+02  0.46537350123E+02  0.00000000000E+00 0.  1.
         23    2    1    2    0    0 -0.31248583009E+02 -0.29893114961E+02  0.73087678032E+02  0.15119137179E+03  0.12508776904E+03 0.  0.
          5    1    3    3  502    0  0.36830366308E+02 -0.14618953094E+01 -0.11533131768E+02  0.38847117636E+02  0.41800000000E+01 0.  1.
         -5    1    3    3    0  502 -0.68078949317E+02 -0.28431219651E+02  0.84620809800E+02  0.11234425416E+03  0.41800000000E+01 0.  1.
        -11    1    1    2    0    0  0.32894442184E+02 -0.21843370107E+02  0.19747189036E+03  0.20138104336E+03  0.00000000000E+00 0. -1.
         11    1    1    2    0    0 -0.16458591753E+01  0.51736485068E+02  0.11557774390E+03  0.12663959738E+03  0.00000000000E+00 0.  1.
</event>
<event>
 7    1  0.4394360E-006  0.9317792E+02  0.7561462E-02  0.1295333E+00
         -4   -1    0    0    0  501 -0.00000000000E+00  0.00000000000E+00  0.28018861049E+03  0.28018861049E+03  0.00000000000E+00 0.  1.
          4   -1    0    0  501    0  0.00000000000E+00 -0.00000000000E+00 -0.43217016979E+02  0.43217016979E+02  0.00000000000E+00 0. -1.
         23    2    1    2    0    0  0.14905878828E+02 -0.17835680193E+02  0.15414003727E+03  0.19986867692E+03  0.12509212690E+03 0.  0.
          5    1    3    3  502    0  0.53961558920E+02  0.12286788410E+01  0.14565564822E+03  0.15539111864E+03  0.41800000000E+01 0. -1.
         -5    1    3    3    0  502 -0.39055680092E+02 -0.19064359034E+02  0.84843890418E+01  0.44477558277E+02  0.41800000000E+01 0. -1.
        -11    1    1    2    0    0  0.34359044925E+02 -0.41517900496E+01  0.17412959266E+02  0.38742644194E+02  0.00000000000E+00 0.  1.
         11    1    1    2    0    0 -0.49264923753E+02  0.21987470243E+02  0.65418596980E+02  0.84794306359E+02  0.00000000000E+00 0. -1.
</event>
<event>
 7    1  0.4394360E-006  0.1150657E+03  0.7561462E-02  0.1251466E+00
          3   -1    0    0  501    0  0.00000000000E+00  0.00000000000E+00  0.70057378036E+02  0.70057378036E+02  0.00000000000E+00 0. -1.
         -3   -1    0    0    0  501 -0.00000000000E+00 -0.00000000000E+00 -0.32942275647E+03  0.32942275647E+03  0.00000000000E+00 0.  1.
         23    2    1    2    0    0 -0.95609533438E+01 -0.10485307179E+03 -0.11912566704E+03  0.20228923935E+03  0.12507770911E+03 0.  0.
          5    1    3    3  502    0 -0.13364337831E+02 -0.56977354169E+02  0.14326580331E+02  0.60396586972E+02  0.41800000000E+01 0. -1.
         -5    1    3    3    0  502  0.38033844876E+01 -0.47875717623E+02 -0.13345224737E+03  0.14189265238E+03  0.41800000000E+01 0. -1.
        -11    1    1    2    0    0  0.33202522170E+02  0.88447940716E+02 -0.13940624866E+03  0.16840293305E+03  0.00000000000E+00 0.  1.
         11    1    1    2    0    0 -0.23641568826E+02  0.16405131077E+02 -0.83346274353E+00  0.28787962108E+02  0.00000000000E+00 0. -1.
</event>
<event>
 7    1  0.4394360E-006  0.9679252E+02  0.7561462E-02  0.1287189E+00
         -2   -1    0    0    0  501 -0.00000000000E+00  0.00000000000E+00  0.52068794486E+02  0.52068794486E+02  0.00000000000E+00 0.  1.
          2   -1    0    0  501    0  0.00000000000E+00 -0.00000000000E+00 -0.24670099829E+03  0.24670099829E+03  0.00000000000E+00 0. -1.
         23    2    1    2    0    0 -0.20749204642E+02  0.21539364175E+02 -0.85061142123E+02  0.15419529557E+03  0.12508524123E+03 0.  0.
          5    1    3    3  502    0  0.17494793839E+02  0.65441271452E+02 -0.30922117082E+02  0.74580678098E+02  0.41800000000E+01 0. -1.
         -5    1    3    3    0  502 -0.38243998481E+02 -0.43901907277E+02 -0.54139025041E+02  0.79614617469E+02  0.41800000000E+01 0. -1.
        -11    1    1    2    0    0  0.35774240999E+02  0.57091543154E+01 -0.63677699237E+01  0.36782322600E+02  0.00000000000E+00 0.  1.
         11    1    1    2    0    0 -0.15025036356E+02 -0.27248518491E+02 -0.10320329176E+03  0.10779217461E+03  0.00000000000E+00 0. -1.
</event>
<event>
 7    1  0.4394360E-006  0.8933431E+02  0.7561462E-02  0.1304472E+00
          2   -1    0    0  501    0  0.00000000000E+00  0.00000000000E+00  0.71511649229E+03  0.71511649229E+03  0.00000000000E+00 0. -1.
         -2   -1    0    0    0  501 -0.00000000000E+00 -0.00000000000E+00 -0.16960450505E+02  0.16960450505E+02  0.00000000000E+00 0.  1.
         23    2    1    2    0    0 -0.88169465711E+01 -0.14187708135E+02  0.36477962615E+03  0.38539073417E+03  0.12321855674E+03 0.  0.
          5    1    3    3  502    0  0.59954690290E+01  0.33505274443E+02  0.30698375190E+03  0.30889325890E+03  0.41800000000E+01 0. -1.
         -5    1    3    3    0  502 -0.14812415600E+02 -0.47692982577E+02  0.57795874247E+02  0.76497475272E+02  0.41800000000E+01 0.  1.
        -11    1    1    2    0    0 -0.25558480484E+02  0.42589452557E+02  0.19897714837E+03  0.20508291730E+03  0.00000000000E+00 0.  1.
         11    1    1    2    0    0  0.34375427055E+02 -0.28401744423E+02  0.13439926727E+03  0.14160329132E+03  0.00000000000E+00 0. -1.
</event>
<event>
 7    1  0.4394360E-006  0.7470430E+02  0.7561462E-02  0.1344789E+00
          1   -1    0    0  501    0  0.00000000000E+00  0.00000000000E+00  0.13237771420E+03  0.13237771420E+03  0.00000000000E+00 0. -1.
         -1   -1    0    0    0  501 -0.00000000000E+00 -0.00000000000E+00 -0.26468540182E+03  0.26468540182E+03  0.00000000000E+00 0.  1.
         23    2    1    2    0    0  0.33192354399E+01  0.43243098745E+02 -0.22417202216E+03  0.26034638771E+03  0.12508462400E+03 0.  0.
          5    1    3    3  502    0  0.67973914274E+01 -0.35964769205E+01  0.14567404068E+02  0.16994729704E+02  0.41800000000E+01 0.  1.
         -5    1    3    3    0  502 -0.34781559875E+01  0.46839575665E+02 -0.23873942622E+03  0.24335165800E+03  0.41800000000E+01 0.  1.
        -11    1    1    2    0    0 -0.47928877048E+01  0.24892688736E+02  0.51776360914E+02  0.57649017985E+02  0.00000000000E+00 0. -1.
         11    1    1    2    0    0  0.14736522649E+01 -0.68135787481E+02  0.40087973625E+02  0.79067710325E+02  0.00000000000E+00 0.  1.
</event>
<event>
 7    1  0.4394360E-006  0.1450488E+03  0.7561462E-02  0.1206692E+00
         -4   -1    0    0    0  501 -0.00000000000E+00  0.00000000000E+00  0.43343274079E+02  0.43343274079E+02  0.00000000000E+00 0.  1.
          4   -1    0    0  501    0  0.00000000000E+00 -0.00000000000E+00 -0.52983329625E+03  0.52983329625E+03  0.00000000000E+00 0. -1.
         23    2    1    2    0    0 -0.92332063579E+01 -0.11028445997E+03 -0.26224717458E+03  0.31091770071E+03  0.12509325254E+03 0.  0.
          5    1    3    3  502    0  0.37745908316E+02  0.87197730487E+01 -0.58117815660E+02  0.69971000663E+02  0.41800000000E+01 0. -1.
         -5    1    3    3    0  502 -0.46979114674E+02 -0.11900423302E+03 -0.20412935892E+03  0.24094670005E+03  0.41800000000E+01 0. -1.
        -11    1    1    2    0    0 -0.19073187049E+02  0.16699166248E+02 -0.10930208588E+02  0.27606486146E+02  0.00000000000E+00 0.  1.
         11    1    1    2    0    0  0.28306393406E+02  0.93585293724E+02 -0.21331263901E+03  0.23465238347E+03  0.00000000000E+00 0. -1.
</event>
<event>
 7    1  0.4394360E-006  0.6289601E+02  0.7561462E-02  0.1386065E+00
          2   -1    0    0  501    0  0.00000000000E+00  0.00000000000E+00  0.12601818667E+03  0.12601818667E+03  0.00000000000E+00 0. -1.
         -2   -1    0    0    0  501 -0.00000000000E+00 -0.00000000000E+00 -0.11998832550E+03  0.11998832550E+03  0.00000000000E+00 0.  1.
         23    2    1    2    0    0 -0.91502455415E+00  0.51557629344E+02 -0.22576915307E+02  0.13717137624E+03  0.12508894013E+03 0.  0.
          5    1    3    3  502    0 -0.48119088263E+01  0.14572528463E+02  0.51650132296E+02  0.54043701007E+02  0.41800000000E+01 0. -1.
         -5    1    3    3    0  502  0.38968842722E+01  0.36985100881E+02 -0.74227047603E+02  0.83127675235E+02  0.41800000000E+01 0. -1.
        -11    1    1    2    0    0 -0.23576139364E+02 -0.37292144362E+02  0.54723858977E+02  0.70293947960E+02  0.00000000000E+00 0. -1.
         11    1    1    2    0    0  0.24491163918E+02 -0.14265484982E+02 -0.26117082500E+02  0.38541187970E+02  0.00000000000E+00 0.  1.
</event>
<event>
 7    1  0.4394360E-006  0.1047540E+03  0.7561462E-02  0.1270605E+00
         -2   -1    0    0    0  501 -0.00000000000E+00  0.00000000000E+00  0.13264673970E+03  0.13264673970E+03  0.00000000000E+00 0.  1.
          2   -1    0    0  501    0  0.00000000000E+00 -0.00000000000E+00 -0.10364507697E+03  0.10364507697E+03  0.00000000000E+00 0. -1.
         23    2    1    2    0    0 -0.36067179902E+02 -0.98993203812E+01  0.31392805065E+02  0.13428320912E+03  0.12509050337E+03 0.  0.
          5    1    3    3  502    0 -0.94516272056E+01 -0.55930474826E+02  0.52038261543E+02  0.77090883608E+02  0.41800000000E+01 0.  1.
         -5    1    3    3    0  502 -0.26615552696E+02  0.46031154445E+02 -0.20645456478E+02  0.57192325517E+02  0.41800000000E+01 0.  1.
        -11    1    1    2    0    0 -0.29216623391E+02  0.16708292149E+02  0.10211504077E+02  0.35171763169E+02  0.00000000000E+00 0.  1.
         11    1    1    2    0    0  0.65283803292E+02 -0.68089717676E+01 -0.12602646411E+02  0.66836844371E+02  0.00000000000E+00 0. -1.
</event>
<event>
 7    1  0.4394360E-006  0.1183256E+03  0.7561462E-02  0.1245885E+00
          2   -1    0    0  501    0  0.00000000000E+00  0.00000000000E+00  0.23490926154E+02  0.23490926154E+02  0.00000000000E+00 0. -1.
         -2   -1    0    0    0  501 -0.00000000000E+00 -0.00000000000E+00 -0.91254838880E+03  0.91254838880E+03  0.00000000000E+00 0.  1.
         23    2    1    2    0    0 -0.55013013781E+02 -0.22550664946E+02 -0.72227872921E+03  0.73543811553E+03  0.12509074680E+03 0.  0.
          5    1    3    3  502    0 -0.72711509240E+02  0.24083683774E+02 -0.27938247669E+03  0.28972232928E+03  0.41800000000E+01 0.  1.
         -5    1    3    3    0  502  0.17698495459E+02 -0.46634348720E+02 -0.44289625252E+03  0.44571578625E+03  0.41800000000E+01 0.  1.
        -11    1    1    2    0    0 -0.25922348241E+02  0.20621259419E+00 -0.54973770882E+02  0.60779323351E+02  0.00000000000E+00 0. -1.
         11    1    1    2    0    0  0.80935362022E+02  0.22344452352E+02 -0.11180496256E+03  0.13982187607E+03  0.00000000000E+00 0.  1.
</event>
<event>
 7    1  0.4394360E-006  0.2117658E+03  0.7561462E-02  0.1140175E+00
          1   -1    0    0  501    0  0.00000000000E+00  0.00000000000E+00  0.13716586533E+04  0.13716586533E+04  0.00000000000E+00 0. -1.
         -1   -1    0    0    0  501 -0.00000000000E+00 -0.00000000000E+00 -0.39801900431E+02  0.39801900431E+02  0.00000000000E+00 0.  1.
         23    2    1    2    0    0 -0.19735093932E+03 -0.14919027905E+02  0.87675578325E+03  0.90747927507E+03  0.12509180857E+03 0.  0.
          5    1    3    3  502    0 -0.85557501084E+02  0.44396818908E+02  0.24813442854E+03  0.26623172340E+03  0.41800000000E+01 0.  1.
         -5    1    3    3    0  502 -0.11179343824E+03 -0.59315846812E+02  0.62862135471E+03  0.64124755167E+03  0.41800000000E+01 0.  1.
        -11    1    1    2    0    0  0.55693889611E+02  0.18611054393E+02  0.23487164469E+03  0.24210095036E+03  0.00000000000E+00 0. -1.
         11    1    1    2    0    0  0.14165704971E+03 -0.36920264882E+01  0.22022932494E+03  0.26188032831E+03  0.00000000000E+00 0.  1.
</event>
<event>
 7    1  0.4394360E-006  0.1053785E+03  0.7561462E-02  0.1269376E+00
         -1   -1    0    0    0  501 -0.00000000000E+00  0.00000000000E+00  0.45468806724E+03  0.45468806724E+03  0.00000000000E+00 0.  1.
          1   -1    0    0  501    0  0.00000000000E+00 -0.00000000000E+00 -0.35436208575E+02  0.35436208575E+02  0.00000000000E+00 0. -1.
         23    2    1    2    0    0 -0.69750318744E+01  0.57911692889E+02  0.24966135092E+03  0.28527277424E+03  0.12508936940E+03 0.  0.
          5    1    3    3  502    0  0.18786616457E+02 -0.31651009404E+02  0.33924182375E+02  0.50229930360E+02  0.41800000000E+01 0.  1.
         -5    1    3    3    0  502 -0.25761648332E+02  0.89562702292E+02  0.21573716854E+03  0.23504284388E+03  0.41800000000E+01 0.  1.
        -11    1    1    2    0    0 -0.24213851805E+02 -0.20561593736E+02  0.37109756575E+01  0.31982199682E+02  0.00000000000E+00 0. -1.
         11    1    1    2    0    0  0.31188883679E+02 -0.37350099153E+02  0.16587953209E+03  0.17286930189E+03  0.00000000000E+00 0.  1.
</event>
<event>
 7    1  0.4394360E-006  0.1113976E+03  0.7561462E-02  0.1258003E+00
         -2   -1    0    0    0  501 -0.00000000000E+00  0.00000000000E+00  0.70188450193E+02  0.70188450193E+02  0.00000000000E+00 0.  1.
          2   -1    0    0  501    0  0.00000000000E+00 -0.00000000000E+00 -0.34891102689E+03  0.34891102689E+03  0.00000000000E+00 0. -1.
         23    2    1    2    0    0 -0.88757158121E+02  0.16191756014E+02 -0.64888151317E+02  0.16732655850E+03  0.12509076271E+03 0.  0.
          5    1    3    3  502    0 -0.87888081822E+02  0.13091274244E+02  0.12437346776E+02  0.89821246833E+02  0.41800000000E+01 0. -1.
         -5    1    3    3    0  502 -0.86907629838E+00  0.31004817703E+01 -0.77325498093E+02  0.77505311664E+02  0.41800000000E+01 0. -1.
        -11    1    1    2    0    0  0.10796755521E+03 -0.10242591288E+02 -0.15180866002E+03  0.18656841348E+03  0.00000000000E+00 0.  1.
         11    1    1    2    0    0 -0.19210397085E+02 -0.59491647257E+01 -0.62025765364E+02  0.65204505106E+02  0.00000000000E+00 0. -1.
</event>
<event>
 7    1  0.4394360E-006  0.2154542E+03  0.7561462E-02  0.1137318E+00
         -2   -1    0    0    0  501 -0.00000000000E+00  0.00000000000E+00  0.23037726000E+03  0.23037726000E+03  0.00000000000E+00 0.  1.
          2   -1    0    0  501    0  0.00000000000E+00 -0.00000000000E+00 -0.56156052309E+03  0.56156052309E+03  0.00000000000E+00 0. -1.
         23    2    1    2    0    0  0.17653255380E+02 -0.20355436364E+03  0.13480276893E+03  0.27489096326E+03  0.12508892353E+03 0.  0.
          5    1    3    3  502    0  0.22484705782E+02 -0.19658071848E+03  0.15579200898E+03  0.25186933782E+03  0.41800000000E+01 0.  1.
         -5    1    3    3    0  502 -0.48314504020E+01 -0.69736451597E+01 -0.20989240054E+02  0.23021625439E+02  0.41800000000E+01 0.  1.
        -11    1    1    2    0    0  0.27074903047E+02  0.15571853503E+03 -0.34471387941E+03  0.37922153312E+03  0.00000000000E+00 0.  1.
         11    1    1    2    0    0 -0.44728158427E+02  0.47835828617E+02 -0.12127215261E+03  0.13782528670E+03  0.00000000000E+00 0. -1.
</event>
<event>
 7    1  0.4394360E-006  0.1394851E+03  0.7561462E-02  0.1214023E+00
         -2   -1    0    0    0  501 -0.00000000000E+00  0.00000000000E+00  0.18609992320E+03  0.18609992320E+03  0.00000000000E+00 0.  1.
          2   -1    0    0  501    0  0.00000000000E+00 -0.00000000000E+00 -0.18490053561E+03  0.18490053561E+03  0.00000000000E+00 0. -1.
         23    2    1    2    0    0  0.10582929894E+03 -0.58866940358E+01  0.11065666657E+03  0.19367452475E+03  0.11845011608E+03 0.  0.
          5    1    3    3  502    0 -0.16580634334E+02  0.60661555945E+01 -0.10514141245E+02  0.20969865158E+02  0.41800000000E+01 0. -1.
         -5    1    3    3    0  502  0.12240993327E+03 -0.11952849630E+02  0.12117080782E+03  0.17270465959E+03  0.41800000000E+01 0.  1.
        -11    1    1    2    0    0  0.95003036934E+01 -0.17661383077E+02 -0.26893598292E+02  0.33547665367E+02  0.00000000000E+00 0.  1.
         11    1    1    2    0    0 -0.11532960263E+03  0.23548077113E+02 -0.82563680689E+02  0.14377826869E+03  0.00000000000E+00 0. -1.
</event>
<event>
 7    1  0.4394360E-006  0.1098046E+03  0.7561462E-02  0.1260932E+00
         -1   -1    0    0    0  501 -0.00000000000E+00  0.00000000000E+00  0.92085074577E+02  0.92085074577E+02  0.00000000000E+00 0.  1.
          1   -1    0    0  501    0  0.00000000000E+00 -0.00000000000E+00 -0.15351160859E+03  0.15351160859E+03  0.00000000000E+00 0. -1.
         23    2    1    2    0    0 -0.67128979490E+01  0.44653869325E+02 -0.15197307871E+02  0.13385560339E+03  0.12508930149E+03 0.  0.
          5    1    3    3  502    0 -0.38545500104E+02 -0.25230467764E+02  0.18590983568E+02  0.49854078588E+02  0.41800000000E+01 0.  1.
         -5    1    3    3    0  502  0.31832602155E+02  0.69884337089E+02 -0.33788291440E+02  0.84001524800E+02  0.41800000000E+01 0.  1.
        -11    1    1    2    0    0  0.43697264299E+02 -0.39868849839E+02 -0.45181938870E+02  0.74433753733E+02  0.00000000000E+00 0. -1.
         11    1    1    2    0    0 -0.36984366350E+02 -0.47850194857E+01 -0.10472872672E+01  0.37307326042E+02  0.00000000000E+00 0.  1.
</event>
<event>
 7    1  0.4394360E-006  0.1245942E+03  0.7561462E-02  0.1235705E+00
         -1   -1    0    0    0  501 -0.00000000000E+00  0.00000000000E+00  0.18449127854E+03  0.18449127854E+03  0.00000000000E+00 0.  1.
          1   -1    0    0  501    0  0.00000000000E+00 -0.00000000000E+00 -0.33674117796E+03  0.33674117796E+03  0.00000000000E+00 0. -1.
         23    2    1    2    0    0  0.61803357531E+02 -0.93274716940E+02  0.12457366808E+03  0.20879060342E+03  0.12472004440E+03 0.  0.
          5    1    3    3  502    0  0.77876482224E+02 -0.54690678449E+02  0.21732957006E+02  0.97701640790E+02  0.41800000000E+01 0. -1.
         -5    1    3    3    0  502 -0.16073124693E+02 -0.38584038490E+02  0.10284071108E+03  0.11108896263E+03  0.41800000000E+01 0.  1.
        -11    1    1    2    0    0 -0.55789579125E+02  0.82595145547E+02 -0.28203087522E+03  0.29912514067E+03  0.00000000000E+00 0. -1.
         11    1    1    2    0    0 -0.60137784062E+01  0.10679571393E+02  0.52073077134E+01  0.13316712412E+02  0.00000000000E+00 0.  1.
</event>
<event>
 7    1  0.4394360E-006  0.8871732E+02  0.7561462E-02  0.1305988E+00
         -1   -1    0    0    0  501 -0.00000000000E+00  0.00000000000E+00  0.41092806817E+03  0.41092806817E+03  0.00000000000E+00 0.  1.
          1   -1    0    0  501    0  0.00000000000E+00 -0.00000000000E+00 -0.16507202604E+03  0.16507202604E+03  0.00000000000E+00 0. -1.
         23    2    1    2    0    0 -0.63013955389E+02  0.14909016551E+02  0.37788231198E+03  0.40290818761E+03  0.12388272112E+03 0.  0.
          5    1    3    3  502    0 -0.75134762491E+01  0.29422485872E-01 -0.85967926240E+01  0.12158553962E+02  0.41800000000E+01 0. -1.
         -5    1    3    3    0  502 -0.55500479140E+02  0.14879594065E+02  0.38647910460E+03  0.39074963365E+03  0.41800000000E+01 0.  1.
        -11    1    1    2    0    0  0.86588826068E+02 -0.10248581895E+02 -0.11107437576E+03  0.14120968515E+03  0.00000000000E+00 0. -1.
         11    1    1    2    0    0 -0.23574870679E+02 -0.46604346562E+01 -0.20951894088E+02  0.31882221450E+02  0.00000000000E+00 0.  1.
</event>
<event>
 7    1  0.4394360E-006  0.1189601E+03  0.7561462E-02  0.1244823E+00
          3   -1    0    0  501    0  0.00000000000E+00  0.00000000000E+00  0.52307919395E+02  0.52307919395E+02  0.00000000000E+00 0. -1.
         -3   -1    0    0    0  501 -0.00000000000E+00 -0.00000000000E+00 -0.57912449743E+03  0.57912449743E+03  0.00000000000E+00 0.  1.
         23    2    1    2    0    0 -0.48568297208E+01 -0.54890575245E+02 -0.50755810964E+03  0.52564189398E+03  0.12509037532E+03 0.  0.
          5    1    3    3  502    0  0.15412123100E+02 -0.92438296142E+02 -0.35114853371E+03  0.36346270408E+03  0.41800000000E+01 0. -1.
         -5    1    3    3    0  502 -0.20268952821E+02  0.37547720897E+02 -0.15640957593E+03  0.16217918990E+03  0.41800000000E+01 0. -1.
        -11    1    1    2    0    0 -0.37078718153E+02  0.72677441554E+01  0.44623752758E+01  0.38046868965E+02  0.00000000000E+00 0. -1.
         11    1    1    2    0    0  0.41935547873E+02  0.47622831090E+02 -0.23720843669E+02  0.67743653879E+02  0.00000000000E+00 0.  1.
</event>
<event>
 6    1  0.4394360E-006  0.9775323E+02  0.7561462E-02  0.1285093E+00
          2   -1    0    0  501    0  0.00000000000E+00  0.00000000000E+00  0.21179838452E+03  0.21179838452E+03  0.00000000000E+00 0. -1.
         -2   -1    0    0    0  501 -0.00000000000E+00 -0.00000000000E+00 -0.94058894072E+02  0.94058894072E+02  0.00000000000E+00 0.  1.
          5    1    1    2  502    0 -0.68053988801E+02 -0.15715907730E+02  0.85077370834E+02  0.11015428533E+03  0.41800000000E+01 0. -1.
         -5    1    1    2    0  502  0.45374768027E+02 -0.41896083608E+02 -0.29664732945E+02  0.68641242529E+02  0.41800000000E+01 0.  1.
        -11    1    1    2    0    0  0.17664326745E+02  0.24825952952E+02  0.82701858892E+02  0.88135996299E+02  0.00000000000E+00 0.  1.
         11    1    1    2    0    0  0.50148940295E+01  0.32786038385E+02 -0.20375006337E+02  0.38925754435E+02  0.00000000000E+00 0. -1.
</event>
<event>
 7    1  0.4394360E-006  0.8085041E+02  0.7561462E-02  0.1326655E+00
         -4   -1    0    0    0  501 -0.00000000000E+00  0.00000000000E+00  0.10089773035E+03  0.10089773035E+03  0.00000000000E+00 0. -1.
          4   -1    0    0  501    0  0.00000000000E+00 -0.00000000000E+00 -0.12972165994E+03  0.12972165994E+03  0.00000000000E+00 0.  1.
         23    2    1    2    0    0 -0.36258320018E+01  0.31505045592E+02  0.35137007312E+01  0.12906084768E+03  0.12505455512E+03 0.  0.
          5    1    3    3  502    0  0.21080101315E+02 -0.71268670637E+01  0.55304847112E+02  0.59760031959E+02  0.41800000000E+01 0. -1.
         -5    1    3    3    0  502 -0.24705933317E+02  0.38631912655E+02 -0.51791146381E+02  0.69300815724E+02  0.41800000000E+01 0. -1.
        -11    1    1    2    0    0 -0.40451378882E+02 -0.30875256767E+01 -0.12401639585E+01  0.40587989293E+02  0.00000000000E+00 0. -1.
         11    1    1    2    0    0  0.44077210883E+02 -0.28417519915E+02 -0.31097466362E+02  0.60970553315E+02  0.00000000000E+00 0.  1.
</event>
<event>
 7    1  0.4394360E-006  0.1270892E+03  0.7561462E-02  0.1231840E+00
         -2   -1    0    0    0  501 -0.00000000000E+00  0.00000000000E+00  0.53016854426E+02  0.53016854426E+02  0.00000000000E+00 0.  1.
          2   -1    0    0  501    0  0.00000000000E+00 -0.00000000000E+00 -0.41771799520E+03  0.41771799520E+03  0.00000000000E+00 0. -1.
         23    2    1    2    0    0 -0.20435547931E+02  0.92581949247E+02 -0.16604454283E+03  0.22848681902E+03  0.12508559996E+03 0.  0.
          5    1    3    3  502    0 -0.65283669102E+02  0.32309209150E+02 -0.11949378946E+03  0.14000743040E+03  0.41800000000E+01 0. -1.
         -5    1    3    3    0  502  0.44848121171E+02  0.60272740097E+02 -0.46550753367E+02  0.88479388619E+02  0.41800000000E+01 0. -1.
        -11    1    1    2    0    0  0.28760069703E+02 -0.25682627345E+02 -0.71416403936E+01  0.39214053402E+02  0.00000000000E+00 0.  1.
         11    1    1    2    0    0 -0.83245217722E+01 -0.66899321903E+02 -0.19151495755E+03  0.20303397720E+03  0.00000000000E+00 0. -1.
</event>
<event>
 7    1  0.4394360E-006  0.1535490E+03  0.7561462E-02  0.1196179E+00
          1   -1    0    0  501    0  0.00000000000E+00  0.00000000000E+00  0.14550346789E+03  0.14550346789E+03  0.00000000000E+00 0. -1.
         -1   -1    0    0    0  501 -0.00000000000E+00 -0.00000000000E+00 -0.30892761124E+03  0.30892761124E+03  0.00000000000E+00 0.  1.
         23    2    1    2    0    0 -0.93928113083E+02  0.94627772818E+02 -0.21800584498E+03  0.28451895209E+03  0.12509028674E+03 0.  0.
          5    1    3    3  502    0 -0.44159839652E+02  0.10871353922E+03 -0.95062863170E+02  0.15107331135E+03  0.41800000000E+01 0. -1.
         -5    1    3    3    0  502 -0.49768273431E+02 -0.14085766406E+02 -0.12294298181E+03  0.13344564074E+03  0.41800000000E+01 0. -1.
        -11    1    1    2    0    0  0.60382958870E+02 -0.82251178277E+02  0.76894363846E+02  0.12776580623E+03  0.00000000000E+00 0.  1.
         11    1    1    2    0    0  0.33545154213E+02 -0.12376594541E+02 -0.22312662216E+02  0.42146320821E+02  0.00000000000E+00 0. -1.
</event>
<event>
 7    1  0.4394360E-006  0.1045999E+03  0.7561462E-02  0.1270910E+00
         -2   -1    0    0    0  501 -0.00000000000E+00  0.00000000000E+00  0.53555041244E+02  0.53555041244E+02  0.00000000000E+00 0.  1.
          2   -1    0    0  501    0  0.00000000000E+00 -0.00000000000E+00 -0.33769502578E+03  0.33769502578E+03  0.00000000000E+00 0. -1.
         23    2    1    2    0    0 -0.24127158803E+02  0.28703777424E+02 -0.54172529797E+02  0.14138008931E+03  0.12509052738E+03 0.  0.
          5    1    3    3  502    0  0.20792653057E+02  0.57300810423E+02 -0.62404357451E+02  0.87335522700E+02  0.41800000000E+01 0.  1.
         -5    1    3    3    0  502 -0.44919811860E+02 -0.28597032999E+02  0.82318276547E+01  0.54044566613E+02  0.41800000000E+01 0.  1.
        -11    1    1    2    0    0  0.44456047395E+02  0.14645794216E+02 -0.14466809313E+03  0.15205162481E+03  0.00000000000E+00 0. -1.
         11    1    1    2    0    0 -0.20328888592E+02 -0.43349571640E+02 -0.85299361614E+02  0.97818352903E+02  0.00000000000E+00 0.  1.
</event>
<event>
 7    1  0.4394360E-006  0.1137041E+03  0.7561462E-02  0.1253860E+00
         -1   -1    0    0    0  501 -0.00000000000E+00  0.00000000000E+00  0.13300280994E+03  0.13300280994E+03  0.00000000000E+00 0.  1.
          1   -1    0    0  501    0  0.00000000000E+00 -0.00000000000E+00 -0.12192888982E+03  0.12192888982E+03  0.00000000000E+00 0. -1.
         23    2    1    2    0    0 -0.63271518229E+02 -0.67952864608E+01  0.24449993430E+02  0.14245887414E+03  0.12508903911E+03 0.  0.
          5    1    3    3  502    0 -0.70708642941E+02  0.35413071020E+02  0.48769725549E+02  0.93004066125E+02  0.41800000000E+01 0. -1.
         -5    1    3    3    0  502  0.74371247129E+01 -0.42208357481E+02 -0.24319732120E+02  0.49454808013E+02  0.41800000000E+01 0. -1.
        -11    1    1    2    0    0 -0.18856035166E+02 -0.99761184874E+01  0.12527772531E+02  0.24738999310E+02  0.00000000000E+00 0.  1.
         11    1    1    2    0    0  0.82127553394E+02  0.16771404948E+02 -0.25903845841E+02  0.87733826315E+02  0.00000000000E+00 0. -1.
</event>
<event>
 7    1  0.4394360E-006  0.8712910E+02  0.7561462E-02  0.1309957E+00
         -2   -1    0    0    0  501 -0.00000000000E+00  0.00000000000E+00  0.12983784454E+03  0.12983784454E+03  0.00000000000E+00 0.  1.
          2   -1    0    0  501    0  0.00000000000E+00 -0.00000000000E+00 -0.12306526515E+03  0.12306526515E+03  0.00000000000E+00 0. -1.
         23    2    1    2    0    0  0.57088948337E+02 -0.66754867871E+01  0.34296562648E+02  0.14187704297E+03  0.12509648663E+03 0.  0.
          5    1    3    3  502    0  0.82528781573E+01 -0.45314521492E+02  0.58814615552E+02  0.74820767561E+02  0.41800000000E+01 0.  1.
         -5    1    3    3    0  502  0.48836070179E+02  0.38639034705E+02 -0.24518052903E+02  0.67056275408E+02  0.41800000000E+01 0.  1.
        -11    1    1    2    0    0 -0.22909196108E+02 -0.12814576587E+02 -0.56407714123E+02  0.62216355181E+02  0.00000000000E+00 0. -1.
         11    1    1    2    0    0 -0.34179752229E+02  0.19490063374E+02  0.28883730859E+02  0.48809711545E+02  0.00000000000E+00 0.  1.
</event>
<event>
 7    1  0.4394360E-006  0.1156235E+03  0.7561462E-02  0.1250497E+00
          2   -1    0    0  501    0  0.00000000000E+00  0.00000000000E+00  0.35969964100E+03  0.35969964100E+03  0.00000000000E+00 0. -1.
         -2   -1    0    0    0  501 -0.00000000000E+00 -0.00000000000E+00 -0.37474669384E+02  0.37474669384E+02  0.00000000000E+00 0.  1.
         23    2    1    2    0    0  0.23909817694E+02 -0.35612647072E+02  0.18743699938E+03  0.22939167002E+03  0.12509184436E+03 0.  0.
          5    1    3    3  502    0  0.66047626902E+02 -0.54576042838E+02  0.11820081109E+03  0.14604703905E+03  0.41800000000E+01 0. -1.
         -5    1    3    3    0  502 -0.42137809208E+02  0.18963395766E+02  0.69236188286E+02  0.83344630974E+02  0.41800000000E+01 0. -1.
        -11    1    1    2    0    0  0.19893783610E+02  0.49311984390E+02  0.61392683038E+02  0.81218815317E+02  0.00000000000E+00 0.  1.
         11    1    1    2    0    0 -0.43803601304E+02 -0.13699337318E+02  0.73395289193E+02  0.86563825042E+02  0.00000000000E+00 0. -1.
</event>
<event>
 7    1  0.4394360E-006  0.1234863E+03  0.7561462E-02  0.1237454E+00
         -3   -1    0    0    0  501 -0.00000000000E+00  0.00000000000E+00  0.48361849342E+03  0.48361849342E+03  0.00000000000E+00 0.  1.
          3   -1    0    0  501    0  0.00000000000E+00 -0.00000000000E+00 -0.56478387043E+02  0.56478387043E+02  0.00000000000E+00 0. -1.
         23    2    1    2    0    0  0.88956665389E+02  0.75024967842E+02  0.14948284267E+03  0.22700456027E+03  0.12507564117E+03 0.  0.
          5    1    3    3  502    0  0.36442413336E+01  0.35928632212E+02  0.12464609310E+03  0.12983939322E+03  0.41800000000E+01 0.  1.
         -5    1    3    3    0  502  0.85312424056E+02  0.39096335631E+02  0.24836749570E+02  0.97165167047E+02  0.41800000000E+01 0.  1.
        -11    1    1    2    0    0 -0.16785238915E+02 -0.10006826912E+02  0.65658262813E+00  0.19552798548E+02  0.00000000000E+00 0. -1.
         11    1    1    2    0    0 -0.72171426474E+02 -0.65018140930E+02  0.27700068109E+03  0.29353952165E+03  0.00000000000E+00 0.  1.
</event>
<event>
 7    1  0.4394360E-006  0.1082147E+03  0.7561462E-02  0.1263912E+00
          1   -1    0    0  501    0  0.00000000000E+00  0.00000000000E+00  0.67820831344E+02  0.67820831344E+02  0.00000000000E+00 0. -1.
         -1   -1    0    0    0  501 -0.00000000000E+00 -0.00000000000E+00 -0.18332661255E+03  0.18332661255E+03  0.00000000000E+00 0.  1.
         23    2    1    2    0    0  0.19275073193E+02  0.27508307956E+02 -0.80644420368E+02  0.15257444854E+03  0.12508878590E+03 0.  0.
          5    1    3    3  502    0  0.39603644468E+02 -0.41456501311E+02 -0.36943640300E+02  0.68332972383E+02  0.41800000000E+01 0. -1.
         -5    1    3    3    0  502 -0.20328571275E+02  0.68964809267E+02 -0.43700780068E+02  0.84241476161E+02  0.41800000000E+01 0. -1.
        -11    1    1    2    0    0 -0.49791436547E+02 -0.26469936894E+02 -0.37816223674E+02  0.67896328955E+02  0.00000000000E+00 0.  1.
         11    1    1    2    0    0  0.30516363354E+02 -0.10383710613E+01  0.29548628346E+01  0.30676666397E+02  0.00000000000E+00 0. -1.
</event>
<event>
 7    1  0.4394360E-006  0.1551142E+03  0.7561462E-02  0.1194326E+00
         -1   -1    0    0    0  501 -0.00000000000E+00  0.00000000000E+00  0.16343403103E+03  0.16343403103E+03  0.00000000000E+00 0.  1.
          1   -1    0    0  501    0  0.00000000000E+00 -0.00000000000E+00 -0.18415023056E+03  0.18415023056E+03  0.00000000000E+00 0. -1.
         23    2    1    2    0    0  0.13306024206E+03 -0.62171434720E+01 -0.35018804739E+02  0.18605796672E+03  0.12509024504E+03 0.  0.
          5    1    3    3  502    0  0.32616897084E+00  0.21430331210E+02  0.28804441127E+02  0.36146005459E+02  0.41800000000E+01 0. -1.
         -5    1    3    3    0  502  0.13273407309E+03 -0.27647474682E+02 -0.63823245867E+02  0.14991196126E+03  0.41800000000E+01 0. -1.
        -11    1    1    2    0    0 -0.12587372669E+02 -0.25264213178E+02 -0.17240364207E+02  0.33074953910E+02  0.00000000000E+00 0. -1.
         11    1    1    2    0    0 -0.12047286939E+03  0.31481356650E+02  0.31542969414E+02  0.12845134096E+03  0.00000000000E+00 0.  1.
</event>
<event>
 7    1  0.4394360E-006  0.1171413E+03  0.7561462E-02  0.1247889E+00
         -1   -1    0    0    0  501 -0.00000000000E+00  0.00000000000E+00  0.64318622110E+02  0.64318622110E+02  0.00000000000E+00 0.  1.
          1   -1    0    0  501    0  0.00000000000E+00 -0.00000000000E+00 -0.30028337325E+03  0.30028337325E+03  0.00000000000E+00 0. -1.
         23    2    1    2    0    0  0.38452738520E+02 -0.61774679204E+02 -0.67510829889E+02  0.15969187513E+03  0.12509619794E+03 0.  0.
          5    1    3    3  502    0  0.14647713669E+01 -0.84070532208E+02 -0.78310315880E+02  0.11497816277E+03  0.41800000000E+01 0. -1.
         -5    1    3    3    0  502  0.36987967153E+02  0.22295853004E+02  0.10799485991E+02  0.44713712360E+02  0.41800000000E+01 0. -1.
        -11    1    1    2    0    0 -0.20206513840E+02 -0.16652266151E+02 -0.11688998971E+02  0.28674620598E+02  0.00000000000E+00 0.  1.
         11    1    1    2    0    0 -0.18246224680E+02  0.78426945355E+02 -0.15676492228E+03  0.17623549963E+03  0.00000000000E+00 0. -1.
</event>
<event>
 7    1  0.4394360E-006  0.2072080E+03  0.7561462E-02  0.1143796E+00
         -4   -1    0    0    0  501 -0.00000000000E+00  0.00000000000E+00  0.74322177448E+03  0.74322177448E+03  0.00000000000E+00 0.  1.
          4   -1    0    0  501    0  0.00000000000E+00 -0.00000000000E+00 -0.59449491221E+02  0.59449491221E+02  0.00000000000E+00 0. -1.
         23    2    1    2    0    0 -0.29157083486E+02  0.17570031856E+03  0.38692235974E+03  0.44393340079E+03  0.12508882611E+03 0.  0.
          5    1    3    3  502    0 -0.61503376487E+02  0.36014314938E+02  0.96728358587E+02  0.12022289281E+03  0.41800000000E+01 0.  1.
         -5    1    3    3    0  502  0.32346293001E+02  0.13968600362E+03  0.29019400115E+03  0.32371050799E+03  0.41800000000E+01 0.  1.
        -11    1    1    2    0    0 -0.32619413104E+02 -0.67982715199E+02  0.13634297464E+03  0.15580462898E+03  0.00000000000E+00 0. -1.
         11    1    1    2    0    0  0.61776496591E+02 -0.10771760336E+03  0.16050694888E+03  0.20293323593E+03  0.00000000000E+00 0.  1.
</event>
<event>
 7    1  0.4394360E-006  0.2351699E+03  0.7561462E-02  0.1123053E+00
          2   -1    0    0  501    0  0.00000000000E+00  0.00000000000E+00  0.56399498086E+03  0.56399498086E+03  0.00000000000E+00 0. -1.
         -2   -1    0    0    0  501 -0.00000000000E+00 -0.00000000000E+00 -0.13961949083E+03  0.13961949083E+03  0.00000000000E+00 0.  1.
         23    2    1    2    0    0  0.21416254969E+03 -0.37691318409E+02  0.46029977415E+02  0.25505529493E+03  0.12509281146E+03 0.  0.
          5    1    3    3  502    0  0.19691422013E+03  0.83993744035E+00  0.64957603878E+01  0.19706745771E+03  0.41800000000E+01 0. -1.
         -5    1    3    3    0  502  0.17248329558E+02 -0.38531255849E+02  0.39534217027E+02  0.57987837223E+02  0.41800000000E+01 0. -1.
        -11    1    1    2    0    0 -0.82749123275E+02  0.53588640440E+02  0.10044154275E+03  0.14073970050E+03  0.00000000000E+00 0.  1.
         11    1    1    2    0    0 -0.13141342642E+03 -0.15897322031E+02  0.27790396987E+03  0.30781947625E+03  0.00000000000E+00 0. -1.
</event>
<event>
 7    1  0.4394360E-006  0.1118166E+03  0.7561462E-02  0.1257242E+00
          1   -1    0    0  501    0  0.00000000000E+00  0.00000000000E+00  0.24171106676E+03  0.24171106676E+03  0.00000000000E+00 0. -1.
         -1   -1    0    0    0  501 -0.00000000000E+00 -0.00000000000E+00 -0.71758645079E+02  0.71758645079E+02  0.00000000000E+00 0.  1.
         23    2    1    2    0    0 -0.46022649036E+02  0.59367340730E+02  0.66559328452E+02  0.15088331504E+03  0.11266350422E+03 0.  0.
          5    1    3    3  502    0 -0.42970482897E+02 -0.14498679637E+02  0.61685108851E+02  0.76675936027E+02  0.41800000000E+01 0. -1.
         -5    1    3    3    0  502 -0.30521661389E+01  0.73866020367E+02  0.48742196016E+01  0.74207379011E+02  0.41800000000E+01 0.  1.
        -11    1    1    2    0    0 -0.17341600700E+02 -0.18984887969E+00 -0.98654074804E+01  0.19952278621E+02  0.00000000000E+00 0.  1.
         11    1    1    2    0    0  0.63364249736E+02 -0.59177491850E+02  0.11325850071E+03  0.14263411818E+03  0.00000000000E+00 0. -1.
</event>
<event>
 7    1  0.4394360E-006  0.1563492E+03  0.7561462E-02  0.1192881E+00
          1   -1    0    0  501    0  0.00000000000E+00  0.00000000000E+00  0.34403982091E+02  0.34403982091E+02  0.00000000000E+00 0. -1.
         -1   -1    0    0    0  501 -0.00000000000E+00 -0.00000000000E+00 -0.89977321189E+03  0.89977321189E+03  0.00000000000E+00 0.  1.
         23    2    1    2    0    0  0.12884168617E+03 -0.22555079915E+02 -0.58335793138E+03  0.61078890786E+03  0.12509077561E+03 0.  0.
          5    1    3    3  502    0  0.55987325170E+02  0.32513793764E+02 -0.10242477161E+03  0.12124369511E+03  0.41800000000E+01 0.  1.
         -5    1    3    3    0  502  0.72854360996E+02 -0.55068873679E+02 -0.48093315977E+03  0.48954521275E+03  0.41800000000E+01 0.  1.
        -11    1    1    2    0    0 -0.13061977839E+02  0.37452430991E+02 -0.94810656168E+02  0.10277334467E+03  0.00000000000E+00 0.  1.
         11    1    1    2    0    0 -0.11577970833E+03 -0.14897351076E+02 -0.18720064225E+03  0.22061494144E+03  0.00000000000E+00 0. -1.
</event>
<event>
 7    1  0.4394360E-006  0.1382101E+03  0.7561462E-02  0.1215758E+00
          2   -1    0    0  501    0  0.00000000000E+00  0.00000000000E+00  0.80961264289E+03  0.80961264289E+03  0.00000000000E+00 0. -1.
         -2   -1    0    0    0  501 -0.00000000000E+00 -0.00000000000E+00 -0.35157265002E+02  0.35157265002E+02  0.00000000000E+00 0.  1.
         23    2    1    2    0    0 -0.83928493756E+02 -0.31078523844E+02  0.17878775923E+03  0.23585154276E+03  0.12510403937E+03 0.  0.
          5    1    3    3  502    0  0.24446032905E+02 -0.35832274479E+02  0.67815000583E+02  0.80609596967E+02  0.41800000000E+01 0.  1.
         -5    1    3    3    0  502 -0.10837452666E+03  0.47537506356E+01  0.11097275864E+03  0.15524194580E+03  0.41800000000E+01 0.  1.
        -11    1    1    2    0    0  0.22593883168E+02  0.54211273958E+02  0.22738756777E+03  0.23484984938E+03  0.00000000000E+00 0. -1.
         11    1    1    2    0    0  0.61334610588E+02 -0.23132750115E+02  0.36828005090E+03  0.37406851575E+03  0.00000000000E+00 0.  1.
</event>
<event>
 7    1  0.4394360E-006  0.1867277E+03  0.7561462E-02  0.1161446E+00
          1   -1    0    0  501    0  0.00000000000E+00  0.00000000000E+00  0.49882970015E+02  0.49882970015E+02  0.00000000000E+00 0. -1.
         -1   -1    0    0    0  501 -0.00000000000E+00 -0.00000000000E+00 -0.93398287181E+03  0.93398287181E+03  0.00000000000E+00 0.  1.
         23    2    1    2    0    0 -0.10971642601E+03 -0.10844324832E+03 -0.69438995888E+03  0.72223543311E+03  0.12509585764E+03 0.  0.
          5    1    3    3  502    0 -0.13782499786E+03 -0.87645421242E+02 -0.57409427035E+03  0.59689124097E+03  0.41800000000E+01 0.  1.
         -5    1    3    3    0  502  0.28108571857E+02 -0.20797827081E+02 -0.12029568853E+03  0.12534419213E+03  0.41800000000E+01 0.  1.
        -11    1    1    2    0    0  0.60250380525E+01  0.60180328504E+02 -0.37225910316E+02  0.71019303159E+02  0.00000000000E+00 0.  1.
         11    1    1    2    0    0  0.10369138795E+03  0.48262919819E+02 -0.15248403261E+03  0.19061110556E+03  0.00000000000E+00 0. -1.
</event>
<event>
 7    1  0.4394360E-006  0.1463801E+03  0.7561462E-02  0.1204993E+00
          2   -1    0    0  501    0  0.00000000000E+00  0.00000000000E+00  0.30872203424E+03  0.30872203424E+03  0.00000000000E+00 0. -1.
         -2   -1    0    0    0  501 -0.00000000000E+00 -0.00000000000E+00 -0.11056880404E+03  0.11056880404E+03  0.00000000000E+00 0.  1.
         23    2    1    2    0    0 -0.12404427426E+03 -0.48715632985E+02  0.28542910362E+02  0.18499589306E+03  0.12509431579E+03 0.  0.
          5    1    3    3  502    0 -0.50833962929E+02  0.13494891407E+02 -0.40584931453E+02  0.66564351887E+02  0.41800000000E+01 0. -1.
         -5    1    3    3    0  502 -0.73210311335E+02 -0.62210524392E+02  0.69127841815E+02  0.11843154117E+03  0.41800000000E+01 0. -1.
        -11    1    1    2    0    0  0.63117472448E+02 -0.40354747449E+01  0.23572742242E+02  0.67496478142E+02  0.00000000000E+00 0.  1.
         11    1    1    2    0    0  0.60926801815E+02  0.52751107730E+02  0.14603757760E+03  0.16679846707E+03  0.00000000000E+00 0. -1.
</event>
<event>
 7    1  0.4394360E-006  0.1049984E+03  0.7561462E-02  0.1270123E+00
         -1   -1    0    0    0  501 -0.00000000000E+00  0.00000000000E+00  0.10333671346E+03  0.10333671346E+03  0.00000000000E+00 0.  1.
          1   -1    0    0  501    0  0.00000000000E+00 -0.00000000000E+00 -0.13154518200E+03  0.13154518200E+03  0.00000000000E+00 0. -1.
         23    2    1    2    0    0 -0.22493497828E+02  0.34518426385E+02 -0.61406058029E+01  0.13187380243E+03  0.12512199456E+03 0.  0.
          5    1    3    3  502    0 -0.92727985082E+01  0.73901128941E+02  0.26195970818E+02  0.79063663829E+02  0.41800000000E+01 0. -1.
         -5    1    3    3    0  502 -0.13220699319E+02 -0.39382702556E+02 -0.32336576621E+02  0.52810138597E+02  0.41800000000E+01 0. -1.
        -11    1    1    2    0    0 -0.29781912247E+02  0.20469204240E+01  0.10161833202E+02  0.31534346898E+02  0.00000000000E+00 0.  1.
         11    1    1    2    0    0  0.52275410074E+02 -0.36565346809E+02 -0.32229695938E+02  0.71473746131E+02  0.00000000000E+00 0. -1.
</event>
<event>
 7    1  0.4394360E-006  0.1133914E+03  0.7561462E-02  0.1254415E+00
         -1   -1    0    0    0  501 -0.00000000000E+00  0.00000000000E+00  0.42640485039E+02  0.42640485039E+02  0.00000000000E+00 0.  1.
          1   -1    0    0  501    0  0.00000000000E+00 -0.00000000000E+00 -0.37425192346E+03  0.37425192346E+03  0.00000000000E+00 0. -1.
         23    2    1    2    0    0 -0.63722734980E+02 -0.13721302891E+02 -0.19563006531E+03  0.24117924289E+03  0.12508974235E+03 0.  0.
          5    1    3    3  502    0  0.20893444900E+02 -0.41367104517E+02 -0.37894405306E+02  0.60010263534E+02  0.41800000000E+01 0. -1.
         -5    1    3    3    0  502 -0.84616179880E+02  0.27645801626E+02 -0.15773566000E+03  0.18116897936E+03  0.41800000000E+01 0. -1.
        -11    1    1    2    0    0  0.13601291554E+02 -0.24554279459E+02 -0.98342999424E+02  0.10227049089E+03  0.00000000000E+00 0. -1.
         11    1    1    2    0    0  0.50121443426E+02  0.38275582350E+02 -0.37638373687E+02  0.73442674714E+02  0.00000000000E+00 0.  1.
</event>
<event>
 7    1  0.4394360E-006  0.9503661E+02  0.7561462E-02  0.1291094E+00
          2   -1    0    0  501    0  0.00000000000E+00  0.00000000000E+00  0.45501961538E+02  0.45501961538E+02  0.00000000000E+00 0. -1.
         -2   -1    0    0    0  501 -0.00000000000E+00 -0.00000000000E+00 -0.38255376932E+03  0.38255376932E+03  0.00000000000E+00 0.  1.
         23    2    1    2    0    0  0.49038152627E+02  0.46664800250E+02 -0.23991732442E+03  0.27891624516E+03  0.12510637579E+03 0.  0.
          5    1    3    3  502    0 -0.19542762178E+02 -0.13239605881E+02 -0.19082502097E+01  0.24048295912E+02  0.41800000000E+01 0. -1.
         -5    1    3    3    0  502  0.68580914804E+02  0.59904406131E+02 -0.23800907421E+03  0.25486794925E+03  0.41800000000E+01 0. -1.
        -11    1    1    2    0    0 -0.37336273635E+02 -0.13376912432E+02 -0.10564387154E+03  0.11284310661E+03  0.00000000000E+00 0.  1.
         11    1    1    2    0    0 -0.11701878991E+02 -0.33287887819E+02  0.85093881808E+01  0.36296379083E+02  0.00000000000E+00 0. -1.
</event>
<event>
 7    1  0.4394360E-006  0.2966775E+03  0.7561462E-02  0.1086913E+00
         -2   -1    0    0    0  501 -0.00000000000E+00  0.00000000000E+00  0.11983308437E+03  0.11983308437E+03  0.00000000000E+00 0.  1.
          2   -1    0    0  501    0  0.00000000000E+00 -0.00000000000E+00 -0.12810629283E+04  0.12810629283E+04  0.00000000000E+00 0. -1.
         23    2    1    2    0    0 -0.16583827097E+03  0.23155585187E+03 -0.15311025038E+03  0.34671373692E+03  0.12508885619E+03 0.  0.
          5    1    3    3  502    0 -0.11972649867E+03  0.85558190985E+02 -0.30079717809E+02  0.15025611586E+03  0.41800000000E+01 0. -1.
         -5    1    3    3    0  502 -0.46111772301E+02  0.14599766088E+03 -0.12303053257E+03  0.19645762106E+03  0.41800000000E+01 0. -1.
        -11    1    1    2    0    0  0.16192632126E+03 -0.18336672248E+03 -0.93538684415E+03  0.96684643902E+03  0.00000000000E+00 0. -1.
         11    1    1    2    0    0  0.39119497151E+01 -0.48189129388E+02 -0.72732749387E+02  0.87335836717E+02  0.00000000000E+00 0.  1.
</event>
<event>
 7    1  0.4394360E-006  0.1004360E+03  0.7561462E-02  0.1279382E+00
         -2   -1    0    0    0  501 -0.00000000000E+00  0.00000000000E+00  0.38648764913E+02  0.38648764913E+02  0.00000000000E+00 0.  1.
          2   -1    0    0  501    0  0.00000000000E+00 -0.00000000000E+00 -0.55747239691E+03  0.55747239691E+03  0.00000000000E+00 0. -1.
         23    2    1    2    0    0 -0.35790876920E+02  0.15386516522E+02 -0.79175643590E+02  0.14234695238E+03  0.11169664521E+03 0.  0.
          5    1    3    3  502    0 -0.20390192595E+02 -0.32200978885E+02 -0.83587080598E+02  0.91961597627E+02  0.41800000000E+01 0. -1.
         -5    1    3    3    0  502 -0.15400684324E+02  0.47587495407E+02  0.44114370072E+01  0.50385354749E+02  0.41800000000E+01 0.  1.
        -11    1    1    2    0    0 -0.14395976260E+02  0.37053738135E+02 -0.15375817670E+03  0.15881372908E+03  0.00000000000E+00 0.  1.
         11    1    1    2    0    0  0.50186853180E+02 -0.52440254658E+02 -0.28588981171E+03  0.29496048037E+03  0.00000000000E+00 0. -1.
</event>
<event>
 7    1  0.4394360E-006  0.9899812E+02  0.7561462E-02  0.1282417E+00
         -1   -1    0    0    0  501 -0.00000000000E+00  0.00000000000E+00  0.22825622078E+03  0.22825622078E+03  0.00000000000E+00 0.  1.
          1   -1    0    0  501    0  0.00000000000E+00 -0.00000000000E+00 -0.77713547100E+02  0.77713547100E+02  0.00000000000E+00 0. -1.
         23    2    1    2    0    0  0.60165466705E+02 -0.40076408905E+02  0.11153909994E+03  0.18252396037E+03  0.12509205953E+03 0.  0.
          5    1    3    3  502    0 -0.14922652092E+02 -0.32807093967E+02  0.99636551210E+02  0.10603728447E+03  0.41800000000E+01 0. -1.
         -5    1    3    3    0  502  0.75088118797E+02 -0.72693149380E+01  0.11902548728E+02  0.76486675900E+02  0.41800000000E+01 0. -1.
        -11    1    1    2    0    0 -0.63081227251E+02  0.20445290773E+02  0.63572418555E+02  0.91862416402E+02  0.00000000000E+00 0.  1.
         11    1    1    2    0    0  0.29157605457E+01  0.19631118132E+02 -0.24568844813E+02  0.31583391112E+02  0.00000000000E+00 0. -1.
</event>
<event>
 7    1  0.4394360E-006  0.1267274E+03  0.7561462E-02  0.1232394E+00
         -1   -1    0    0    0  501 -0.00000000000E+00  0.00000000000E+00  0.56563830316E+02  0.56563830316E+02  0.00000000000E+00 0.  1.
          1   -1    0    0  501    0  0.00000000000E+00 -0.00000000000E+00 -0.47659840041E+03  0.47659840041E+03  0.00000000000E+00 0. -1.
         23    2    1    2    0    0 -0.47690846890E+02 -0.89396798786E+02 -0.10944662066E+03  0.19465811940E+03  0.12508803366E+03 0.  0.
          5    1    3    3  502    0  0.23088702264E+02 -0.13996078282E+01 -0.71792199105E+02  0.75542301571E+02  0.41800000000E+01 0.  1.
         -5    1    3    3    0  502 -0.70779549154E+02 -0.87997190958E+02 -0.37654421558E+02  0.11911581783E+03  0.41800000000E+01 0.  1.
        -11    1    1    2    0    0  0.36864530895E+02  0.11966679302E+02 -0.19593205645E+03  0.19972873052E+03  0.00000000000E+00 0. -1.
         11    1    1    2    0    0  0.10826315995E+02  0.77430119484E+02 -0.11465589298E+03  0.13877538080E+03  0.00000000000E+00 0.  1.
</event>
<event>
 7    1  0.4394360E-006  0.8095366E+02  0.7561462E-02  0.1326367E+00
          2   -1    0    0  501    0  0.00000000000E+00  0.00000000000E+00  0.51335230446E+03  0.51335230446E+03  0.00000000000E+00 0. -1.
         -2   -1    0    0    0  501 -0.00000000000E+00 -0.00000000000E+00 -0.23049468218E+02  0.23049468218E+02  0.00000000000E+00 0.  1.
         23    2    1    2    0    0  0.42815492840E+01 -0.11762700215E+02  0.26278890000E+03  0.29131063096E+03  0.12508870839E+03 0.  0.
          5    1    3    3  502    0 -0.34581868100E+02 -0.79446603641E+01  0.24603024302E+03  0.24861089299E+03  0.41800000000E+01 0. -1.
         -5    1    3    3    0  502  0.38863417384E+02 -0.38180398510E+01  0.16758656973E+02  0.42699737969E+02  0.41800000000E+01 0. -1.
        -11    1    1    2    0    0  0.25471379372E+02 -0.27603966436E+02  0.63109959445E+02  0.73441385548E+02  0.00000000000E+00 0.  1.
         11    1    1    2    0    0 -0.29752928656E+02  0.39366666652E+02  0.16440397680E+03  0.17164975618E+03  0.00000000000E+00 0. -1.
</event>
<event>
 7    1  0.4394360E-006  0.1362107E+03  0.7561462E-02  0.1218521E+00
          2   -1    0    0  501    0  0.00000000000E+00  0.00000000000E+00  0.22448519276E+03  0.22448519276E+03  0.00000000000E+00 0.  1.
         -2   -1    0    0    0  501 -0.00000000000E+00 -0.00000000000E+00 -0.12262997141E+03  0.12262997141E+03  0.00000000000E+00 0. -1.
         23    2    1    2    0    0  0.48528462256E+02 -0.11505691199E+03  0.60306325902E+02  0.18675250059E+03  0.12508612589E+03 0.  0.
          5    1    3    3  502    0  0.43869123101E+02 -0.69019195250E+02 -0.28352543432E+02  0.86657304329E+02  0.41800000000E+01 0.  1.
         -5    1    3    3    0  502  0.46593391549E+01 -0.46037716737E+02  0.88658869334E+02  0.10009519626E+03  0.41800000000E+01 0.  1.
        -11    1    1    2    0    0  0.15216237286E+02  0.52878338822E+02  0.45245791165E+02  0.71237870630E+02  0.00000000000E+00 0.  1.
         11    1    1    2    0    0 -0.63744699542E+02  0.62178573164E+02 -0.36968957177E+01  0.89124792950E+02  0.00000000000E+00 0. -1.
</event>
<event>
 7    1  0.4394360E-006  0.1740135E+03  0.7561462E-02  0.1173726E+00
         -1   -1    0    0    0  501 -0.00000000000E+00  0.00000000000E+00  0.10282881641E+03  0.10282881641E+03  0.00000000000E+00 0.  1.
          1   -1    0    0  501    0  0.00000000000E+00 -0.00000000000E+00 -0.48656356681E+03  0.48656356681E+03  0.00000000000E+00 0. -1.
         23    2    1    2    0    0  0.11648999319E+03  0.77510802128E+02 -0.19245904490E+02  0.18866844446E+03  0.12509010407E+03 0.  0.
          5    1    3    3  502    0  0.11419253261E+03  0.10648759983E+03 -0.56251733370E+01  0.15629669989E+03  0.41800000000E+01 0.  1.
         -5    1    3    3    0  502  0.22974605814E+01 -0.28976797697E+02 -0.13620731153E+02  0.32371744578E+02  0.41800000000E+01 0.  1.
        -11    1    1    2    0    0 -0.24010084757E+02 -0.64812761693E+02 -0.19983039639E+03  0.21144589277E+03  0.00000000000E+00 0. -1.
         11    1    1    2    0    0 -0.92479908434E+02 -0.12698040436E+02 -0.16465844952E+03  0.18927804598E+03  0.00000000000E+00 0.  1.
</event>
<event>
 7    1  0.4394360E-006  0.3098595E+03  0.7561462E-02  0.1080413E+00
         -1   -1    0    0    0  501 -0.00000000000E+00  0.00000000000E+00  0.66958760690E+02  0.66958760690E+02  0.00000000000E+00 0.  1.
          1   -1    0    0  501    0  0.00000000000E+00 -0.00000000000E+00 -0.15509617308E+04  0.15509617308E+04  0.00000000000E+00 0. -1.
         23    2    1    2    0    0 -0.24301434201E+02 -0.29800277772E+03 -0.62599281632E+03  0.70491689302E+03  0.12507839440E+03 0.  0.
          5    1    3    3  502    0 -0.53631096324E+02 -0.19973303321E+03 -0.50817918428E+03  0.54866486564E+03  0.41800000000E+01 0. -1.
         -5    1    3    3    0  502  0.29329662123E+02 -0.98269744511E+02 -0.11781363204E+03  0.15625202738E+03  0.41800000000E+01 0. -1.
        -11    1    1    2    0    0 -0.30873230023E+02  0.97202042555E+02 -0.23713731703E+03  0.25813852974E+03  0.00000000000E+00 0. -1.
         11    1    1    2    0    0  0.55174664224E+02  0.20080073517E+03 -0.62087283675E+03  0.65486506872E+03  0.00000000000E+00 0.  1.
</event>
<event>
 7    1  0.4394360E-006  0.1299267E+03  0.7561462E-02  0.1227565E+00
          1   -1    0    0  501    0  0.00000000000E+00  0.00000000000E+00  0.31603397628E+03  0.31603397628E+03  0.00000000000E+00 0. -1.
         -1   -1    0    0    0  501 -0.00000000000E+00 -0.00000000000E+00 -0.12744777466E+03  0.12744777466E+03  0.00000000000E+00 0.  1.
         23    2    1    2    0    0 -0.76054012331E+02 -0.31507371780E+02 -0.63444613615E+02  0.16263630549E+03  0.12509365131E+03 0.  0.
          5    1    3    3  502    0  0.31880484940E+02 -0.43738797675E+01  0.35894223268E+01  0.32647396479E+02  0.41800000000E+01 0. -1.
         -5    1    3    3    0  502 -0.10793449727E+03 -0.27133492013E+02 -0.67034035942E+02  0.12998890901E+03  0.41800000000E+01 0. -1.
        -11    1    1    2    0    0  0.73506564380E+02 -0.10232252116E+02  0.20443322108E+03  0.21748759935E+03  0.00000000000E+00 0.  1.
         11    1    1    2    0    0  0.25474479513E+01  0.41739623896E+02  0.47597594158E+02  0.63357846110E+02  0.00000000000E+00 0. -1.
</event>
<event>
 7    1  0.4394360E-006  0.1511177E+03  0.7561462E-02  0.1199106E+00
         -2   -1    0    0    0  501 -0.00000000000E+00  0.00000000000E+00  0.39546307870E+02  0.39546307870E+02  0.00000000000E+00 0.  1.
          2   -1    0    0  501    0  0.00000000000E+00 -0.00000000000E+00 -0.79246993033E+03  0.79246993033E+03  0.00000000000E+00 0. -1.
         23    2    1    2    0    0 -0.73306452703E+02 -0.10730077821E+03 -0.27945018464E+03  0.33261026681E+03  0.12509952390E+03 0.  0.
          5    1    3    3  502    0  0.25349616150E+02 -0.23204974642E+02 -0.13092196356E+03  0.13542195844E+03  0.41800000000E+01 0. -1.
         -5    1    3    3    0  502 -0.98656068853E+02 -0.84095803564E+02 -0.14852822109E+03  0.19718830837E+03  0.41800000000E+01 0. -1.
        -11    1    1    2    0    0  0.34241320680E+02  0.87822337545E+02 -0.41965000059E+03  0.43010621247E+03  0.00000000000E+00 0. -1.
         11    1    1    2    0    0  0.39065132023E+02  0.19478440662E+02 -0.53823437234E+02  0.69299758919E+02  0.00000000000E+00 0.  1.
</event>
<event>
 6    1  0.4394360E-006  0.1824319E+03  0.7561462E-02  0.1165470E+00
         -1   -1    0    0    0  501 -0.00000000000E+00  0.00000000000E+00  0.10397376036E+03  0.10397376036E+03  0.00000000000E+00 0.  1.
          1   -1    0    0  501    0  0.00000000000E+00 -0.00000000000E+00 -0.52715279138E+03  0.52715279138E+03  0.00000000000E+00 0. -1.
          5    1    1    2  502    0  0.48248617598E+02  0.24126041159E+02 -0.11476253005E+03  0.12687752230E+03  0.41800000000E+01 0. -1.
         -5    1    1    2    0  502 -0.17765104647E+03 -0.82109959411E+00 -0.26240959916E+02  0.17962914267E+03  0.41800000000E+01 0.  1.
        -11    1    1    2    0    0  0.79844432301E+02 -0.24387123319E+02 -0.77108475778E+02  0.11364674298E+03  0.00000000000E+00 0.  1.
         11    1    1    2    0    0  0.49557996574E+02  0.10821817546E+01 -0.20506706527E+03  0.21097314379E+03  0.00000000000E+00 0. -1.
</event>
<event>
 7    1  0.4394360E-006  0.2943796E+03  0.7561462E-02  0.1088084E+00
          2   -1    0    0  501    0  0.00000000000E+00  0.00000000000E+00  0.95617951597E+03  0.95617951597E+03  0.00000000000E+00 0. -1.
         -2   -1    0    0    0  501 -0.00000000000E+00 -0.00000000000E+00 -0.95462602791E+02  0.95462602791E+02  0.00000000000E+00 0.  1.
         23    2    1    2    0    0 -0.89797549400E+02 -0.26635985124E+03  0.42221359466E+03  0.52242027797E+03  0.12508979611E+03 0.  0.
          5    1    3    3  502    0  0.31811035913E+02 -0.49221731688E+02  0.79686971459E+02  0.99006094239E+02  0.41800000000E+01 0. -1.
         -5    1    3    3    0  502 -0.12160858531E+03 -0.21713811956E+03  0.34252662320E+03  0.42341418373E+03  0.41800000000E+01 0. -1.
        -11    1    1    2    0    0  0.57876429165E+02  0.17457483209E+03  0.20015009804E+03  0.27182000441E+03  0.00000000000E+00 0. -1.
         11    1    1    2    0    0  0.31921120235E+02  0.91785019154E+02  0.23835322049E+03  0.25740183639E+03  0.00000000000E+00 0.  1.
</event>
<event>
 7    1  0.4394360E-006  0.2074592E+03  0.7561462E-02  0.1143594E+00
         -2   -1    0    0    0  501 -0.00000000000E+00  0.00000000000E+00  0.33521170813E+03  0.33521170813E+03  0.00000000000E+00 0.  1.
          2   -1    0    0  501    0  0.00000000000E+00 -0.00000000000E+00 -0.17881348384E+03  0.17881348384E+03  0.00000000000E+00 0. -1.
         23    2    1    2    0    0  0.56483927218E+02  0.18700814241E+03  0.18865312179E+03  0.29899838364E+03  0.12509018223E+03 0.  0.
          5    1    3    3  502    0  0.54849863528E+02  0.64485813442E+02  0.14667851666E+03  0.16940775459E+03  0.41800000000E+01 0. -1.
         -5    1    3    3    0  502  0.16340636903E+01  0.12252232897E+03  0.41974605128E+02  0.12959062905E+03  0.41800000000E+01 0. -1.
        -11    1    1    2    0    0 -0.27730823287E+02 -0.17364665462E+03 -0.96953710160E+01  0.17611405236E+03  0.00000000000E+00 0.  1.
         11    1    1    2    0    0 -0.28753103931E+02 -0.13361487794E+02 -0.22559526490E+02  0.38912755970E+02  0.00000000000E+00 0. -1.
</event>
<event>
 7    1  0.4394360E-006  0.2031618E+03  0.7561462E-02  0.1147098E+00
          1   -1    0    0  501    0  0.00000000000E+00  0.00000000000E+00  0.31232085090E+03  0.31232085090E+03  0.00000000000E+00 0. -1.
         -1   -1    0    0    0  501 -0.00000000000E+00 -0.00000000000E+00 -0.16467399236E+03  0.16467399236E+03  0.00000000000E+00 0.  1.
         23    2    1    2    0    0  0.52370314314E+02 -0.17363716405E+03 -0.93099698519E+01  0.22051394112E+03  0.12508880098E+03 0.  0.
          5    1    3    3  502    0  0.98221246160E+01  0.17281639260E+02  0.12189013534E+02  0.23689103791E+02  0.41800000000E+01 0.  1.
         -5    1    3    3    0  502  0.42548189698E+02 -0.19091880331E+03 -0.21498983386E+02  0.19682483733E+03  0.41800000000E+01 0.  1.
        -11    1    1    2    0    0 -0.19131597239E+02  0.14568019150E+03  0.15414984266E+03  0.21295753145E+03  0.00000000000E+00 0. -1.
         11    1    1    2    0    0 -0.33238717074E+02  0.27956972546E+02  0.28069857336E+01  0.43523370683E+02  0.00000000000E+00 0.  1.
</event>
<event>
 7    1  0.4394360E-006  0.1043873E+03  0.7561462E-02  0.1271332E+00
         -2   -1    0    0    0  501 -0.00000000000E+00  0.00000000000E+00  0.13867908792E+03  0.13867908792E+03  0.00000000000E+00 0.  1.
          2   -1    0    0  501    0  0.00000000000E+00 -0.00000000000E+00 -0.31561676433E+03  0.31561676433E+03  0.00000000000E+00 0. -1.
         23    2    1    2    0    0  0.23847449241E+02  0.85186194673E+02  0.75667019914E+02  0.17090261592E+03  0.12512720578E+03 0.  0.
          5    1    3    3  502    0  0.26640400432E+02  0.53548759969E+02  0.10916932824E+03  0.12454956948E+03  0.41800000000E+01 0. -1.
         -5    1    3    3    0  502 -0.27929511918E+01  0.31637434704E+02 -0.33502308324E+02  0.46353046437E+02  0.41800000000E+01 0. -1.
        -11    1    1    2    0    0 -0.35435716474E+02 -0.50249884821E+01 -0.30644844385E+02  0.47117374701E+02  0.00000000000E+00 0.  1.
         11    1    1    2    0    0  0.11588267233E+02 -0.80161206191E+02 -0.22195985194E+03  0.23627586163E+03  0.00000000000E+00 0. -1.
</event>
<event>
 7    1  0.4394360E-006  0.1689015E+03  0.7561462E-02  0.1178998E+00
         -2   -1    0    0    0  501 -0.00000000000E+00  0.00000000000E+00  0.87705835112E+03  0.87705835112E+03  0.00000000000E+00 0.  1.
          2   -1    0    0  501    0  0.00000000000E+00 -0.00000000000E+00 -0.38404072524E+02  0.38404072524E+02  0.00000000000E+00 0. -1.
         23    2    1    2    0    0 -0.68156363466E+01 -0.14505119288E+03  0.50764780296E+03  0.54262078312E+03  0.12507885897E+03 0.  0.
          5    1    3    3  502    0 -0.61741319518E+02 -0.94906872880E+02  0.25110489771E+03  0.27548220833E+03  0.41800000000E+01 0.  1.
         -5    1    3    3    0  502  0.54925683171E+02 -0.50144319999E+02  0.25654290526E+03  0.26713857478E+03  0.41800000000E+01 0.  1.
        -11    1    1    2    0    0 -0.15611570926E+02  0.67692937927E+02  0.65841369648E+02  0.95713849306E+02  0.00000000000E+00 0. -1.
         11    1    1    2    0    0  0.22427207272E+02  0.77358254953E+02  0.26516510599E+03  0.27712779122E+03  0.00000000000E+00 0.  1.
</event>
<event>
 7    1  0.4394360E-006  0.1059183E+03  0.7561462E-02  0.1268321E+00
          1   -1    0    0  501    0  0.00000000000E+00  0.00000000000E+00  0.81374554928E+02  0.81374554928E+02  0.00000000000E+00 0. -1.
         -1   -1    0    0    0  501 -0.00000000000E+00 -0.00000000000E+00 -0.24418408402E+03  0.24418408402E+03  0.00000000000E+00 0.  1.
         23    2    1    2    0    0  0.35171172063E+01  0.81803996771E+02 -0.12816612386E+03  0.19691990197E+03  0.12508648402E+03 0.  0.
          5    1    3    3  502    0  0.19558138101E+02  0.89041953462E+02 -0.28472816167E+02  0.95598974382E+02  0.41800000000E+01 0.  1.
         -5    1    3    3    0  502 -0.16041020895E+02 -0.72379566918E+01 -0.99693307691E+02  0.10132092759E+03  0.41800000000E+01 0.  1.
        -11    1    1    2    0    0 -0.32590878184E+02 -0.40688773679E+02 -0.53657608364E+02  0.74812302328E+02  0.00000000000E+00 0.  1.
         11    1    1    2    0    0  0.29073760978E+02 -0.41115223091E+02  0.19014203126E+02  0.53826434656E+02  0.00000000000E+00 0. -1.
</event>
<event>
 7    1  0.4394360E-006  0.1793011E+03  0.7561462E-02  0.1168481E+00
          1   -1    0    0  501    0  0.00000000000E+00  0.00000000000E+00  0.56316958861E+03  0.56316958861E+03  0.00000000000E+00 0. -1.
         -1   -1    0    0    0  501 -0.00000000000E+00 -0.00000000000E+00 -0.65457186671E+02  0.65457186671E+02  0.00000000000E+00 0.  1.
         23    2    1    2    0    0  0.11261592865E+03 -0.11040328660E+03  0.28912025423E+03  0.35229188303E+03  0.12509123215E+03 0.  0.
          5    1    3    3  502    0  0.90364768735E+02 -0.70913962197E+01  0.17212213761E+03  0.19457538894E+03  0.41800000000E+01 0. -1.
         -5    1    3    3    0  502  0.22251159919E+02 -0.10331189038E+03  0.11699811662E+03  0.15771649408E+03  0.41800000000E+01 0. -1.
        -11    1    1    2    0    0 -0.10287571243E+03  0.80433786920E+02  0.10352762837E+03  0.16664626045E+03  0.00000000000E+00 0.  1.
         11    1    1    2    0    0 -0.97402162203E+01  0.29969499680E+02  0.10506451934E+03  0.10968863181E+03  0.00000000000E+00 0. -1.
</event>
<event>
 7    1  0.5274479E-006  0.2417011E+03  0.7561462E-02  0.1118665E+00
         -1   -1    0    0    0  501 -0.00000000000E+00  0.00000000000E+00  0.67958667708E+03  0.67958667708E+03  0.00000000000E+00 0.  1.
          1   -1    0    0  501    0  0.00000000000E+00 -0.00000000000E+00 -0.10079075339E+03  0.10079075339E+03  0.00000000000E+00 0. -1.
         23    2    1    2    0    0 -0.16293789803E+03  0.16569282317E+03  0.37035131150E+03  0.45476379274E+03  0.12508854063E+03 0.  0.
          5    1    3    3  502    0  0.87445458636E+01  0.31788753715E+02  0.11225496209E+03  0.11707109318E+03  0.41800000000E+01 0.  1.
         -5    1    3    3    0  502 -0.17168244390E+03  0.13390406946E+03  0.25809634941E+03  0.33769269957E+03  0.41800000000E+01 0.  1.
        -11    1    1    2    0    0  0.73674948564E+02 -0.72973125911E+02  0.34612275153E+02  0.10932101693E+03  0.00000000000E+00 0. -1.
         11    1    1    2    0    0  0.89262949469E+02 -0.92719697262E+02  0.17383233704E+03  0.21629262080E+03  0.00000000000E+00 0.  1.
</event>
<event>
 7    1  0.4394360E-006  0.1027704E+03  0.7561462E-02  0.1274576E+00
          2   -1    0    0  501    0  0.00000000000E+00  0.00000000000E+00  0.29886498298E+03  0.29886498298E+03  0.00000000000E+00 0. -1.
         -2   -1    0    0    0  501 -0.00000000000E+00 -0.00000000000E+00 -0.51165053570E+02  0.51165053570E+02  0.00000000000E+00 0.  1.
         23    2    1    2    0    0 -0.44490811547E+02 -0.39646022702E+02  0.14293361972E+03  0.19906938636E+03  0.12508941406E+03 0.  0.
          5    1    3    3  502    0 -0.23832594302E+02 -0.82756405846E+02  0.11435483427E+03  0.14321702336E+03  0.41800000000E+01 0.  1.
         -5    1    3    3    0  502 -0.20658217246E+02  0.43110383144E+02  0.28578785452E+02  0.55852362999E+02  0.41800000000E+01 0.  1.
        -11    1    1    2    0    0  0.26364824151E+02 -0.14625242704E+01  0.10264098659E+03  0.10598308855E+03  0.00000000000E+00 0. -1.
         11    1    1    2    0    0  0.18125987397E+02  0.41108546972E+02  0.21253231001E+01  0.44977561645E+02  0.00000000000E+00 0.  1.
</event>
<event>
 7    1  0.4394360E-006  0.1406042E+03  0.7561462E-02  0.1212518E+00
         -2   -1    0    0    0  501 -0.00000000000E+00  0.00000000000E+00  0.44886594218E+03  0.44886594218E+03  0.00000000000E+00 0. -1.
          2   -1    0    0  501    0  0.00000000000E+00 -0.00000000000E+00 -0.79417201792E+02  0.79417201792E+02  0.00000000000E+00 0.  1.
         23    2    1    2    0    0  0.10401065349E+03  0.66963643562E+02  0.33222554921E+03  0.37593053571E+03  0.12509039344E+03 0.  0.
          5    1    3    3  502    0 -0.31559205807E+01 -0.18068375643E+02  0.25640145806E+01  0.18986116082E+02  0.41800000000E+01 0. -1.
         -5    1    3    3    0  502  0.10716657407E+03  0.85032019205E+02  0.32966153463E+03  0.35694441962E+03  0.41800000000E+01 0. -1.
        -11    1    1    2    0    0 -0.85772564992E+02 -0.44611817927E+02 -0.98098741396E+01  0.97177059200E+02  0.00000000000E+00 0.  1.
         11    1    1    2    0    0 -0.18238088498E+02 -0.22351825634E+02  0.47033065318E+02  0.55175549064E+02  0.00000000000E+00 0. -1.
</event>
<event>
 7    1  0.4394360E-006  0.1195319E+03  0.7561462E-02  0.1243871E+00
          1   -1    0    0  501    0  0.00000000000E+00  0.00000000000E+00  0.55305374869E+03  0.55305374869E+03  0.00000000000E+00 0. -1.
         -1   -1    0    0    0  501 -0.00000000000E+00 -0.00000000000E+00 -0.35722441787E+02  0.35722441787E+02  0.00000000000E+00 0.  1.
         23    2    1    2    0    0 -0.45919075676E+02  0.74181126664E+02  0.31852854097E+03  0.35315644653E+03  0.12509054021E+03 0.  0.
          5    1    3    3  502    0 -0.58377252906E+02  0.18555424097E+02  0.51672361261E+02  0.80247820771E+02  0.41800000000E+01 0. -1.
         -5    1    3    3    0  502  0.12458177230E+02  0.55625702568E+02  0.26685617971E+03  0.27290862576E+03  0.41800000000E+01 0. -1.
        -11    1    1    2    0    0 -0.13343748847E+02 -0.57379776563E+02  0.13311596754E+03  0.14556907366E+03  0.00000000000E+00 0.  1.
         11    1    1    2    0    0  0.59262824523E+02 -0.16801350102E+02  0.65686798392E+02  0.90050670284E+02  0.00000000000E+00 0. -1.
</event>
<event>
 7    1  0.4394360E-006  0.9242017E+02  0.7561462E-02  0.1297095E+00
          4   -1    0    0  501    0  0.00000000000E+00  0.00000000000E+00  0.85920435929E+02  0.85920435929E+02  0.00000000000E+00 0. -1.
         -4   -1    0    0    0  501 -0.00000000000E+00 -0.00000000000E+00 -0.15306560737E+03  0.15306560737E+03  0.00000000000E+00 0.  1.
         23    2    1    2    0    0 -0.21736250907E+01  0.32500139984E+01 -0.72712883169E+02  0.14474190187E+03  0.12509103702E+03 0.  0.
          5    1    3    3  502    0  0.35293484585E+02 -0.49101408260E+02 -0.33773308388E+02  0.69387946409E+02  0.41800000000E+01 0.  1.
         -5    1    3    3    0  502 -0.37467109676E+02  0.52351422259E+02 -0.38939574781E+02  0.75353955464E+02  0.41800000000E+01 0.  1.
        -11    1    1    2    0    0 -0.26054002812E+02 -0.13916382920E+02 -0.33640824405E+02  0.44768089559E+02  0.00000000000E+00 0.  1.
         11    1    1    2    0    0  0.28227627902E+02  0.10666368922E+02  0.39208536132E+02  0.49476051869E+02  0.00000000000E+00 0. -1.
</event>
<event>
 7    1  0.4394360E-006  0.1659154E+03  0.7561462E-02  0.1182176E+00
          1   -1    0    0  501    0  0.00000000000E+00  0.00000000000E+00  0.39105679412E+03  0.39105679412E+03  0.00000000000E+00 0. -1.
         -1   -1    0    0    0  501 -0.00000000000E+00 -0.00000000000E+00 -0.11261227392E+03  0.11261227392E+03  0.00000000000E+00 0.  1.
         23    2    1    2    0    0 -0.14128946012E+03 -0.36412121210E+02  0.20429278449E+02  0.19326845105E+03  0.12508710822E+03 0.  0.
          5    1    3    3  502    0 -0.20045337777E+02  0.25867925925E+02 -0.33133708417E+02  0.46757675217E+02  0.41800000000E+01 0.  1.
         -5    1    3    3    0  502 -0.12124412234E+03 -0.62280047135E+02  0.53562986866E+02  0.14651077584E+03  0.41800000000E+01 0.  1.
        -11    1    1    2    0    0  0.22713302264E+02 -0.20813982088E+02  0.15586943608E+02  0.34526348795E+02  0.00000000000E+00 0.  1.
         11    1    1    2    0    0  0.11857615786E+03  0.57226103297E+02  0.24242829814E+03  0.27587426819E+03  0.00000000000E+00 0. -1.
</event>
<event>
 7    1  0.4394360E-006  0.1157502E+03  0.7561462E-02  0.1250277E+00
          2   -1    0    0  501    0  0.00000000000E+00  0.00000000000E+00  0.38187551688E+02  0.38187551688E+02  0.00000000000E+00 0. -1.
         -2   -1    0    0    0  501 -0.00000000000E+00 -0.00000000000E+00 -0.57891336046E+03  0.57891336046E+03  0.00000000000E+00 0.  1.
         23    2    1    2    0    0  0.75043044136E+02 -0.17515868840E+02 -0.40536558523E+03  0.43116973687E+03  0.12509124736E+03 0.  0.
          5    1    3    3  502    0 -0.24981800009E+02 -0.27313039276E+02 -0.18803349323E+03  0.19168766111E+03  0.41800000000E+01 0. -1.
         -5    1    3    3    0  502  0.10002484415E+03  0.97971704366E+01 -0.21733209200E+03  0.23948207575E+03  0.41800000000E+01 0. -1.
        -11    1    1    2    0    0  0.14794625864E+01  0.17072280968E+02 -0.10030833113E+03  0.10176154912E+03  0.00000000000E+00 0.  1.
         11    1    1    2    0    0 -0.76522506723E+02  0.44358787191E+00 -0.35051892415E+02  0.84169626156E+02  0.00000000000E+00 0. -1.
</event>
<event>
 7    1  0.4394360E-006  0.1122713E+03  0.7561462E-02  0.1256421E+00
         -1   -1    0    0    0  501 -0.00000000000E+00  0.00000000000E+00  0.23437239955E+03  0.23437239955E+03  0.00000000000E+00 0.  1.
          1   -1    0    0  501    0  0.00000000000E+00 -0.00000000000E+00 -0.10251434539E+03  0.10251434539E+03  0.00000000000E+00 0. -1.
         23    2    1    2    0    0  0.79652598868E+02  0.45104594773E+02  0.13672552289E+03  0.20669009917E+03  0.12509183630E+03 0.  0.
          5    1    3    3  502    0  0.28447248735E+02  0.28417070435E+02 -0.16921193224E+02  0.43824365744E+02  0.41800000000E+01 0.  1.
         -5    1    3    3    0  502  0.51205350133E+02  0.16687524338E+02  0.15364671611E+03  0.16286573342E+03  0.41800000000E+01 0.  1.
        -11    1    1    2    0    0 -0.19503852704E+02 -0.64116228956E+02 -0.31691058556E+01  0.67091984006E+02  0.00000000000E+00 0.  1.
         11    1    1    2    0    0 -0.60148746164E+02  0.19011634184E+02 -0.16983628740E+01  0.63104661761E+02  0.00000000000E+00 0. -1.
</event>
<event>
 7    1  0.4394360E-006  0.1145464E+03  0.7561462E-02  0.1252375E+00
         -3   -1    0    0    0  501 -0.00000000000E+00  0.00000000000E+00  0.22312296419E+03  0.22312296419E+03  0.00000000000E+00 0.  1.
          3   -1    0    0  501    0  0.00000000000E+00 -0.00000000000E+00 -0.64174513586E+02  0.64174513586E+02  0.00000000000E+00 0. -1.
         23    2    1    2    0    0 -0.46184466424E+02  0.16044308965E+02  0.10656429022E+03  0.17144865216E+03  0.12509303573E+03 0.  0.
          5    1    3    3  502    0 -0.83821800167E+02  0.23541837140E+02  0.43278618708E+02  0.97318156151E+02  0.41800000000E+01 0. -1.
         -5    1    3    3    0  502  0.37637333743E+02 -0.74975281753E+01  0.63285671510E+02  0.74130496008E+02  0.41800000000E+01 0. -1.
        -11    1    1    2    0    0 -0.58030682546E+01 -0.43942245789E+02  0.21903188849E+02  0.49440330176E+02  0.00000000000E+00 0.  1.
         11    1    1    2    0    0  0.51987534679E+02  0.27897936824E+02  0.30480971538E+02  0.66408495443E+02  0.00000000000E+00 0. -1.
</event>
<event>
 7    1  0.4394360E-006  0.1155629E+03  0.7561462E-02  0.1250602E+00
          1   -1    0    0  501    0  0.00000000000E+00  0.00000000000E+00  0.23761062332E+03  0.23761062332E+03  0.00000000000E+00 0. -1.
         -1   -1    0    0    0  501 -0.00000000000E+00 -0.00000000000E+00 -0.76301124149E+02  0.76301124149E+02  0.00000000000E+00 0.  1.
         23    2    1    2    0    0 -0.45250560275E+02 -0.10623133890E+02  0.13115953306E+02  0.13407708510E+03  0.12507666584E+03 0.  0.
          5    1    3    3  502    0 -0.78480568080E+02 -0.38308418604E+02 -0.36357173743E+01  0.87506715987E+02  0.41800000000E+01 0.  1.
         -5    1    3    3    0  502  0.33230007805E+02  0.27685284714E+02  0.16751670681E+02  0.46570369110E+02  0.41800000000E+01 0.  1.
        -11    1    1    2    0    0  0.43300292910E+02 -0.34322515018E+02  0.97414637447E+02  0.11199358014E+03  0.00000000000E+00 0. -1.
         11    1    1    2    0    0  0.19502673646E+01  0.44945648908E+02  0.50778908417E+02  0.67841082233E+02  0.00000000000E+00 0.  1.
</event>
<event>
 7    1  0.4394360E-006  0.9576780E+02  0.7561462E-02  0.1289456E+00
         -1   -1    0    0    0  501 -0.00000000000E+00  0.00000000000E+00  0.53641265386E+02  0.53641265386E+02  0.00000000000E+00 0.  1.
          1   -1    0    0  501    0  0.00000000000E+00 -0.00000000000E+00 -0.29810857093E+03  0.29810857093E+03  0.00000000000E+00 0. -1.
         23    2    1    2    0    0 -0.17939622231E+02  0.51950250522E+02 -0.11844037473E+03  0.18082446320E+03  0.12509478627E+03 0.  0.
          5    1    3    3  502    0  0.10525943580E+02  0.88481001350E+02 -0.67582979597E+02  0.11191342466E+03  0.41800000000E+01 0.  1.
         -5    1    3    3    0  502 -0.28465565812E+02 -0.36530750828E+02 -0.50857395132E+02  0.68911038540E+02  0.41800000000E+01 0.  1.
        -11    1    1    2    0    0  0.14577948838E+02 -0.27246945334E+02 -0.13929647804E+03  0.14268294017E+03  0.00000000000E+00 0. -1.
         11    1    1    2    0    0  0.33616733934E+01 -0.24703305188E+02  0.13269547221E+02  0.28242432945E+02  0.00000000000E+00 0.  1.
</event>
<event>
 7    1  0.4394360E-006  0.1132571E+03  0.7561462E-02  0.1254654E+00
         -3   -1    0    0    0  501 -0.00000000000E+00  0.00000000000E+00  0.29119349565E+02  0.29119349565E+02  0.00000000000E+00 0.  1.
          3   -1    0    0  501    0  0.00000000000E+00 -0.00000000000E+00 -0.61688081861E+03  0.61688081861E+03  0.00000000000E+00 0. -1.
         23    2    1    2    0    0 -0.62153582558E+02 -0.41760003437E+02 -0.28768217715E+03  0.32251432124E+03  0.12508991423E+03 0.  0.
          5    1    3    3  502    0 -0.34687895175E+02 -0.66473991518E+02 -0.27196983975E+03  0.28214731569E+03  0.41800000000E+01 0.  1.
         -5    1    3    3    0  502 -0.27465687383E+02  0.24713988081E+02 -0.15712337406E+02  0.40367005550E+02  0.41800000000E+01 0.  1.
        -11    1    1    2    0    0  0.26055425578E+02 -0.26407909066E+02 -0.15269078129E+03  0.15713286593E+03  0.00000000000E+00 0. -1.
         11    1    1    2    0    0  0.36098156980E+02  0.68167912503E+02 -0.14738851060E+03  0.16635298101E+03  0.00000000000E+00 0.  1.
</event>
<event>
 7    1  0.4394360E-006  0.1031025E+03  0.7561462E-02  0.1273904E+00
         -4   -1    0    0    0  501 -0.00000000000E+00  0.00000000000E+00  0.29283897247E+03  0.29283897247E+03  0.00000000000E+00 0.  1.
          4   -1    0    0  501    0  0.00000000000E+00 -0.00000000000E+00 -0.48240917196E+02  0.48240917196E+02  0.00000000000E+00 0. -1.
         23    2    1    2    0    0 -0.11400074108E+02  0.47591091735E+02  0.13071813051E+03  0.18742941666E+03  0.12509069863E+03 0.  0.
          5    1    3    3  502    0  0.12817426004E+02 -0.24823553114E+02 -0.77115167628E+01  0.29281992578E+02  0.41800000000E+01 0.  1.
         -5    1    3    3    0  502 -0.24217500112E+02  0.72414644848E+02  0.13842964727E+03  0.15814742408E+03  0.41800000000E+01 0.  1.
        -11    1    1    2    0    0 -0.98966932396E+01 -0.69926958078E+02  0.65853383037E+02  0.96562891737E+02  0.00000000000E+00 0.  1.
         11    1    1    2    0    0  0.21296767347E+02  0.22335866344E+02  0.48026541728E+02  0.57087581269E+02  0.00000000000E+00 0. -1.
</event>
<event>
 7    1  0.4394360E-006  0.8015887E+02  0.7561462E-02  0.1328601E+00
         -1   -1    0    0    0  501 -0.00000000000E+00  0.00000000000E+00  0.75000537789E+02  0.75000537789E+02  0.00000000000E+00 0.  1.
          1   -1    0    0  501    0  0.00000000000E+00 -0.00000000000E+00 -0.28763476845E+03  0.28763476845E+03  0.00000000000E+00 0. -1.
         23    2    1    2    0    0 -0.12106600118E+02 -0.73749423392E+01  0.64924560105E+01  0.12605722529E+03  0.12508921825E+03 0.  0.
          5    1    3    3  502    0  0.44583605256E+02 -0.11654114211E+02 -0.32891830435E+02  0.56770248766E+02  0.41800000000E+01 0. -1.
         -5    1    3    3    0  502 -0.56690205374E+02  0.42791718720E+01  0.39384286445E+02  0.69286976526E+02  0.41800000000E+01 0. -1.
        -11    1    1    2    0    0  0.33609532198E+02  0.10725845487E+02 -0.21006079623E+03  0.21300277587E+03  0.00000000000E+00 0. -1.
         11    1    1    2    0    0 -0.21502932079E+02 -0.33509031483E+01 -0.90658904401E+01  0.23575305075E+02  0.00000000000E+00 0.  1.
</event>
<event>
 7    1  0.4394360E-006  0.2958340E+03  0.7561462E-02  0.1087342E+00
          2   -1    0    0  501    0  0.00000000000E+00  0.00000000000E+00  0.34345514627E+03  0.34345514627E+03  0.00000000000E+00 0. -1.
         -2   -1    0    0    0  501 -0.00000000000E+00 -0.00000000000E+00 -0.28257631962E+03  0.28257631962E+03  0.00000000000E+00 0.  1.
         23    2    1    2    0    0  0.27171842242E+03 -0.86263324862E+02 -0.35644270045E+02  0.31335347133E+03  0.12509045411E+03 0.  0.
          5    1    3    3  502    0  0.27094116612E+03 -0.10256365263E+03 -0.20097884342E+02  0.29043039734E+03  0.41800000000E+01 0.  1.
         -5    1    3    3    0  502  0.77725629484E+00  0.16300327772E+02 -0.15546385703E+02  0.22923073992E+02  0.41800000000E+01 0.  1.
        -11    1    1    2    0    0 -0.13165549502E+03  0.40895734185E+02  0.91311778739E+02  0.16535861447E+03  0.00000000000E+00 0.  1.
         11    1    1    2    0    0 -0.14006292740E+03  0.45367590677E+02  0.52113179459E+01  0.14731938009E+03  0.00000000000E+00 0. -1.
</event>
<event>
 7    1  0.4394360E-006  0.7635980E+02  0.7561462E-02  0.1339711E+00
         -1   -1    0    0    0  501 -0.00000000000E+00  0.00000000000E+00  0.12054265218E+03  0.12054265218E+03  0.00000000000E+00 0.  1.
          1   -1    0    0  501    0  0.00000000000E+00 -0.00000000000E+00 -0.15018291595E+03  0.15018291595E+03  0.00000000000E+00 0. -1.
         23    2    1    2    0    0  0.24966941336E+02 -0.62814881098E+02  0.21628324625E+02  0.14388176366E+03  0.12516037728E+03 0.  0.
          5    1    3    3  502    0  0.40244102488E+01  0.23517987693E+01  0.63318302950E+02  0.63627091115E+02  0.41800000000E+01 0.  1.
         -5    1    3    3    0  502  0.20942531087E+02 -0.65166679868E+02 -0.41689978325E+02  0.80254672550E+02  0.41800000000E+01 0.  1.
        -11    1    1    2    0    0 -0.75975852967E+00  0.50892377959E+02  0.16818325008E+02  0.53604733218E+02  0.00000000000E+00 0.  1.
         11    1    1    2    0    0 -0.24207182806E+02  0.11922503139E+02 -0.68086913407E+02  0.73239071252E+02  0.00000000000E+00 0. -1.
</event>
<event>
 7    1  0.4394360E-006  0.1881422E+03  0.7561462E-02  0.1160148E+00
         -2   -1    0    0    0  501 -0.00000000000E+00  0.00000000000E+00  0.99414102181E+02  0.99414102181E+02  0.00000000000E+00 0.  1.
          2   -1    0    0  501    0  0.00000000000E+00 -0.00000000000E+00 -0.48012472205E+03  0.48012472205E+03  0.00000000000E+00 0. -1.
         23    2    1    2    0    0  0.75598748469E+01 -0.67742409789E+02 -0.39974498053E+02  0.14795798111E+03  0.12508963942E+03 0.  0.
          5    1    3    3  502    0 -0.56704263237E+02 -0.13979459472E+02 -0.15466156899E+02  0.60559666161E+02  0.41800000000E+01 0.  1.
         -5    1    3    3    0  502  0.64264138084E+02 -0.53762950317E+02 -0.24508341155E+02  0.87398314953E+02  0.41800000000E+01 0.  1.
        -11    1    1    2    0    0  0.10294152322E+03  0.67939211471E+02 -0.76418985529E+02  0.14509498615E+03  0.00000000000E+00 0.  1.
         11    1    1    2    0    0 -0.11050139807E+03 -0.19680168217E+00 -0.26431713629E+03  0.28648585697E+03  0.00000000000E+00 0. -1.
</event>
<event>
 7    1  0.4394360E-006  0.1075525E+03  0.7561462E-02  0.1265171E+00
         -1   -1    0    0    0  501 -0.00000000000E+00  0.00000000000E+00  0.97768748134E+02  0.97768748134E+02  0.00000000000E+00 0.  1.
          1   -1    0    0  501    0  0.00000000000E+00 -0.00000000000E+00 -0.13028158163E+03  0.13028158163E+03  0.00000000000E+00 0. -1.
         23    2    1    2    0    0  0.69505251249E+01 -0.18380518125E+02  0.38970096685E+01  0.12663594295E+03  0.12504128165E+03 0.  0.
          5    1    3    3  502    0 -0.52038158226E+02 -0.30166033845E+02  0.21183438443E+02  0.63907511090E+02  0.41800000000E+01 0.  1.
         -5    1    3    3    0  502  0.58988683351E+02  0.11785515720E+02 -0.17286428774E+02  0.62728431863E+02  0.41800000000E+01 0.  1.
        -11    1    1    2    0    0  0.28951581213E+02 -0.24964246582E+02 -0.12011167486E+02  0.40070884773E+02  0.00000000000E+00 0.  1.
         11    1    1    2    0    0 -0.35902106338E+02  0.43344764707E+02 -0.24398675674E+02  0.61343502033E+02  0.00000000000E+00 0. -1.
</event>
<event>
 7    1  0.4394360E-006  0.1124027E+03  0.7561462E-02  0.1256184E+00
          1   -1    0    0  501    0  0.00000000000E+00  0.00000000000E+00  0.20685120951E+03  0.20685120951E+03  0.00000000000E+00 0. -1.
         -1   -1    0    0    0  501 -0.00000000000E+00 -0.00000000000E+00 -0.65638033842E+02  0.65638033842E+02  0.00000000000E+00 0.  1.
         23    2    1    2    0    0 -0.49324086001E+02  0.13432455222E+02  0.84728383758E+02  0.15403175661E+03  0.11804061469E+03 0.  0.
          5    1    3    3  502    0  0.37291911177E+02  0.18356515894E+02  0.26981065099E+02  0.49730258283E+02  0.41800000000E+01 0. -1.
         -5    1    3    3    0  502 -0.86615997179E+02 -0.49240606723E+01  0.57747318658E+02  0.10430149833E+03  0.41800000000E+01 0.  1.
        -11    1    1    2    0    0  0.30724196765E+02  0.33640793670E+02  0.43052820241E+01  0.45762590824E+02  0.00000000000E+00 0. -1.
         11    1    1    2    0    0  0.18599889236E+02 -0.47073248891E+02  0.52179509889E+02  0.72694895921E+02  0.00000000000E+00 0.  1.
</event>
<event>
 7    1  0.4394360E-006  0.1221300E+03  0.7561462E-02  0.1239624E+00
         -1   -1    0    0    0  501 -0.00000000000E+00  0.00000000000E+00  0.24899470931E+03  0.24899470931E+03  0.00000000000E+00 0.  1.
          1   -1    0    0  501    0  0.00000000000E+00 -0.00000000000E+00 -0.15272092841E+03  0.15272092841E+03  0.00000000000E+00 0. -1.
         23    2    1    2    0    0  0.90617085834E+02 -0.27678906092E+02  0.18615976256E+03  0.24347764619E+03  0.12509328083E+03 0.  0.
          5    1    3    3  502    0 -0.27633503851E+02 -0.87690343313E+00  0.10235625926E+02  0.29776163836E+02  0.41800000000E+01 0.  1.
         -5    1    3    3    0  502  0.11825058968E+03 -0.26802002659E+02  0.17592413664E+03  0.21370148235E+03  0.41800000000E+01 0.  1.
        -11    1    1    2    0    0 -0.33781356759E+02  0.70233507090E+01  0.14638616291E+02  0.37480616412E+02  0.00000000000E+00 0.  1.
         11    1    1    2    0    0 -0.56835729074E+02  0.20655555383E+02 -0.10452459796E+03  0.12075737512E+03  0.00000000000E+00 0. -1.
</event>
<event>
 7    1  0.4394360E-006  0.5841590E+02  0.7561462E-02  0.1404602E+00
          2   -1    0    0  501    0  0.00000000000E+00  0.00000000000E+00  0.46371030218E+03  0.46371030218E+03  0.00000000000E+00 0. -1.
         -2   -1    0    0    0  501 -0.00000000000E+00 -0.00000000000E+00 -0.28967835397E+02  0.28967835397E+02  0.00000000000E+00 0.  1.
         23    2    1    2    0    0 -0.25774640186E+02 -0.13277261655E+02  0.17619768612E+03  0.21802400454E+03  0.12509286233E+03 0.  0.
          5    1    3    3  502    0 -0.20853886525E+02 -0.75014463835E+01 -0.14705992152E+02  0.26923872051E+02  0.41800000000E+01 0.  1.
         -5    1    3    3    0  502 -0.49207536610E+01 -0.57758152720E+01  0.19090367827E+03  0.19110013249E+03  0.41800000000E+01 0.  1.
        -11    1    1    2    0    0  0.33974694515E+02  0.42988999219E+02  0.21095401278E+03  0.21795396172E+03  0.00000000000E+00 0. -1.
         11    1    1    2    0    0 -0.82000543285E+01 -0.29711737564E+02  0.47590767888E+02  0.56700171324E+02  0.00000000000E+00 0.  1.
</event>
<event>
 7    1  0.4394360E-006  0.1225499E+03  0.7561462E-02  0.1238949E+00
          2   -1    0    0  501    0  0.00000000000E+00  0.00000000000E+00  0.26048124931E+03  0.26048124931E+03  0.00000000000E+00 0. -1.
         -2   -1    0    0    0  501 -0.00000000000E+00 -0.00000000000E+00 -0.81984073460E+02  0.81984073460E+02  0.00000000000E+00 0.  1.
         23    2    1    2    0    0  0.45384636917E+02 -0.68537328259E+02  0.35805823410E+02  0.15390322598E+03  0.12508803038E+03 0.  0.
          5    1    3    3  502    0 -0.37680439305E+02  0.37072101017E+01  0.18637733911E+02  0.42407504504E+02  0.41800000000E+01 0.  1.
         -5    1    3    3    0  502  0.83065076221E+02 -0.72244538361E+02  0.17168089498E+02  0.11149572148E+03  0.41800000000E+01 0.  1.
        -11    1    1    2    0    0 -0.38839474718E+02  0.13055633551E+02  0.66692579534E+01  0.41514254967E+02  0.00000000000E+00 0.  1.
         11    1    1    2    0    0 -0.65451621982E+01  0.55481694709E+02  0.13602209448E+03  0.14704784182E+03  0.00000000000E+00 0. -1.
</event>
<event>
 7    1  0.4394360E-006  0.1662889E+03  0.7561462E-02  0.1181774E+00
         -2   -1    0    0    0  501 -0.00000000000E+00  0.00000000000E+00  0.50682162170E+03  0.50682162170E+03  0.00000000000E+00 0.  1.
          2   -1    0    0  501    0  0.00000000000E+00 -0.00000000000E+00 -0.76401301001E+02  0.76401301001E+02  0.00000000000E+00 0. -1.
         23    2    1    2    0    0  0.30268374729E+02  0.12341151253E+03  0.38126684946E+03  0.42090250872E+03  0.12509170802E+03 0.  0.
          5    1    3    3  502    0  0.58740505087E+02  0.84812950496E+01  0.13986759273E+03  0.15199603679E+03  0.41800000000E+01 0.  1.
         -5    1    3    3    0  502 -0.28472130358E+02  0.11493021748E+03  0.24139925673E+03  0.26890647193E+03  0.41800000000E+01 0.  1.
        -11    1    1    2    0    0 -0.51104276280E+02 -0.30781802723E+02  0.21762296760E+02  0.63504047061E+02  0.00000000000E+00 0. -1.
         11    1    1    2    0    0  0.20835901551E+02 -0.92629709802E+02  0.27391174475E+02  0.98816366917E+02  0.00000000000E+00 0.  1.
</event>
<event>
 6    1  0.4394360E-006  0.2223693E+03  0.7561462E-02  0.1132129E+00
         -2   -1    0    0    0  501 -0.00000000000E+00  0.00000000000E+00  0.11439706986E+03  0.11439706986E+03  0.00000000000E+00 0.  1.
          2   -1    0    0  501    0  0.00000000000E+00 -0.00000000000E+00 -0.65890259572E+03  0.65890259572E+03  0.00000000000E+00 0. -1.
          5    1    1    2  502    0  0.29536200860E+02  0.10083918053E+02 -0.10237631727E+02  0.33111237789E+02  0.41800000000E+01 0. -1.
         -5    1    1    2    0  502 -0.16122492086E+03 -0.10080918826E+03 -0.48868554301E+02  0.19637101503E+03  0.41800000000E+01 0.  1.
        -11    1    1    2    0    0  0.44169136154E+02 -0.44035491223E+02 -0.50724643650E+02  0.80392950868E+02  0.00000000000E+00 0.  1.
         11    1    1    2    0    0  0.87519583849E+02  0.13476076143E+03 -0.43467469618E+03  0.46342446189E+03  0.00000000000E+00 0. -1.
</event>
<event>
 7    1  0.4394360E-006  0.8804673E+02  0.7561462E-02  0.1307652E+00
         -2   -1    0    0    0  501 -0.00000000000E+00  0.00000000000E+00  0.44855775591E+02  0.44855775591E+02  0.00000000000E+00 0.  1.
          2   -1    0    0  501    0  0.00000000000E+00 -0.00000000000E+00 -0.31877425808E+03  0.31877425808E+03  0.00000000000E+00 0. -1.
         23    2    1    2    0    0  0.51122576667E+02 -0.15959333925E+02 -0.15306457627E+03  0.20481664224E+03  0.12511144729E+03 0.  0.
          5    1    3    3  502    0 -0.24093836558E+02  0.47171179675E+01  0.77080238135E+01  0.26070101517E+02  0.41800000000E+01 0. -1.
         -5    1    3    3    0  502  0.75216413225E+02 -0.20676451893E+02 -0.16077260009E+03  0.17874654072E+03  0.41800000000E+01 0. -1.
        -11    1    1    2    0    0 -0.49433810445E+02  0.30727837423E+02 -0.12924281849E+03  0.14174486847E+03  0.00000000000E+00 0. -1.
         11    1    1    2    0    0 -0.16887662227E+01 -0.14768503497E+02  0.83889122719E+01  0.17068522959E+02  0.00000000000E+00 0.  1.
</event>
<event>
 7    1  0.4394360E-006  0.1343208E+03  0.7561462E-02  0.1221182E+00
         -3   -1    0    0    0  501 -0.00000000000E+00  0.00000000000E+00  0.85966846461E+03  0.85966846461E+03  0.00000000000E+00 0.  1.
          3   -1    0    0  501    0  0.00000000000E+00 -0.00000000000E+00 -0.32648089119E+02  0.32648089119E+02  0.00000000000E+00 0. -1.
         23    2    1    2    0    0 -0.86699026160E+02 -0.16090514107E+02  0.68673718877E+03  0.70358351867E+03  0.12508467341E+03 0.  0.
          5    1    3    3  502    0  0.23393271148E+02  0.25882725699E+02  0.15463949994E+03  0.15858123460E+03  0.41800000000E+01 0. -1.
         -5    1    3    3    0  502 -0.11009229731E+03 -0.41973239805E+02  0.53209768883E+03  0.54500228407E+03  0.41800000000E+01 0. -1.
        -11    1    1    2    0    0 -0.28645257912E+01  0.25400750992E+02  0.47278170709E+01  0.25995305600E+02  0.00000000000E+00 0. -1.
         11    1    1    2    0    0  0.89563551951E+02 -0.93102368860E+01  0.13555536965E+03  0.16273772946E+03  0.00000000000E+00 0.  1.
</event>
<event>
 7    1  0.4394360E-006  0.1620884E+03  0.7561462E-02  0.1186359E+00
         -2   -1    0    0    0  501 -0.00000000000E+00  0.00000000000E+00  0.14854456049E+03  0.14854456049E+03  0.00000000000E+00 0.  1.
          2   -1    0    0  501    0  0.00000000000E+00 -0.00000000000E+00 -0.20543422623E+03  0.20543422623E+03  0.00000000000E+00 0. -1.
         23    2    1    2    0    0  0.80573199844E+02 -0.10933150593E+03 -0.11936513236E+02  0.18502732107E+03  0.12508881033E+03 0.  0.
          5    1    3    3  502    0  0.78648222857E+02 -0.16554296087E+02 -0.37346587253E+02  0.88723320818E+02  0.41800000000E+01 0.  1.
         -5    1    3    3    0  502  0.19249769866E+01 -0.92777209840E+02  0.25410074016E+02  0.96304000247E+02  0.41800000000E+01 0.  1.
        -11    1    1    2    0    0 -0.43223396307E+02  0.95544927890E+01 -0.43991838066E+02  0.62408590251E+02  0.00000000000E+00 0. -1.
         11    1    1    2    0    0 -0.37349803537E+02  0.99777013138E+02 -0.96131444031E+00  0.10654287541E+03  0.00000000000E+00 0.  1.
</event>
<event>
 7    1  0.4394360E-006  0.1156493E+03  0.7561462E-02  0.1250452E+00
         -1   -1    0    0    0  501 -0.00000000000E+00  0.00000000000E+00  0.36111932505E+02  0.36111932505E+02  0.00000000000E+00 0.  1.
          1   -1    0    0  501    0  0.00000000000E+00 -0.00000000000E+00 -0.41724644870E+03  0.41724644870E+03  0.00000000000E+00 0. -1.
         23    2    1    2    0    0  0.16502932143E+02  0.58617079417E+02 -0.18567981799E+03  0.23201904837E+03  0.12509010843E+03 0.  0.
          5    1    3    3  502    0  0.41795833249E+02 -0.18705429780E+02 -0.26156936327E+02  0.52900307166E+02  0.41800000000E+01 0. -1.
         -5    1    3    3    0  502 -0.25292901106E+02  0.77322509197E+02 -0.15952288167E+03  0.17911874120E+03  0.41800000000E+01 0. -1.
        -11    1    1    2    0    0  0.32947377311E+02 -0.37960803662E+02 -0.96279002155E+02  0.10861030587E+03  0.00000000000E+00 0. -1.
         11    1    1    2    0    0 -0.49450309454E+02 -0.20656275756E+02 -0.99175696046E+02  0.11272902696E+03  0.00000000000E+00 0.  1.
</event>
<event>
 7    1  0.4394360E-006  0.1439538E+03  0.7561462E-02  0.1208106E+00
          2   -1    0    0  501    0  0.00000000000E+00  0.00000000000E+00  0.64448700966E+03  0.64448700966E+03  0.00000000000E+00 0.  1.
         -2   -1    0    0    0  501 -0.00000000000E+00 -0.00000000000E+00 -0.43928046561E+02  0.43928046561E+02  0.00000000000E+00 0. -1.
         23    2    1    2    0    0 -0.78010691166E+02  0.10167466265E+03  0.30668760459E+03  0.35514401994E+03  0.12508630274E+03 0.  0.
          5    1    3    3  502    0 -0.28265354822E+02  0.57312635581E+02  0.30381179320E+02  0.70881287639E+02  0.41800000000E+01 0.  1.
         -5    1    3    3    0  502 -0.49745336344E+02  0.44362027066E+02  0.27630642527E+03  0.28426273230E+03  0.41800000000E+01 0.  1.
        -11    1    1    2    0    0  0.73837940914E+02 -0.11856970245E+03  0.26503502470E+03  0.29959035394E+03  0.00000000000E+00 0.  1.
         11    1    1    2    0    0  0.41727502518E+01  0.16895039806E+02  0.28836333809E+02  0.33680682330E+02  0.00000000000E+00 0. -1.
</event>
<event>
 7    1  0.4394360E-006  0.9417672E+02  0.7561462E-02  0.1293041E+00
          1   -1    0    0  501    0  0.00000000000E+00  0.00000000000E+00  0.53601531992E+03  0.53601531992E+03  0.00000000000E+00 0. -1.
         -1   -1    0    0    0  501 -0.00000000000E+00 -0.00000000000E+00 -0.33486961759E+02  0.33486961759E+02  0.00000000000E+00 0.  1.
         23    2    1    2    0    0 -0.69011670794E+01  0.62433198929E+02  0.19022206386E+03  0.23617317729E+03  0.12509118937E+03 0.  0.
          5    1    3    3  502    0 -0.35158849801E+02  0.42309234100E+02  0.14544868110E+02  0.57054724588E+02  0.41800000000E+01 0. -1.
         -5    1    3    3    0  502  0.28257682721E+02  0.20123964829E+02  0.17567719575E+03  0.17911845270E+03  0.41800000000E+01 0. -1.
        -11    1    1    2    0    0  0.29814350627E+02 -0.68356391490E+02  0.29427200465E+03  0.30357454518E+03  0.00000000000E+00 0. -1.
         11    1    1    2    0    0 -0.22913183547E+02  0.59231925611E+01  0.18034289655E+02  0.29754559210E+02  0.00000000000E+00 0.  1.
</event>
<event>
 7    1  0.4394360E-006  0.1992825E+03  0.7561462E-02  0.1150346E+00
          2   -1    0    0  501    0  0.00000000000E+00  0.00000000000E+00  0.60410850592E+03  0.60410850592E+03  0.00000000000E+00 0.  1.
         -2   -1    0    0    0  501 -0.00000000000E+00 -0.00000000000E+00 -0.70697321989E+02  0.70697321989E+02  0.00000000000E+00 0. -1.
         23    2    1    2    0    0 -0.13162067256E+03 -0.11600813919E+03  0.27366080529E+03  0.34830932160E+03  0.12508899777E+03 0.  0.
          5    1    3    3  502    0  0.28109484559E+01 -0.61835643952E+02  0.13075158159E+03  0.14472386390E+03  0.41800000000E+01 0. -1.
         -5    1    3    3    0  502 -0.13443162102E+03 -0.54172495237E+02  0.14290922369E+03  0.20358545770E+03  0.41800000000E+01 0. -1.
        -11    1    1    2    0    0  0.11189020701E+03  0.49854122442E+02  0.20316265092E+03  0.23723388181E+03  0.00000000000E+00 0.  1.
         11    1    1    2    0    0  0.19730465558E+02  0.66154016748E+02  0.56587727723E+02  0.89262624496E+02  0.00000000000E+00 0. -1.
</event>
<event>
 7    1  0.4394360E-006  0.2516266E+03  0.7561462E-02  0.1112281E+00
          1   -1    0    0  501    0  0.00000000000E+00  0.00000000000E+00  0.63261900841E+03  0.63261900841E+03  0.00000000000E+00 0. -1.
         -1   -1    0    0    0  501 -0.00000000000E+00 -0.00000000000E+00 -0.22908736761E+03  0.22908736761E+03  0.00000000000E+00 0.  1.
         23    2    1    2    0    0  0.46531311857E+02  0.22351516210E+03 -0.11742738584E+03  0.28559176554E+03  0.12509706203E+03 0.  0.
          5    1    3    3  502    0  0.42186442880E+02  0.75212113188E+01 -0.30104779219E+02  0.52536032534E+02  0.41800000000E+01 0.  1.
         -5    1    3    3    0  502  0.43448689773E+01  0.21599395078E+03 -0.87322606623E+02  0.23305573301E+03  0.41800000000E+01 0.  1.
        -11    1    1    2    0    0 -0.63472075061E+01 -0.19438374120E+03  0.44133561813E+03  0.48228876590E+03  0.00000000000E+00 0.  1.
         11    1    1    2    0    0 -0.40184104351E+02 -0.29131420899E+02  0.79623408521E+02  0.93825844577E+02  0.00000000000E+00 0. -1.
</event>
<event>
 7    1  0.4394360E-006  0.1693571E+03  0.7561462E-02  0.1178520E+00
          2   -1    0    0  501    0  0.00000000000E+00  0.00000000000E+00  0.58312815450E+03  0.58312815450E+03  0.00000000000E+00 0. -1.
         -2   -1    0    0    0  501 -0.00000000000E+00 -0.00000000000E+00 -0.10382739384E+03  0.10382739384E+03  0.00000000000E+00 0.  1.
         23    2    1    2    0    0 -0.90493020107E+02  0.11458307944E+03  0.16398675000E+02  0.19296293849E+03  0.12509000882E+03 0.  0.
          5    1    3    3  502    0 -0.96384178524E+02  0.13759663339E+03  0.12312477846E+02  0.16849870296E+03  0.41800000000E+01 0. -1.
         -5    1    3    3    0  502  0.58911584166E+01 -0.23013553947E+02  0.40861971536E+01  0.24464235528E+02  0.41800000000E+01 0. -1.
        -11    1    1    2    0    0  0.42792189393E+02 -0.44198295505E+02  0.75603550170E+02  0.97470803818E+02  0.00000000000E+00 0.  1.
         11    1    1    2    0    0  0.47700830714E+02 -0.70384783936E+02  0.38729853550E+03  0.39652180603E+03  0.00000000000E+00 0. -1.
</event>
<event>
 7    1  0.4394360E-006  0.1867131E+03  0.7561462E-02  0.1161460E+00
         -1   -1    0    0    0  501 -0.00000000000E+00  0.00000000000E+00  0.39710970167E+02  0.39710970167E+02  0.00000000000E+00 0.  1.
          1   -1    0    0  501    0  0.00000000000E+00 -0.00000000000E+00 -0.90758636821E+03  0.90758636821E+03  0.00000000000E+00 0. -1.
         23    2    1    2    0    0  0.18652721764E+02 -0.15205891095E+03 -0.38619670137E+03  0.43389368866E+03  0.12508398970E+03 0.  0.
          5    1    3    3  502    0 -0.20318848115E+02 -0.15628230260E+03 -0.29348016983E+03  0.33314425731E+03  0.41800000000E+01 0.  1.
         -5    1    3    3    0  502  0.38971569878E+02  0.42233916538E+01 -0.92716531547E+02  0.10074943135E+03  0.41800000000E+01 0.  1.
        -11    1    1    2    0    0 -0.50931112278E+02  0.12216430652E+03 -0.38686907199E+03  0.40888357126E+03  0.00000000000E+00 0.  1.
         11    1    1    2    0    0  0.32278390515E+02  0.29894604430E+02 -0.94809624679E+02  0.10452007845E+03  0.00000000000E+00 0. -1.
</event>
<event>
 7    1  0.4394360E-006  0.1537850E+03  0.7561462E-02  0.1195898E+00
          2   -1    0    0  501    0  0.00000000000E+00  0.00000000000E+00  0.36597836216E+03  0.36597836216E+03  0.00000000000E+00 0. -1.
         -2   -1    0    0    0  501 -0.00000000000E+00 -0.00000000000E+00 -0.10763569922E+03  0.10763569922E+03  0.00000000000E+00 0.  1.
         23    2    1    2    0    0 -0.96599742044E+02  0.11393482388E+03  0.46262183791E+02  0.20025016627E+03  0.12508910898E+03 0.  0.
          5    1    3    3  502    0 -0.62282306399E+02  0.34416330162E+02  0.80053844576E+02  0.10718983116E+03  0.41800000000E+01 0.  1.
         -5    1    3    3    0  502 -0.34317435645E+02  0.79518493718E+02 -0.33791660785E+02  0.93060335111E+02  0.41800000000E+01 0.  1.
        -11    1    1    2    0    0  0.23168925634E+02 -0.22344078033E+02  0.14399970876E+01  0.32220033051E+02  0.00000000000E+00 0.  1.
         11    1    1    2    0    0  0.73430816410E+02 -0.91590745847E+02  0.21064048206E+03  0.24114386206E+03  0.00000000000E+00 0. -1.
</event>
<event>
 7    1  0.4394360E-006  0.9080315E+02  0.7561462E-02  0.1300918E+00
          2   -1    0    0  501    0  0.00000000000E+00  0.00000000000E+00  0.17101406190E+03  0.17101406190E+03  0.00000000000E+00 0. -1.
         -2   -1    0    0    0  501 -0.00000000000E+00 -0.00000000000E+00 -0.73091985257E+02  0.73091985257E+02  0.00000000000E+00 0.  1.
         23    2    1    2    0    0  0.26697930734E+02  0.31452812970E+02  0.58179914816E+02  0.14399412106E+03  0.12508934992E+03 0.  0.
          5    1    3    3  502    0  0.13045647660E+01  0.66057778795E+02  0.72854153327E+02  0.98440500230E+02  0.41800000000E+01 0. -1.
         -5    1    3    3    0  502  0.25393365968E+02 -0.34604965825E+02 -0.14674238511E+02  0.45553620831E+02  0.41800000000E+01 0. -1.
        -11    1    1    2    0    0 -0.23824705768E+02  0.13399247869E+02 -0.13458673834E+02  0.30467890471E+02  0.00000000000E+00 0.  1.
         11    1    1    2    0    0 -0.28732249655E+01 -0.44852060839E+02  0.53200835659E+02  0.69644035624E+02  0.00000000000E+00 0. -1.
</event>
<event>
 7    1  0.4394360E-006  0.3132952E+03  0.7561462E-02  0.1078777E+00
         -2   -1    0    0    0  501 -0.00000000000E+00  0.00000000000E+00  0.87603472196E+02  0.87603472196E+02  0.00000000000E+00 0.  1.
          2   -1    0    0  501    0  0.00000000000E+00 -0.00000000000E+00 -0.13764187960E+04  0.13764187960E+04  0.00000000000E+00 0. -1.
         23    2    1    2    0    0 -0.28896350815E+03  0.55558479566E+02 -0.34786138170E+03  0.47248584459E+03  0.12509467920E+03 0.  0.
          5    1    3    3  502    0 -0.21879060469E+03 -0.12468497921E+02 -0.21086320014E+03  0.30414725663E+03  0.41800000000E+01 0. -1.
         -5    1    3    3    0  502 -0.70172903460E+02  0.68026977487E+02 -0.13699818155E+03  0.16833858796E+03  0.41800000000E+01 0. -1.
        -11    1    1    2    0    0  0.22834189497E+03 -0.83105280083E+02 -0.79053639426E+03  0.82703947864E+03  0.00000000000E+00 0.  1.
         11    1    1    2    0    0  0.60621613184E+02  0.27546800516E+02 -0.15041754785E+03  0.16449694497E+03  0.00000000000E+00 0. -1.
</event>
<event>
 7    1  0.4394360E-006  0.1828138E+03  0.7561462E-02  0.1165107E+00
          2   -1    0    0  501    0  0.00000000000E+00  0.00000000000E+00  0.12138753988E+04  0.12138753988E+04  0.00000000000E+00 0. -1.
         -2   -1    0    0    0  501 -0.00000000000E+00 -0.00000000000E+00 -0.33464691174E+02  0.33464691174E+02  0.00000000000E+00 0.  1.
         23    2    1    2    0    0 -0.93176786929E+02  0.13359293562E+03  0.47794471825E+03  0.52019939350E+03  0.12508904518E+03 0.  0.
          5    1    3    3  502    0  0.72835701100E+01 -0.15752728822E+02  0.14453259423E+02  0.22968847747E+02  0.41800000000E+01 0. -1.
         -5    1    3    3    0  502 -0.10046035704E+03  0.14934566445E+03  0.46349145882E+03  0.49723054575E+03  0.41800000000E+01 0. -1.
        -11    1    1    2    0    0  0.54686214198E+02 -0.10931327430E+03  0.62866078030E+03  0.64043294001E+03  0.00000000000E+00 0. -1.
         11    1    1    2    0    0  0.38490572731E+02 -0.24279661327E+02  0.73805209042E+02  0.86707756430E+02  0.00000000000E+00 0.  1.
</event>
<event>
 7    1  0.4394360E-006  0.9896193E+02  0.7561462E-02  0.1282494E+00
          1   -1    0    0  501    0  0.00000000000E+00  0.00000000000E+00  0.15896464575E+03  0.15896464575E+03  0.00000000000E+00 0. -1.
         -1   -1    0    0    0  501 -0.00000000000E+00 -0.00000000000E+00 -0.13224015846E+03  0.13224015846E+03  0.00000000000E+00 0.  1.
         23    2    1    2    0    0  0.22776910730E+02  0.65358993552E+02 -0.45510494647E+02  0.15003277699E+03  0.12509213943E+03 0.  0.
          5    1    3    3  502    0 -0.18024146761E+02  0.29249168284E+02  0.37257715338E+02  0.50852664276E+02  0.41800000000E+01 0.  1.
         -5    1    3    3    0  502  0.40801057492E+02  0.36109825268E+02 -0.82768209985E+02  0.99180112711E+02  0.41800000000E+01 0.  1.
        -11    1    1    2    0    0  0.20367092896E+02  0.93389235338E+01  0.45739032648E+02  0.50932240019E+02  0.00000000000E+00 0. -1.
         11    1    1    2    0    0 -0.43144003627E+02 -0.74697917086E+02  0.26495949282E+02  0.90239787202E+02  0.00000000000E+00 0.  1.
</event>
<event>
 7    1  0.4394360E-006  0.5544496E+02  0.7561462E-02  0.1418006E+00
          1   -1    0    0  501    0  0.00000000000E+00  0.00000000000E+00  0.23447239540E+03  0.23447239540E+03  0.00000000000E+00 0. -1.
         -1   -1    0    0    0  501 -0.00000000000E+00 -0.00000000000E+00 -0.59213414821E+02  0.59213414821E+02  0.00000000000E+00 0.  1.
         23    2    1    2    0    0 -0.69824537351E+01  0.23170651733E+02  0.48409805278E+02  0.13628910721E+03  0.12508228386E+03 0.  0.
          5    1    3    3  502    0  0.13582005240E+02  0.14213246456E+02  0.88178381742E+02  0.90439961564E+02  0.41800000000E+01 0. -1.
         -5    1    3    3    0  502 -0.20564458976E+02  0.89574052769E+01 -0.39768576464E+02  0.45849145643E+02  0.41800000000E+01 0. -1.
        -11    1    1    2    0    0  0.76786739592E+01  0.21741098732E+02  0.10489890028E+03  0.10740305716E+03  0.00000000000E+00 0. -1.
         11    1    1    2    0    0 -0.69622022410E+00 -0.44911750465E+02  0.21950275029E+02  0.49993645859E+02  0.00000000000E+00 0.  1.
</event>
<event>
 7    1  0.4394360E-006  0.1074298E+03  0.7561462E-02  0.1265405E+00
          1   -1    0    0  501    0  0.00000000000E+00  0.00000000000E+00  0.21928513125E+02  0.21928513125E+02  0.00000000000E+00 0. -1.
         -1   -1    0    0    0  501 -0.00000000000E+00 -0.00000000000E+00 -0.85907851813E+03  0.85907851813E+03  0.00000000000E+00 0.  1.
         23    2    1    2    0    0  0.19130858050E+02  0.50372492440E+02 -0.66797237608E+03  0.68171761969E+03  0.12509372513E+03 0.  0.
          5    1    3    3  502    0  0.71753320424E+02  0.38696078437E+02 -0.43022010429E+03  0.43789580497E+03  0.41800000000E+01 0.  1.
         -5    1    3    3    0  502 -0.52622462374E+02  0.11676414003E+02 -0.23775227179E+03  0.24382181472E+03  0.41800000000E+01 0.  1.
        -11    1    1    2    0    0 -0.33836368950E+02 -0.54268487211E+02 -0.17227674129E+03  0.18376409921E+03  0.00000000000E+00 0.  1.
         11    1    1    2    0    0  0.14705510900E+02  0.38959947706E+01  0.30991123730E+01  0.15525312351E+02  0.00000000000E+00 0. -1.
</event>
<event>
 6    1  0.4394360E-006  0.1551039E+03  0.7561462E-02  0.1194338E+00
          1   -1    0    0  501    0  0.00000000000E+00  0.00000000000E+00  0.93548149330E+02  0.93548149330E+02  0.00000000000E+00 0. -1.
         -1   -1    0    0    0  501 -0.00000000000E+00 -0.00000000000E+00 -0.30732438324E+03  0.30732438324E+03  0.00000000000E+00 0.  1.
          5    1    1    2  502    0 -0.92072046173E+02 -0.50526869264E+02 -0.10525321213E+03  0.14874789836E+03  0.41800000000E+01 0. -1.
         -5    1    1    2    0  502  0.83657544766E+02 -0.25635665256E+02 -0.10196462782E+03  0.13442481116E+03  0.41800000000E+01 0.  1.
        -11    1    1    2    0    0  0.11774579661E+02 -0.18961232062E+02 -0.52934978024E+00  0.22325977217E+02  0.00000000000E+00 0. -1.
         11    1    1    2    0    0 -0.33600782539E+01  0.95123766581E+02 -0.60290441826E+01  0.95373845829E+02  0.00000000000E+00 0.  1.
</event>
<event>
 7    1  0.4394360E-006  0.1088278E+03  0.7561462E-02  0.1262756E+00
          1   -1    0    0  501    0  0.00000000000E+00  0.00000000000E+00  0.12531236904E+03  0.12531236904E+03  0.00000000000E+00 0. -1.
         -1   -1    0    0    0  501 -0.00000000000E+00 -0.00000000000E+00 -0.11235556879E+03  0.11235556879E+03  0.00000000000E+00 0.  1.
         23    2    1    2    0    0 -0.77013578643E+00  0.57968688291E+02 -0.16021940473E+02  0.12735645671E+03  0.11225864135E+03 0.  0.
          5    1    3    3  502    0 -0.34159722343E+02  0.75513539151E+02  0.64780748292E+01  0.83238326985E+02  0.41800000000E+01 0. -1.
         -5    1    3    3    0  502  0.33389586556E+02 -0.17544850860E+02 -0.22500015303E+02  0.44118129728E+02  0.41800000000E+01 0.  1.
        -11    1    1    2    0    0 -0.23440351728E+02 -0.66921186795E+02  0.40922917293E+02  0.81869289058E+02  0.00000000000E+00 0. -1.
         11    1    1    2    0    0  0.24210487515E+02  0.89524985032E+01 -0.11944176566E+02  0.28442192057E+02  0.00000000000E+00 0.  1.
</event>
<event>
 7    1  0.4394360E-006  0.1937406E+03  0.7561462E-02  0.1155130E+00
          1   -1    0    0  501    0  0.00000000000E+00  0.00000000000E+00  0.41195529452E+03  0.41195529452E+03  0.00000000000E+00 0. -1.
         -1   -1    0    0    0  501 -0.00000000000E+00 -0.00000000000E+00 -0.10074177197E+03  0.10074177197E+03  0.00000000000E+00 0.  1.
         23    2    1    2    0    0 -0.13326209126E+03 -0.10691526345E+03  0.13755282638E+03  0.25250425868E+03  0.12509181461E+03 0.  0.
          5    1    3    3  502    0 -0.56438106599E+02  0.18326388454E+02  0.15557855565E+02  0.61486873884E+02  0.41800000000E+01 0.  1.
         -5    1    3    3    0  502 -0.76823984663E+02 -0.12524165190E+03  0.12199497081E+03  0.19101738480E+03  0.41800000000E+01 0.  1.
        -11    1    1    2    0    0  0.72161840003E+02  0.94092477442E+02  0.65916083775E+02  0.13566744475E+03  0.00000000000E+00 0.  1.
         11    1    1    2    0    0  0.61100251260E+02  0.12822786009E+02  0.10774461240E+03  0.12452536307E+03  0.00000000000E+00 0. -1.
</event>
<event>
 7    1  0.4394360E-006  0.2558770E+03  0.7561462E-02  0.1109646E+00
          1   -1    0    0  501    0  0.00000000000E+00  0.00000000000E+00  0.15850363714E+04  0.15850363714E+04  0.00000000000E+00 0. -1.
         -1   -1    0    0    0  501 -0.00000000000E+00 -0.00000000000E+00 -0.42313712367E+02  0.42313712367E+02  0.00000000000E+00 0.  1.
         23    2    1    2    0    0 -0.23073963353E+03  0.34387629877E+02  0.70553015485E+03  0.75354533290E+03  0.12503792134E+03 0.  0.
          5    1    3    3  502    0 -0.52049080256E+02  0.64542716504E+02  0.24122233087E+03  0.25510890678E+03  0.41800000000E+01 0.  1.
         -5    1    3    3    0  502 -0.17869055327E+03 -0.30155086627E+02  0.46430782398E+03  0.49843642612E+03  0.41800000000E+01 0.  1.
        -11    1    1    2    0    0  0.17190971754E+03  0.12321284013E+02  0.51913932131E+03  0.54700127966E+03  0.00000000000E+00 0.  1.
         11    1    1    2    0    0  0.58829915988E+02 -0.46708913890E+02  0.31805318290E+03  0.32680347123E+03  0.00000000000E+00 0. -1.
</event>
<event>
 7    1  0.4394360E-006  0.1016017E+03  0.7561462E-02  0.1276963E+00
          1   -1    0    0  501    0  0.00000000000E+00  0.00000000000E+00  0.50344394083E+03  0.50344394083E+03  0.00000000000E+00 0. -1.
         -1   -1    0    0    0  501 -0.00000000000E+00 -0.00000000000E+00 -0.54109674323E+02  0.54109674323E+02  0.00000000000E+00 0.  1.
         23    2    1    2    0    0  0.33273936056E+02 -0.34140241559E+02  0.33864076213E+02  0.12996555572E+03  0.11606704572E+03 0.  0.
          5    1    3    3  502    0  0.14091143060E+01  0.35933486056E+02  0.38355440654E+02  0.52742897636E+02  0.41800000000E+01 0. -1.
         -5    1    3    3    0  502  0.31864821750E+02 -0.70073727615E+02 -0.44913644406E+01  0.77222658084E+02  0.41800000000E+01 0.  1.
        -11    1    1    2    0    0  0.13896871894E+02 -0.15915191875E+02  0.34475226167E+02  0.40434608940E+02  0.00000000000E+00 0.  1.
         11    1    1    2    0    0 -0.47170807950E+02  0.50055433433E+02  0.38099496413E+03  0.38715345049E+03  0.00000000000E+00 0. -1.
</event>
<event>
 7    1  0.4394360E-006  0.1576193E+03  0.7561462E-02  0.1191411E+00
         -1   -1    0    0    0  501 -0.00000000000E+00  0.00000000000E+00  0.43258161251E+02  0.43258161251E+02  0.00000000000E+00 0. -1.
          1   -1    0    0  501    0  0.00000000000E+00 -0.00000000000E+00 -0.82436241798E+03  0.82436241798E+03  0.00000000000E+00 0.  1.
         23    2    1    2    0    0  0.11731984034E+03 -0.50572459599E+02 -0.21348991820E+03  0.27847349601E+03  0.12509206290E+03 0.  0.
          5    1    3    3  502    0  0.96730599051E+02 -0.88887785339E+02 -0.13360510491E+03  0.18741836525E+03  0.41800000000E+01 0. -1.
         -5    1    3    3    0  502  0.20589241288E+02  0.38315325740E+02 -0.79884813292E+02  0.91055130762E+02  0.41800000000E+01 0. -1.
        -11    1    1    2    0    0 -0.54641888902E+02  0.54668462866E+02 -0.44196170316E+03  0.44866972699E+03  0.00000000000E+00 0.  1.
         11    1    1    2    0    0 -0.62677951437E+02 -0.40960032676E+01 -0.12565263536E+03  0.14047735622E+03  0.00000000000E+00 0. -1.
</event>
<event>
 6    1  0.4394360E-006  0.1411699E+03  0.7561462E-02  0.1211763E+00
         -1   -1    0    0    0  501 -0.00000000000E+00  0.00000000000E+00  0.18488432526E+03  0.18488432526E+03  0.00000000000E+00 0.  1.
          1   -1    0    0  501    0  0.00000000000E+00 -0.00000000000E+00 -0.26816346281E+03  0.26816346281E+03  0.00000000000E+00 0. -1.
          5    1    1    2  502    0  0.63564020146E+02  0.72659946561E+01  0.53024092111E+01  0.64333251736E+02  0.41800000000E+01 0. -1.
         -5    1    1    2    0  502 -0.67554505625E+02  0.75258770708E+02  0.11281152710E+03  0.15156321073E+03  0.41800000000E+01 0.  1.
        -11    1    1    2    0    0  0.33243421642E+02 -0.81181377238E+02 -0.18197068594E+03  0.20201205814E+03  0.00000000000E+00 0. -1.
         11    1    1    2    0    0 -0.29252936163E+02 -0.13433881260E+01 -0.19422387918E+02  0.35139267468E+02  0.00000000000E+00 0.  1.
</event>
<event>
 7    1  0.4394360E-006  0.1547084E+03  0.7561462E-02  0.1194804E+00
         -2   -1    0    0    0  501 -0.00000000000E+00  0.00000000000E+00  0.12755092038E+03  0.12755092038E+03  0.00000000000E+00 0.  1.
          2   -1    0    0  501    0  0.00000000000E+00 -0.00000000000E+00 -0.26598163494E+03  0.26598163494E+03  0.00000000000E+00 0. -1.
         23    2    1    2    0    0 -0.55020953200E+02  0.11155469511E+03  0.13533934737E+02  0.17692524146E+03  0.12509044082E+03 0.  0.
          5    1    3    3  502    0 -0.40249625444E+02  0.13841297734E+03  0.19184495255E+02  0.14547749621E+03  0.41800000000E+01 0. -1.
         -5    1    3    3    0  502 -0.14771327757E+02 -0.26858282224E+02 -0.56505605179E+01  0.31447745260E+02  0.41800000000E+01 0. -1.
        -11    1    1    2    0    0  0.45740886955E+02 -0.36152729358E+02 -0.12148335843E+03  0.13474960095E+03  0.00000000000E+00 0. -1.
         11    1    1    2    0    0  0.92800662455E+01 -0.75401965755E+02 -0.30481290873E+02  0.81857712908E+02  0.00000000000E+00 0.  1.
</event>
<event>
 7    1  0.4394360E-006  0.1376157E+03  0.7561462E-02  0.1216574E+00
          1   -1    0    0  501    0  0.00000000000E+00  0.00000000000E+00  0.22696644107E+03  0.22696644107E+03  0.00000000000E+00 0. -1.
         -1   -1    0    0    0  501 -0.00000000000E+00 -0.00000000000E+00 -0.12755206433E+03  0.12755206433E+03  0.00000000000E+00 0.  1.
         23    2    1    2    0    0 -0.10351334154E+03 -0.46434306242E+02 -0.14192566344E+02  0.16981178627E+03  0.12555260708E+03 0.  0.
          5    1    3    3  502    0 -0.12107202729E+03 -0.63575476483E+02  0.71833532792E+01  0.13700127724E+03  0.41800000000E+01 0.  1.
         -5    1    3    3    0  502  0.17558685756E+02  0.17141170242E+02 -0.21375919623E+02  0.32810509024E+02  0.41800000000E+01 0.  1.
        -11    1    1    2    0    0  0.82335925071E+02  0.38744650558E+02  0.26563044940E+02  0.94794239596E+02  0.00000000000E+00 0.  1.
         11    1    1    2    0    0  0.21177416464E+02  0.76896556833E+01  0.87043898139E+02  0.89912479533E+02  0.00000000000E+00 0. -1.
</event>
<event>
 7    1  0.4394360E-006  0.1090996E+03  0.7561462E-02  0.1262246E+00
         -2   -1    0    0    0  501 -0.00000000000E+00  0.00000000000E+00  0.14773761824E+03  0.14773761824E+03  0.00000000000E+00 0. -1.
          2   -1    0    0  501    0  0.00000000000E+00 -0.00000000000E+00 -0.89324154987E+02  0.89324154987E+02  0.00000000000E+00 0.  1.
         23    2    1    2    0    0 -0.49019101830E+01  0.36364518498E+02  0.43211347324E+02  0.13735314911E+03  0.12510899290E+03 0.  0.
          5    1    3    3  502    0 -0.10503435086E+02  0.77332522201E+02  0.10639240612E+01  0.78161662425E+02  0.41800000000E+01 0.  1.
         -5    1    3    3    0  502  0.56015249028E+01 -0.40968003703E+02  0.42147423262E+02  0.59191486688E+02  0.41800000000E+01 0.  1.
        -11    1    1    2    0    0  0.48091393943E+02 -0.15562333413E+02  0.95133459270E+01  0.51434153472E+02  0.00000000000E+00 0.  1.
         11    1    1    2    0    0 -0.43189483760E+02 -0.20802185085E+02  0.56887700030E+01  0.48274470644E+02  0.00000000000E+00 0. -1.
</event>
<event>
 7    1  0.4394360E-006  0.8519315E+02  0.7561462E-02  0.1314928E+00
         -2   -1    0    0    0  501 -0.00000000000E+00  0.00000000000E+00  0.80994308013E+02  0.80994308013E+02  0.00000000000E+00 0.  1.
          2   -1    0    0  501    0  0.00000000000E+00 -0.00000000000E+00 -0.12460454466E+03  0.12460454466E+03  0.00000000000E+00 0. -1.
         23    2    1    2    0    0 -0.20988127514E+02  0.49598538233E+01 -0.20440488339E+02  0.12857000799E+03  0.12508929508E+03 0.  0.
          5    1    3    3  502    0 -0.19413949128E+02  0.56291535187E+02  0.20124061299E+02  0.62992766232E+02  0.41800000000E+01 0.  1.
         -5    1    3    3    0  502 -0.15741783858E+01 -0.51331681364E+02 -0.40564549638E+02  0.65577241757E+02  0.41800000000E+01 0.  1.
        -11    1    1    2    0    0 -0.36636913124E+01 -0.26305756767E+02 -0.33565605670E+02  0.42802632596E+02  0.00000000000E+00 0. -1.
         11    1    1    2    0    0  0.24651818826E+02  0.21345902944E+02  0.10395857358E+02  0.34226212091E+02  0.00000000000E+00 0.  1.
</event>
<event>
 6    1  0.4394360E-006  0.1323069E+03  0.7561462E-02  0.1224072E+00
         -2   -1    0    0    0  501 -0.00000000000E+00  0.00000000000E+00  0.24644548297E+02  0.24644548297E+02  0.00000000000E+00 0.  1.
          2   -1    0    0  501    0  0.00000000000E+00 -0.00000000000E+00 -0.78984974542E+03  0.78984974542E+03  0.00000000000E+00 0. -1.
          5    1    1    2  502    0 -0.74546304935E+02 -0.34420162545E+02 -0.34100709672E+03  0.35077800898E+03  0.41800000000E+01 0. -1.
         -5    1    1    2    0  502  0.85004941500E+02  0.34091289716E+02 -0.16036619899E+03  0.18472370257E+03  0.41800000000E+01 0.  1.
        -11    1    1    2    0    0  0.27333959272E+02  0.31515583675E+02 -0.12093634216E+03  0.12792957515E+03  0.00000000000E+00 0. -1.
         11    1    1    2    0    0 -0.37792595837E+02 -0.31186710846E+02 -0.14289555926E+03  0.15106300702E+03  0.00000000000E+00 0.  1.
</event>
<event>
 7    1  0.4394360E-006  0.1040776E+03  0.7561462E-02  0.1271948E+00
         -2   -1    0    0    0  501 -0.00000000000E+00  0.00000000000E+00  0.70094261535E+02  0.70094261535E+02  0.00000000000E+00 0.  1.
          2   -1    0    0  501    0  0.00000000000E+00 -0.00000000000E+00 -0.23721232916E+03  0.23721232916E+03  0.00000000000E+00 0. -1.
         23    2    1    2    0    0 -0.58073754058E+02  0.28229157740E+02 -0.12806724692E+03  0.19031055459E+03  0.12508973259E+03 0.  0.
          5    1    3    3  502    0 -0.43675240184E+02  0.75556096123E+02 -0.10177249170E+03  0.13413188559E+03  0.41800000000E+01 0. -1.
         -5    1    3    3    0  502 -0.14398513875E+02 -0.47326938383E+02 -0.26294755223E+02  0.56178669001E+02  0.41800000000E+01 0. -1.
        -11    1    1    2    0    0  0.45571349822E+02 -0.64488081198E+01 -0.65803865336E+02  0.80302451668E+02  0.00000000000E+00 0. -1.
         11    1    1    2    0    0  0.12502404237E+02 -0.21780349620E+02  0.26753044634E+02  0.36693584432E+02  0.00000000000E+00 0.  1.
</event>
<event>
 7    1  0.4394360E-006  0.8340333E+02  0.7561462E-02  0.1319662E+00
         -3   -1    0    0    0  501 -0.00000000000E+00  0.00000000000E+00  0.26079212767E+03  0.26079212767E+03  0.00000000000E+00 0.  1.
          3   -1    0    0  501    0  0.00000000000E+00 -0.00000000000E+00 -0.56025735055E+02  0.56025735055E+02  0.00000000000E+00 0. -1.
         23    2    1    2    0    0  0.15555044874E+02  0.30993824388E+02  0.16885144015E+03  0.21296838211E+03  0.12506856666E+03 0.  0.
          5    1    3    3  502    0 -0.39593921864E+02  0.11573060811E+02  0.86160164560E+01  0.42347638951E+02  0.41800000000E+01 0.  1.
         -5    1    3    3    0  502  0.55148966738E+02  0.19420763577E+02  0.16023542369E+03  0.17062074316E+03  0.41800000000E+01 0.  1.
        -11    1    1    2    0    0  0.12170485483E+02  0.11000834915E+02  0.49150771677E+02  0.51816381986E+02  0.00000000000E+00 0.  1.
         11    1    1    2    0    0 -0.27725530357E+02 -0.41994659303E+02 -0.13235819203E+02  0.52033098635E+02  0.00000000000E+00 0. -1.
</event>
<event>
 6    1  0.4394360E-006  0.1224876E+03  0.7561462E-02  0.1239049E+00
         -2   -1    0    0    0  501 -0.00000000000E+00  0.00000000000E+00  0.87532509724E+02  0.87532509724E+02  0.00000000000E+00 0.  1.
          2   -1    0    0  501    0  0.00000000000E+00 -0.00000000000E+00 -0.52128366247E+03  0.52128366247E+03  0.00000000000E+00 0. -1.
          5    1    1    2  502    0  0.25345139580E+02  0.56800109498E+01 -0.30701518007E+03  0.30814027945E+03  0.41800000000E+01 0. -1.
         -5    1    1    2    0  502 -0.65651260467E+02  0.85702138035E+02  0.93839059106E+01  0.10844572170E+03  0.41800000000E+01 0.  1.
        -11    1    1    2    0    0  0.16171299282E+01 -0.62065338947E+02 -0.12900747965E+03  0.14317000808E+03  0.00000000000E+00 0.  1.
         11    1    1    2    0    0  0.38688990959E+02 -0.29316810038E+02 -0.71123989429E+01  0.49060162973E+02  0.00000000000E+00 0. -1.
</event>
<event>
 7    1  0.4394360E-006  0.2516594E+03  0.7561462E-02  0.1112261E+00
          2   -1    0    0  501    0  0.00000000000E+00  0.00000000000E+00  0.41705093617E+03  0.41705093617E+03  0.00000000000E+00 0. -1.
         -2   -1    0    0    0  501 -0.00000000000E+00 -0.00000000000E+00 -0.16938687855E+03  0.16938687855E+03  0.00000000000E+00 0.  1.
         23    2    1    2    0    0  0.16152249781E+03  0.17877977039E+03  0.92611238673E+02  0.28683738319E+03  0.12508844579E+03 0.  0.
          5    1    3    3  502    0  0.36495522899E+02  0.24453000404E+01  0.56803740200E+02  0.67690767352E+02  0.41800000000E+01 0.  1.
         -5    1    3    3    0  502  0.12502697491E+03  0.17633447035E+03  0.35807498473E+02  0.21914661584E+03  0.41800000000E+01 0.  1.
        -11    1    1    2    0    0 -0.11531870803E+03 -0.77387162165E+02  0.11781290525E+03  0.18211825261E+03  0.00000000000E+00 0.  1.
         11    1    1    2    0    0 -0.46203789779E+02 -0.10139260822E+03  0.37239913696E+02  0.11748217892E+03  0.00000000000E+00 0. -1.
</event>
<event>
 7    1  0.4394360E-006  0.1005571E+03  0.7561462E-02  0.1279129E+00
          1   -1    0    0  501    0  0.00000000000E+00  0.00000000000E+00  0.65897156732E+02  0.65897156732E+02  0.00000000000E+00 0. -1.
         -1   -1    0    0    0  501 -0.00000000000E+00 -0.00000000000E+00 -0.42241708956E+03  0.42241708956E+03  0.00000000000E+00 0.  1.
         23    2    1    2    0    0 -0.61125821584E+02 -0.37083780758E+02 -0.34368295216E+03  0.37266303232E+03  0.12509273036E+03 0.  0.
          5    1    3    3  502    0 -0.39459165194E+02  0.34676748348E+02 -0.63105858956E+02  0.82215110706E+02  0.41800000000E+01 0. -1.
         -5    1    3    3    0  502 -0.21666656390E+02 -0.71760529106E+02 -0.28057709320E+03  0.29044792161E+03  0.41800000000E+01 0. -1.
        -11    1    1    2    0    0  0.25389745162E+02  0.24959985639E+02  0.38173059735E+02  0.52199832683E+02  0.00000000000E+00 0. -1.
         11    1    1    2    0    0  0.35736076422E+02  0.12123795118E+02 -0.51010040406E+02  0.63451381296E+02  0.00000000000E+00 0.  1.
</event>
<event>
 7    1  0.4394360E-006  0.1062460E+03  0.7561462E-02  0.1267684E+00
          1   -1    0    0  501    0  0.00000000000E+00  0.00000000000E+00  0.27528352338E+02  0.27528352338E+02  0.00000000000E+00 0. -1.
         -1   -1    0    0    0  501 -0.00000000000E+00 -0.00000000000E+00 -0.64768098818E+03  0.64768098818E+03  0.00000000000E+00 0.  1.
         23    2    1    2    0    0  0.12038268371E+02 -0.56118161126E+02 -0.47948680677E+03  0.49884737949E+03  0.12508773818E+03 0.  0.
          5    1    3    3  502    0 -0.44691886449E+02  0.79419144139E+01 -0.10138373131E+03  0.11116011917E+03  0.41800000000E+01 0. -1.
         -5    1    3    3    0  502  0.56730154819E+02 -0.64060075540E+02 -0.37810307546E+03  0.38768726032E+03  0.41800000000E+01 0. -1.
        -11    1    1    2    0    0  0.22165008017E+02  0.33720775502E+02 -0.13133536046E+02  0.42436635705E+02  0.00000000000E+00 0. -1.
         11    1    1    2    0    0 -0.34203276388E+02  0.22397385624E+02 -0.12753229302E+03  0.13392532532E+03  0.00000000000E+00 0.  1.
</event>
<event>
 7    1  0.4394360E-006  0.7969860E+02  0.7561462E-02  0.1329909E+00
         -2   -1    0    0    0  501 -0.00000000000E+00  0.00000000000E+00  0.21361201153E+03  0.21361201153E+03  0.00000000000E+00 0.  1.
          2   -1    0    0  501    0  0.00000000000E+00 -0.00000000000E+00 -0.81121854439E+02  0.81121854439E+02  0.00000000000E+00 0. -1.
         23    2    1    2    0    0 -0.24088340501E+02 -0.26893059821E+01  0.15574888599E+03  0.20123223130E+03  0.12509682215E+03 0.  0.
          5    1    3    3  502    0 -0.50097378585E+02 -0.18103371486E+02  0.12642116828E+02  0.54906966026E+02  0.41800000000E+01 0.  1.
         -5    1    3    3    0  502  0.26009038085E+02  0.15414065504E+02  0.14310676916E+03  0.14632526527E+03  0.41800000000E+01 0.  1.
        -11    1    1    2    0    0  0.73053748754E+01 -0.34170978807E+02  0.14777982725E+02  0.37939597627E+02  0.00000000000E+00 0.  1.
         11    1    1    2    0    0  0.16782965625E+02  0.36860284789E+02 -0.38036711620E+02  0.55562037046E+02  0.00000000000E+00 0. -1.
</event>
<event>
 7    1  0.4394360E-006  0.1207010E+03  0.7561462E-02  0.1241945E+00
          1   -1    0    0  501    0  0.00000000000E+00  0.00000000000E+00  0.36202870720E+02  0.36202870720E+02  0.00000000000E+00 0.  1.
         -1   -1    0    0    0  501 -0.00000000000E+00 -0.00000000000E+00 -0.50501106240E+03  0.50501106240E+03  0.00000000000E+00 0. -1.
         23    2    1    2    0    0 -0.28656662124E+02 -0.63875601300E+02 -0.33111151773E+03  0.36081483144E+03  0.12510479084E+03 0.  0.
          5    1    3    3  502    0  0.36760718546E+02 -0.55335690657E+01 -0.32430376655E+02  0.49509317755E+02  0.41800000000E+01 0.  1.
         -5    1    3    3    0  502 -0.65417380670E+02 -0.58342032234E+02 -0.29868114107E+03  0.31130551369E+03  0.41800000000E+01 0.  1.
        -11    1    1    2    0    0  0.49151683095E+02  0.77397416607E+02 -0.10303620446E+03  0.13792283161E+03  0.00000000000E+00 0.  1.
         11    1    1    2    0    0 -0.20495020971E+02 -0.13521815307E+02 -0.34660469489E+02  0.42476270069E+02  0.00000000000E+00 0. -1.
</event>
<event>
 7    1  0.4394360E-006  0.9202415E+02  0.7561462E-02  0.1298023E+00
         -3   -1    0    0    0  501 -0.00000000000E+00  0.00000000000E+00  0.14652753718E+03  0.14652753718E+03  0.00000000000E+00 0. -1.
          3   -1    0    0  501    0  0.00000000000E+00 -0.00000000000E+00 -0.12684500222E+03  0.12684500222E+03  0.00000000000E+00 0.  1.
         23    2    1    2    0    0 -0.36682070717E+02 -0.71867752137E+02  0.18384992623E+02  0.14998749313E+03  0.12509073519E+03 0.  0.
          5    1    3    3  502    0  0.91706612944E+01  0.68154407811E+01  0.51558656465E+02  0.52974698849E+02  0.41800000000E+01 0. -1.
         -5    1    3    3    0  502 -0.45852732011E+02 -0.78683192918E+02 -0.33173663842E+02  0.97012794277E+02  0.41800000000E+01 0. -1.
        -11    1    1    2    0    0  0.23687456555E+02  0.44090966929E+02 -0.45363072728E+02  0.67549369575E+02  0.00000000000E+00 0.  1.
         11    1    1    2    0    0  0.12994614162E+02  0.27776785208E+02  0.46660615064E+02  0.55835676694E+02  0.00000000000E+00 0. -1.
</event>
<event>
 6    1  0.4394360E-006  0.1997539E+03  0.7561462E-02  0.1149947E+00
          4   -1    0    0  501    0  0.00000000000E+00  0.00000000000E+00  0.18798420671E+03  0.18798420671E+03  0.00000000000E+00 0. -1.
         -4   -1    0    0    0  501 -0.00000000000E+00 -0.00000000000E+00 -0.22838823046E+03  0.22838823046E+03  0.00000000000E+00 0.  1.
          5    1    1    2  502    0  0.59590681925E+02 -0.30475024852E+01  0.26877634530E+02  0.65576034354E+02  0.41800000000E+01 0. -1.
         -5    1    1    2    0  502 -0.14573979168E+02 -0.15531714438E+03 -0.24340231541E+02  0.15794219031E+03  0.41800000000E+01 0.  1.
        -11    1    1    2    0    0  0.13102746227E+02 -0.18261571530E+01  0.74094133980E+01  0.15162988345E+02  0.00000000000E+00 0. -1.
         11    1    1    2    0    0 -0.58119448984E+02  0.16019080402E+03 -0.50350840139E+02  0.17769122416E+03  0.00000000000E+00 0.  1.
</event>
<event>
 7    1  0.4394360E-006  0.8065328E+02  0.7561462E-02  0.1327208E+00
          2   -1    0    0  501    0  0.00000000000E+00  0.00000000000E+00  0.40592436441E+03  0.40592436441E+03  0.00000000000E+00 0. -1.
         -2   -1    0    0    0  501 -0.00000000000E+00 -0.00000000000E+00 -0.44624710251E+02  0.44624710251E+02  0.00000000000E+00 0.  1.
         23    2    1    2    0    0 -0.23189555940E+01  0.30145308727E+02  0.75148941522E+02  0.14902471534E+03  0.12508751008E+03 0.  0.
          5    1    3    3  502    0 -0.27209175820E+02  0.30132566737E+00  0.99322992061E+02  0.10306774082E+03  0.41800000000E+01 0.  1.
         -5    1    3    3    0  502  0.24890220226E+02  0.29843983059E+02 -0.24174050539E+02  0.45956974522E+02  0.41800000000E+01 0.  1.
        -11    1    1    2    0    0 -0.42705615744E+02 -0.46725314575E+01  0.14297373684E+03  0.14928861843E+03  0.00000000000E+00 0. -1.
         11    1    1    2    0    0  0.45024571338E+02 -0.25472777269E+02  0.14317697580E+03  0.15223574089E+03  0.00000000000E+00 0.  1.
</event>
<event>
 7    1  0.4394360E-006  0.2560380E+03  0.7561462E-02  0.1109547E+00
          2   -1    0    0  501    0  0.00000000000E+00  0.00000000000E+00  0.10304716179E+03  0.10304716179E+03  0.00000000000E+00 0. -1.
         -2   -1    0    0    0  501 -0.00000000000E+00 -0.00000000000E+00 -0.78902657025E+03  0.78902657025E+03  0.00000000000E+00 0.  1.
         23    2    1    2    0    0  0.22160889325E+03 -0.11490087439E+03 -0.48417514270E+03  0.55892451884E+03  0.12513327479E+03 0.  0.
          5    1    3    3  502    0  0.87060893905E+02 -0.75126252104E+01 -0.27166602633E+03  0.28540487215E+03  0.41800000000E+01 0. -1.
         -5    1    3    3    0  502  0.13454799934E+03 -0.10738824918E+03 -0.21250911636E+03  0.27351964669E+03  0.41800000000E+01 0. -1.
        -11    1    1    2    0    0 -0.15224385180E+03  0.58892587519E+02 -0.17662985756E+03  0.24050911388E+03  0.00000000000E+00 0. -1.
         11    1    1    2    0    0 -0.69365041450E+02  0.56008286870E+02 -0.25174408207E+02  0.92640099320E+02  0.00000000000E+00 0.  1.
</event>
<event>
 7    1  0.4394360E-006  0.7262307E+02  0.7561462E-02  0.1351394E+00
          1   -1    0    0  501    0  0.00000000000E+00  0.00000000000E+00  0.15511561575E+03  0.15511561575E+03  0.00000000000E+00 0. -1.
         -1   -1    0    0    0  501 -0.00000000000E+00 -0.00000000000E+00 -0.84178206241E+02  0.84178206241E+02  0.00000000000E+00 0.  1.
         23    2    1    2    0    0 -0.86137506280E+01  0.52595044798E+01  0.35216123757E+02  0.13034179485E+03  0.12508776529E+03 0.  0.
          5    1    3    3  502    0  0.38133477368E+02 -0.11557034481E+02 -0.28698027040E+02  0.49282616592E+02  0.41800000000E+01 0.  1.
         -5    1    3    3    0  502 -0.46747227996E+02  0.16816538961E+02  0.63914150797E+02  0.81059178259E+02  0.41800000000E+01 0.  1.
        -11    1    1    2    0    0  0.16543049292E+02 -0.27289452900E+02 -0.27127162866E+02  0.41884002729E+02  0.00000000000E+00 0.  1.
         11    1    1    2    0    0 -0.79292986645E+01  0.22029948420E+02  0.62848448617E+02  0.67068024410E+02  0.00000000000E+00 0. -1.
</event>
<event>
 7    1  0.4394360E-006  0.9289264E+02  0.7561462E-02  0.1295994E+00
          1   -1    0    0  501    0  0.00000000000E+00  0.00000000000E+00  0.29185144761E+03  0.29185144761E+03  0.00000000000E+00 0. -1.
         -1   -1    0    0    0  501 -0.00000000000E+00 -0.00000000000E+00 -0.43220687914E+02  0.43220687914E+02  0.00000000000E+00 0.  1.
         23    2    1    2    0    0  0.22815754875E+02 -0.11999978872E+01  0.11368440625E+03  0.17056793822E+03  0.12508908290E+03 0.  0.
          5    1    3    3  502    0  0.22669679442E+02  0.57291952941E+02  0.30728690222E+02  0.68978308478E+02  0.41800000000E+01 0.  1.
         -5    1    3    3    0  502  0.14607543319E+00 -0.58491950828E+02  0.82955716032E+02  0.10158962975E+03  0.41800000000E+01 0.  1.
        -11    1    1    2    0    0 -0.24449144429E+02  0.28778280935E+02  0.13731414296E+02  0.40180864294E+02  0.00000000000E+00 0.  1.
         11    1    1    2    0    0  0.16333895541E+01 -0.27578283048E+02  0.12121493915E+03  0.12432333301E+03  0.00000000000E+00 0. -1.
</event>
<event>
 7    1  0.4394360E-006  0.1708311E+03  0.7561462E-02  0.1176984E+00
          2   -1    0    0  501    0  0.00000000000E+00  0.00000000000E+00  0.61036583246E+03  0.61036583246E+03  0.00000000000E+00 0. -1.
         -2   -1    0    0    0  501 -0.00000000000E+00 -0.00000000000E+00 -0.56029649047E+02  0.56029649047E+02  0.00000000000E+00 0.  1.
         23    2    1    2    0    0  0.90087401349E+02  0.11065603400E+03  0.21308300534E+03  0.28532905832E+03  0.12509119320E+03 0.  0.
          5    1    3    3  502    0  0.39139897920E+02 -0.22474408978E+02  0.35501931059E+02  0.57575082953E+02  0.41800000000E+01 0.  1.
         -5    1    3    3    0  502  0.50947503429E+02  0.13313044298E+03  0.17758107428E+03  0.22775397537E+03  0.41800000000E+01 0.  1.
        -11    1    1    2    0    0  0.51714951662E+01 -0.25297621584E+02  0.13283288488E+02  0.29037213591E+02  0.00000000000E+00 0.  1.
         11    1    1    2    0    0 -0.95258896515E+02 -0.85358412414E+02  0.32796988959E+03  0.35202920960E+03  0.00000000000E+00 0. -1.
</event>
<event>
 7    1  0.4394360E-006  0.9738667E+02  0.7561462E-02  0.1285889E+00
         -1   -1    0    0    0  501 -0.00000000000E+00  0.00000000000E+00  0.39939173861E+03  0.39939173861E+03  0.00000000000E+00 0.  1.
          1   -1    0    0  501    0  0.00000000000E+00 -0.00000000000E+00 -0.49255449227E+02  0.49255449227E+02  0.00000000000E+00 0. -1.
         23    2    1    2    0    0  0.66990991667E+02  0.49039517476E+02  0.23723527555E+03  0.28075618216E+03  0.12510311992E+03 0.  0.
          5    1    3    3  502    0 -0.55577693477E+01  0.20426823354E+02 -0.82847053501E+01  0.23113906100E+02  0.41800000000E+01 0.  1.
         -5    1    3    3    0  502  0.72548761015E+02  0.28612694122E+02  0.24551998090E+03  0.25764227606E+03  0.41800000000E+01 0.  1.
        -11    1    1    2    0    0 -0.42169342349E+02 -0.55254957557E+02  0.12226641059E+03  0.14064294838E+03  0.00000000000E+00 0.  1.
         11    1    1    2    0    0 -0.24821649318E+02  0.62154400810E+01 -0.93653967631E+01  0.27248057303E+02  0.00000000000E+00 0. -1.
</event>
<event>
 7    1  0.4394360E-006  0.9104090E+02  0.7561462E-02  0.1300350E+00
         -1   -1    0    0    0  501 -0.00000000000E+00  0.00000000000E+00  0.14882470358E+03  0.14882470358E+03  0.00000000000E+00 0.  1.
          1   -1    0    0  501    0  0.00000000000E+00 -0.00000000000E+00 -0.96008996695E+02  0.96008996695E+02  0.00000000000E+00 0. -1.
         23    2    1    2    0    0  0.39739372156E+02  0.26603765167E+02  0.41335859010E+02  0.14014563277E+03  0.12508064248E+03 0.  0.
          5    1    3    3  502    0  0.53879314605E+02  0.84513685277E+01  0.78834654041E+02  0.95951973665E+02  0.41800000000E+01 0.  1.
         -5    1    3    3    0  502 -0.14139942450E+02  0.18152396639E+02 -0.37498795031E+02  0.44193659104E+02  0.41800000000E+01 0.  1.
        -11    1    1    2    0    0 -0.11742254231E+02 -0.59587544858E+02  0.49609679432E+01  0.60935763223E+02  0.00000000000E+00 0. -1.
         11    1    1    2    0    0 -0.27997117924E+02  0.32983779691E+02  0.65188799360E+01  0.43752304287E+02  0.00000000000E+00 0.  1.
</event>
<event>
 7    1  0.4394360E-006  0.1212763E+03  0.7561462E-02  0.1241006E+00
          1   -1    0    0  501    0  0.00000000000E+00  0.00000000000E+00  0.43371381279E+03  0.43371381279E+03  0.00000000000E+00 0. -1.
         -1   -1    0    0    0  501 -0.00000000000E+00 -0.00000000000E+00 -0.53027852821E+02  0.53027852821E+02  0.00000000000E+00 0.  1.
         23    2    1    2    0    0  0.49868835071E+02 -0.51451434793E+02  0.79500528569E+02  0.16462463016E+03  0.12508710549E+03 0.  0.
          5    1    3    3  502    0 -0.20146075024E+02  0.25099715400E+02  0.44460698456E+02  0.55046218392E+02  0.41800000000E+01 0. -1.
         -5    1    3    3    0  502  0.70014910095E+02 -0.76551150194E+02  0.35039830113E+02  0.10957841177E+03  0.41800000000E+01 0. -1.
        -11    1    1    2    0    0 -0.64654537796E+02  0.60822634519E+02  0.28414327886E+03  0.29768608474E+03  0.00000000000E+00 0. -1.
         11    1    1    2    0    0  0.14785702726E+02 -0.93711997260E+01  0.17042152547E+02  0.24430950715E+02  0.00000000000E+00 0.  1.
</event>
<event>
 7    1  0.4394360E-006  0.1706032E+03  0.7561462E-02  0.1177220E+00
          1   -1    0    0  501    0  0.00000000000E+00  0.00000000000E+00  0.12658010043E+04  0.12658010043E+04  0.00000000000E+00 0. -1.
         -1   -1    0    0    0  501 -0.00000000000E+00 -0.00000000000E+00 -0.27401488908E+02  0.27401488908E+02  0.00000000000E+00 0.  1.
         23    2    1    2    0    0 -0.20741955374E+02 -0.14888591256E+03  0.73119871824E+03  0.75689953836E+03  0.12509237365E+03 0.  0.
          5    1    3    3  502    0 -0.52025547100E+02 -0.28217669017E+02  0.13001455418E+03  0.14291308930E+03  0.41800000000E+01 0. -1.
         -5    1    3    3    0  502  0.31283591725E+02 -0.12066824355E+03  0.60118416406E+03  0.61398644906E+03  0.41800000000E+01 0. -1.
        -11    1    1    2    0    0  0.20422966688E+02  0.21118249760E+02  0.28822287972E+02  0.41155829784E+02  0.00000000000E+00 0.  1.
         11    1    1    2    0    0  0.31898868634E+00  0.12776766280E+03  0.47837850923E+03  0.49514712511E+03  0.00000000000E+00 0. -1.
</event>
<event>
 7    1  0.4394360E-006  0.1030609E+03  0.7561462E-02  0.1273988E+00
          2   -1    0    0  501    0  0.00000000000E+00  0.00000000000E+00  0.11618166110E+03  0.11618166110E+03  0.00000000000E+00 0. -1.
         -2   -1    0    0    0  501 -0.00000000000E+00 -0.00000000000E+00 -0.11487936700E+03  0.11487936700E+03  0.00000000000E+00 0.  1.
         23    2    1    2    0    0  0.21358560238E+02 -0.82825877614E+01 -0.39836153742E+02  0.13349967718E+03  0.12534135514E+03 0.  0.
          5    1    3    3  502    0  0.36432723105E+02 -0.61601572877E+02 -0.25757635165E+02  0.76177590294E+02  0.41800000000E+01 0. -1.
         -5    1    3    3    0  502 -0.15074162867E+02  0.53318985115E+02 -0.14078518577E+02  0.57322086888E+02  0.41800000000E+01 0.  1.
        -11    1    1    2    0    0  0.13956865169E+02 -0.26086619544E+02 -0.50580080579E+01  0.30014817175E+02  0.00000000000E+00 0. -1.
         11    1    1    2    0    0 -0.35315425407E+02  0.34369207305E+02  0.46196455898E+02  0.67546533738E+02  0.00000000000E+00 0.  1.
</event>
<event>
 7    1  0.4394360E-006  0.1752548E+03  0.7561462E-02  0.1172476E+00
          4   -1    0    0  501    0  0.00000000000E+00  0.00000000000E+00  0.30948076757E+03  0.30948076757E+03  0.00000000000E+00 0.  1.
         -4   -1    0    0    0  501 -0.00000000000E+00 -0.00000000000E+00 -0.12030955231E+03  0.12030955231E+03  0.00000000000E+00 0. -1.
         23    2    1    2    0    0  0.13476971070E+03  0.57552887156E+02  0.15556949771E+02  0.18463096838E+03  0.11122664273E+03 0.  0.
          5    1    3    3  502    0  0.97722197493E+02  0.88908104576E+02  0.26235930347E+02  0.13475932392E+03  0.41800000000E+01 0. -1.
         -5    1    3    3    0  502  0.37047513211E+02 -0.31355217420E+02 -0.10678980576E+02  0.49871644456E+02  0.41800000000E+01 0. -1.
        -11    1    1    2    0    0 -0.14715491417E+03 -0.52550479097E+02  0.17083066778E+03  0.23151509383E+03  0.00000000000E+00 0.  1.
         11    1    1    2    0    0  0.12385203465E+02 -0.50024080584E+01  0.27835977157E+01  0.13644257674E+02  0.00000000000E+00 0. -1.
</event>
<event>
 7    1  0.4394360E-006  0.9254501E+02  0.7561462E-02  0.1296803E+00
         -1   -1    0    0    0  501 -0.00000000000E+00  0.00000000000E+00  0.21308258452E+03  0.21308258452E+03  0.00000000000E+00 0.  1.
          1   -1    0    0  501    0  0.00000000000E+00 -0.00000000000E+00 -0.61425901013E+02  0.61425901013E+02  0.00000000000E+00 0. -1.
         23    2    1    2    0    0  0.36838994480E+02 -0.19694361757E+00  0.10712927486E+03  0.16875914470E+03  0.12508324063E+03 0.  0.
          5    1    3    3  502    0 -0.37714144258E+01 -0.42115361390E+02  0.10142821753E+03  0.10996855434E+03  0.41800000000E+01 0. -1.
         -5    1    3    3    0  502  0.40610408906E+02  0.41918417773E+02  0.57010573272E+01  0.58790590359E+02  0.41800000000E+01 0. -1.
        -11    1    1    2    0    0 -0.59347655265E+02  0.87865953043E+01  0.53159294688E+02  0.80157713629E+02  0.00000000000E+00 0.  1.
         11    1    1    2    0    0  0.22508660785E+02 -0.85896516867E+01 -0.86318860408E+01  0.25591627206E+02  0.00000000000E+00 0. -1.
</event>
<event>
 7    1  0.4394360E-006  0.9417146E+02  0.7561462E-02  0.1293053E+00
          1   -1    0    0  501    0  0.00000000000E+00  0.00000000000E+00  0.24247944029E+03  0.24247944029E+03  0.00000000000E+00 0. -1.
         -1   -1    0    0    0  501 -0.00000000000E+00 -0.00000000000E+00 -0.70540585281E+02  0.70540585281E+02  0.00000000000E+00 0.  1.
         23    2    1    2    0    0 -0.30483395851E+02  0.12182384316E+02  0.17655445161E+02  0.13052632804E+03  0.12509100550E+03 0.  0.
          5    1    3    3  502    0 -0.74859079611E+02  0.30629596112E+02  0.86151743542E+01  0.81447821256E+02  0.41800000000E+01 0. -1.
         -5    1    3    3    0  502  0.44375683759E+02 -0.18447211796E+02  0.90402708064E+01  0.49078506787E+02  0.41800000000E+01 0. -1.
        -11    1    1    2    0    0 -0.12455369229E+02 -0.10250675843E+02 -0.54900026257E+01  0.17039739045E+02  0.00000000000E+00 0.  1.
         11    1    1    2    0    0  0.42938765080E+02 -0.19317084727E+01  0.15977341247E+03  0.16545395848E+03  0.00000000000E+00 0. -1.
</event>
<event>
 7    1  0.4394360E-006  0.6674613E+02  0.7561462E-02  0.1371521E+00
          2   -1    0    0  501    0  0.00000000000E+00  0.00000000000E+00  0.39111059127E+03  0.39111059127E+03  0.00000000000E+00 0. -1.
         -2   -1    0    0    0  501 -0.00000000000E+00 -0.00000000000E+00 -0.33795745286E+02  0.33795745286E+02  0.00000000000E+00 0.  1.
         23    2    1    2    0    0  0.24521286434E+02  0.28508739073E+02  0.20911143755E+03  0.24655059811E+03  0.12508222263E+03 0.  0.
          5    1    3    3  502    0  0.38270981118E+02  0.39530754433E+02  0.21904905006E+03  0.22589224704E+03  0.41800000000E+01 0.  1.
         -5    1    3    3    0  502 -0.13749694684E+02 -0.11022015361E+02 -0.99376125029E+01  0.20658351066E+02  0.41800000000E+01 0.  1.
        -11    1    1    2    0    0 -0.10343660892E+02  0.12840800841E+02 -0.64032239238E+01  0.17688379335E+02  0.00000000000E+00 0.  1.
         11    1    1    2    0    0 -0.14177625542E+02 -0.41349539914E+02  0.15460663235E+03  0.16066735911E+03  0.00000000000E+00 0. -1.
</event>
<event>
 7    1  0.4394360E-006  0.1014674E+03  0.7561462E-02  0.1277240E+00
          2   -1    0    0  501    0  0.00000000000E+00  0.00000000000E+00  0.90392283603E+02  0.90392283603E+02  0.00000000000E+00 0.  1.
         -2   -1    0    0    0  501 -0.00000000000E+00 -0.00000000000E+00 -0.32082967730E+03  0.32082967730E+03  0.00000000000E+00 0. -1.
         23    2    1    2    0    0 -0.60806197911E+00  0.86627800669E+02 -0.24052618510E+03  0.28461314772E+03  0.12508817909E+03 0.  0.
          5    1    3    3  502    0  0.26477762459E+02  0.84557781624E+02 -0.24133070790E+03  0.25711684758E+03  0.41800000000E+01 0. -1.
         -5    1    3    3    0  502 -0.27085824438E+02  0.20700190453E+01  0.80452279463E+00  0.27496300137E+02  0.41800000000E+01 0. -1.
        -11    1    1    2    0    0 -0.17570786200E+01 -0.55536605359E+02 -0.39400216633E+02  0.68115922741E+02  0.00000000000E+00 0. -1.
         11    1    1    2    0    0  0.23651405991E+01 -0.31091195310E+02  0.49489008036E+02  0.58492890442E+02  0.00000000000E+00 0.  1.
</event>
<event>
 7    1  0.4394360E-006  0.1129562E+03  0.7561462E-02  0.1255191E+00
         -1   -1    0    0    0  501 -0.00000000000E+00  0.00000000000E+00  0.11141958250E+03  0.11141958250E+03  0.00000000000E+00 0.  1.
          1   -1    0    0  501    0  0.00000000000E+00 -0.00000000000E+00 -0.13270877319E+03  0.13270877319E+03  0.00000000000E+00 0. -1.
         23    2    1    2    0    0  0.46433109552E+02  0.23109139885E+02 -0.13123293677E+02  0.13605364975E+03  0.12509320031E+03 0.  0.
          5    1    3    3  502    0  0.36771483028E+02  0.73972033690E+02 -0.10117978288E+01  0.82719404417E+02  0.41800000000E+01 0. -1.
         -5    1    3    3    0  502  0.96616265247E+01 -0.50862893805E+02 -0.12111495848E+02  0.53334245331E+02  0.41800000000E+01 0. -1.
        -11    1    1    2    0    0 -0.37720283412E+02 -0.50204917868E+02  0.22059078253E+02  0.66557918328E+02  0.00000000000E+00 0. -1.
         11    1    1    2    0    0 -0.87128261402E+01  0.27095777983E+02 -0.30224975267E+02  0.41516787614E+02  0.00000000000E+00 0.  1.
</event>
<event>
 7    1  0.4394360E-006  0.2691404E+03  0.7561462E-02  0.1101773E+00
          1   -1    0    0  501    0  0.00000000000E+00  0.00000000000E+00  0.72622326529E+03  0.72622326529E+03  0.00000000000E+00 0. -1.
         -1   -1    0    0    0  501 -0.00000000000E+00 -0.00000000000E+00 -0.10808677198E+03  0.10808677198E+03  0.00000000000E+00 0.  1.
         23    2    1    2    0    0  0.10260000557E+03  0.23477652781E+03  0.26857365994E+03  0.39169863321E+03  0.12509687964E+03 0.  0.
          5    1    3    3  502    0  0.70244117989E+02  0.61338189990E+02  0.15776885598E+03  0.18331692225E+03  0.41800000000E+01 0.  1.
         -5    1    3    3    0  502  0.32355887577E+02  0.17343833782E+03  0.11080480395E+03  0.20838171096E+03  0.41800000000E+01 0.  1.
        -11    1    1    2    0    0 -0.36115127083E+02 -0.17613708698E+03  0.26394028976E+03  0.31936351134E+03  0.00000000000E+00 0. -1.
         11    1    1    2    0    0 -0.66484878482E+02 -0.58639440821E+02  0.85622543612E+02  0.12324789273E+03  0.00000000000E+00 0.  1.
</event>
<event>
 7    1  0.4631531E-006  0.1449946E+03  0.7561462E-02  0.1206762E+00
          1   -1    0    0  501    0  0.00000000000E+00  0.00000000000E+00  0.66295825486E+03  0.66295825486E+03  0.00000000000E+00 0. -1.
         -1   -1    0    0    0  501 -0.00000000000E+00 -0.00000000000E+00 -0.47181919032E+02  0.47181919032E+02  0.00000000000E+00 0.  1.
         23    2    1    2    0    0  0.16376793970E+02  0.13051023358E+03  0.23334117222E+03  0.29562962590E+03  0.12509057761E+03 0.  0.
          5    1    3    3  502    0 -0.23336305852E+02  0.69846976398E+02  0.20465743552E+03  0.21754383833E+03  0.41800000000E+01 0.  1.
         -5    1    3    3    0  502  0.39713099822E+02  0.60663257179E+02  0.28683736701E+02  0.78085787568E+02  0.41800000000E+01 0.  1.
        -11    1    1    2    0    0  0.14972486488E+02 -0.95254111528E+02  0.15742864475E+03  0.18461121120E+03  0.00000000000E+00 0.  1.
         11    1    1    2    0    0 -0.31349280458E+02 -0.35256122048E+02  0.22500651887E+03  0.22989933680E+03  0.00000000000E+00 0. -1.
</event>
<event>
 7    1  0.4394360E-006  0.8367613E+02  0.7561462E-02  0.1318931E+00
         -1   -1    0    0    0  501 -0.00000000000E+00  0.00000000000E+00  0.55569589939E+02  0.55569589939E+02  0.00000000000E+00 0.  1.
          1   -1    0    0  501    0  0.00000000000E+00 -0.00000000000E+00 -0.39052929096E+03  0.39052929096E+03  0.00000000000E+00 0. -1.
         23    2    1    2    0    0  0.60027142450E+02 -0.33494229772E+02 -0.66225105869E+02  0.15734749560E+03  0.12508936191E+03 0.  0.
          5    1    3    3  502    0  0.62573719021E+01 -0.24989437427E+02  0.34211845532E+02  0.43029634680E+02  0.41800000000E+01 0.  1.
         -5    1    3    3    0  502  0.53769770548E+02 -0.85047923448E+01 -0.10043695140E+03  0.11431786092E+03  0.41800000000E+01 0.  1.
        -11    1    1    2    0    0  0.83174217885E+01  0.12767269008E+02 -0.58230573536E+01  0.16312285556E+02  0.00000000000E+00 0.  1.
         11    1    1    2    0    0 -0.68344564239E+02  0.20726960763E+02 -0.26291153780E+03  0.27243909975E+03  0.00000000000E+00 0. -1.
</event>
<event>
 7    1  0.4394360E-006  0.1127803E+03  0.7561462E-02  0.1255506E+00
         -1   -1    0    0    0  501 -0.00000000000E+00  0.00000000000E+00  0.10070985733E+04  0.10070985733E+04  0.00000000000E+00 0.  1.
          1   -1    0    0  501    0  0.00000000000E+00 -0.00000000000E+00 -0.14379343459E+03  0.14379343459E+03  0.00000000000E+00 0. -1.
         23    2    1    2    0    0 -0.22155154554E+02 -0.38062036392E+02  0.98415870342E+03  0.99335111822E+03  0.12743045580E+03 0.  0.
          5    1    3    3  502    0 -0.70577871322E+02 -0.10951123417E+02  0.38324626574E+03  0.38986707430E+03  0.41800000000E+01 0. -1.
         -5    1    3    3    0  502  0.48422716768E+02 -0.27110912976E+02  0.60091243768E+03  0.60348404392E+03  0.41800000000E+01 0.  1.
        -11    1    1    2    0    0  0.11736561934E+01  0.64556427218E+02 -0.61109985416E+02  0.88900731615E+02  0.00000000000E+00 0.  1.
         11    1    1    2    0    0  0.20981498360E+02 -0.26494390826E+02 -0.59743579344E+02  0.68640158009E+02  0.00000000000E+00 0. -1.
</event>
<event>
 7    1  0.4394360E-006  0.9997520E+02  0.7561462E-02  0.1280348E+00
         -1   -1    0    0    0  501 -0.00000000000E+00  0.00000000000E+00  0.11505311563E+03  0.11505311563E+03  0.00000000000E+00 0.  1.
          1   -1    0    0  501    0  0.00000000000E+00 -0.00000000000E+00 -0.13226742782E+03  0.13226742782E+03  0.00000000000E+00 0. -1.
         23    2    1    2    0    0 -0.37666026771E+02 -0.12492789212E+02  0.33672478622E+02  0.13548207282E+03  0.12508699726E+03 0.  0.
          5    1    3    3  502    0 -0.37217445284E+02  0.52908961300E+02  0.89508791316E+01  0.65437657787E+02  0.41800000000E+01 0. -1.
         -5    1    3    3    0  502 -0.44858148703E+00 -0.65401750513E+02  0.24721599490E+02  0.70044415030E+02  0.41800000000E+01 0. -1.
        -11    1    1    2    0    0  0.35367926987E+02 -0.17534538331E+02 -0.66939108986E+02  0.77712255183E+02  0.00000000000E+00 0. -1.
         11    1    1    2    0    0  0.22980997841E+01  0.30027327543E+02  0.16052318178E+02  0.34126215449E+02  0.00000000000E+00 0.  1.
</event>
<event>
 7    1  0.4394360E-006  0.6942410E+02  0.7561462E-02  0.1362062E+00
          4   -1    0    0  501    0  0.00000000000E+00  0.00000000000E+00  0.37221992075E+02  0.37221992075E+02  0.00000000000E+00 0. -1.
         -4   -1    0    0    0  501 -0.00000000000E+00 -0.00000000000E+00 -0.33742849662E+03  0.33742849662E+03  0.00000000000E+00 0.  1.
         23    2    1    2    0    0  0.16695530865E+02 -0.19170023524E+02 -0.21818921167E+03  0.25278927322E+03  0.12509857719E+03 0.  0.
          5    1    3    3  502    0  0.12573363844E+01  0.20923393401E+02 -0.20712912761E+03  0.20822900180E+03  0.41800000000E+01 0.  1.
         -5    1    3    3    0  502  0.15438194480E+02 -0.40093416925E+02 -0.11060084057E+02  0.44560271418E+02  0.41800000000E+01 0.  1.
        -11    1    1    2    0    0 -0.19817916267E+02 -0.23943968185E+02 -0.22855499837E+01  0.31165480204E+02  0.00000000000E+00 0. -1.
         11    1    1    2    0    0  0.31223854024E+01  0.43113991708E+02 -0.79731742891E+02  0.90695735270E+02  0.00000000000E+00 0.  1.
</event>
<event>
 7    1  0.4394360E-006  0.1477558E+03  0.7561462E-02  0.1203258E+00
          1   -1    0    0  501    0  0.00000000000E+00  0.00000000000E+00  0.11584484483E+04  0.11584484483E+04  0.00000000000E+00 0. -1.
         -1   -1    0    0    0  501 -0.00000000000E+00 -0.00000000000E+00 -0.20817638749E+02  0.20817638749E+02  0.00000000000E+00 0.  1.
         23    2    1    2    0    0 -0.10639331427E+03 -0.26812740115E+02  0.65945290915E+03  0.68012129479E+03  0.12509346861E+03 0.  0.
          5    1    3    3  502    0 -0.33896103650E+02 -0.69314206225E+02  0.23400750560E+03  0.24643536699E+03  0.41800000000E+01 0.  1.
         -5    1    3    3    0  502 -0.72497210616E+02  0.42501466110E+02  0.42544540355E+03  0.43368592780E+03  0.41800000000E+01 0.  1.
        -11    1    1    2    0    0  0.84364560516E+02  0.53190602133E+02  0.41905356432E+03  0.43075806318E+03  0.00000000000E+00 0. -1.
         11    1    1    2    0    0  0.22028753750E+02 -0.26377862018E+02  0.59124336059E+02  0.68386729055E+02  0.00000000000E+00 0.  1.
</event>
<event>
 7    1  0.4394360E-006  0.9482981E+02  0.7561462E-02  0.1291560E+00
         -1   -1    0    0    0  501 -0.00000000000E+00  0.00000000000E+00  0.35757778395E+02  0.35757778395E+02  0.00000000000E+00 0.  1.
          1   -1    0    0  501    0  0.00000000000E+00 -0.00000000000E+00 -0.55625912151E+03  0.55625912151E+03  0.00000000000E+00 0. -1.
         23    2    1    2    0    0 -0.12809963964E+02 -0.30169654343E+02 -0.10785941329E+03  0.16839351780E+03  0.12509364725E+03 0.  0.
          5    1    3    3  502    0 -0.52760728485E+02 -0.27685666068E+02 -0.11300594715E+03  0.12782021384E+03  0.41800000000E+01 0. -1.
         -5    1    3    3    0  502  0.39950764521E+02 -0.24839882741E+01  0.51465338574E+01  0.40573303961E+02  0.41800000000E+01 0. -1.
        -11    1    1    2    0    0  0.48604438537E+02  0.19019053225E+02 -0.30969370469E+03  0.31406099178E+03  0.00000000000E+00 0.  1.
         11    1    1    2    0    0 -0.35794474574E+02  0.11150601118E+02 -0.10294822513E+03  0.10956239032E+03  0.00000000000E+00 0. -1.
</event>
<event>
 7    1  0.4394360E-006  0.2020714E+03  0.7561462E-02  0.1148003E+00
         -2   -1    0    0    0  501 -0.00000000000E+00  0.00000000000E+00  0.21012290220E+03  0.21012290220E+03  0.00000000000E+00 0.  1.
          2   -1    0    0  501    0  0.00000000000E+00 -0.00000000000E+00 -0.35071620254E+03  0.35071620254E+03  0.00000000000E+00 0. -1.
         23    2    1    2    0    0  0.11087524148E+02 -0.17673533744E+03  0.10810555975E+03  0.24226754053E+03  0.12509371068E+03 0.  0.
          5    1    3    3  502    0 -0.14094863503E+02  0.14991389800E+02  0.22426122550E+02  0.30721496023E+02  0.41800000000E+01 0. -1.
         -5    1    3    3    0  502  0.25182387651E+02 -0.19172672724E+03  0.85679437205E+02  0.21154604451E+03  0.41800000000E+01 0. -1.
        -11    1    1    2    0    0 -0.21622846208E+02  0.12145581336E+02 -0.75235100217E+02  0.79217314577E+02  0.00000000000E+00 0. -1.
         11    1    1    2    0    0  0.10535322060E+02  0.16458975610E+03 -0.17346375988E+03  0.23935424963E+03  0.00000000000E+00 0.  1.
</event>
<event>
 7    1  0.4394360E-006  0.1068132E+03  0.7561462E-02  0.1266588E+00
         -1   -1    0    0    0  501 -0.00000000000E+00  0.00000000000E+00  0.16573292978E+03  0.16573292978E+03  0.00000000000E+00 0.  1.
          1   -1    0    0  501    0  0.00000000000E+00 -0.00000000000E+00 -0.10818207489E+03  0.10818207489E+03  0.00000000000E+00 0. -1.
         23    2    1    2    0    0 -0.36973398434E+01 -0.56554351766E+02  0.84940016169E+02  0.16147282117E+03  0.12508637258E+03 0.  0.
          5    1    3    3  502    0  0.22278169644E+02 -0.72995729616E+02  0.60165308142E+01  0.76670492550E+02  0.41800000000E+01 0.  1.
         -5    1    3    3    0  502 -0.25975509488E+02  0.16441377850E+02  0.78923485355E+02  0.84802328619E+02  0.41800000000E+01 0.  1.
        -11    1    1    2    0    0 -0.35505044469E+02 -0.21581130580E+01  0.27581419574E+01  0.35677345498E+02  0.00000000000E+00 0.  1.
         11    1    1    2    0    0  0.39202384313E+02  0.58712464824E+02 -0.30147303239E+02  0.76764838006E+02  0.00000000000E+00 0. -1.
</event>
<event>
 7    1  0.4394360E-006  0.2121686E+03  0.7561462E-02  0.1139860E+00
         -2   -1    0    0    0  501 -0.00000000000E+00  0.00000000000E+00  0.58803218540E+02  0.58803218540E+02  0.00000000000E+00 0.  1.
          2   -1    0    0  501    0  0.00000000000E+00 -0.00000000000E+00 -0.10165464094E+04  0.10165464094E+04  0.00000000000E+00 0. -1.
         23    2    1    2    0    0 -0.15375530623E+03 -0.11925202022E+03 -0.27396355096E+03  0.35855411738E+03  0.12507313586E+03 0.  0.
          5    1    3    3  502    0 -0.16462009074E+03 -0.74065675794E+02 -0.18751840560E+03  0.26031927213E+03  0.41800000000E+01 0. -1.
         -5    1    3    3    0  502  0.10864784503E+02 -0.45186344422E+02 -0.86445145358E+02  0.98234845246E+02  0.41800000000E+01 0. -1.
        -11    1    1    2    0    0  0.93604328513E+02  0.52756900160E+02 -0.51057110151E+03  0.52175464591E+03  0.00000000000E+00 0. -1.
         11    1    1    2    0    0  0.60150977720E+02  0.66495120055E+02 -0.17320853838E+03  0.19504086464E+03  0.00000000000E+00 0.  1.
</event>
<event>
 7    1  0.4394360E-006  0.6088167E+02  0.7561462E-02  0.1394169E+00
          2   -1    0    0  501    0  0.00000000000E+00  0.00000000000E+00  0.16331288640E+03  0.16331288640E+03  0.00000000000E+00 0.  1.
         -2   -1    0    0    0  501 -0.00000000000E+00 -0.00000000000E+00 -0.77626632333E+02  0.77626632333E+02  0.00000000000E+00 0. -1.
         23    2    1    2    0    0  0.26425229093E+02 -0.13938238240E+02  0.42981129839E+02  0.13560112639E+03  0.12509084994E+03 0.  0.
          5    1    3    3  502    0  0.16222731869E+02  0.20813044516E+02  0.79577867306E+02  0.83943249974E+02  0.41800000000E+01 0. -1.
         -5    1    3    3    0  502  0.10202497224E+02 -0.34751282756E+02 -0.36596737467E+02  0.51657876418E+02  0.41800000000E+01 0. -1.
        -11    1    1    2    0    0 -0.26376322069E+02 -0.14533625958E+02  0.63367124192E+02  0.70159312124E+02  0.00000000000E+00 0.  1.
         11    1    1    2    0    0 -0.48907024367E-01  0.28471864197E+02 -0.20661999961E+02  0.35179080221E+02  0.00000000000E+00 0. -1.
</event>
<event>
 7    1  0.4394360E-006  0.9473681E+02  0.7561462E-02  0.1291770E+00
          2   -1    0    0  501    0  0.00000000000E+00  0.00000000000E+00  0.11840845244E+03  0.11840845244E+03  0.00000000000E+00 0. -1.
         -2   -1    0    0    0  501 -0.00000000000E+00 -0.00000000000E+00 -0.10553216537E+03  0.10553216537E+03  0.00000000000E+00 0.  1.
         23    2    1    2    0    0  0.21567659759E+02 -0.23526068449E+02 -0.66695173832E+01  0.12925638377E+03  0.12507633844E+03 0.  0.
          5    1    3    3  502    0 -0.16390578574E+02 -0.64918865521E+02  0.15293896300E+02  0.68807600093E+02  0.41800000000E+01 0. -1.
         -5    1    3    3    0  502  0.37958238334E+02  0.41392797072E+02 -0.21963413683E+02  0.60448783672E+02  0.41800000000E+01 0. -1.
        -11    1    1    2    0    0 -0.14086188718E+01 -0.18976503714E+02 -0.23968373139E+02  0.30603509787E+02  0.00000000000E+00 0.  1.
         11    1    1    2    0    0 -0.20159040887E+02  0.42502572163E+02  0.43514177597E+02  0.64080724262E+02  0.00000000000E+00 0. -1.
</event>
<event>
 7    1  0.4394360E-006  0.1130145E+03  0.7561462E-02  0.1255087E+00
          2   -1    0    0  501    0  0.00000000000E+00  0.00000000000E+00  0.15642499878E+02  0.15642499878E+02  0.00000000000E+00 0. -1.
         -2   -1    0    0    0  501 -0.00000000000E+00 -0.00000000000E+00 -0.96945897446E+03  0.96945897446E+03  0.00000000000E+00 0.  1.
         23    2    1    2    0    0 -0.47760850042E+02 -0.20854290525E+02 -0.61420611906E+03  0.62897734676E+03  0.12508935135E+03 0.  0.
          5    1    3    3  502    0  0.35763719163E+02  0.17562858035E+02 -0.12747468280E+03  0.13362172258E+03  0.41800000000E+01 0.  1.
         -5    1    3    3    0  502 -0.83524569205E+02 -0.38417148561E+02 -0.48673143625E+03  0.49535562417E+03  0.41800000000E+01 0.  1.
        -11    1    1    2    0    0  0.63897963822E+02 -0.43086303020E+01 -0.29850999955E+03  0.30530269227E+03  0.00000000000E+00 0.  1.
         11    1    1    2    0    0 -0.16137113780E+02  0.25162920827E+02 -0.41100355981E+02  0.50821435315E+02  0.00000000000E+00 0. -1.
</event>
<event>
 7    1  0.4394360E-006  0.9614737E+02  0.7561462E-02  0.1288613E+00
         -2   -1    0    0    0  501 -0.00000000000E+00  0.00000000000E+00  0.21339921888E+02  0.21339921888E+02  0.00000000000E+00 0.  1.
          2   -1    0    0  501    0  0.00000000000E+00 -0.00000000000E+00 -0.79584064769E+03  0.79584064769E+03  0.00000000000E+00 0. -1.
         23    2    1    2    0    0 -0.44077329697E+02 -0.50118004983E+02 -0.37634278213E+03  0.40216478911E+03  0.12509197624E+03 0.  0.
          5    1    3    3  502    0  0.13278759813E+02 -0.31787696336E+02 -0.31206969610E+03  0.31399323356E+03  0.41800000000E+01 0.  1.
         -5    1    3    3    0  502 -0.57356089510E+02 -0.18330308647E+02 -0.64273086032E+02  0.88171555544E+02  0.41800000000E+01 0.  1.
        -11    1    1    2    0    0 -0.16420978217E+01 -0.16420046746E+02 -0.11733447123E+02  0.20248165393E+02  0.00000000000E+00 0.  1.
         11    1    1    2    0    0  0.45719427518E+02  0.66538051729E+02 -0.38642449655E+03  0.39476761507E+03  0.00000000000E+00 0. -1.
</event>
<event>
 7    1  0.4394360E-006  0.9918073E+02  0.7561462E-02  0.1282028E+00
          4   -1    0    0  501    0  0.00000000000E+00  0.00000000000E+00  0.14272960390E+03  0.14272960390E+03  0.00000000000E+00 0. -1.
         -4   -1    0    0    0  501 -0.00000000000E+00 -0.00000000000E+00 -0.10836072261E+03  0.10836072261E+03  0.00000000000E+00 0.  1.
         23    2    1    2    0    0 -0.26858941422E+02 -0.44644453606E+02 -0.50293034763E+01  0.13560167748E+03  0.12509193048E+03 0.  0.
          5    1    3    3  502    0  0.32930053727E+02 -0.64068751540E+02 -0.75233019448E+01  0.72548368930E+02  0.41800000000E+01 0.  1.
         -5    1    3    3    0  502 -0.59788995149E+02  0.19424297934E+02  0.24939984685E+01  0.63053308553E+02  0.41800000000E+01 0.  1.
        -11    1    1    2    0    0  0.13540852723E+02 -0.28810515681E+01  0.60314761802E+02  0.61883161214E+02  0.00000000000E+00 0. -1.
         11    1    1    2    0    0  0.13318088699E+02  0.47525505174E+02 -0.20916577033E+02  0.53605487810E+02  0.00000000000E+00 0.  1.
</event>
<event>
 7    1  0.4394360E-006  0.1478339E+03  0.7561462E-02  0.1203160E+00
         -2   -1    0    0    0  501 -0.00000000000E+00  0.00000000000E+00  0.42345477337E+02  0.42345477337E+02  0.00000000000E+00 0. -1.
          2   -1    0    0  501    0  0.00000000000E+00 -0.00000000000E+00 -0.73232462656E+03  0.73232462656E+03  0.00000000000E+00 0.  1.
         23    2    1    2    0    0  0.42122146182E+02 -0.13063563859E+03 -0.32768798432E+03  0.37665403001E+03  0.12509555545E+03 0.  0.
          5    1    3    3  502    0  0.17915144579E+02 -0.90036580090E+02 -0.72392212100E+02  0.11698565268E+03  0.41800000000E+01 0.  1.
         -5    1    3    3    0  502  0.24207001603E+02 -0.40599058501E+02 -0.25529577222E+03  0.25966837734E+03  0.41800000000E+01 0.  1.
        -11    1    1    2    0    0 -0.49647565632E+02  0.13746539252E+03 -0.35853637071E+03  0.38718205541E+03  0.00000000000E+00 0.  1.
         11    1    1    2    0    0  0.75254194506E+01 -0.68297539319E+01 -0.37547942003E+01  0.10834018468E+02  0.00000000000E+00 0. -1.
</event>
<event>
 7    1  0.4394360E-006  0.1681226E+03  0.7561462E-02  0.1179820E+00
          1   -1    0    0  501    0  0.00000000000E+00  0.00000000000E+00  0.46824680759E+03  0.46824680759E+03  0.00000000000E+00 0. -1.
         -1   -1    0    0    0  501 -0.00000000000E+00 -0.00000000000E+00 -0.62994458810E+02  0.62994458810E+02  0.00000000000E+00 0.  1.
         23    2    1    2    0    0 -0.51909916298E+02 -0.11978000930E+03  0.19833136597E+03  0.26837126064E+03  0.12508362311E+03 0.  0.
          5    1    3    3  502    0  0.17000063466E+02 -0.10874982853E+03  0.13293421353E+03  0.17263981259E+03  0.41800000000E+01 0. -1.
         -5    1    3    3    0  502 -0.68909979764E+02 -0.11030180770E+02  0.65397152438E+02  0.95731448051E+02  0.41800000000E+01 0. -1.
        -11    1    1    2    0    0  0.56611479288E+02  0.26019384041E+02  0.11863069748E+03  0.13399668025E+03  0.00000000000E+00 0. -1.
         11    1    1    2    0    0 -0.47015629899E+01  0.93760625262E+02  0.88290285326E+02  0.12887332551E+03  0.00000000000E+00 0.  1.
</event>
<event>
 7    1  0.4394360E-006  0.1178471E+03  0.7561462E-02  0.1246691E+00
          1   -1    0    0  501    0  0.00000000000E+00  0.00000000000E+00  0.19548604152E+02  0.19548604152E+02  0.00000000000E+00 0. -1.
         -1   -1    0    0    0  501 -0.00000000000E+00 -0.00000000000E+00 -0.12711986551E+04  0.12711986551E+04  0.00000000000E+00 0.  1.
         23    2    1    2    0    0  0.12922579862E+02 -0.65972507985E+02 -0.10551823085E+04  0.10646953771E+04  0.12508867623E+03 0.  0.
          5    1    3    3  502    0 -0.31549420757E+02 -0.85159648379E+02 -0.77658981913E+03  0.78189305614E+03  0.41800000000E+01 0.  1.
         -5    1    3    3    0  502  0.44472000619E+02  0.19187140394E+02 -0.27859248939E+03  0.28280232096E+03  0.41800000000E+01 0.  1.
        -11    1    1    2    0    0  0.16923983658E+02 -0.62340141943E+01 -0.10142661128E+03  0.10301767630E+03  0.00000000000E+00 0.  1.
         11    1    1    2    0    0 -0.29846563520E+02  0.72206522180E+02 -0.95041131163E+02  0.12303420586E+03  0.00000000000E+00 0. -1.
</event>
<event>
 7    1  0.4394360E-006  0.1575005E+03  0.7561462E-02  0.1191548E+00
         -1   -1    0    0    0  501 -0.00000000000E+00  0.00000000000E+00  0.55306520084E+02  0.55306520084E+02  0.00000000000E+00 0.  1.
          1   -1    0    0  501    0  0.00000000000E+00 -0.00000000000E+00 -0.49213302055E+03  0.49213302055E+03  0.00000000000E+00 0. -1.
         23    2    1    2    0    0  0.36251084530E+02 -0.10809795016E+03 -0.15200621017E+03  0.22749416630E+03  0.12509356423E+03 0.  0.
          5    1    3    3  502    0 -0.29425123474E+02 -0.98329676200E+02 -0.92930037848E+02  0.13852085564E+03  0.41800000000E+01 0.  1.
         -5    1    3    3    0  502  0.65676208003E+02 -0.97682739626E+01 -0.59076172324E+02  0.88973310663E+02  0.41800000000E+01 0.  1.
        -11    1    1    2    0    0  0.26931326247E+02  0.93337371617E+01 -0.55709447910E+02  0.62577612365E+02  0.00000000000E+00 0.  1.
         11    1    1    2    0    0 -0.63182410777E+02  0.98764213001E+02 -0.22911084238E+03  0.25736776196E+03  0.00000000000E+00 0. -1.
</event>
<event>
 7    1  0.5852751E-006  0.1759067E+03  0.7561462E-02  0.1171824E+00
         -1   -1    0    0    0  501 -0.00000000000E+00  0.00000000000E+00  0.22694950668E+02  0.22694950668E+02  0.00000000000E+00 0.  1.
          1   -1    0    0  501    0  0.00000000000E+00 -0.00000000000E+00 -0.15282052691E+04  0.15282052691E+04  0.00000000000E+00 0. -1.
         23    2    1    2    0    0 -0.90756717804E+02  0.11560827790E+03 -0.64608647263E+03  0.67429724751E+03  0.12508793760E+03 0.  0.
          5    1    3    3  502    0 -0.87292750276E+02  0.12113277548E+02 -0.26101639036E+03  0.27552456185E+03  0.41800000000E+01 0. -1.
         -5    1    3    3    0  502 -0.34639675272E+01  0.10349500035E+03 -0.38507008227E+03  0.39877268566E+03  0.41800000000E+01 0. -1.
        -11    1    1    2    0    0  0.10063434588E+03 -0.10618930819E+03 -0.84124066912E+03  0.85386726376E+03  0.00000000000E+00 0. -1.
         11    1    1    2    0    0 -0.98776280725E+01 -0.94189697067E+01 -0.18183176670E+02  0.22735708489E+02  0.00000000000E+00 0.  1.
</event>
<event>
 7    1  0.4394360E-006  0.7631895E+02  0.7561462E-02  0.1339835E+00
         -2   -1    0    0    0  501 -0.00000000000E+00  0.00000000000E+00  0.86554440932E+02  0.86554440932E+02  0.00000000000E+00 0.  1.
          2   -1    0    0  501    0  0.00000000000E+00 -0.00000000000E+00 -0.30627028777E+03  0.30627028777E+03  0.00000000000E+00 0. -1.
         23    2    1    2    0    0 -0.40635224486E+02  0.22048901621E+02  0.17497835463E+02  0.13450311267E+03  0.12509011768E+03 0.  0.
          5    1    3    3  502    0 -0.20720711889E+02  0.48104798709E+02  0.60583600292E+02  0.80195165592E+02  0.41800000000E+01 0.  1.
         -5    1    3    3    0  502 -0.19914512597E+02 -0.26055897087E+02 -0.43085764829E+02  0.54307947079E+02  0.41800000000E+01 0.  1.
        -11    1    1    2    0    0 -0.93753780877E+01 -0.13286364273E+02 -0.54732203450E+00  0.16270364202E+02  0.00000000000E+00 0.  1.
         11    1    1    2    0    0  0.50010602574E+02 -0.87625373490E+01 -0.23666636027E+03  0.24205125183E+03  0.00000000000E+00 0. -1.
</event>
<event>
 7    1  0.4394360E-006  0.9368362E+02  0.7561462E-02  0.1294169E+00
         -1   -1    0    0    0  501 -0.00000000000E+00  0.00000000000E+00  0.25968627915E+03  0.25968627915E+03  0.00000000000E+00 0.  1.
          1   -1    0    0  501    0  0.00000000000E+00 -0.00000000000E+00 -0.71083186177E+02  0.71083186177E+02  0.00000000000E+00 0. -1.
         23    2    1    2    0    0  0.37958108324E+02 -0.20445302412E+02  0.18572936698E+03  0.22803884529E+03  0.12508992296E+03 0.  0.
          5    1    3    3  502    0 -0.33311767754E+02 -0.15332409719E+02  0.13590985809E+03  0.14083223560E+03  0.41800000000E+01 0. -1.
         -5    1    3    3    0  502  0.71269876078E+02 -0.51128926931E+01  0.49819508889E+02  0.87206609691E+02  0.41800000000E+01 0. -1.
        -11    1    1    2    0    0 -0.11707375218E+02 -0.24318868508E+02  0.33073969277E+02  0.42689078741E+02  0.00000000000E+00 0.  1.
         11    1    1    2    0    0 -0.26250733107E+02  0.44764170921E+02 -0.30200243281E+02  0.60041541295E+02  0.00000000000E+00 0. -1.
</event>
<event>
 7    1  0.4394360E-006  0.8370834E+02  0.7561462E-02  0.1318845E+00
         -2   -1    0    0    0  501 -0.00000000000E+00  0.00000000000E+00  0.53182259017E+02  0.53182259017E+02  0.00000000000E+00 0.  1.
          2   -1    0    0  501    0  0.00000000000E+00 -0.00000000000E+00 -0.24269969995E+03  0.24269969995E+03  0.00000000000E+00 0. -1.
         23    2    1    2    0    0  0.13941460946E+02 -0.25909744439E+02 -0.12950801044E+03  0.18243614455E+03  0.12507974609E+03 0.  0.
          5    1    3    3  502    0  0.77422835554E+01 -0.70124046552E+02 -0.11559019181E+03  0.13548390939E+03  0.41800000000E+01 0.  1.
         -5    1    3    3    0  502  0.61991773908E+01  0.44214302114E+02 -0.13917818627E+02  0.46952235166E+02  0.41800000000E+01 0.  1.
        -11    1    1    2    0    0 -0.25961609409E+02  0.29556658751E+02 -0.80393298203E+02  0.89502422513E+02  0.00000000000E+00 0. -1.
         11    1    1    2    0    0  0.12020148463E+02 -0.36469143124E+01  0.20383867709E+02  0.23943391903E+02  0.00000000000E+00 0.  1.
</event>
<event>
 7    1  0.4394360E-006  0.1182930E+03  0.7561462E-02  0.1245940E+00
         -2   -1    0    0    0  501 -0.00000000000E+00  0.00000000000E+00  0.20881678315E+02  0.20881678315E+02  0.00000000000E+00 0.  1.
          2   -1    0    0  501    0  0.00000000000E+00 -0.00000000000E+00 -0.79622866343E+03  0.79622866343E+03  0.00000000000E+00 0. -1.
         23    2    1    2    0    0  0.64016647613E+02 -0.21727109651E+02 -0.33306571544E+03  0.36214672655E+03  0.12508909739E+03 0.  0.
          5    1    3    3  502    0  0.33210912378E+02 -0.69662921460E+02 -0.24727702213E+03  0.25907389949E+03  0.41800000000E+01 0. -1.
         -5    1    3    3    0  502  0.30805735235E+02  0.47935811809E+02 -0.85788693317E+02  0.10307282706E+03  0.41800000000E+01 0. -1.
        -11    1    1    2    0    0 -0.44696694600E+02  0.50542856004E+02 -0.34849184795E+03  0.35496329795E+03  0.00000000000E+00 0. -1.
         11    1    1    2    0    0 -0.19319953013E+02 -0.28815746354E+02 -0.93789421724E+02  0.10000031725E+03  0.00000000000E+00 0.  1.
</event>
<event>
 7    1  0.4394360E-006  0.1155163E+03  0.7561462E-02  0.1250683E+00
         -1   -1    0    0    0  501 -0.00000000000E+00  0.00000000000E+00  0.11425155117E+03  0.11425155117E+03  0.00000000000E+00 0.  1.
          1   -1    0    0  501    0  0.00000000000E+00 -0.00000000000E+00 -0.15035961380E+03  0.15035961380E+03  0.00000000000E+00 0. -1.
         23    2    1    2    0    0  0.14271098966E+02  0.70004378167E+02 -0.33335584369E+02  0.14786319426E+03  0.12509190942E+03 0.  0.
          5    1    3    3  502    0 -0.44972499912E+02  0.19524529039E+02 -0.47784533353E+02  0.68589846262E+02  0.41800000000E+01 0.  1.
         -5    1    3    3    0  502  0.59243598877E+02  0.50479849128E+02  0.14448948984E+02  0.79273347997E+02  0.41800000000E+01 0.  1.
        -11    1    1    2    0    0  0.17957103127E+02 -0.69359855962E+02 -0.26851177316E+02  0.76512959001E+02  0.00000000000E+00 0. -1.
         11    1    1    2    0    0 -0.32228202093E+02 -0.64452220497E+00  0.24078699051E+02  0.40235011706E+02  0.00000000000E+00 0.  1.
</event>
<event>
 7    1  0.4394360E-006  0.1072903E+03  0.7561462E-02  0.1265672E+00
          2   -1    0    0  501    0  0.00000000000E+00  0.00000000000E+00  0.83922620378E+03  0.83922620378E+03  0.00000000000E+00 0. -1.
         -2   -1    0    0    0  501 -0.00000000000E+00 -0.00000000000E+00 -0.15318457636E+02  0.15318457636E+02  0.00000000000E+00 0.  1.
         23    2    1    2    0    0  0.13766809779E+02  0.17673465964E+02  0.37374683776E+03  0.39475468891E+03  0.12507073691E+03 0.  0.
          5    1    3    3  502    0 -0.20144654685E+02  0.62028511320E+02  0.25841897050E+03  0.26655427223E+03  0.41800000000E+01 0. -1.
         -5    1    3    3    0  502  0.33911464464E+02 -0.44355045356E+02  0.11532786726E+03  0.12820041668E+03  0.41800000000E+01 0. -1.
        -11    1    1    2    0    0 -0.32269324395E+02 -0.47926158346E+02  0.25880922977E+03  0.26518002068E+03  0.00000000000E+00 0. -1.
         11    1    1    2    0    0  0.18502514616E+02  0.30252692382E+02  0.19135167861E+03  0.19460995183E+03  0.00000000000E+00 0.  1.
</event>
<event>
 7    1  0.4394360E-006  0.8987638E+02  0.7561462E-02  0.1303151E+00
         -2   -1    0    0    0  501 -0.00000000000E+00  0.00000000000E+00  0.16066568631E+03  0.16066568631E+03  0.00000000000E+00 0.  1.
          2   -1    0    0  501    0  0.00000000000E+00 -0.00000000000E+00 -0.77216018070E+02  0.77216018070E+02  0.00000000000E+00 0. -1.
         23    2    1    2    0    0  0.24418488981E+02 -0.86158118559E+01  0.52312195240E+02  0.13805558768E+03  0.12510909120E+03 0.  0.
          5    1    3    3  502    0 -0.28721739902E+02 -0.51167089350E+02  0.31592658685E+02  0.66772583134E+02  0.41800000000E+01 0. -1.
         -5    1    3    3    0  502  0.53140228883E+02  0.42551277494E+02  0.20719536555E+02  0.71283004546E+02  0.41800000000E+01 0. -1.
        -11    1    1    2    0    0 -0.48559389580E+01 -0.18589359102E+02 -0.26752950132E+02  0.32937285191E+02  0.00000000000E+00 0. -1.
         11    1    1    2    0    0 -0.19562550023E+02  0.27205170958E+02  0.57890423131E+02  0.66888831509E+02  0.00000000000E+00 0.  1.
</event>
<event>
 7    1  0.4394360E-006  0.9212549E+02  0.7561462E-02  0.1297785E+00
         -2   -1    0    0    0  501 -0.00000000000E+00  0.00000000000E+00  0.61063677701E+02  0.61063677701E+02  0.00000000000E+00 0.  1.
          2   -1    0    0  501    0  0.00000000000E+00 -0.00000000000E+00 -0.19011150492E+03  0.19011150492E+03  0.00000000000E+00 0. -1.
         23    2    1    2    0    0 -0.51466961030E+01 -0.11051443223E+02 -0.76997588478E+02  0.14739211325E+03  0.12508870268E+03 0.  0.
          5    1    3    3  502    0 -0.52788757992E+02 -0.21260787498E+02 -0.10623813295E+01  0.57072542518E+02  0.41800000000E+01 0. -1.
         -5    1    3    3    0  502  0.47642061889E+02  0.10209344276E+02 -0.75935207148E+02  0.90319570727E+02  0.41800000000E+01 0. -1.
        -11    1    1    2    0    0  0.81915403155E+01 -0.33064849014E+02 -0.48705150856E+02  0.59435488498E+02  0.00000000000E+00 0.  1.
         11    1    1    2    0    0 -0.30448442125E+01  0.44116292237E+02 -0.33450878879E+01  0.44347580881E+02  0.00000000000E+00 0. -1.
</event>
<event>
 7    1  0.4394360E-006  0.1044216E+03  0.7561462E-02  0.1271264E+00
         -4   -1    0    0    0  501 -0.00000000000E+00  0.00000000000E+00  0.54685606498E+03  0.54685606498E+03  0.00000000000E+00 0.  1.
          4   -1    0    0  501    0  0.00000000000E+00 -0.00000000000E+00 -0.25782864788E+02  0.25782864788E+02  0.00000000000E+00 0. -1.
         23    2    1    2    0    0  0.39409687658E+02  0.23800004876E+02  0.33862437275E+03  0.36391500858E+03  0.12509238161E+03 0.  0.
          5    1    3    3  502    0  0.53426123957E+02 -0.32158123339E+02  0.96441164801E+02  0.11492113072E+03  0.41800000000E+01 0.  1.
         -5    1    3    3    0  502 -0.14016436299E+02  0.55958128215E+02  0.24218320794E+03  0.24899387786E+03  0.41800000000E+01 0.  1.
        -11    1    1    2    0    0 -0.54647143619E+02  0.60620146688E+01  0.15782371686E+03  0.16712684982E+03  0.00000000000E+00 0. -1.
         11    1    1    2    0    0  0.15237455961E+02 -0.29862019545E+02  0.24625110594E+02  0.41597071378E+02  0.00000000000E+00 0.  1.
</event>
<event>
 7    1  0.4394360E-006  0.1138837E+03  0.7561462E-02  0.1253542E+00
          2   -1    0    0  501    0  0.00000000000E+00  0.00000000000E+00  0.84182091454E+02  0.84182091454E+02  0.00000000000E+00 0. -1.
         -2   -1    0    0    0  501 -0.00000000000E+00 -0.00000000000E+00 -0.19869490819E+03  0.19869490819E+03  0.00000000000E+00 0.  1.
         23    2    1    2    0    0 -0.59937912677E+02 -0.36912789198E+02 -0.76901749482E+02  0.16283806252E+03  0.12508896094E+03 0.  0.
          5    1    3    3  502    0  0.73067112633E+01 -0.66396659061E+02 -0.53431389918E+02  0.85640470530E+02  0.41800000000E+01 0. -1.
         -5    1    3    3    0  502 -0.67244623941E+02  0.29483869863E+02 -0.23470359564E+02  0.77197591990E+02  0.41800000000E+01 0. -1.
        -11    1    1    2    0    0  0.29183650127E+02 -0.10301814605E+02 -0.53224411015E+02  0.61568260872E+02  0.00000000000E+00 0.  1.
         11    1    1    2    0    0  0.30754262550E+02  0.47214603804E+02  0.15613343764E+02  0.58470676247E+02  0.00000000000E+00 0. -1.
</event>
<event>
 7    1  0.4394360E-006  0.1095409E+03  0.7561462E-02  0.1261422E+00
         -2   -1    0    0    0  501 -0.00000000000E+00  0.00000000000E+00  0.58432605904E+02  0.58432605904E+02  0.00000000000E+00 0.  1.
          2   -1    0    0  501    0  0.00000000000E+00 -0.00000000000E+00 -0.34186315860E+03  0.34186315860E+03  0.00000000000E+00 0. -1.
         23    2    1    2    0    0  0.22290675043E+02  0.26720694303E+02 -0.36414161641E+02  0.13484180709E+03  0.12508178154E+03 0.  0.
          5    1    3    3  502    0 -0.37048194804E+02  0.47011131644E+02  0.39745241479E+01  0.60132224962E+02  0.41800000000E+01 0.  1.
         -5    1    3    3    0  502  0.59338869846E+02 -0.20290437342E+02 -0.40388685789E+02  0.74709582129E+02  0.41800000000E+01 0.  1.
        -11    1    1    2    0    0 -0.16955068612E+02  0.32559746672E+02 -0.76592052752E+02  0.84934998674E+02  0.00000000000E+00 0.  1.
         11    1    1    2    0    0 -0.53356064303E+01 -0.59280440975E+02 -0.17042433830E+03  0.18051895873E+03  0.00000000000E+00 0. -1.
</event>
<event>
 7    1  0.4394360E-006  0.1015404E+03  0.7561462E-02  0.1277090E+00
         -1   -1    0    0    0  501 -0.00000000000E+00  0.00000000000E+00  0.20974582038E+03  0.20974582038E+03  0.00000000000E+00 0.  1.
          1   -1    0    0  501    0  0.00000000000E+00 -0.00000000000E+00 -0.61857196506E+02  0.61857196506E+02  0.00000000000E+00 0. -1.
         23    2    1    2    0    0 -0.24835045345E+02  0.12283095939E+01  0.11968534044E+03  0.17491287315E+03  0.12510653162E+03 0.  0.
          5    1    3    3  502    0  0.40121788752E+02 -0.25041967705E+02  0.16800452991E+02  0.50364528191E+02  0.41800000000E+01 0.  1.
         -5    1    3    3    0  502 -0.64956834098E+02  0.26270277299E+02  0.10288488745E+03  0.12454834495E+03  0.41800000000E+01 0.  1.
        -11    1    1    2    0    0  0.43074501896E+02  0.27698459017E+02  0.34728196337E+02  0.61876206787E+02  0.00000000000E+00 0.  1.
         11    1    1    2    0    0 -0.18239456551E+02 -0.28926768611E+02 -0.65249129077E+01  0.34813936951E+02  0.00000000000E+00 0. -1.
</event>
<event>
 7    1  0.4394360E-006  0.2131353E+03  0.7561462E-02  0.1139107E+00
          1   -1    0    0  501    0  0.00000000000E+00  0.00000000000E+00  0.72587259176E+02  0.72587259176E+02  0.00000000000E+00 0. -1.
         -1   -1    0    0    0  501 -0.00000000000E+00 -0.00000000000E+00 -0.78216605943E+03  0.78216605943E+03  0.00000000000E+00 0.  1.
         23    2    1    2    0    0  0.17430585382E+03 -0.85086218588E+02 -0.52214499454E+03  0.57088081406E+03  0.12508922126E+03 0.  0.
          5    1    3    3  502    0  0.63676042483E+02 -0.10007414048E+03 -0.28562274938E+03  0.30930130834E+03  0.41800000000E+01 0.  1.
         -5    1    3    3    0  502  0.11062981134E+03  0.14987921888E+02 -0.23652224516E+03  0.26157950572E+03  0.41800000000E+01 0.  1.
        -11    1    1    2    0    0 -0.50371611563E+02  0.38743654798E+02 -0.12884784469E+02  0.64841250060E+02  0.00000000000E+00 0. -1.
         11    1    1    2    0    0 -0.12393424225E+03  0.46342563790E+02 -0.17454902124E+03  0.21903125448E+03  0.00000000000E+00 0.  1.
</event>
<event>
 7    1  0.4394360E-006  0.1184950E+03  0.7561462E-02  0.1245601E+00
         -2   -1    0    0    0  501 -0.00000000000E+00  0.00000000000E+00  0.19415730378E+03  0.19415730378E+03  0.00000000000E+00 0.  1.
          2   -1    0    0  501    0  0.00000000000E+00 -0.00000000000E+00 -0.10334095766E+03  0.10334095766E+03  0.00000000000E+00 0. -1.
         23    2    1    2    0    0  0.44591749883E+02  0.62564681148E+02  0.10024682087E+03  0.17775985828E+03  0.12508548531E+03 0.  0.
          5    1    3    3  502    0  0.76071020885E+02  0.48705210837E+02  0.23308366376E+02  0.93379602293E+02  0.41800000000E+01 0. -1.
         -5    1    3    3    0  502 -0.31479271002E+02  0.13859470311E+02  0.76938454497E+02  0.84380255987E+02  0.41800000000E+01 0. -1.
        -11    1    1    2    0    0  0.19358217692E+01 -0.65282343161E+02  0.15152424420E+02  0.67045713512E+02  0.00000000000E+00 0.  1.
         11    1    1    2    0    0 -0.46527571653E+02  0.27176620131E+01 -0.24582899167E+02  0.52692689646E+02  0.00000000000E+00 0. -1.
</event>
<event>
 7    1  0.4394360E-006  0.5817719E+02  0.7561462E-02  0.1405644E+00
         -1   -1    0    0    0  501 -0.00000000000E+00  0.00000000000E+00  0.67309744234E+02  0.67309744234E+02  0.00000000000E+00 0.  1.
          1   -1    0    0  501    0  0.00000000000E+00 -0.00000000000E+00 -0.17878771092E+03  0.17878771092E+03  0.00000000000E+00 0. -1.
         23    2    1    2    0    0 -0.17526445871E+02  0.14081504245E+02 -0.24811719856E+02  0.11687886485E+03  0.11198027746E+03 0.  0.
          5    1    3    3  502    0 -0.76146641486E+01  0.11521087590E+02 -0.69428649190E+02  0.70912116720E+02  0.41800000000E+01 0. -1.
         -5    1    3    3    0  502 -0.99117817228E+01  0.25604166553E+01  0.44616929334E+02  0.45966748129E+02  0.41800000000E+01 0.  1.
        -11    1    1    2    0    0 -0.32392499654E+02 -0.23563541358E+02 -0.59144209778E+02  0.71432150083E+02  0.00000000000E+00 0. -1.
         11    1    1    2    0    0  0.49918945526E+02  0.94820371132E+01 -0.27522037054E+02  0.57786440224E+02  0.00000000000E+00 0.  1.
</event>
<event>
 6    1  0.4394360E-006  0.1605622E+03  0.7561462E-02  0.1188064E+00
         -1   -1    0    0    0  501 -0.00000000000E+00  0.00000000000E+00  0.25068501979E+03  0.25068501979E+03  0.00000000000E+00 0.  1.
          1   -1    0    0  501    0  0.00000000000E+00 -0.00000000000E+00 -0.16972805257E+03  0.16972805257E+03  0.00000000000E+00 0. -1.
          5    1    1    2  502    0 -0.53707887694E+01  0.47536234203E+02  0.81359628658E+02  0.94474337837E+02  0.41800000000E+01 0. -1.
         -5    1    1    2    0  502 -0.22988716896E+02 -0.99115125701E+02  0.86662381291E+02  0.13371660323E+03  0.41800000000E+01 0.  1.
        -11    1    1    2    0    0 -0.48113908914E+02  0.76903025474E+02 -0.49429870268E+02  0.10330699702E+03  0.00000000000E+00 0. -1.
         11    1    1    2    0    0  0.76473414579E+02 -0.25324133976E+02 -0.37635172458E+02  0.88915134285E+02  0.00000000000E+00 0.  1.
</event>
<event>
 7    1  0.4394360E-006  0.9548349E+02  0.7561462E-02  0.1290091E+00
          2   -1    0    0  501    0  0.00000000000E+00  0.00000000000E+00  0.42259163485E+02  0.42259163485E+02  0.00000000000E+00 0.  1.
         -2   -1    0    0    0  501 -0.00000000000E+00 -0.00000000000E+00 -0.42572833198E+03  0.42572833198E+03  0.00000000000E+00 0. -1.
         23    2    1    2    0    0 -0.46265313301E+02  0.58618067407E+02 -0.21725250120E+03  0.26158582979E+03  0.12510771370E+03 0.  0.
          5    1    3    3  502    0 -0.65313660895E+02  0.40248235777E+02 -0.22151167902E+03  0.23445829294E+03  0.41800000000E+01 0.  1.
         -5    1    3    3    0  502  0.19048347593E+02  0.18369831630E+02  0.42591778178E+01  0.27127536855E+02  0.41800000000E+01 0.  1.
        -11    1    1    2    0    0 -0.39147877389E+01 -0.28606638985E+02  0.13722198697E+01  0.28905853117E+02  0.00000000000E+00 0.  1.
         11    1    1    2    0    0  0.50180101040E+02 -0.30011428422E+02 -0.16758888716E+03  0.17749581256E+03  0.00000000000E+00 0. -1.
</event>
<event>
 6    1  0.4394360E-006  0.1517937E+03  0.7561462E-02  0.1198286E+00
          1   -1    0    0  501    0  0.00000000000E+00  0.00000000000E+00  0.26048632025E+03  0.26048632025E+03  0.00000000000E+00 0. -1.
         -1   -1    0    0    0  501 -0.00000000000E+00 -0.00000000000E+00 -0.12933198086E+03  0.12933198086E+03  0.00000000000E+00 0.  1.
          5    1    1    2  502    0  0.61384726669E+02  0.62935774351E+02  0.64346751681E+02  0.10902739662E+03  0.41800000000E+01 0. -1.
         -5    1    1    2    0  502 -0.93724797800E+02 -0.96357818874E+02 -0.36099789519E+02  0.13924738484E+03  0.41800000000E+01 0.  1.
        -11    1    1    2    0    0  0.53070036720E+02  0.25699391403E+02  0.10382731155E+03  0.11940267225E+03  0.00000000000E+00 0. -1.
         11    1    1    2    0    0 -0.20729965589E+02  0.77226531202E+01 -0.91993431775E+00  0.22140847402E+02  0.00000000000E+00 0.  1.
</event>
<event>
 7    1  0.4394360E-006  0.6441619E+02  0.7561462E-02  0.1380181E+00
          2   -1    0    0  501    0  0.00000000000E+00  0.00000000000E+00  0.97360026526E+02  0.97360026526E+02  0.00000000000E+00 0. -1.
         -2   -1    0    0    0  501 -0.00000000000E+00 -0.00000000000E+00 -0.16749144313E+03  0.16749144313E+03  0.00000000000E+00 0.  1.
         23    2    1    2    0    0  0.25166730931E+01 -0.35006794427E+02 -0.10617005717E+03  0.16778379913E+03  0.12509001923E+03 0.  0.
          5    1    3    3  502    0  0.21091216069E+02 -0.30541498097E+02 -0.13097530532E+03  0.13619700990E+03  0.41800000000E+01 0. -1.
         -5    1    3    3    0  502 -0.18574542976E+02 -0.44652963299E+01  0.24805248152E+02  0.31586789231E+02  0.41800000000E+01 0. -1.
        -11    1    1    2    0    0 -0.31706284611E+02  0.27034055780E+02  0.48851846370E+02  0.64207721883E+02  0.00000000000E+00 0. -1.
         11    1    1    2    0    0  0.29189611518E+02  0.79727386476E+01 -0.12813205811E+02  0.32859948650E+02  0.00000000000E+00 0.  1.
</event>
<event>
 7    1  0.4394360E-006  0.5254971E+02  0.7561462E-02  0.1432055E+00
          2   -1    0    0  501    0  0.00000000000E+00  0.00000000000E+00  0.30362681597E+03  0.30362681597E+03  0.00000000000E+00 0.  1.
         -2   -1    0    0    0  501 -0.00000000000E+00 -0.00000000000E+00 -0.39010583567E+02  0.39010583567E+02  0.00000000000E+00 0. -1.
         23    2    1    2    0    0  0.14246909027E+02 -0.14221496322E+01  0.15838852225E+03  0.20233607352E+03  0.12509182922E+03 0.  0.
          5    1    3    3  502    0 -0.43353613321E+01 -0.95874899940E+01  0.17525277785E+03  0.17561811941E+03  0.41800000000E+01 0.  1.
         -5    1    3    3    0  502  0.18582270359E+02  0.81653403618E+01 -0.16864255593E+02  0.26717954107E+02  0.41800000000E+01 0.  1.
        -11    1    1    2    0    0 -0.20258693350E+02  0.34189065989E+02  0.98340165001E+02  0.10606646474E+03  0.00000000000E+00 0.  1.
         11    1    1    2    0    0  0.60117843226E+01 -0.32766916357E+02  0.78875451438E+01  0.34234861278E+02  0.00000000000E+00 0. -1.
</event>
<event>
 7    1  0.4394360E-006  0.8549414E+02  0.7561462E-02  0.1314145E+00
         -1   -1    0    0    0  501 -0.00000000000E+00  0.00000000000E+00  0.19906578053E+02  0.19906578053E+02  0.00000000000E+00 0.  1.
          1   -1    0    0  501    0  0.00000000000E+00 -0.00000000000E+00 -0.60468513508E+03  0.60468513508E+03  0.00000000000E+00 0. -1.
         23    2    1    2    0    0  0.23831707652E+02  0.68285006879E+01 -0.32380974858E+03  0.34721657382E+03  0.12284957122E+03 0.  0.
          5    1    3    3  502    0 -0.29456583911E+02 -0.20561253216E+01 -0.26718059579E+03  0.26883984294E+03  0.41800000000E+01 0. -1.
         -5    1    3    3    0  502  0.53288291562E+02  0.88846260095E+01 -0.56629152785E+02  0.78376730872E+02  0.41800000000E+01 0.  1.
        -11    1    1    2    0    0 -0.29276890737E+02  0.34526546155E+02 -0.82570667727E+02  0.94165460173E+02  0.00000000000E+00 0.  1.
         11    1    1    2    0    0  0.54451830856E+01 -0.41355046843E+02 -0.17839814072E+03  0.18320967914E+03  0.00000000000E+00 0. -1.
</event>
<event>
 7    1  0.4394360E-006  0.1134640E+03  0.7561462E-02  0.1254286E+00
         -2   -1    0    0    0  501 -0.00000000000E+00  0.00000000000E+00  0.24171593521E+02  0.24171593521E+02  0.00000000000E+00 0.  1.
          2   -1    0    0  501    0  0.00000000000E+00 -0.00000000000E+00 -0.84897476702E+03  0.84897476702E+03  0.00000000000E+00 0. -1.
         23    2    1    2    0    0 -0.48413139802E+02  0.71894699811E+02 -0.33905942213E+03  0.37164688164E+03  0.12508969955E+03 0.  0.
          5    1    3    3  502    0  0.10598639003E+02  0.17631564607E+01 -0.22485945272E+03  0.22515480396E+03  0.41800000000E+01 0.  1.
         -5    1    3    3    0  502 -0.59011778805E+02  0.70131543350E+02 -0.11419996941E+03  0.14649207768E+03  0.41800000000E+01 0.  1.
        -11    1    1    2    0    0  0.73247591552E+02 -0.40769792059E+02 -0.35851771691E+03  0.36818791255E+03  0.00000000000E+00 0.  1.
         11    1    1    2    0    0 -0.24834451750E+02 -0.31124907752E+02 -0.12722603445E+03  0.13331156634E+03  0.00000000000E+00 0. -1.
</event>
<event>
 7    1  0.4394360E-006  0.1647960E+03  0.7561462E-02  0.1183386E+00
         -2   -1    0    0    0  501 -0.00000000000E+00  0.00000000000E+00  0.26840103718E+02  0.26840103718E+02  0.00000000000E+00 0.  1.
          2   -1    0    0  501    0  0.00000000000E+00 -0.00000000000E+00 -0.10377080876E+04  0.10377080876E+04  0.00000000000E+00 0. -1.
         23    2    1    2    0    0  0.93239904917E+02  0.82724381222E+02 -0.47071773989E+03  0.50275314384E+03  0.12509408411E+03 0.  0.
          5    1    3    3  502    0 -0.28906699554E+02  0.33767942447E+02 -0.13208590174E+03  0.13942750466E+03  0.41800000000E+01 0.  1.
         -5    1    3    3    0  502  0.12214660447E+03  0.48956438775E+02 -0.33863183814E+03  0.36332563918E+03  0.41800000000E+01 0.  1.
        -11    1    1    2    0    0 -0.82992704943E+02 -0.14442468576E+02 -0.26236097740E+03  0.27555336404E+03  0.00000000000E+00 0. -1.
         11    1    1    2    0    0 -0.10247199974E+02 -0.68281912646E+02 -0.27778926661E+03  0.28624168345E+03  0.00000000000E+00 0.  1.
</event>
<event>
 7    1  0.4394360E-006  0.1183478E+03  0.7561462E-02  0.1245848E+00
          1   -1    0    0  501    0  0.00000000000E+00  0.00000000000E+00  0.19183661589E+02  0.19183661589E+02  0.00000000000E+00 0. -1.
         -1   -1    0    0    0  501 -0.00000000000E+00 -0.00000000000E+00 -0.11599599481E+04  0.11599599481E+04  0.00000000000E+00 0.  1.
         23    2    1    2    0    0 -0.31843781175E+02  0.49436022280E+02 -0.90236754016E+03  0.91289215201E+03  0.12508779703E+03 0.  0.
          5    1    3    3  502    0  0.37266254244E+02  0.57294536848E+02 -0.43336451861E+03  0.43874105809E+03  0.41800000000E+01 0. -1.
         -5    1    3    3    0  502 -0.69110035419E+02 -0.78585145681E+01 -0.46900302155E+03  0.47415109392E+03  0.41800000000E+01 0. -1.
        -11    1    1    2    0    0 -0.26477081150E+02 -0.20185955652E+02 -0.21237184687E+02  0.39490842549E+02  0.00000000000E+00 0. -1.
         11    1    1    2    0    0  0.58320862325E+02 -0.29250066629E+02 -0.21717156167E+03  0.22676061514E+03  0.00000000000E+00 0.  1.
</event>
<event>
 7    1  0.4394360E-006  0.1187985E+03  0.7561462E-02  0.1245092E+00
         -2   -1    0    0    0  501 -0.00000000000E+00  0.00000000000E+00  0.44180557510E+02  0.44180557510E+02  0.00000000000E+00 0.  1.
          2   -1    0    0  501    0  0.00000000000E+00 -0.00000000000E+00 -0.46013128647E+03  0.46013128647E+03  0.00000000000E+00 0. -1.
         23    2    1    2    0    0 -0.68414269110E+01 -0.85473042406E+02 -0.28521024075E+03  0.32302412677E+03  0.12508900411E+03 0.  0.
          5    1    3    3  502    0  0.23083735282E+02 -0.35098315753E+00 -0.19126894120E+03  0.19270252280E+03  0.41800000000E+01 0. -1.
         -5    1    3    3    0  502 -0.29925162193E+02 -0.85122059248E+02 -0.93941299548E+02  0.13032160398E+03  0.41800000000E+01 0. -1.
        -11    1    1    2    0    0 -0.41338311375E+02  0.41612811954E+02 -0.77213690782E+02  0.96966159820E+02  0.00000000000E+00 0. -1.
         11    1    1    2    0    0  0.48179738286E+02  0.43860230451E+02 -0.53526797427E+02  0.84321557382E+02  0.00000000000E+00 0.  1.
</event>
<event>
 7    1  0.4394360E-006  0.1404348E+03  0.7561462E-02  0.1212745E+00
          2   -1    0    0  501    0  0.00000000000E+00  0.00000000000E+00  0.18612897830E+03  0.18612897830E+03  0.00000000000E+00 0. -1.
         -2   -1    0    0    0  501 -0.00000000000E+00 -0.00000000000E+00 -0.12522001964E+03  0.12522001964E+03  0.00000000000E+00 0.  1.
         23    2    1    2    0    0  0.80023755763E+02  0.61803626611E+02  0.59253100143E+02  0.17141496784E+03  0.12509465046E+03 0.  0.
          5    1    3    3  502    0  0.10989692770E+03  0.38926360600E+02  0.22819509977E+02  0.11887303607E+03  0.41800000000E+01 0. -1.
         -5    1    3    3    0  502 -0.29873171939E+02  0.22877266011E+02  0.36433590166E+02  0.52541931771E+02  0.41800000000E+01 0. -1.
        -11    1    1    2    0    0 -0.24022823217E+02  0.17175139218E+02 -0.25890563932E+02  0.39273435592E+02  0.00000000000E+00 0.  1.
         11    1    1    2    0    0 -0.56000932546E+02 -0.78978765829E+02  0.27546422441E+02  0.10066059451E+03  0.00000000000E+00 0. -1.
</event>
<event>
 7    1  0.4394360E-006  0.1132998E+03  0.7561462E-02  0.1254578E+00
          1   -1    0    0  501    0  0.00000000000E+00  0.00000000000E+00  0.12556412065E+03  0.12556412065E+03  0.00000000000E+00 0. -1.
         -1   -1    0    0    0  501 -0.00000000000E+00 -0.00000000000E+00 -0.15955779783E+03  0.15955779783E+03  0.00000000000E+00 0.  1.
         23    2    1    2    0    0  0.25206585707E+02  0.35130070397E+02 -0.96877307897E+02  0.16401933721E+03  0.12509051277E+03 0.  0.
          5    1    3    3  502    0  0.71897456658E+02 -0.27543913802E+01 -0.53684916147E+02  0.89868646187E+02  0.41800000000E+01 0.  1.
         -5    1    3    3    0  502 -0.46690870951E+02  0.37884461778E+02 -0.43192391750E+02  0.74150691025E+02  0.41800000000E+01 0.  1.
        -11    1    1    2    0    0  0.12439557476E+02 -0.51662907641E+02  0.99281150501E+01  0.54058913090E+02  0.00000000000E+00 0. -1.
         11    1    1    2    0    0 -0.37646143183E+02  0.16532837243E+02  0.52955515662E+02  0.67043668179E+02  0.00000000000E+00 0.  1.
</event>
<event>
 7    1  0.4394360E-006  0.5499428E+02  0.7561462E-02  0.1420126E+00
         -2   -1    0    0    0  501 -0.00000000000E+00  0.00000000000E+00  0.92836509008E+03  0.92836509008E+03  0.00000000000E+00 0.  1.
          2   -1    0    0  501    0  0.00000000000E+00 -0.00000000000E+00 -0.16267471992E+02  0.16267471992E+02  0.00000000000E+00 0. -1.
         23    2    1    2    0    0  0.93590523919E+00  0.27229851957E+02  0.70492426882E+03  0.71645311364E+03  0.12507796977E+03 0.  0.
          5    1    3    3  502    0  0.18229741174E+02  0.12296821765E+02  0.16924827216E+02  0.28061672528E+02  0.41800000000E+01 0. -1.
         -5    1    3    3    0  502 -0.17293835935E+02  0.14933030192E+02  0.68799944161E+03  0.68839144112E+03  0.41800000000E+01 0. -1.
        -11    1    1    2    0    0 -0.28162662059E+02 -0.23920136588E+02  0.19447711317E+03  0.19795619721E+03  0.00000000000E+00 0.  1.
         11    1    1    2    0    0  0.27226756820E+02 -0.33097153687E+01  0.12696236093E+02  0.30223251210E+02  0.00000000000E+00 0. -1.
</event>
<event>
 7    1  0.4394360E-006  0.1257552E+03  0.7561462E-02  0.1233894E+00
         -1   -1    0    0    0  501 -0.00000000000E+00  0.00000000000E+00  0.43173289967E+02  0.43173289967E+02  0.00000000000E+00 0.  1.
          1   -1    0    0  501    0  0.00000000000E+00 -0.00000000000E+00 -0.40415323538E+03  0.40415323538E+03  0.00000000000E+00 0. -1.
         23    2    1    2    0    0 -0.52054603626E+02  0.59816488984E+02 -0.20782037064E+03  0.25519638046E+03  0.12509273375E+03 0.  0.
          5    1    3    3  502    0 -0.78058116799E+02  0.52902772475E+00 -0.14586056991E+03  0.16548754552E+03  0.41800000000E+01 0.  1.
         -5    1    3    3    0  502  0.26003513173E+02  0.59287461259E+02 -0.61959800724E+02  0.89708834936E+02  0.41800000000E+01 0.  1.
        -11    1    1    2    0    0  0.71266976843E+02 -0.47110149545E+02 -0.14380936661E+03  0.16727068513E+03  0.00000000000E+00 0. -1.
         11    1    1    2    0    0 -0.19212373218E+02 -0.12706339438E+02 -0.93502081605E+01  0.24859459753E+02  0.00000000000E+00 0.  1.
</event>
<event>
 7    1  0.4394360E-006  0.6127468E+02  0.7561462E-02  0.1392559E+00
          1   -1    0    0  501    0  0.00000000000E+00  0.00000000000E+00  0.83222048829E+02  0.83222048829E+02  0.00000000000E+00 0. -1.
         -1   -1    0    0    0  501 -0.00000000000E+00 -0.00000000000E+00 -0.21663496102E+03  0.21663496102E+03  0.00000000000E+00 0.  1.
         23    2    1    2    0    0  0.93264090562E+01  0.26995787653E+02 -0.15670081598E+03  0.19437029553E+03  0.11139529433E+03 0.  0.
          5    1    3    3  502    0 -0.16242897611E+02  0.49847165736E+02 -0.25034829829E+02  0.58247633079E+02  0.41800000000E+01 0. -1.
         -5    1    3    3    0  502  0.25569306667E+02 -0.22851378083E+02 -0.13166598615E+03  0.13612266245E+03  0.41800000000E+01 0.  1.
        -11    1    1    2    0    0  0.86847244424E+00 -0.25007901088E+02 -0.36803369762E+02  0.44504352451E+02  0.00000000000E+00 0.  1.
         11    1    1    2    0    0 -0.10194881500E+02 -0.19878865645E+01  0.60091273552E+02  0.60982361867E+02  0.00000000000E+00 0. -1.
</event>
<event>
 7    1  0.4394360E-006  0.1165208E+03  0.7561462E-02  0.1248950E+00
         -2   -1    0    0    0  501 -0.00000000000E+00  0.00000000000E+00  0.55372574183E+03  0.55372574183E+03  0.00000000000E+00 0.  1.
          2   -1    0    0  501    0  0.00000000000E+00 -0.00000000000E+00 -0.29207657646E+02  0.29207657646E+02  0.00000000000E+00 0. -1.
         23    2    1    2    0    0  0.62415299919E+02 -0.11380273042E+02  0.32509572141E+03  0.35406246064E+03  0.12509123742E+03 0.  0.
          5    1    3    3  502    0  0.66271217519E+02  0.34339880916E+02  0.27918475837E+03  0.28902024738E+03  0.41800000000E+01 0.  1.
         -5    1    3    3    0  502 -0.38559175998E+01 -0.45720153958E+02  0.45910963042E+02  0.65042213261E+02  0.41800000000E+01 0.  1.
        -11    1    1    2    0    0 -0.28051085407E+01 -0.35973384129E+02  0.68548566642E+02  0.77465211471E+02  0.00000000000E+00 0. -1.
         11    1    1    2    0    0 -0.59610191378E+02  0.47353657171E+02  0.13087379613E+03  0.15140572736E+03  0.00000000000E+00 0.  1.
</event>
<event>
 7    1  0.4394360E-006  0.2928228E+03  0.7561462E-02  0.1088884E+00
         -1   -1    0    0    0  501 -0.00000000000E+00  0.00000000000E+00  0.76807219416E+03  0.76807219416E+03  0.00000000000E+00 0.  1.
          1   -1    0    0  501    0  0.00000000000E+00 -0.00000000000E+00 -0.12416616174E+03  0.12416616174E+03  0.00000000000E+00 0. -1.
         23    2    1    2    0    0  0.28151042169E+03  0.59097385078E+02  0.29116102917E+03  0.42797425765E+03  0.12508637759E+03 0.  0.
          5    1    3    3  502    0  0.14093534181E+03  0.47272335454E+02  0.23060760820E+03  0.27439895340E+03  0.41800000000E+01 0. -1.
         -5    1    3    3    0  502  0.14057507988E+03  0.11825049624E+02  0.60553420972E+02  0.15357530425E+03  0.41800000000E+01 0. -1.
        -11    1    1    2    0    0 -0.23457647264E+03 -0.74954886533E+02  0.25395155971E+03  0.35374531970E+03  0.00000000000E+00 0. -1.
         11    1    1    2    0    0 -0.46933949051E+02  0.15857501455E+02  0.98793443533E+02  0.11051877854E+03  0.00000000000E+00 0.  1.
</event>
<event>
 7    1  0.4394360E-006  0.8255786E+02  0.7561462E-02  0.1321945E+00
         -2   -1    0    0    0  501 -0.00000000000E+00  0.00000000000E+00  0.36207990721E+02  0.36207990721E+02  0.00000000000E+00 0.  1.
          2   -1    0    0  501    0  0.00000000000E+00 -0.00000000000E+00 -0.41317102984E+03  0.41317102984E+03  0.00000000000E+00 0. -1.
         23    2    1    2    0    0  0.17421372527E+02  0.33249772144E+02 -0.13277828608E+03  0.18624334720E+03  0.12508980596E+03 0.  0.
          5    1    3    3  502    0 -0.28729286353E+02  0.57889614702E+01  0.11867566607E+02  0.31893502574E+02  0.41800000000E+01 0. -1.
         -5    1    3    3    0  502  0.46150658880E+02  0.27460810673E+02 -0.14464585269E+03  0.15434984463E+03  0.41800000000E+01 0. -1.
        -11    1    1    2    0    0  0.26161365316E+02 -0.27040339462E+02 -0.42759884881E+02  0.56956165149E+02  0.00000000000E+00 0.  1.
         11    1    1    2    0    0 -0.43582737843E+02 -0.62094326814E+01 -0.20142486815E+03  0.20617950820E+03  0.00000000000E+00 0. -1.
</event>
<event>
 6    1  0.4394360E-006  0.1315977E+03  0.7561462E-02  0.1225104E+00
         -2   -1    0    0    0  501 -0.00000000000E+00  0.00000000000E+00  0.39612782446E+02  0.39612782446E+02  0.00000000000E+00 0.  1.
          2   -1    0    0  501    0  0.00000000000E+00 -0.00000000000E+00 -0.10601706466E+04  0.10601706466E+04  0.00000000000E+00 0. -1.
          5    1    1    2  502    0  0.36520876341E+02  0.13408850053E+02 -0.18713396188E+03  0.19118097122E+03  0.41800000000E+01 0. -1.
         -5    1    1    2    0  502 -0.84197861217E+01 -0.29074535731E+02  0.18000202179E+02  0.35464081898E+02  0.41800000000E+01 0.  1.
        -11    1    1    2    0    0  0.12352273446E+02 -0.84545018216E+02 -0.37851602836E+03  0.38803971767E+03  0.00000000000E+00 0.  1.
         11    1    1    2    0    0 -0.40453363665E+02  0.10021070389E+03 -0.47290807606E+03  0.48509865822E+03  0.00000000000E+00 0. -1.
</event>
<event>
 7    1  0.4394360E-006  0.1188541E+03  0.7561462E-02  0.1244999E+00
          2   -1    0    0  501    0  0.00000000000E+00  0.00000000000E+00  0.81363798925E+03  0.81363798925E+03  0.00000000000E+00 0.  1.
         -2   -1    0    0    0  501 -0.00000000000E+00 -0.00000000000E+00 -0.20308273888E+02  0.20308273888E+02  0.00000000000E+00 0. -1.
         23    2    1    2    0    0 -0.25190772331E+02  0.85477791928E+01  0.36078022644E+03  0.38277507342E+03  0.12508695176E+03 0.  0.
          5    1    3    3  502    0  0.38931263975E+02 -0.28141425578E+02  0.20084738178E+03  0.20655441491E+03  0.41800000000E+01 0. -1.
         -5    1    3    3    0  502 -0.64122036307E+02  0.36689204771E+02  0.15993284466E+03  0.17622065851E+03  0.41800000000E+01 0. -1.
        -11    1    1    2    0    0  0.57717165464E+02  0.30007754690E+02  0.33599316868E+03  0.34223259040E+03  0.00000000000E+00 0.  1.
         11    1    1    2    0    0 -0.32526393133E+02 -0.38555533883E+02  0.96556320247E+02  0.10893859932E+03  0.00000000000E+00 0. -1.
</event>
<event>
 7    1  0.4394360E-006  0.7026278E+02  0.7561462E-02  0.1359202E+00
         -3   -1    0    0    0  501 -0.00000000000E+00  0.00000000000E+00  0.51725599232E+02  0.51725599232E+02  0.00000000000E+00 0.  1.
          3   -1    0    0  501    0  0.00000000000E+00 -0.00000000000E+00 -0.23355759732E+03  0.23355759732E+03  0.00000000000E+00 0. -1.
         23    2    1    2    0    0 -0.16672769077E+02 -0.26717724131E+01 -0.96944349998E+02  0.15915712792E+03  0.12509062625E+03 0.  0.
          5    1    3    3  502    0  0.38357815655E+02 -0.10662815839E+02 -0.95302255247E+02  0.10336832164E+03  0.41800000000E+01 0.  1.
         -5    1    3    3    0  502 -0.55030584732E+02  0.79910434262E+01 -0.16420947509E+01  0.55788806280E+02  0.41800000000E+01 0.  1.
        -11    1    1    2    0    0  0.16323511986E+02 -0.17859585403E+02 -0.98540319040E+02  0.10146731647E+03  0.00000000000E+00 0. -1.
         11    1    1    2    0    0  0.34925709137E+00  0.20531357816E+02  0.13652670950E+02  0.24658752165E+02  0.00000000000E+00 0.  1.
</event>
<event>
 7    1  0.4394360E-006  0.1061935E+03  0.7561462E-02  0.1267786E+00
          1   -1    0    0  501    0  0.00000000000E+00  0.00000000000E+00  0.39389143292E+03  0.39389143292E+03  0.00000000000E+00 0. -1.
         -1   -1    0    0    0  501 -0.00000000000E+00 -0.00000000000E+00 -0.56224795762E+02  0.56224795762E+02  0.00000000000E+00 0.  1.
         23    2    1    2    0    0 -0.15446824633E+02  0.46755764120E+02  0.47859876558E+02  0.14269948799E+03  0.12509144743E+03 0.  0.
          5    1    3    3  502    0 -0.33077190034E+02  0.75697535181E+02 -0.14428627625E+01  0.82727091004E+02  0.41800000000E+01 0.  1.
         -5    1    3    3    0  502  0.17630365402E+02 -0.28941771061E+02  0.49302739320E+02  0.59972396991E+02  0.41800000000E+01 0.  1.
        -11    1    1    2    0    0 -0.27146266724E+02 -0.45418412087E+02  0.21409017817E+03  0.22053198485E+03  0.00000000000E+00 0.  1.
         11    1    1    2    0    0  0.42593091357E+02 -0.13373520334E+01  0.75716582436E+02  0.86884755841E+02  0.00000000000E+00 0. -1.
</event>
<event>
 7    1  0.4394360E-006  0.1353248E+03  0.7561462E-02  0.1219762E+00
         -1   -1    0    0    0  501 -0.00000000000E+00  0.00000000000E+00  0.36240291835E+02  0.36240291835E+02  0.00000000000E+00 0.  1.
          1   -1    0    0  501    0  0.00000000000E+00 -0.00000000000E+00 -0.75849045716E+03  0.75849045716E+03  0.00000000000E+00 0. -1.
         23    2    1    2    0    0 -0.14126178747E+02  0.78550197508E+02 -0.16040155016E+03  0.21999446047E+03  0.12766840991E+03 0.  0.
          5    1    3    3  502    0 -0.85650174422E+01  0.11397799586E+03 -0.11877442335E+03  0.16489141611E+03  0.41800000000E+01 0.  1.
         -5    1    3    3    0  502 -0.55611613051E+01 -0.35427798356E+02 -0.41627126812E+02  0.55103044362E+02  0.41800000000E+01 0. -1.
        -11    1    1    2    0    0  0.29676442984E+02  0.91861004380E+01 -0.11717038236E+03  0.12121870405E+03  0.00000000000E+00 0.  1.
         11    1    1    2    0    0 -0.15550264237E+02 -0.87736297945E+02 -0.44467823281E+03  0.45351758447E+03  0.00000000000E+00 0. -1.
</event>
<event>
 7    1  0.4394360E-006  0.1379713E+03  0.7561462E-02  0.1216085E+00
          2   -1    0    0  501    0  0.00000000000E+00  0.00000000000E+00  0.81348416802E+03  0.81348416802E+03  0.00000000000E+00 0. -1.
         -2   -1    0    0    0  501 -0.00000000000E+00 -0.00000000000E+00 -0.35711616677E+02  0.35711616677E+02  0.00000000000E+00 0.  1.
         23    2    1    2    0    0 -0.10053526275E+03 -0.74099134764E+02  0.31994575512E+03  0.36552785022E+03  0.12508917715E+03 0.  0.
          5    1    3    3  502    0 -0.62640605412E+01 -0.13726902184E+02 -0.89798167579E+01  0.18049260568E+02  0.41800000000E+01 0. -1.
         -5    1    3    3    0  502 -0.94271202210E+02 -0.60372232580E+02  0.32892557187E+03  0.34747858965E+03  0.41800000000E+01 0. -1.
        -11    1    1    2    0    0  0.31667537063E+02  0.72791753858E+02  0.16861060325E+03  0.18636257098E+03  0.00000000000E+00 0.  1.
         11    1    1    2    0    0  0.68867725688E+02  0.13073809058E+01  0.28921619297E+03  0.29730536349E+03  0.00000000000E+00 0. -1.
</event>
<event>
 6    1  0.4394360E-006  0.1817948E+03  0.7561462E-02  0.1166077E+00
          2   -1    0    0  501    0  0.00000000000E+00  0.00000000000E+00  0.11511757309E+04  0.11511757309E+04  0.00000000000E+00 0. -1.
         -2   -1    0    0    0  501 -0.00000000000E+00 -0.00000000000E+00 -0.45081750797E+02  0.45081750797E+02  0.00000000000E+00 0.  1.
          5    1    1    2  502    0  0.14110729686E+02 -0.96509000813E+02  0.38210282526E+03  0.39437690273E+03  0.41800000000E+01 0. -1.
         -5    1    1    2    0  502  0.84022619920E+02  0.97647843080E+02  0.10038134070E+03  0.16336703424E+03  0.41800000000E+01 0.  1.
        -11    1    1    2    0    0 -0.11673431348E+03  0.66193925363E+01  0.53915803177E+03  0.55169022062E+03  0.00000000000E+00 0.  1.
         11    1    1    2    0    0  0.18600963870E+02 -0.77582348029E+01  0.84451782331E+02  0.86823324073E+02  0.00000000000E+00 0. -1.
</event>
<event>
 7    1  0.4394360E-006  0.1026186E+03  0.7561462E-02  0.1274884E+00
         -2   -1    0    0    0  501 -0.00000000000E+00  0.00000000000E+00  0.10742371575E+03  0.10742371575E+03  0.00000000000E+00 0.  1.
          2   -1    0    0  501    0  0.00000000000E+00 -0.00000000000E+00 -0.10830854173E+03  0.10830854173E+03  0.00000000000E+00 0. -1.
         23    2    1    2    0    0 -0.98674900891E+01  0.79092402296E+01  0.98848292629E+01  0.12611255319E+03  0.12508694089E+03 0.  0.
          5    1    3    3  502    0  0.55127660646E+02  0.11838631800E+02 -0.11008850229E+02  0.57601036054E+02  0.41800000000E+01 0. -1.
         -5    1    3    3    0  502 -0.64995150735E+02 -0.39293915700E+01  0.20893679492E+02  0.68511517133E+02  0.41800000000E+01 0. -1.
        -11    1    1    2    0    0 -0.52551727597E+01  0.36324485495E+02  0.10624260204E+02  0.38209422819E+02  0.00000000000E+00 0.  1.
         11    1    1    2    0    0  0.15122662849E+02 -0.44233725725E+02 -0.21393915447E+02  0.51410281475E+02  0.00000000000E+00 0. -1.
</event>
<event>
 7    1  0.4394360E-006  0.1089999E+03  0.7561462E-02  0.1262433E+00
         -1   -1    0    0    0  501 -0.00000000000E+00  0.00000000000E+00  0.78863094839E+02  0.78863094839E+02  0.00000000000E+00 0.  1.
          1   -1    0    0  501    0  0.00000000000E+00 -0.00000000000E+00 -0.16581931821E+03  0.16581931821E+03  0.00000000000E+00 0. -1.
         23    2    1    2    0    0  0.64054303555E+01 -0.25586924641E+02 -0.21981398176E+02  0.12971618862E+03  0.12508951784E+03 0.  0.
          5    1    3    3  502    0  0.25560196355E+02  0.43893597618E+02  0.79169432998E+01  0.51576369985E+02  0.41800000000E+01 0.  1.
         -5    1    3    3    0  502 -0.19154766000E+02 -0.69480522259E+02 -0.29898341476E+02  0.78139818639E+02  0.41800000000E+01 0.  1.
        -11    1    1    2    0    0 -0.10333583078E+02  0.59656936906E+02 -0.41961155294E+02  0.73664588602E+02  0.00000000000E+00 0. -1.
         11    1    1    2    0    0  0.39281527221E+01 -0.34070012266E+02 -0.23013669906E+02  0.41301635829E+02  0.00000000000E+00 0.  1.
</event>
<event>
 7    1  0.4394360E-006  0.1043987E+03  0.7561462E-02  0.1271309E+00
         -2   -1    0    0    0  501 -0.00000000000E+00  0.00000000000E+00  0.12383229631E+03  0.12383229631E+03  0.00000000000E+00 0.  1.
          2   -1    0    0  501    0  0.00000000000E+00 -0.00000000000E+00 -0.12402907932E+03  0.12402907932E+03  0.00000000000E+00 0. -1.
         23    2    1    2    0    0  0.85907788718E+01 -0.18092930324E+02  0.56677849646E+02  0.13878556566E+03  0.12509156241E+03 0.  0.
          5    1    3    3  502    0 -0.46384374709E+02 -0.35201320364E+02  0.56232142792E+02  0.81056581815E+02  0.41800000000E+01 0.  1.
         -5    1    3    3    0  502  0.54975153581E+02  0.17108390040E+02  0.44570685402E+00  0.57728983843E+02  0.41800000000E+01 0.  1.
        -11    1    1    2    0    0 -0.46437256660E+02 -0.74505660414E+01 -0.23911538441E+02  0.52760699494E+02  0.00000000000E+00 0. -1.
         11    1    1    2    0    0  0.37846477788E+02  0.25543496365E+02 -0.32963094214E+02  0.56315110474E+02  0.00000000000E+00 0.  1.
</event>
<event>
 7    1  0.4394360E-006  0.8881710E+02  0.7561462E-02  0.1305742E+00
         -2   -1    0    0    0  501 -0.00000000000E+00  0.00000000000E+00  0.24697439579E+02  0.24697439579E+02  0.00000000000E+00 0.  1.
          2   -1    0    0  501    0  0.00000000000E+00 -0.00000000000E+00 -0.55234403050E+03  0.55234403050E+03  0.00000000000E+00 0. -1.
         23    2    1    2    0    0  0.92755029070E+01 -0.55294240023E+02 -0.26090932907E+03  0.28958641595E+03  0.11244165762E+03 0.  0.
          5    1    3    3  502    0 -0.56705257339E+01 -0.54985003468E+02 -0.26716144108E+03  0.27285199920E+03  0.41800000000E+01 0. -1.
         -5    1    3    3    0  502  0.14946028641E+02 -0.30923655571E+00  0.62521120036E+01  0.16734416748E+02  0.41800000000E+01 0.  1.
        -11    1    1    2    0    0  0.40783125684E+02  0.29725978248E+02 -0.11274869999E+03  0.12352799874E+03  0.00000000000E+00 0. -1.
         11    1    1    2    0    0 -0.50058628591E+02  0.25568261775E+02 -0.15398856186E+03  0.16392705539E+03  0.00000000000E+00 0.  1.
</event>
<event>
 7    1  0.4394360E-006  0.1288174E+03  0.7561462E-02  0.1229221E+00
         -2   -1    0    0    0  501 -0.00000000000E+00  0.00000000000E+00  0.12608832153E+03  0.12608832153E+03  0.00000000000E+00 0.  1.
          2   -1    0    0  501    0  0.00000000000E+00 -0.00000000000E+00 -0.18757499293E+03  0.18757499293E+03  0.00000000000E+00 0. -1.
         23    2    1    2    0    0 -0.71487231856E+02  0.26512022040E+02  0.46475319551E+02  0.15368351633E+03  0.12508139843E+03 0.  0.
          5    1    3    3  502    0 -0.97958017880E+02 -0.55469890093E+01  0.10902155407E+02  0.98807245415E+02  0.41800000000E+01 0. -1.
         -5    1    3    3    0  502  0.26470786024E+02  0.32059011049E+02  0.35573164144E+02  0.54876270914E+02  0.41800000000E+01 0. -1.
        -11    1    1    2    0    0  0.25179705732E+02 -0.56924546370E+02 -0.63765076974E+02  0.89108959155E+02  0.00000000000E+00 0. -1.
         11    1    1    2    0    0  0.46307526124E+02  0.30412524330E+02 -0.44196913984E+02  0.70870838979E+02  0.00000000000E+00 0.  1.
</event>
<event>
 7    1  0.4394360E-006  0.1592796E+03  0.7561462E-02  0.1189513E+00
          2   -1    0    0  501    0  0.00000000000E+00  0.00000000000E+00  0.69597029995E+02  0.69597029995E+02  0.00000000000E+00 0. -1.
         -2   -1    0    0    0  501 -0.00000000000E+00 -0.00000000000E+00 -0.47271152899E+03  0.47271152899E+03  0.00000000000E+00 0.  1.
         23    2    1    2    0    0  0.13067757089E+03 -0.84440478062E+00 -0.30755967260E+03  0.35681964499E+03  0.12509982529E+03 0.  0.
          5    1    3    3  502    0  0.10961455596E+03 -0.40482204528E+02 -0.28133619001E+03  0.30466651271E+03  0.41800000000E+01 0.  1.
         -5    1    3    3    0  502  0.21063014927E+02  0.39637799748E+02 -0.26223482594E+02  0.52153132274E+02  0.41800000000E+01 0.  1.
        -11    1    1    2    0    0 -0.94075396467E+02  0.40645097006E+02 -0.77488637478E+02  0.12847837588E+03  0.00000000000E+00 0.  1.
         11    1    1    2    0    0 -0.36602174423E+02 -0.39800692225E+02 -0.18066188917E+02  0.57010538114E+02  0.00000000000E+00 0. -1.
</event>
<event>
 6    1  0.4394360E-006  0.1041683E+03  0.7561462E-02  0.1271767E+00
         -2   -1    0    0    0  501 -0.00000000000E+00  0.00000000000E+00  0.41548551482E+02  0.41548551482E+02  0.00000000000E+00 0.  1.
          2   -1    0    0  501    0  0.00000000000E+00 -0.00000000000E+00 -0.71806688807E+03  0.71806688807E+03  0.00000000000E+00 0. -1.
          5    1    1    2  502    0  0.46152304319E+02 -0.67298633336E+02 -0.34364312545E+03  0.35322402425E+03  0.41800000000E+01 0. -1.
         -5    1    1    2    0  502 -0.68383139177E+01  0.20115541593E+02  0.24311686130E+02  0.32556535954E+02  0.41800000000E+01 0.  1.
        -11    1    1    2    0    0 -0.54618598447E+02 -0.78294691236E+00 -0.24261426123E+03  0.24868752291E+03  0.00000000000E+00 0.  1.
         11    1    1    2    0    0  0.15304608046E+02  0.47966038655E+02 -0.11457263604E+03  0.12514735643E+03  0.00000000000E+00 0. -1.
</event>
<event>
 7    1  0.4394360E-006  0.1125471E+03  0.7561462E-02  0.1255924E+00
          1   -1    0    0  501    0  0.00000000000E+00  0.00000000000E+00  0.11845679674E+03  0.11845679674E+03  0.00000000000E+00 0. -1.
         -1   -1    0    0    0  501 -0.00000000000E+00 -0.00000000000E+00 -0.11822242782E+03  0.11822242782E+03  0.00000000000E+00 0.  1.
         23    2    1    2    0    0 -0.31980018636E+02 -0.31864955164E+02 -0.10912251944E+02  0.13343494002E+03  0.12509080309E+03 0.  0.
          5    1    3    3  502    0 -0.52007586064E+02  0.30834507061E+02  0.15229888223E+02  0.62489821004E+02  0.41800000000E+01 0.  1.
         -5    1    3    3    0  502  0.20027567428E+02 -0.62699462224E+02 -0.26142140167E+02  0.70945119021E+02  0.41800000000E+01 0.  1.
        -11    1    1    2    0    0  0.23556000715E+02  0.62485205396E+02 -0.61870701783E+01  0.67063894164E+02  0.00000000000E+00 0.  1.
         11    1    1    2    0    0  0.84240179203E+01 -0.30620250233E+02  0.17333691046E+02  0.36180390372E+02  0.00000000000E+00 0. -1.
</event>
<event>
 7    1  0.4394360E-006  0.1480099E+03  0.7561462E-02  0.1202940E+00
          1   -1    0    0  501    0  0.00000000000E+00  0.00000000000E+00  0.24614311550E+03  0.24614311550E+03  0.00000000000E+00 0. -1.
         -1   -1    0    0    0  501 -0.00000000000E+00 -0.00000000000E+00 -0.11765748637E+03  0.11765748637E+03  0.00000000000E+00 0.  1.
         23    2    1    2    0    0  0.82810066850E+02 -0.95082106990E+02  0.29641988407E+02  0.18006605632E+03  0.12508806067E+03 0.  0.
          5    1    3    3  502    0  0.53027465389E+01 -0.57734096501E+02  0.64780862102E+02  0.87036644664E+02  0.41800000000E+01 0.  1.
         -5    1    3    3    0  502  0.77507320311E+02 -0.37348010489E+02 -0.35138873695E+02  0.93029411660E+02  0.41800000000E+01 0.  1.
        -11    1    1    2    0    0 -0.52872325902E+02  0.84816914849E+00  0.17501940982E+02  0.55700270873E+02  0.00000000000E+00 0.  1.
         11    1    1    2    0    0 -0.29937740948E+02  0.94233937842E+02  0.81341699743E+02  0.12803427467E+03  0.00000000000E+00 0. -1.
</event>
<event>
 7    1  0.4394360E-006  0.7958231E+02  0.7561462E-02  0.1330241E+00
          1   -1    0    0  501    0  0.00000000000E+00  0.00000000000E+00  0.32909116282E+02  0.32909116282E+02  0.00000000000E+00 0. -1.
         -1   -1    0    0    0  501 -0.00000000000E+00 -0.00000000000E+00 -0.46150635753E+03  0.46150635753E+03  0.00000000000E+00 0.  1.
         23    2    1    2    0    0  0.56219548595E+02  0.14459525668E+02 -0.23294469070E+03  0.27070392283E+03  0.12509064466E+03 0.  0.
          5    1    3    3  502    0  0.17448516770E+02  0.17848268123E+02  0.80452682343E+01  0.26555793218E+02  0.41800000000E+01 0.  1.
         -5    1    3    3    0  502  0.38771031825E+02 -0.33887424553E+01 -0.24098995894E+03  0.24414812961E+03  0.41800000000E+01 0.  1.
        -11    1    1    2    0    0 -0.73271680701E+02 -0.14841537235E+01 -0.18655311332E+03  0.20043204832E+03  0.00000000000E+00 0. -1.
         11    1    1    2    0    0  0.17052132107E+02 -0.12975371944E+02 -0.90994372297E+01  0.23279502666E+02  0.00000000000E+00 0.  1.
</event>
<event>
 7    1  0.4394360E-006  0.1253146E+03  0.7561462E-02  0.1234578E+00
          2   -1    0    0  501    0  0.00000000000E+00  0.00000000000E+00  0.60130397349E+03  0.60130397349E+03  0.00000000000E+00 0. -1.
         -2   -1    0    0    0  501 -0.00000000000E+00 -0.00000000000E+00 -0.36303607508E+02  0.36303607508E+02  0.00000000000E+00 0.  1.
         23    2    1    2    0    0  0.79838207736E+02  0.40574224180E+02  0.21250604333E+03  0.26234904799E+03  0.12509115655E+03 0.  0.
          5    1    3    3  502    0  0.85078254425E+02  0.18820594578E+01  0.58341913015E+02  0.10326230066E+03  0.41800000000E+01 0.  1.
         -5    1    3    3    0  502 -0.52400466892E+01  0.38692164722E+02  0.15416413031E+03  0.15908674733E+03  0.41800000000E+01 0.  1.
        -11    1    1    2    0    0 -0.65298290420E+02 -0.68523588632E+02  0.22860224723E+03  0.24742339495E+03  0.00000000000E+00 0.  1.
         11    1    1    2    0    0 -0.14539917316E+02  0.27949364452E+02  0.12389207542E+03  0.12783513805E+03  0.00000000000E+00 0. -1.
</event>
<event>
 7    1  0.4394360E-006  0.7634039E+02  0.7561462E-02  0.1339770E+00
          2   -1    0    0  501    0  0.00000000000E+00  0.00000000000E+00  0.38178965039E+03  0.38178965039E+03  0.00000000000E+00 0.  1.
         -2   -1    0    0    0  501 -0.00000000000E+00 -0.00000000000E+00 -0.31630111705E+02  0.31630111705E+02  0.00000000000E+00 0. -1.
         23    2    1    2    0    0 -0.15544555136E+02  0.21428797352E+02  0.19487340074E+03  0.23307513785E+03  0.12509017153E+03 0.  0.
          5    1    3    3  502    0 -0.19192781369E+02 -0.15569660672E+02  0.19404160135E+03  0.19565375705E+03  0.41800000000E+01 0. -1.
         -5    1    3    3    0  502  0.36482262331E+01  0.36998458024E+02  0.83179938991E+00  0.37421380801E+02  0.41800000000E+01 0. -1.
        -11    1    1    2    0    0  0.15641402105E+02 -0.54720395684E+02  0.11303023774E+03  0.12654963377E+03  0.00000000000E+00 0. -1.
         11    1    1    2    0    0 -0.96846969834E-01  0.33291598332E+02  0.42255900196E+02  0.53794990475E+02  0.00000000000E+00 0.  1.
</event>
<event>
 7    1  0.4394360E-006  0.2489568E+03  0.7561462E-02  0.1113966E+00
          2   -1    0    0  501    0  0.00000000000E+00  0.00000000000E+00  0.33196799287E+03  0.33196799287E+03  0.00000000000E+00 0. -1.
         -2   -1    0    0    0  501 -0.00000000000E+00 -0.00000000000E+00 -0.21796139434E+03  0.21796139434E+03  0.00000000000E+00 0.  1.
         23    2    1    2    0    0  0.10598846824E+03  0.22128241042E+03  0.51782873857E+02  0.28022895451E+03  0.12508932953E+03 0.  0.
          5    1    3    3  502    0  0.90539854885E+02  0.17734277483E+03  0.91218098831E+02  0.21905738760E+03  0.41800000000E+01 0.  1.
         -5    1    3    3    0  502  0.15448613358E+02  0.43939635587E+02 -0.39435224974E+02  0.61171566916E+02  0.41800000000E+01 0.  1.
        -11    1    1    2    0    0 -0.37381852808E+02 -0.14342396191E+03  0.73277826979E+02  0.16534048414E+03  0.00000000000E+00 0. -1.
         11    1    1    2    0    0 -0.68606615434E+02 -0.77858448502E+02 -0.11054102298E+02  0.10435994855E+03  0.00000000000E+00 0.  1.
</event>
<event>
 7    1  0.4394360E-006  0.1257084E+03  0.7561462E-02  0.1233966E+00
         -1   -1    0    0    0  501 -0.00000000000E+00  0.00000000000E+00  0.50641495916E+02  0.50641495916E+02  0.00000000000E+00 0.  1.
          1   -1    0    0  501    0  0.00000000000E+00 -0.00000000000E+00 -0.47947436256E+03  0.47947436256E+03  0.00000000000E+00 0. -1.
         23    2    1    2    0    0 -0.95038600985E+00  0.83361677815E+02 -0.10479238749E+03  0.18324690871E+03  0.12509161648E+03 0.  0.
          5    1    3    3  502    0 -0.88330018010E+01  0.11507224349E+03 -0.92933523347E+02  0.14823547249E+03  0.41800000000E+01 0.  1.
         -5    1    3    3    0  502  0.78826157911E+01 -0.31710565677E+02 -0.11858864141E+02  0.35011436217E+02  0.41800000000E+01 0.  1.
        -11    1    1    2    0    0 -0.29761966303E+02 -0.40533417999E+02 -0.25553988923E+03  0.26044071801E+03  0.00000000000E+00 0. -1.
         11    1    1    2    0    0  0.30712352313E+02 -0.42828259816E+02 -0.68500589930E+02  0.86428231754E+02  0.00000000000E+00 0.  1.
</event>
<event>
 7    1  0.4394360E-006  0.3674406E+03  0.7561462E-02  0.1055676E+00
          2   -1    0    0  501    0  0.00000000000E+00  0.00000000000E+00  0.15574504772E+04  0.15574504772E+04  0.00000000000E+00 0.  1.
         -2   -1    0    0    0  501 -0.00000000000E+00 -0.00000000000E+00 -0.97208142706E+02  0.97208142706E+02  0.00000000000E+00 0. -1.
         23    2    1    2    0    0 -0.26939263994E+02 -0.35553869134E+03  0.50370282635E+03  0.62968059454E+03  0.12509048279E+03 0.  0.
          5    1    3    3  502    0  0.26443543276E+02 -0.25346478837E+03  0.28415280349E+03  0.38171186523E+03  0.41800000000E+01 0. -1.
         -5    1    3    3    0  502 -0.53382807270E+02 -0.10207390297E+03  0.21955002286E+03  0.24796872931E+03  0.41800000000E+01 0. -1.
        -11    1    1    2    0    0  0.11295451088E+02  0.27767125273E+01  0.65456891086E+02  0.66482343058E+02  0.00000000000E+00 0.  1.
         11    1    1    2    0    0  0.15643812906E+02  0.35276197881E+03  0.89108261703E+03  0.95849568228E+03  0.00000000000E+00 0. -1.
</event>
<event>
 7    1  0.4394360E-006  0.1155122E+03  0.7561462E-02  0.1250690E+00
         -1   -1    0    0    0  501 -0.00000000000E+00  0.00000000000E+00  0.35504498366E+02  0.35504498366E+02  0.00000000000E+00 0.  1.
          1   -1    0    0  501    0  0.00000000000E+00 -0.00000000000E+00 -0.44422833326E+03  0.44422833326E+03  0.00000000000E+00 0. -1.
         23    2    1    2    0    0 -0.42593314644E+02 -0.36107617070E+02 -0.18331096091E+03  0.22883846374E+03  0.12508470584E+03 0.  0.
          5    1    3    3  502    0 -0.24701701754E+02  0.39651208735E+02 -0.11855567710E+03  0.12749632699E+03  0.41800000000E+01 0. -1.
         -5    1    3    3    0  502 -0.17891612889E+02 -0.75758825806E+02 -0.64755283810E+02  0.10134213675E+03  0.41800000000E+01 0. -1.
        -11    1    1    2    0    0 -0.23460823768E+02 -0.10112623697E+02 -0.29396204767E+02  0.38946274079E+02  0.00000000000E+00 0.  1.
         11    1    1    2    0    0  0.66054138412E+02  0.46220240767E+02 -0.19601666922E+03  0.21194809381E+03  0.00000000000E+00 0. -1.
</event>
<event>
 7    1  0.4394360E-006  0.9072068E+02  0.7561462E-02  0.1301116E+00
          2   -1    0    0  501    0  0.00000000000E+00  0.00000000000E+00  0.11394059483E+03  0.11394059483E+03  0.00000000000E+00 0. -1.
         -2   -1    0    0    0  501 -0.00000000000E+00 -0.00000000000E+00 -0.12135418536E+03  0.12135418536E+03  0.00000000000E+00 0.  1.
         23    2    1    2    0    0  0.34073411688E+02  0.24434734258E+02  0.12503435417E+02  0.13256332096E+03  0.12513450581E+03 0.  0.
          5    1    3    3  502    0  0.27631805116E+02  0.48878711648E+02  0.57694041571E+02  0.80614638492E+02  0.41800000000E+01 0.  1.
         -5    1    3    3    0  502  0.64416065725E+01 -0.24443977390E+02 -0.45190606154E+02  0.51948682471E+02  0.41800000000E+01 0.  1.
        -11    1    1    2    0    0 -0.63136274048E+02 -0.30038201648E+02 -0.21332101763E+02  0.73099529578E+02  0.00000000000E+00 0. -1.
         11    1    1    2    0    0  0.29062862360E+02  0.56034673897E+01  0.14150758191E+01  0.29631929652E+02  0.00000000000E+00 0.  1.
</event>
<event>
 7    1  0.4394360E-006  0.2256556E+03  0.7561462E-02  0.1129735E+00
         -2   -1    0    0    0  501 -0.00000000000E+00  0.00000000000E+00  0.77051398186E+02  0.77051398186E+02  0.00000000000E+00 0.  1.
          2   -1    0    0  501    0  0.00000000000E+00 -0.00000000000E+00 -0.80679708148E+03  0.80679708148E+03  0.00000000000E+00 0. -1.
         23    2    1    2    0    0 -0.17726449750E+03 -0.12475068564E+03 -0.27487481160E+03  0.37173847344E+03  0.12509154626E+03 0.  0.
          5    1    3    3  502    0  0.30298317936E+01  0.87168830060E+01  0.63696140657E+01  0.11966967594E+02  0.41800000000E+01 0.  1.
         -5    1    3    3    0  502 -0.18029432929E+03 -0.13346756865E+03 -0.28124442566E+03  0.35977150585E+03  0.41800000000E+01 0.  1.
        -11    1    1    2    0    0  0.11043354521E+03  0.80718243286E+02 -0.37444732206E+03  0.39864997141E+03  0.00000000000E+00 0.  1.
         11    1    1    2    0    0  0.66830952291E+02  0.44032442356E+02 -0.80423549638E+02  0.11346003482E+03  0.00000000000E+00 0. -1.
</event>
<event>
 7    1  0.4394360E-006  0.6312427E+02  0.7561462E-02  0.1385169E+00
         -2   -1    0    0    0  501 -0.00000000000E+00  0.00000000000E+00  0.27982517103E+03  0.27982517103E+03  0.00000000000E+00 0. -1.
          2   -1    0    0  501    0  0.00000000000E+00 -0.00000000000E+00 -0.49505511455E+02  0.49505511455E+02  0.00000000000E+00 0.  1.
         23    2    1    2    0    0  0.13087870946E+02 -0.65253069677E+01  0.18787470350E+03  0.22617752441E+03  0.12508195847E+03 0.  0.
          5    1    3    3  502    0  0.24938428367E+02  0.15245214748E+02  0.19717634287E+03  0.19937483384E+03  0.41800000000E+01 0. -1.
         -5    1    3    3    0  502 -0.11850557420E+02 -0.21770521716E+02 -0.93016393637E+01  0.26802690570E+02  0.41800000000E+01 0. -1.
        -11    1    1    2    0    0 -0.42123341349E+02  0.59705740477E+01 -0.95451824727E+01  0.43601997079E+02  0.00000000000E+00 0.  1.
         11    1    1    2    0    0  0.29035470403E+02  0.55473291998E+00  0.51990138547E+02  0.59551160999E+02  0.00000000000E+00 0. -1.
</event>
<event>
 6    1  0.4394360E-006  0.1316568E+03  0.7561462E-02  0.1225018E+00
          1   -1    0    0  501    0  0.00000000000E+00  0.00000000000E+00  0.13947471396E+03  0.13947471396E+03  0.00000000000E+00 0. -1.
         -1   -1    0    0    0  501 -0.00000000000E+00 -0.00000000000E+00 -0.18202784803E+03  0.18202784803E+03  0.00000000000E+00 0.  1.
          5    1    1    2  502    0  0.47621505833E+02 -0.41726674536E+02 -0.43835398298E+02  0.77122874230E+02  0.41800000000E+01 0. -1.
         -5    1    1    2    0  502 -0.93474892416E+02 -0.24769410220E+02 -0.64263539463E+02  0.11618241734E+03  0.41800000000E+01 0.  1.
        -11    1    1    2    0    0 -0.15213745152E+02  0.24901614118E+02 -0.36634938907E+00  0.29183602230E+02  0.00000000000E+00 0.  1.
         11    1    1    2    0    0  0.61067131735E+02  0.41594470638E+02  0.65912153079E+02  0.99013668195E+02  0.00000000000E+00 0. -1.
</event>
<event>
 7    1  0.4394360E-006  0.1256564E+03  0.7561462E-02  0.1234047E+00
          3   -1    0    0  501    0  0.00000000000E+00  0.00000000000E+00  0.40447295956E+02  0.40447295956E+02  0.00000000000E+00 0. -1.
         -3   -1    0    0    0  501 -0.00000000000E+00 -0.00000000000E+00 -0.52083876616E+03  0.52083876616E+03  0.00000000000E+00 0.  1.
         23    2    1    2    0    0  0.17138796090E+01  0.89316783717E+02 -0.33865117383E+03  0.37062063198E+03  0.12122132681E+03 0.  0.
          5    1    3    3  502    0  0.43805845632E+02  0.43906774510E+02 -0.64681531794E+02  0.89710255348E+02  0.41800000000E+01 0. -1.
         -5    1    3    3    0  502 -0.42091966023E+02  0.45410009207E+02 -0.27396964204E+03  0.28091037663E+03  0.41800000000E+01 0.  1.
        -11    1    1    2    0    0  0.43894518386E+02 -0.34823917423E+02 -0.54731154968E+02  0.78325814985E+02  0.00000000000E+00 0. -1.
         11    1    1    2    0    0 -0.45608397995E+02 -0.54492866295E+02 -0.87009141402E+02  0.11233961515E+03  0.00000000000E+00 0.  1.
</event>
<event>
 7    1  0.4394360E-006  0.2759367E+03  0.7561462E-02  0.1097929E+00
          4   -1    0    0  501    0  0.00000000000E+00  0.00000000000E+00  0.26746266678E+03  0.26746266678E+03  0.00000000000E+00 0. -1.
         -4   -1    0    0    0  501 -0.00000000000E+00 -0.00000000000E+00 -0.32161130968E+03  0.32161130968E+03  0.00000000000E+00 0.  1.
         23    2    1    2    0    0  0.24327851598E+03  0.11318366925E+03 -0.73955834032E+02  0.30514238923E+03  0.12508969981E+03 0.  0.
          5    1    3    3  502    0  0.14520628673E+03  0.98667295932E+02  0.89548243845E+01  0.17583447407E+03  0.41800000000E+01 0.  1.
         -5    1    3    3    0  502  0.98072229243E+02  0.14516373314E+02 -0.82910658416E+02  0.12930791516E+03  0.41800000000E+01 0.  1.
        -11    1    1    2    0    0 -0.63647878299E+02  0.19490184066E+01 -0.20297935460E+02  0.66834551458E+02  0.00000000000E+00 0.  1.
         11    1    1    2    0    0 -0.17963063768E+03 -0.11513268765E+03  0.40105126593E+02  0.21709703576E+03  0.00000000000E+00 0. -1.
</event>
<event>
 7    1  0.4394360E-006  0.1500009E+03  0.7561462E-02  0.1200472E+00
          2   -1    0    0  501    0  0.00000000000E+00  0.00000000000E+00  0.84103620529E+03  0.84103620529E+03  0.00000000000E+00 0. -1.
         -2   -1    0    0    0  501 -0.00000000000E+00 -0.00000000000E+00 -0.30577430363E+02  0.30577430363E+02  0.00000000000E+00 0.  1.
         23    2    1    2    0    0  0.79113443301E+02  0.87732536153E+02  0.41429315619E+03  0.44859987984E+03  0.12508836120E+03 0.  0.
          5    1    3    3  502    0  0.54293925232E+02  0.10762682062E+03  0.21312847565E+03  0.24489300187E+03  0.41800000000E+01 0. -1.
         -5    1    3    3    0  502  0.24819518068E+02 -0.19894284463E+02  0.20116468054E+03  0.20370687796E+03  0.41800000000E+01 0. -1.
        -11    1    1    2    0    0 -0.70099837618E+02 -0.12103877178E+02  0.21593073855E+03  0.22734681640E+03  0.00000000000E+00 0.  1.
         11    1    1    2    0    0 -0.90136056831E+01 -0.75628658975E+02  0.18023488018E+03  0.19566693942E+03  0.00000000000E+00 0. -1.
</event>
<event>
 7    1  0.4394360E-006  0.9147275E+02  0.7561462E-02  0.1299324E+00
          1   -1    0    0  501    0  0.00000000000E+00  0.00000000000E+00  0.38088096959E+03  0.38088096959E+03  0.00000000000E+00 0. -1.
         -1   -1    0    0    0  501 -0.00000000000E+00 -0.00000000000E+00 -0.35357401573E+02  0.35357401573E+02  0.00000000000E+00 0.  1.
         23    2    1    2    0    0  0.50491347276E+01 -0.11646038471E+02  0.20161995521E+03  0.23753074682E+03  0.12493648535E+03 0.  0.
          5    1    3    3  502    0 -0.56175347628E+02 -0.10259929153E+02  0.13659431258E+03  0.14810946781E+03  0.41800000000E+01 0.  1.
         -5    1    3    3    0  502  0.61224482356E+02 -0.13861093175E+01  0.65025642633E+02  0.89421279003E+02  0.41800000000E+01 0.  1.
        -11    1    1    2    0    0 -0.20683708808E+02 -0.20148232177E+02 -0.16322282654E+01  0.28921120985E+02  0.00000000000E+00 0.  1.
         11    1    1    2    0    0  0.15634574081E+02  0.31794270648E+02  0.14553584108E+03  0.14978650336E+03  0.00000000000E+00 0. -1.
</event>
<event>
 7    1  0.4394360E-006  0.1126774E+03  0.7561462E-02  0.1255691E+00
         -1   -1    0    0    0  501 -0.00000000000E+00  0.00000000000E+00  0.68496044359E+03  0.68496044359E+03  0.00000000000E+00 0.  1.
          1   -1    0    0  501    0  0.00000000000E+00 -0.00000000000E+00 -0.25287291202E+02  0.25287291202E+02  0.00000000000E+00 0. -1.
         23    2    1    2    0    0  0.68380592497E+02  0.72967577953E+01  0.44661109400E+03  0.46886985522E+03  0.12509326019E+03 0.  0.
          5    1    3    3  502    0  0.51492632556E+02 -0.51382096817E+02  0.32068018984E+03  0.32885386973E+03  0.41800000000E+01 0. -1.
         -5    1    3    3    0  502  0.16887959941E+02  0.58678854613E+02  0.12593090416E+03  0.14001598549E+03  0.41800000000E+01 0. -1.
        -11    1    1    2    0    0 -0.65714237857E+02  0.16166379734E+02  0.20584753921E+03  0.21668623004E+03  0.00000000000E+00 0.  1.
         11    1    1    2    0    0 -0.26663546401E+01 -0.23463137530E+02  0.72145191833E+01  0.24691649537E+02  0.00000000000E+00 0. -1.
</event>
<event>
 7    1  0.4394360E-006  0.9182435E+02  0.7561462E-02  0.1298493E+00
         -2   -1    0    0    0  501 -0.00000000000E+00  0.00000000000E+00  0.10167288902E+03  0.10167288902E+03  0.00000000000E+00 0.  1.
          2   -1    0    0  501    0  0.00000000000E+00 -0.00000000000E+00 -0.15956929981E+03  0.15956929981E+03  0.00000000000E+00 0. -1.
         23    2    1    2    0    0  0.27842989377E+02 -0.68144782467E+01  0.30628173902E+02  0.13193561270E+03  0.12508897510E+03 0.  0.
          5    1    3    3  502    0 -0.22870417074E+02 -0.26526639241E+02  0.60271148220E+02  0.69834105381E+02  0.41800000000E+01 0. -1.
         -5    1    3    3    0  502  0.50713406451E+02  0.19712160994E+02 -0.29642974319E+02  0.62101507320E+02  0.41800000000E+01 0. -1.
        -11    1    1    2    0    0  0.32412342213E+02  0.85645915576E+01 -0.25724821687E+02  0.42257290580E+02  0.00000000000E+00 0.  1.
         11    1    1    2    0    0 -0.60255331590E+02 -0.17501133109E+01 -0.62799763007E+02  0.87049285553E+02  0.00000000000E+00 0. -1.
</event>
<event>
 7    1  0.4394360E-006  0.5902583E+02  0.7561462E-02  0.1401966E+00
         -1   -1    0    0    0  501 -0.00000000000E+00  0.00000000000E+00  0.92991249094E+02  0.92991249094E+02  0.00000000000E+00 0.  1.
          1   -1    0    0  501    0  0.00000000000E+00 -0.00000000000E+00 -0.13171484433E+03  0.13171484433E+03  0.00000000000E+00 0. -1.
         23    2    1    2    0    0  0.15832534471E+02  0.84756340082E+01 -0.41469759641E+02  0.13300213356E+03  0.12508925232E+03 0.  0.
          5    1    3    3  502    0 -0.16072504566E+02 -0.18632256799E+02  0.36609519851E+02  0.44308190441E+02  0.41800000000E+01 0. -1.
         -5    1    3    3    0  502  0.31905039037E+02  0.27107890807E+02 -0.78079279492E+02  0.88693943119E+02  0.41800000000E+01 0. -1.
        -11    1    1    2    0    0 -0.26758256830E+01 -0.27641734774E+02  0.39457738164E+02  0.48250789065E+02  0.00000000000E+00 0.  1.
         11    1    1    2    0    0 -0.13156708788E+02  0.19166100766E+02 -0.36711573764E+02  0.43453170804E+02  0.00000000000E+00 0. -1.
</event>
<event>
 7    1  0.4394360E-006  0.1162807E+03  0.7561462E-02  0.1249362E+00
         -1   -1    0    0    0  501 -0.00000000000E+00  0.00000000000E+00  0.33962156908E+02  0.33962156908E+02  0.00000000000E+00 0.  1.
          1   -1    0    0  501    0  0.00000000000E+00 -0.00000000000E+00 -0.75477830853E+03  0.75477830853E+03  0.00000000000E+00 0. -1.
         23    2    1    2    0    0  0.89494885927E+02  0.69984417996E+02 -0.34859198615E+03  0.38738985553E+03  0.12508946393E+03 0.  0.
          5    1    3    3  502    0  0.81647642029E+02  0.48111866245E+02 -0.35106011461E+03  0.36365060923E+03  0.41800000000E+01 0.  1.
         -5    1    3    3    0  502  0.78472438985E+01  0.21872551751E+02  0.24681284557E+01  0.23739246301E+02  0.41800000000E+01 0.  1.
        -11    1    1    2    0    0 -0.17655223454E+02 -0.19382621962E+02 -0.91106285667E+01  0.27756017405E+02  0.00000000000E+00 0.  1.
         11    1    1    2    0    0 -0.71839662474E+02 -0.50601796034E+02 -0.36311353690E+03  0.37359459251E+03  0.00000000000E+00 0. -1.
</event>
<event>
 7    1  0.4394360E-006  0.8653070E+02  0.7561462E-02  0.1311477E+00
          2   -1    0    0  501    0  0.00000000000E+00  0.00000000000E+00  0.37169742313E+03  0.37169742313E+03  0.00000000000E+00 0. -1.
         -2   -1    0    0    0  501 -0.00000000000E+00 -0.00000000000E+00 -0.40690949041E+02  0.40690949041E+02  0.00000000000E+00 0.  1.
         23    2    1    2    0    0 -0.53411973402E+02 -0.17690680318E+01  0.14869485789E+03  0.20152805350E+03  0.12508967616E+03 0.  0.
          5    1    3    3  502    0  0.65995310897E+01  0.94563942483E+01  0.13903503668E+03  0.13957503727E+03  0.41800000000E+01 0. -1.
         -5    1    3    3    0  502 -0.60011504492E+02 -0.11225462280E+02  0.96598212067E+01  0.61953016235E+02  0.41800000000E+01 0. -1.
        -11    1    1    2    0    0  0.64609523133E+00 -0.35178723491E+02  0.32967245635E+02  0.48216172704E+02  0.00000000000E+00 0.  1.
         11    1    1    2    0    0  0.52765878171E+02  0.36947791523E+02  0.14934437057E+03  0.16264414597E+03  0.00000000000E+00 0. -1.
</event>
<event>
 7    1  0.4394360E-006  0.1589537E+03  0.7561462E-02  0.1189883E+00
          1   -1    0    0  501    0  0.00000000000E+00  0.00000000000E+00  0.51402165276E+03  0.51402165276E+03  0.00000000000E+00 0. -1.
         -1   -1    0    0    0  501 -0.00000000000E+00 -0.00000000000E+00 -0.63659662962E+02  0.63659662962E+02  0.00000000000E+00 0.  1.
         23    2    1    2    0    0 -0.10816242186E+03 -0.50753586333E+02  0.10672520963E+03  0.20325553134E+03  0.12508998609E+03 0.  0.
          5    1    3    3  502    0 -0.90492098423E+02 -0.88947480902E+02  0.60602007048E+02  0.14067888930E+03  0.41800000000E+01 0. -1.
         -5    1    3    3    0  502 -0.17670323438E+02  0.38193894569E+02  0.46123202584E+02  0.62576642043E+02  0.41800000000E+01 0. -1.
        -11    1    1    2    0    0  0.27613913032E+02 -0.25614218078E+02  0.90287792810E+02  0.97828941991E+02  0.00000000000E+00 0. -1.
         11    1    1    2    0    0  0.80548508830E+02  0.76367804411E+02  0.25334898735E+03  0.27659684239E+03  0.00000000000E+00 0.  1.
</event>
<event>
 7    1  0.4394360E-006  0.1280732E+03  0.7561462E-02  0.1230343E+00
          2   -1    0    0  501    0  0.00000000000E+00  0.00000000000E+00  0.79296048160E+03  0.79296048160E+03  0.00000000000E+00 0. -1.
         -2   -1    0    0    0  501 -0.00000000000E+00 -0.00000000000E+00 -0.29551362723E+02  0.29551362723E+02  0.00000000000E+00 0.  1.
         23    2    1    2    0    0 -0.53947066842E+02 -0.89768276381E+02  0.48987635247E+03  0.51632917448E+03  0.12509335011E+03 0.  0.
          5    1    3    3  502    0  0.16537939564E+02 -0.47837494220E+02  0.35355072153E+03  0.35717994680E+03  0.41800000000E+01 0. -1.
         -5    1    3    3    0  502 -0.70485006406E+02 -0.41930782160E+02  0.13632563094E+03  0.15914922768E+03  0.41800000000E+01 0. -1.
        -11    1    1    2    0    0  0.69090938578E+02  0.70231838439E+02  0.14505278068E+03  0.17534645165E+03  0.00000000000E+00 0.  1.
         11    1    1    2    0    0 -0.15143871735E+02  0.19536437942E+02  0.12847998572E+03  0.13083621819E+03  0.00000000000E+00 0. -1.
</event>
<event>
 7    1  0.4394360E-006  0.1175125E+03  0.7561462E-02  0.1247258E+00
          4   -1    0    0  501    0  0.00000000000E+00  0.00000000000E+00  0.20195504894E+03  0.20195504894E+03  0.00000000000E+00 0. -1.
         -4   -1    0    0    0  501 -0.00000000000E+00 -0.00000000000E+00 -0.10451796791E+03  0.10451796791E+03  0.00000000000E+00 0.  1.
         23    2    1    2    0    0  0.76245249035E+02  0.17626304641E+02 -0.76176411911E+01  0.14774726453E+03  0.12508877289E+03 0.  0.
          5    1    3    3  502    0  0.41953259889E+02  0.64079692586E+02 -0.34273560363E+02  0.84014477069E+02  0.41800000000E+01 0.  1.
         -5    1    3    3    0  502  0.34291989146E+02 -0.46453387945E+02  0.26655919172E+02  0.63732787465E+02  0.41800000000E+01 0.  1.
        -11    1    1    2    0    0 -0.37471518860E+02 -0.40688845833E+02  0.13924924338E+02  0.57040340276E+02  0.00000000000E+00 0.  1.
         11    1    1    2    0    0 -0.38773730174E+02  0.23062541192E+02  0.91129797893E+02  0.10168541204E+03  0.00000000000E+00 0. -1.
</event>
<event>
 7    1  0.4394360E-006  0.1138691E+03  0.7561462E-02  0.1253568E+00
          2   -1    0    0  501    0  0.00000000000E+00  0.00000000000E+00  0.67074525132E+02  0.67074525132E+02  0.00000000000E+00 0. -1.
         -2   -1    0    0    0  501 -0.00000000000E+00 -0.00000000000E+00 -0.28420328784E+03  0.28420328784E+03  0.00000000000E+00 0.  1.
         23    2    1    2    0    0 -0.10506946244E+02  0.79111055466E+02 -0.15240554559E+03  0.21271128250E+03  0.12509869847E+03 0.  0.
          5    1    3    3  502    0  0.19427622945E+02 -0.28397559874E+02 -0.52257279786E+02  0.62706854735E+02  0.41800000000E+01 0.  1.
         -5    1    3    3    0  502 -0.29934569189E+02  0.10750861534E+03 -0.10014826580E+03  0.15000442776E+03  0.41800000000E+01 0.  1.
        -11    1    1    2    0    0 -0.43335917293E+01 -0.17960984780E+02 -0.72815617015E+02  0.75123172675E+02  0.00000000000E+00 0.  1.
         11    1    1    2    0    0  0.14840537974E+02 -0.61150070686E+02  0.80923999000E+01  0.63443357796E+02  0.00000000000E+00 0. -1.
</event>
<event>
 7    1  0.4394360E-006  0.1026096E+03  0.7561462E-02  0.1274902E+00
         -2   -1    0    0    0  501 -0.00000000000E+00  0.00000000000E+00  0.33127784458E+03  0.33127784458E+03  0.00000000000E+00 0.  1.
          2   -1    0    0  501    0  0.00000000000E+00 -0.00000000000E+00 -0.40777344204E+02  0.40777344204E+02  0.00000000000E+00 0. -1.
         23    2    1    2    0    0  0.79570542607E+01 -0.30184697387E+02  0.20665291540E+03  0.24357418983E+03  0.12509407596E+03 0.  0.
          5    1    3    3  502    0 -0.57301509767E+02 -0.26424766711E+02  0.94900259560E+02  0.11404061988E+03  0.41800000000E+01 0. -1.
         -5    1    3    3    0  502  0.65258564027E+02 -0.37599306759E+01  0.11175265584E+03  0.12953356995E+03  0.41800000000E+01 0. -1.
        -11    1    1    2    0    0 -0.10605297379E+02  0.52726685960E+02  0.14775478916E+02  0.55775357659E+02  0.00000000000E+00 0. -1.
         11    1    1    2    0    0  0.26482431186E+01 -0.22541988572E+02  0.69072106062E+02  0.72705641296E+02  0.00000000000E+00 0.  1.
</event>
<event>
 6    1  0.4394360E-006  0.1718244E+03  0.7561462E-02  0.1175959E+00
          1   -1    0    0  501    0  0.00000000000E+00  0.00000000000E+00  0.50202849916E+03  0.50202849916E+03  0.00000000000E+00 0. -1.
         -1   -1    0    0    0  501 -0.00000000000E+00 -0.00000000000E+00 -0.80739706086E+02  0.80739706086E+02  0.00000000000E+00 0.  1.
          5    1    1    2  502    0 -0.31678323934E+02  0.17477642019E+02  0.48245579905E+01  0.36738711703E+02  0.41800000000E+01 0. -1.
         -5    1    1    2    0  502  0.49237149603E+02 -0.15782476362E+03  0.10939972330E+03  0.19828949738E+03  0.41800000000E+01 0.  1.
        -11    1    1    2    0    0 -0.13585780859E+02  0.65395648868E+02  0.23264615192E+03  0.24204420327E+03  0.00000000000E+00 0.  1.
         11    1    1    2    0    0 -0.39730448110E+01  0.74951472737E+02  0.74418359868E+02  0.10569579290E+03  0.00000000000E+00 0. -1.
</event>
<event>
 6    1  0.4394360E-006  0.9876507E+02  0.7561462E-02  0.1282914E+00
         -2   -1    0    0    0  501 -0.00000000000E+00  0.00000000000E+00  0.27780829208E+03  0.27780829208E+03  0.00000000000E+00 0.  1.
          2   -1    0    0  501    0  0.00000000000E+00 -0.00000000000E+00 -0.98885543929E+02  0.98885543929E+02  0.00000000000E+00 0. -1.
          5    1    1    2  502    0 -0.31452521331E+02  0.24662073433E+02 -0.52210057723E+02  0.65885062734E+02  0.41800000000E+01 0. -1.
         -5    1    1    2    0  502  0.58137820331E+02 -0.15169322956E+01  0.19275513957E+03  0.20138104048E+03  0.41800000000E+01 0.  1.
        -11    1    1    2    0    0 -0.41129192062E+02  0.25432021956E+02  0.32824720517E+02  0.58445363011E+02  0.00000000000E+00 0.  1.
         11    1    1    2    0    0  0.14443893062E+02 -0.48577163094E+02  0.55529457840E+01  0.50982369775E+02  0.00000000000E+00 0. -1.
</event>
<event>
 7    1  0.4394360E-006  0.1090500E+03  0.7561462E-02  0.1262339E+00
          2   -1    0    0  501    0  0.00000000000E+00  0.00000000000E+00  0.37000384763E+03  0.37000384763E+03  0.00000000000E+00 0. -1.
         -2   -1    0    0    0  501 -0.00000000000E+00 -0.00000000000E+00 -0.54467395349E+02  0.54467395349E+02  0.00000000000E+00 0.  1.
         23    2    1    2    0    0 -0.53589228133E+00 -0.76020254801E+02  0.95776980477E+02  0.17493189268E+03  0.12509424753E+03 0.  0.
          5    1    3    3  502    0  0.59425124879E+02 -0.43268155622E+02  0.70575226314E+02  0.10198928241E+03  0.41800000000E+01 0. -1.
         -5    1    3    3    0  502 -0.59961017160E+02 -0.32752099179E+02  0.25201754163E+02  0.72942610266E+02  0.41800000000E+01 0. -1.
        -11    1    1    2    0    0  0.95835807079E-01  0.19630971852E+02 -0.29051784450E+01  0.19845006983E+02  0.00000000000E+00 0.  1.
         11    1    1    2    0    0  0.44005647425E+00  0.56389282949E+02  0.22266465025E+03  0.22969434331E+03  0.00000000000E+00 0. -1.
</event>
<event>
 7    1  0.4394360E-006  0.1008282E+03  0.7561462E-02  0.1278564E+00
         -1   -1    0    0    0  501 -0.00000000000E+00  0.00000000000E+00  0.98196491824E+02  0.98196491824E+02  0.00000000000E+00 0.  1.
          1   -1    0    0  501    0  0.00000000000E+00 -0.00000000000E+00 -0.20646722978E+03  0.20646722978E+03  0.00000000000E+00 0. -1.
         23    2    1    2    0    0 -0.32657616632E+02  0.42095299780E+02  0.23332531484E+02  0.13795347812E+03  0.12509284916E+03 0.  0.
          5    1    3    3  502    0  0.19939840881E+02 -0.27624677230E+02 -0.20672708526E+02  0.40069356424E+02  0.41800000000E+01 0.  1.
         -5    1    3    3    0  502 -0.52597457513E+02  0.69719977010E+02  0.44005240010E+02  0.97884121692E+02  0.41800000000E+01 0.  1.
        -11    1    1    2    0    0  0.12253241080E+02  0.14939627866E+02  0.25746032649E+01  0.19492639116E+02  0.00000000000E+00 0.  1.
         11    1    1    2    0    0  0.20404375552E+02 -0.57034927646E+02 -0.13417787270E+03  0.14721760437E+03  0.00000000000E+00 0. -1.
</event>
<event>
 7    1  0.4394360E-006  0.8461984E+02  0.7561462E-02  0.1316430E+00
          2   -1    0    0  501    0  0.00000000000E+00  0.00000000000E+00  0.41726169058E+03  0.41726169058E+03  0.00000000000E+00 0. -1.
         -2   -1    0    0    0  501 -0.00000000000E+00 -0.00000000000E+00 -0.29701867777E+02  0.29701867777E+02  0.00000000000E+00 0.  1.
         23    2    1    2    0    0 -0.15960015850E+02 -0.16588318037E+02  0.20509939856E+03  0.24133493509E+03  0.12508754216E+03 0.  0.
          5    1    3    3  502    0 -0.19624728644E+02  0.32777336492E+02  0.18295038794E+03  0.18694330854E+03  0.41800000000E+01 0. -1.
         -5    1    3    3    0  502  0.36647127945E+01 -0.49365654530E+02  0.22149010626E+02  0.54391626550E+02  0.41800000000E+01 0. -1.
        -11    1    1    2    0    0 -0.14156803311E+02 -0.25624919460E+02  0.12433113178E+03  0.12773128789E+03  0.00000000000E+00 0. -1.
         11    1    1    2    0    0  0.30116819161E+02  0.42213237498E+02  0.58129292468E+02  0.77897335380E+02  0.00000000000E+00 0.  1.
</event>
<event>
 7    1  0.4394360E-006  0.1170168E+03  0.7561462E-02  0.1248101E+00
         -2   -1    0    0    0  501 -0.00000000000E+00  0.00000000000E+00  0.64953541153E+02  0.64953541153E+02  0.00000000000E+00 0.  1.
          2   -1    0    0  501    0  0.00000000000E+00 -0.00000000000E+00 -0.27042167813E+03  0.27042167813E+03  0.00000000000E+00 0. -1.
         23    2    1    2    0    0  0.31330501490E+02 -0.52808752142E+02 -0.56250091165E+02  0.15020319064E+03  0.12500624423E+03 0.  0.
          5    1    3    3  502    0  0.59896482547E+02 -0.74488590533E+02 -0.17539109724E+02  0.97268861980E+02  0.41800000000E+01 0. -1.
         -5    1    3    3    0  502 -0.28565981057E+02  0.21679838391E+02 -0.38710981441E+02  0.52934328658E+02  0.41800000000E+01 0. -1.
        -11    1    1    2    0    0 -0.31827447234E+02  0.74262541535E+02 -0.14036606678E+03  0.16195846435E+03  0.00000000000E+00 0.  1.
         11    1    1    2    0    0  0.49694574446E+00 -0.21453789393E+02 -0.88519790358E+01  0.23213564294E+02  0.00000000000E+00 0. -1.
</event>
<event>
 7    1  0.4394360E-006  0.9702827E+02  0.7561462E-02  0.1286672E+00
         -2   -1    0    0    0  501 -0.00000000000E+00  0.00000000000E+00  0.27180909510E+03  0.27180909510E+03  0.00000000000E+00 0.  1.
          2   -1    0    0  501    0  0.00000000000E+00 -0.00000000000E+00 -0.59610021301E+02  0.59610021301E+02  0.00000000000E+00 0. -1.
         23    2    1    2    0    0  0.36461298920E+02  0.38535904278E+02  0.17063217324E+03  0.21812268206E+03  0.12509086157E+03 0.  0.
          5    1    3    3  502    0  0.56726041304E+02 -0.22138120754E+02  0.41065774726E+02  0.73565008029E+02  0.41800000000E+01 0.  1.
         -5    1    3    3    0  502 -0.20264742384E+02  0.60674025032E+02  0.12956639852E+03  0.14455767403E+03  0.41800000000E+01 0.  1.
        -11    1    1    2    0    0 -0.43277180910E+02 -0.17290697531E+02 -0.17790851220E+02  0.49883835014E+02  0.00000000000E+00 0. -1.
         11    1    1    2    0    0  0.68158819899E+01 -0.21245206746E+02  0.59357751781E+02  0.63412599327E+02  0.00000000000E+00 0.  1.
</event>
<event>
 7    1  0.4394360E-006  0.1716110E+03  0.7561462E-02  0.1176178E+00
          1   -1    0    0  501    0  0.00000000000E+00  0.00000000000E+00  0.16530601442E+03  0.16530601442E+03  0.00000000000E+00 0. -1.
         -1   -1    0    0    0  501 -0.00000000000E+00 -0.00000000000E+00 -0.24302493593E+03  0.24302493593E+03  0.00000000000E+00 0.  1.
         23    2    1    2    0    0  0.14737347393E+03  0.72609638458E+02 -0.31644546045E+02  0.20890143974E+03  0.12508930337E+03 0.  0.
          5    1    3    3  502    0  0.85755165192E+02  0.31453511827E+02 -0.79021784771E+02  0.12085192027E+03  0.41800000000E+01 0. -1.
         -5    1    3    3    0  502  0.61618308739E+02  0.41156126631E+02  0.47377238726E+02  0.88049519479E+02  0.41800000000E+01 0. -1.
        -11    1    1    2    0    0  0.18029687110E+01 -0.18948215356E+02 -0.35820971721E+02  0.40563870333E+02  0.00000000000E+00 0.  1.
         11    1    1    2    0    0 -0.14917644264E+03 -0.53661423102E+02 -0.10253403743E+02  0.15886564027E+03  0.00000000000E+00 0. -1.
</event>
<event>
 7    1  0.4394360E-006  0.1306394E+03  0.7561462E-02  0.1226510E+00
          1   -1    0    0  501    0  0.00000000000E+00  0.00000000000E+00  0.35639773077E+02  0.35639773077E+02  0.00000000000E+00 0. -1.
         -1   -1    0    0    0  501 -0.00000000000E+00 -0.00000000000E+00 -0.69340126251E+03  0.69340126251E+03  0.00000000000E+00 0.  1.
         23    2    1    2    0    0  0.75454012519E+02  0.87252280724E+02 -0.38514354687E+03  0.42105856634E+03  0.12509394907E+03 0.  0.
          5    1    3    3  502    0  0.29967641161E+02  0.17986785246E+02 -0.96382331247E+01  0.36495916183E+02  0.41800000000E+01 0.  1.
         -5    1    3    3    0  502  0.45486371358E+02  0.69265495477E+02 -0.37550531374E+03  0.38456265015E+03  0.41800000000E+01 0.  1.
        -11    1    1    2    0    0 -0.43433894081E+02  0.66098521134E+01 -0.91041716279E+02  0.10108801810E+03  0.00000000000E+00 0.  1.
         11    1    1    2    0    0 -0.32020118438E+02 -0.93862132837E+02 -0.18157622629E+03  0.20689445115E+03  0.00000000000E+00 0. -1.
</event>
<event>
 7    1  0.4394360E-006  0.1409993E+03  0.7561462E-02  0.1211991E+00
         -1   -1    0    0    0  501 -0.00000000000E+00  0.00000000000E+00  0.38189676949E+02  0.38189676949E+02  0.00000000000E+00 0.  1.
          1   -1    0    0  501    0  0.00000000000E+00 -0.00000000000E+00 -0.58340980134E+03  0.58340980134E+03  0.00000000000E+00 0. -1.
         23    2    1    2    0    0 -0.25516772668E+02  0.90515910663E+02 -0.21206560630E+03  0.26356190837E+03  0.12509525330E+03 0.  0.
          5    1    3    3  502    0  0.47028706781E+02  0.17419848603E+02 -0.95609963659E+02  0.10804576779E+03  0.41800000000E+01 0.  1.
         -5    1    3    3    0  502 -0.72545479450E+02  0.73096062060E+02 -0.11645564264E+03  0.15551614058E+03  0.41800000000E+01 0.  1.
        -11    1    1    2    0    0 -0.84579404640E+01  0.15291899987E+02 -0.74475242978E+02  0.76497978919E+02  0.00000000000E+00 0.  1.
         11    1    1    2    0    0  0.33974713132E+02 -0.10580781065E+03 -0.25867927511E+03  0.28153959100E+03  0.00000000000E+00 0. -1.
</event>
<event>
 7    1  0.4394360E-006  0.1589275E+03  0.7561462E-02  0.1189913E+00
          1   -1    0    0  501    0  0.00000000000E+00  0.00000000000E+00  0.16061839622E+03  0.16061839622E+03  0.00000000000E+00 0. -1.
         -1   -1    0    0    0  501 -0.00000000000E+00 -0.00000000000E+00 -0.22724617458E+03  0.22724617458E+03  0.00000000000E+00 0.  1.
         23    2    1    2    0    0  0.11751214163E+03 -0.80143878230E+02 -0.10215031789E+03  0.21622294117E+03  0.12682873568E+03 0.  0.
          5    1    3    3  502    0  0.31985343936E+02  0.17205265566E+02 -0.75466210345E+02  0.83855260382E+02  0.41800000000E+01 0. -1.
         -5    1    3    3    0  502  0.85526797698E+02 -0.97349143796E+02 -0.26684107548E+02  0.13236768079E+03  0.41800000000E+01 0.  1.
        -11    1    1    2    0    0 -0.11562578973E+03  0.57882545722E+02  0.56394662072E+02  0.14106760883E+03  0.00000000000E+00 0. -1.
         11    1    1    2    0    0 -0.18863518985E+01  0.22261332508E+02 -0.20872122539E+02  0.30574020799E+02  0.00000000000E+00 0.  1.
</event>
<event>
 7    1  0.4394360E-006  0.2302166E+03  0.7561462E-02  0.1126487E+00
          1   -1    0    0  501    0  0.00000000000E+00  0.00000000000E+00  0.56634201056E+02  0.56634201056E+02  0.00000000000E+00 0. -1.
         -1   -1    0    0    0  501 -0.00000000000E+00 -0.00000000000E+00 -0.11284638241E+04  0.11284638241E+04  0.00000000000E+00 0.  1.
         23    2    1    2    0    0 -0.37436752727E+02 -0.20549317953E+03 -0.76062775116E+03  0.79864552587E+03  0.12510452773E+03 0.  0.
          5    1    3    3  502    0 -0.74426943412E+02 -0.15687072816E+03 -0.45670742725E+03  0.48861737767E+03  0.41800000000E+01 0. -1.
         -5    1    3    3    0  502  0.36990190684E+02 -0.48622451371E+02 -0.30392032392E+03  0.31002814819E+03  0.41800000000E+01 0. -1.
        -11    1    1    2    0    0  0.76797445426E+01 -0.73333002699E+01 -0.34537305074E+02  0.36132827330E+02  0.00000000000E+00 0.  1.
         11    1    1    2    0    0  0.29757008185E+02  0.21282647980E+03 -0.27666456684E+03  0.35031967200E+03  0.00000000000E+00 0. -1.
</event>
<event>
 6    1  0.4394360E-006  0.1520350E+03  0.7561462E-02  0.1197994E+00
         -2   -1    0    0    0  501 -0.00000000000E+00  0.00000000000E+00  0.22149223321E+03  0.22149223321E+03  0.00000000000E+00 0.  1.
          2   -1    0    0  501    0  0.00000000000E+00 -0.00000000000E+00 -0.29859495763E+03  0.29859495763E+03  0.00000000000E+00 0. -1.
          5    1    1    2  502    0 -0.13497687365E+02  0.26824874131E+02 -0.41658763537E+02  0.51523649092E+02  0.41800000000E+01 0. -1.
         -5    1    1    2    0  502 -0.89431129511E+02 -0.96592806004E+02  0.16779684516E+03  0.21331045624E+03  0.41800000000E+01 0.  1.
        -11    1    1    2    0    0  0.31538792372E+02  0.62855920582E+02 -0.50711467651E+02  0.86701874996E+02  0.00000000000E+00 0.  1.
         11    1    1    2    0    0  0.71390024504E+02  0.69120112910E+01 -0.15252933838E+03  0.16855121052E+03  0.00000000000E+00 0. -1.
</event>
<event>
 7    1  0.4394360E-006  0.9908187E+02  0.7561462E-02  0.1282239E+00
         -1   -1    0    0    0  501 -0.00000000000E+00  0.00000000000E+00  0.22893675962E+03  0.22893675962E+03  0.00000000000E+00 0.  1.
          1   -1    0    0  501    0  0.00000000000E+00 -0.00000000000E+00 -0.73932171327E+02  0.73932171327E+02  0.00000000000E+00 0. -1.
         23    2    1    2    0    0  0.46679994450E+01 -0.57951993559E+02  0.13910411571E+03  0.19590039677E+03  0.12508711633E+03 0.  0.
          5    1    3    3  502    0  0.40507220746E+02 -0.51188808611E+01  0.12336652080E+03  0.13001464813E+03  0.41800000000E+01 0. -1.
         -5    1    3    3    0  502 -0.35839221301E+02 -0.52833112698E+02  0.15737594915E+02  0.65885748645E+02  0.41800000000E+01 0. -1.
        -11    1    1    2    0    0  0.30435619753E+02  0.47681335346E+02 -0.15621103706E+02  0.58684372461E+02  0.00000000000E+00 0.  1.
         11    1    1    2    0    0 -0.35103619198E+02  0.10270658213E+02  0.31521576290E+02  0.48284161717E+02  0.00000000000E+00 0. -1.
</event>
<event>
 7    1  0.4394360E-006  0.1279056E+03  0.7561462E-02  0.1230597E+00
         -1   -1    0    0    0  501 -0.00000000000E+00  0.00000000000E+00  0.29113183227E+03  0.29113183227E+03  0.00000000000E+00 0.  1.
          1   -1    0    0  501    0  0.00000000000E+00 -0.00000000000E+00 -0.10189178932E+03  0.10189178932E+03  0.00000000000E+00 0. -1.
         23    2    1    2    0    0 -0.72252467061E+02  0.93301537141E+02  0.17023071193E+03  0.24197413827E+03  0.12508953785E+03 0.  0.
          5    1    3    3  502    0 -0.45014692436E+02  0.19057132378E+02  0.15334294421E+03  0.16100008623E+03  0.41800000000E+01 0. -1.
         -5    1    3    3    0  502 -0.27237774625E+02  0.74244404763E+02  0.16887767721E+02  0.80974052040E+02  0.41800000000E+01 0. -1.
        -11    1    1    2    0    0  0.74770781252E+02 -0.64796038855E+02 -0.21696532432E+02  0.10129134168E+03  0.00000000000E+00 0. -1.
         11    1    1    2    0    0 -0.25183141909E+01 -0.28505498286E+02  0.40705863462E+02  0.49758141636E+02  0.00000000000E+00 0.  1.
</event>
<event>
 7    1  0.4394360E-006  0.1736051E+03  0.7561462E-02  0.1174140E+00
          3   -1    0    0  501    0  0.00000000000E+00  0.00000000000E+00  0.39679892920E+03  0.39679892920E+03  0.00000000000E+00 0. -1.
         -3   -1    0    0    0  501 -0.00000000000E+00 -0.00000000000E+00 -0.10284298237E+03  0.10284298237E+03  0.00000000000E+00 0.  1.
         23    2    1    2    0    0  0.14302293752E+03 -0.45164974881E+02  0.54042461470E+02  0.20267757853E+03  0.12514862198E+03 0.  0.
          5    1    3    3  502    0 -0.18662105961E+02 -0.24407864746E+02  0.38356246330E+00  0.31010281852E+02  0.41800000000E+01 0. -1.
         -5    1    3    3    0  502  0.16168504348E+03 -0.20757110135E+02  0.53658899007E+02  0.17166729668E+03  0.41800000000E+01 0. -1.
        -11    1    1    2    0    0 -0.95578921257E+02  0.14569423241E+02  0.21404149358E+03  0.23486455513E+03  0.00000000000E+00 0. -1.
         11    1    1    2    0    0 -0.47444016261E+02  0.30595551640E+02  0.25871991786E+02  0.62099777923E+02  0.00000000000E+00 0.  1.
</event>
<event>
 7    1  0.4394360E-006  0.1410775E+03  0.7561462E-02  0.1211886E+00
         -1   -1    0    0    0  501 -0.00000000000E+00  0.00000000000E+00  0.39324310274E+03  0.39324310274E+03  0.00000000000E+00 0.  1.
          1   -1    0    0  501    0  0.00000000000E+00 -0.00000000000E+00 -0.72203398723E+02  0.72203398723E+02  0.00000000000E+00 0. -1.
         23    2    1    2    0    0 -0.11081132964E+03 -0.51662035742E+02  0.22428534612E+03  0.28442768171E+03  0.12508826053E+03 0.  0.
          5    1    3    3  502    0 -0.54453020983E+02  0.11350606886E+02  0.13655993707E+02  0.57427574691E+02  0.41800000000E+01 0.  1.
         -5    1    3    3    0  502 -0.56358308656E+02 -0.63012642627E+02  0.21062935242E+03  0.22700010701E+03  0.41800000000E+01 0.  1.
        -11    1    1    2    0    0  0.52099559940E+02  0.63191354097E+02  0.88563758410E+02  0.12062773596E+03  0.00000000000E+00 0.  1.
         11    1    1    2    0    0  0.58711769699E+02 -0.11529318355E+02  0.81905994855E+01  0.60391083802E+02  0.00000000000E+00 0. -1.
</event>
<event>
 7    1  0.4394360E-006  0.1844109E+03  0.7561462E-02  0.1163601E+00
          2   -1    0    0  501    0  0.00000000000E+00  0.00000000000E+00  0.24240721321E+03  0.24240721321E+03  0.00000000000E+00 0. -1.
         -2   -1    0    0    0  501 -0.00000000000E+00 -0.00000000000E+00 -0.17502846067E+03  0.17502846067E+03  0.00000000000E+00 0.  1.
         23    2    1    2    0    0 -0.10743088505E+03  0.13474567268E+03  0.52485792704E+01  0.21300582636E+03  0.12508454386E+03 0.  0.
          5    1    3    3  502    0 -0.69794956489E+02  0.69252742937E+02 -0.58144487157E+02  0.11430455871E+03  0.41800000000E+01 0. -1.
         -5    1    3    3    0  502 -0.37635928558E+02  0.65492929738E+02  0.63393066427E+02  0.98701267647E+02  0.41800000000E+01 0. -1.
        -11    1    1    2    0    0  0.10932673020E+03 -0.69634820724E+02  0.40981248062E+02  0.13594412414E+03  0.00000000000E+00 0.  1.
         11    1    1    2    0    0 -0.18958451561E+01 -0.65110851951E+02  0.21148925206E+02  0.68485723388E+02  0.00000000000E+00 0. -1.
</event>
<event>
 6    1  0.4394360E-006  0.1465597E+03  0.7561462E-02  0.1204765E+00
         -2   -1    0    0    0  501 -0.00000000000E+00  0.00000000000E+00  0.30367350410E+02  0.30367350410E+02  0.00000000000E+00 0.  1.
          2   -1    0    0  501    0  0.00000000000E+00 -0.00000000000E+00 -0.79837800553E+03  0.79837800553E+03  0.00000000000E+00 0. -1.
          5    1    1    2  502    0  0.89451205245E+02 -0.23761672853E+02 -0.26591307842E+03  0.28159078978E+03  0.41800000000E+01 0. -1.
         -5    1    1    2    0  502 -0.62229997569E+02 -0.51111235387E+02 -0.10553693969E+03  0.13281735211E+03  0.41800000000E+01 0.  1.
        -11    1    1    2    0    0 -0.24661359854E+02 -0.15693696348E+02 -0.86145198554E+02  0.90969610358E+02  0.00000000000E+00 0.  1.
         11    1    1    2    0    0 -0.25598478219E+01  0.90566604588E+02 -0.31041543846E+03  0.32336760369E+03  0.00000000000E+00 0. -1.
</event>
<event>
 7    1  0.4394360E-006  0.1670466E+03  0.7561462E-02  0.1180963E+00
         -2   -1    0    0    0  501 -0.00000000000E+00  0.00000000000E+00  0.98785006665E+02  0.98785006665E+02  0.00000000000E+00 0.  1.
          2   -1    0    0  501    0  0.00000000000E+00 -0.00000000000E+00 -0.35609792155E+03  0.35609792155E+03  0.00000000000E+00 0. -1.
         23    2    1    2    0    0 -0.50319359704E+02 -0.11959313254E+03 -0.34386923775E+02  0.18347819659E+03  0.12508889953E+03 0.  0.
          5    1    3    3  502    0 -0.46186129113E+02 -0.14566662959E+03 -0.23717755468E+02  0.15469948230E+03  0.41800000000E+01 0.  1.
         -5    1    3    3    0  502 -0.41332305913E+01  0.26073497054E+02 -0.10669168307E+02  0.28778714289E+02  0.41800000000E+01 0.  1.
        -11    1    1    2    0    0  0.69675066378E+02  0.11522400667E+03 -0.19972096120E+03  0.24087268199E+03  0.00000000000E+00 0.  1.
         11    1    1    2    0    0 -0.19355706674E+02  0.43691258748E+01 -0.23205029910E+02  0.30532049634E+02  0.00000000000E+00 0. -1.
</event>
<event>
 7    1  0.4394360E-006  0.1097387E+03  0.7561462E-02  0.1261054E+00
          2   -1    0    0  501    0  0.00000000000E+00  0.00000000000E+00  0.41687139797E+02  0.41687139797E+02  0.00000000000E+00 0. -1.
         -2   -1    0    0    0  501 -0.00000000000E+00 -0.00000000000E+00 -0.45602267511E+03  0.45602267511E+03  0.00000000000E+00 0.  1.
         23    2    1    2    0    0  0.73049827614E+02  0.42002571914E+02 -0.23603096227E+03  0.28010581659E+03  0.12509260561E+03 0.  0.
          5    1    3    3  502    0  0.25183066455E+02 -0.27356009224E+02 -0.98386879981E+01  0.38688632158E+02  0.41800000000E+01 0. -1.
         -5    1    3    3    0  502  0.47866761160E+02  0.69358581138E+02 -0.22619227427E+03  0.24141718443E+03  0.41800000000E+01 0. -1.
        -11    1    1    2    0    0 -0.11005576379E+02 -0.33252621754E+02 -0.13966388559E+03  0.14398909856E+03  0.00000000000E+00 0.  1.
         11    1    1    2    0    0 -0.62044251236E+02 -0.87499501604E+01 -0.38640687454E+02  0.73614899756E+02  0.00000000000E+00 0. -1.
</event>
<event>
 7    1  0.4394360E-006  0.2197087E+03  0.7561462E-02  0.1134100E+00
         -1   -1    0    0    0  501 -0.00000000000E+00  0.00000000000E+00  0.25190307961E+02  0.25190307961E+02  0.00000000000E+00 0.  1.
          1   -1    0    0  501    0  0.00000000000E+00 -0.00000000000E+00 -0.20848689373E+04  0.20848689373E+04  0.00000000000E+00 0. -1.
         23    2    1    2    0    0  0.19875419525E+03  0.22133917612E+02 -0.11739600971E+04  0.11974240371E+04  0.12509546230E+03 0.  0.
          5    1    3    3  502    0  0.13581759426E+03  0.59035983377E+02 -0.95913719146E+03  0.97051187045E+03  0.41800000000E+01 0.  1.
         -5    1    3    3    0  502  0.62936600990E+02 -0.36902065765E+02 -0.21482290564E+03  0.22691216668E+03  0.41800000000E+01 0.  1.
        -11    1    1    2    0    0 -0.17845446450E+03  0.11584844492E+02 -0.76663383275E+03  0.78721511548E+03  0.00000000000E+00 0. -1.
         11    1    1    2    0    0 -0.20299730759E+02 -0.33718762104E+02 -0.11908469944E+03  0.12542009260E+03  0.00000000000E+00 0.  1.
</event>
<event>
 7    1  0.4394360E-006  0.2108416E+03  0.7561462E-02  0.1140901E+00
          2   -1    0    0  501    0  0.00000000000E+00  0.00000000000E+00  0.11562057457E+04  0.11562057457E+04  0.00000000000E+00 0. -1.
         -2   -1    0    0    0  501 -0.00000000000E+00 -0.00000000000E+00 -0.41530328133E+02  0.41530328133E+02  0.00000000000E+00 0.  1.
         23    2    1    2    0    0 -0.17933406459E+03  0.64522956919E+02  0.49754564481E+03  0.54728619910E+03  0.12508635561E+03 0.  0.
          5    1    3    3  502    0 -0.58608973414E+02  0.83489724251E+02  0.17884734446E+03  0.20593540453E+03  0.41800000000E+01 0. -1.
         -5    1    3    3    0  502 -0.12072509118E+03 -0.18966767332E+02  0.31869830035E+03  0.34135079457E+03  0.41800000000E+01 0. -1.
        -11    1    1    2    0    0  0.11154644293E+03 -0.65810155687E+02  0.48428435431E+03  0.50130322296E+03  0.00000000000E+00 0. -1.
         11    1    1    2    0    0  0.67787621665E+02  0.12871987683E+01  0.13284541840E+03  0.14914665173E+03  0.00000000000E+00 0.  1.
</event>
<event>
 7    1  0.4394360E-006  0.1428901E+03  0.7561462E-02  0.1209492E+00
         -1   -1    0    0    0  501 -0.00000000000E+00  0.00000000000E+00  0.26707207740E+03  0.26707207740E+03  0.00000000000E+00 0.  1.
          1   -1    0    0  501    0  0.00000000000E+00 -0.00000000000E+00 -0.98987841781E+02  0.98987841781E+02  0.00000000000E+00 0. -1.
         23    2    1    2    0    0 -0.30449472518E+02  0.10793371735E+03  0.13729316010E+03  0.21696305994E+03  0.12508676928E+03 0.  0.
          5    1    3    3  502    0 -0.21558768539E+02 -0.10904111861E+02 -0.10832539928E+02  0.26804784604E+02  0.41800000000E+01 0.  1.
         -5    1    3    3    0  502 -0.88907039795E+01  0.11883782921E+03  0.14812570003E+03  0.19015827533E+03  0.41800000000E+01 0.  1.
        -11    1    1    2    0    0  0.40206426028E+02 -0.72397057227E+01  0.24718659957E+02  0.47749158976E+02  0.00000000000E+00 0.  1.
         11    1    1    2    0    0 -0.97569535098E+01 -0.10069401162E+03  0.60724155595E+01  0.10134770027E+03  0.00000000000E+00 0. -1.
</event>
<event>
 7    1  0.4394360E-006  0.7678193E+02  0.7561462E-02  0.1338440E+00
          2   -1    0    0  501    0  0.00000000000E+00  0.00000000000E+00  0.26823282226E+02  0.26823282226E+02  0.00000000000E+00 0. -1.
         -2   -1    0    0    0  501 -0.00000000000E+00 -0.00000000000E+00 -0.54775810590E+03  0.54775810590E+03  0.00000000000E+00 0.  1.
         23    2    1    2    0    0 -0.21698350408E+02 -0.42122548440E+02 -0.36535192344E+03  0.38906861673E+03  0.12508890065E+03 0.  0.
          5    1    3    3  502    0 -0.40721906595E+02 -0.13383697056E+02 -0.34725916576E+03  0.34991970169E+03  0.41800000000E+01 0.  1.
         -5    1    3    3    0  502  0.19023556186E+02 -0.28738851384E+02 -0.18092757681E+02  0.39148915047E+02  0.41800000000E+01 0.  1.
        -11    1    1    2    0    0  0.35047520134E+02  0.38664720045E+01 -0.13484681562E+02  0.37750694168E+02  0.00000000000E+00 0. -1.
         11    1    1    2    0    0 -0.13349169726E+02  0.38256076435E+02 -0.14209821867E+03  0.14776207722E+03  0.00000000000E+00 0.  1.
</event>
<event>
 7    1  0.4394360E-006  0.6146255E+02  0.7561462E-02  0.1391795E+00
         -3   -1    0    0    0  501 -0.00000000000E+00  0.00000000000E+00  0.48575959961E+02  0.48575959961E+02  0.00000000000E+00 0.  1.
          3   -1    0    0  501    0  0.00000000000E+00 -0.00000000000E+00 -0.26385355553E+03  0.26385355553E+03  0.00000000000E+00 0. -1.
         23    2    1    2    0    0 -0.21007868611E+02 -0.18982021662E+02 -0.97891570402E+02  0.16134438017E+03  0.12509037439E+03 0.  0.
          5    1    3    3  502    0 -0.41989141122E+02 -0.11368048865E+02  0.14990627193E+02  0.46200777166E+02  0.41800000000E+01 0.  1.
         -5    1    3    3    0  502  0.20981272511E+02 -0.76139727973E+01 -0.11288219759E+03  0.11514360300E+03  0.41800000000E+01 0.  1.
        -11    1    1    2    0    0  0.17716774153E+02 -0.14486757212E+02  0.56192660380E+01  0.23565363814E+02  0.00000000000E+00 0.  1.
         11    1    1    2    0    0  0.32910944579E+01  0.33468778874E+02 -0.12300529121E+03  0.12751977151E+03  0.00000000000E+00 0. -1.
</event>
<event>
 6    1  0.4394360E-006  0.1577620E+03  0.7561462E-02  0.1191247E+00
         -2   -1    0    0    0  501 -0.00000000000E+00  0.00000000000E+00  0.63793384141E+02  0.63793384141E+02  0.00000000000E+00 0.  1.
          2   -1    0    0  501    0  0.00000000000E+00 -0.00000000000E+00 -0.39761881019E+03  0.39761881019E+03  0.00000000000E+00 0. -1.
          5    1    1    2  502    0 -0.76185362504E+02 -0.71631755300E+02 -0.99354564237E+02  0.14430564667E+03  0.41800000000E+01 0. -1.
         -5    1    1    2    0  502  0.10157179268E+03  0.59409451014E+02 -0.11739446120E+03  0.16626858951E+03  0.41800000000E+01 0.  1.
        -11    1    1    2    0    0 -0.40784633362E+02  0.42656170371E+02 -0.88333526133E+02  0.10623439663E+03  0.00000000000E+00 0. -1.
         11    1    1    2    0    0  0.15398203185E+02 -0.30433866084E+02 -0.28742874483E+02  0.44603561513E+02  0.00000000000E+00 0.  1.
</event>
<event>
 7    1  0.4394360E-006  0.8667041E+02  0.7561462E-02  0.1311121E+00
          1   -1    0    0  501    0  0.00000000000E+00  0.00000000000E+00  0.25322294966E+03  0.25322294966E+03  0.00000000000E+00 0. -1.
         -1   -1    0    0    0  501 -0.00000000000E+00 -0.00000000000E+00 -0.62372802620E+02  0.62372802620E+02  0.00000000000E+00 0.  1.
         23    2    1    2    0    0 -0.19909202095E+02 -0.57807708620E+02  0.88392350149E+02  0.16491924748E+03  0.12508814141E+03 0.  0.
          5    1    3    3  502    0 -0.69174004058E+01 -0.38019759057E+02  0.11946771234E+03  0.12563183991E+03  0.41800000000E+01 0.  1.
         -5    1    3    3    0  502 -0.12991801689E+02 -0.19787949563E+02 -0.31075362189E+02  0.39287407578E+02  0.41800000000E+01 0.  1.
        -11    1    1    2    0    0  0.56201764478E+02  0.25004190528E+02  0.59233489097E+02  0.85395867025E+02  0.00000000000E+00 0.  1.
         11    1    1    2    0    0 -0.36292562383E+02  0.32803518092E+02  0.43224307798E+02  0.65280637774E+02  0.00000000000E+00 0. -1.
</event>
<event>
 7    1  0.4394360E-006  0.1685375E+03  0.7561462E-02  0.1179382E+00
         -1   -1    0    0    0  501 -0.00000000000E+00  0.00000000000E+00  0.81965636647E+02  0.81965636647E+02  0.00000000000E+00 0.  1.
          1   -1    0    0  501    0  0.00000000000E+00 -0.00000000000E+00 -0.39382366682E+03  0.39382366682E+03  0.00000000000E+00 0. -1.
         23    2    1    2    0    0  0.13348943051E+03 -0.83236733293E+01 -0.98120078966E+02  0.20776034036E+03  0.12509235601E+03 0.  0.
          5    1    3    3  502    0  0.27040594076E+02 -0.54434796784E+02 -0.60179524903E+02  0.85635205649E+02  0.41800000000E+01 0.  1.
         -5    1    3    3    0  502  0.10644883644E+03  0.46111123455E+02 -0.37940554063E+02  0.12212513471E+03  0.41800000000E+01 0.  1.
        -11    1    1    2    0    0 -0.23080635716E+02  0.39140946818E+02 -0.78921335627E+02  0.91067594017E+02  0.00000000000E+00 0. -1.
         11    1    1    2    0    0 -0.11040879480E+03 -0.30817273489E+02 -0.13481661558E+03  0.17696136909E+03  0.00000000000E+00 0.  1.
</event>
<event>
 7    1  0.4394360E-006  0.9272687E+02  0.7561462E-02  0.1296379E+00
         -2   -1    0    0    0  501 -0.00000000000E+00  0.00000000000E+00  0.25139488080E+03  0.25139488080E+03  0.00000000000E+00 0. -1.
          2   -1    0    0  501    0  0.00000000000E+00 -0.00000000000E+00 -0.54512958440E+02  0.54512958440E+02  0.00000000000E+00 0.  1.
         23    2    1    2    0    0  0.39016004557E+02 -0.15885059242E+02  0.12857222481E+03  0.18425880375E+03  0.12508359624E+03 0.  0.
          5    1    3    3  502    0 -0.20758475579E+02  0.31156624335E+02  0.35272107076E+01  0.37836003538E+02  0.41800000000E+01 0. -1.
         -5    1    3    3    0  502  0.59774480136E+02 -0.47041683578E+02  0.12504501411E+03  0.14642280021E+03  0.41800000000E+01 0. -1.
        -11    1    1    2    0    0 -0.16972948502E+02  0.37231398179E+02 -0.59044284569E+01  0.41341507793E+02  0.00000000000E+00 0.  1.
         11    1    1    2    0    0 -0.22043056054E+02 -0.21346338936E+02  0.74214126007E+02  0.80307527699E+02  0.00000000000E+00 0. -1.
</event>
<event>
 7    1  0.4394360E-006  0.1161249E+03  0.7561462E-02  0.1249630E+00
          3   -1    0    0  501    0  0.00000000000E+00  0.00000000000E+00  0.18542818851E+03  0.18542818851E+03  0.00000000000E+00 0. -1.
         -3   -1    0    0    0  501 -0.00000000000E+00 -0.00000000000E+00 -0.12599277154E+03  0.12599277154E+03  0.00000000000E+00 0.  1.
         23    2    1    2    0    0  0.72014311099E+02 -0.82762657718E+02  0.21370258844E+02  0.16774992419E+03  0.12509048960E+03 0.  0.
          5    1    3    3  502    0  0.97215872685E-01  0.55278492702E+01 -0.38437616783E+02  0.39057513393E+02  0.41800000000E+01 0.  1.
         -5    1    3    3    0  502  0.71917095226E+02 -0.88290506988E+02  0.59807875627E+02  0.12869241080E+03  0.41800000000E+01 0.  1.
        -11    1    1    2    0    0 -0.41265184185E+02  0.32850424182E+02  0.61071082344E+02  0.80694751338E+02  0.00000000000E+00 0. -1.
         11    1    1    2    0    0 -0.30749126913E+02  0.49912233536E+02 -0.23005924215E+02  0.62976284516E+02  0.00000000000E+00 0.  1.
</event>
<event>
 7    1  0.4394360E-006  0.1276727E+03  0.7561462E-02  0.1230950E+00
          2   -1    0    0  501    0  0.00000000000E+00  0.00000000000E+00  0.95460550824E+03  0.95460550824E+03  0.00000000000E+00 0. -1.
         -2   -1    0    0    0  501 -0.00000000000E+00 -0.00000000000E+00 -0.19090989261E+02  0.19090989261E+02  0.00000000000E+00 0.  1.
         23    2    1    2    0    0 -0.37585800091E+02  0.69647138789E+02  0.48679732007E+03  0.50880518317E+03  0.12509063629E+03 0.  0.
          5    1    3    3  502    0 -0.40586061455E+02  0.98557537410E+02  0.27467892183E+03  0.29466387471E+03  0.41800000000E+01 0.  1.
         -5    1    3    3    0  502  0.30002613637E+01 -0.28910398621E+02  0.21211839824E+03  0.21414130846E+03  0.41800000000E+01 0.  1.
        -11    1    1    2    0    0 -0.28707306372E+02 -0.10812653096E+02  0.15847756795E+03  0.16141921339E+03  0.00000000000E+00 0.  1.
         11    1    1    2    0    0  0.66293106464E+02 -0.58834485693E+02  0.29023963095E+03  0.30347210093E+03  0.00000000000E+00 0. -1.
</event>
<event>
 7    1  0.4394360E-006  0.1102352E+03  0.7561462E-02  0.1260135E+00
         -1   -1    0    0    0  501 -0.00000000000E+00  0.00000000000E+00  0.84877500766E+02  0.84877500766E+02  0.00000000000E+00 0.  1.
          1   -1    0    0  501    0  0.00000000000E+00 -0.00000000000E+00 -0.18620725718E+03  0.18620725718E+03  0.00000000000E+00 0. -1.
         23    2    1    2    0    0  0.13470214565E+02  0.19030421301E+02  0.67384885891E+01  0.12742342129E+03  0.12509083679E+03 0.  0.
          5    1    3    3  502    0  0.12591189227E+02  0.71933783458E+02 -0.40638256208E+01  0.73259772914E+02  0.41800000000E+01 0. -1.
         -5    1    3    3    0  502  0.87902533769E+00 -0.52903362157E+02  0.10802314210E+02  0.54163648375E+02  0.41800000000E+01 0. -1.
        -11    1    1    2    0    0  0.35841094619E+02  0.97611442520E+01 -0.49209128327E+02  0.61655513227E+02  0.00000000000E+00 0.  1.
         11    1    1    2    0    0 -0.49311309183E+02 -0.28791565553E+02 -0.58859116676E+02  0.82005823429E+02  0.00000000000E+00 0. -1.
</event>
<event>
 7    1  0.4394360E-006  0.1422126E+03  0.7561462E-02  0.1210382E+00
          2   -1    0    0  501    0  0.00000000000E+00  0.00000000000E+00  0.19907625001E+03  0.19907625001E+03  0.00000000000E+00 0. -1.
         -2   -1    0    0    0  501 -0.00000000000E+00 -0.00000000000E+00 -0.16470308660E+03  0.16470308660E+03  0.00000000000E+00 0.  1.
         23    2    1    2    0    0 -0.11167587611E+03  0.23389489087E+02 -0.70738946349E+02  0.18349493975E+03  0.12509126620E+03 0.  0.
          5    1    3    3  502    0  0.14875499231E+02  0.37583979081E+02 -0.77768706633E+01  0.41373760746E+02  0.41800000000E+01 0. -1.
         -5    1    3    3    0  502 -0.12655137534E+03 -0.14194489995E+02 -0.62962075686E+02  0.14212117901E+03  0.41800000000E+01 0. -1.
        -11    1    1    2    0    0  0.10780646103E+02 -0.97996159067E+01 -0.16283798731E+02  0.21849871932E+02  0.00000000000E+00 0.  1.
         11    1    1    2    0    0  0.10089523001E+03 -0.13589873180E+02  0.12139590849E+03  0.15843452493E+03  0.00000000000E+00 0. -1.
</event>
<event>
 7    1  0.4394360E-006  0.8058877E+02  0.7561462E-02  0.1327389E+00
          1   -1    0    0  501    0  0.00000000000E+00  0.00000000000E+00  0.69889921093E+02  0.69889921093E+02  0.00000000000E+00 0. -1.
         -1   -1    0    0    0  501 -0.00000000000E+00 -0.00000000000E+00 -0.21060826303E+03  0.21060826303E+03  0.00000000000E+00 0.  1.
         23    2    1    2    0    0  0.35327845969E+01  0.48032830483E+02 -0.11068233518E+03  0.17383205952E+03  0.12508945689E+03 0.  0.
          5    1    3    3  502    0  0.22396999694E+02 -0.35641089746E+01  0.20936330280E+02  0.31146922700E+02  0.41800000000E+01 0.  1.
         -5    1    3    3    0  502 -0.18864215097E+02  0.51596939457E+02 -0.13161866546E+03  0.14268513683E+03  0.41800000000E+01 0.  1.
        -11    1    1    2    0    0 -0.54210916587E+01 -0.65363259574E+02 -0.48272977009E+02  0.81437241150E+02  0.00000000000E+00 0.  1.
         11    1    1    2    0    0  0.18883070617E+01  0.17330429091E+02  0.18236970254E+02  0.25228883449E+02  0.00000000000E+00 0. -1.
</event>
<event>
 7    1  0.4394360E-006  0.1925555E+03  0.7561462E-02  0.1156176E+00
          2   -1    0    0  501    0  0.00000000000E+00  0.00000000000E+00  0.62954209754E+03  0.62954209754E+03  0.00000000000E+00 0.  1.
         -2   -1    0    0    0  501 -0.00000000000E+00 -0.00000000000E+00 -0.62020418719E+02  0.62020418719E+02  0.00000000000E+00 0. -1.
         23    2    1    2    0    0 -0.11121449945E+03 -0.11815852716E+03  0.35412392813E+03  0.40912093853E+03  0.12508430535E+03 0.  0.
          5    1    3    3  502    0 -0.69636032323E+02  0.60682364299E+01  0.87902322569E+02  0.11238456835E+03  0.41800000000E+01 0.  1.
         -5    1    3    3    0  502 -0.41578467129E+02 -0.12422676359E+03  0.26622160556E+03  0.29673637018E+03  0.41800000000E+01 0.  1.
        -11    1    1    2    0    0  0.11590648117E+03  0.69523553575E+02  0.14317991360E+03  0.19689673572E+03  0.00000000000E+00 0. -1.
         11    1    1    2    0    0 -0.46919817232E+01  0.48634973580E+02  0.70217837094E+02  0.85544842005E+02  0.00000000000E+00 0.  1.
</event>
<event>
 7    1  0.8534067E-006  0.1311167E+03  0.7561462E-02  0.1225808E+00
         -1   -1    0    0    0  501 -0.00000000000E+00  0.00000000000E+00  0.30532810889E+02  0.30532810889E+02  0.00000000000E+00 0.  1.
          1   -1    0    0  501    0  0.00000000000E+00 -0.00000000000E+00 -0.69472011388E+03  0.69472011388E+03  0.00000000000E+00 0. -1.
         23    2    1    2    0    0 -0.59195532039E+02 -0.65212051123E+02 -0.25992892136E+03  0.30160762469E+03  0.12508953789E+03 0.  0.
          5    1    3    3  502    0  0.68180237301E+01 -0.82893615716E+02 -0.12339354886E+03  0.14886664258E+03  0.41800000000E+01 0.  1.
         -5    1    3    3    0  502 -0.66013555769E+02  0.17681564593E+02 -0.13653537250E+03  0.15274098211E+03  0.41800000000E+01 0.  1.
        -11    1    1    2    0    0  0.12545346254E+02  0.62512062348E+02 -0.12311468061E+03  0.13864475552E+03  0.00000000000E+00 0.  1.
         11    1    1    2    0    0  0.46650185785E+02  0.26999887749E+01 -0.28114370103E+03  0.28500054456E+03  0.00000000000E+00 0. -1.
</event>
<event>
 7    1  0.4394360E-006  0.7560950E+02  0.7561462E-02  0.1341994E+00
          2   -1    0    0  501    0  0.00000000000E+00  0.00000000000E+00  0.11981403719E+03  0.11981403719E+03  0.00000000000E+00 0. -1.
         -2   -1    0    0    0  501 -0.00000000000E+00 -0.00000000000E+00 -0.13499559541E+03  0.13499559541E+03  0.00000000000E+00 0.  1.
         23    2    1    2    0    0 -0.20531299470E+02  0.17991131393E+02 -0.74269419190E+02  0.14801266737E+03  0.12508632223E+03 0.  0.
          5    1    3    3  502    0 -0.38619195500E+02 -0.81599883787E+01  0.22805292624E+02  0.45777521155E+02  0.41800000000E+01 0. -1.
         -5    1    3    3    0  502  0.18087896030E+02  0.26151119772E+02 -0.97074711814E+02  0.10223514622E+03  0.41800000000E+01 0. -1.
        -11    1    1    2    0    0  0.48369213872E+02 -0.46680435896E+01  0.58338565441E+02  0.75926014641E+02  0.00000000000E+00 0. -1.
         11    1    1    2    0    0 -0.27837914402E+02 -0.13323087803E+02  0.74929552805E+00  0.30870950596E+02  0.00000000000E+00 0.  1.
</event>
<event>
 7    1  0.4394360E-006  0.1831167E+03  0.7561462E-02  0.1164820E+00
         -4   -1    0    0    0  501 -0.00000000000E+00  0.00000000000E+00  0.19502673216E+03  0.19502673216E+03  0.00000000000E+00 0.  1.
          4   -1    0    0  501    0  0.00000000000E+00 -0.00000000000E+00 -0.22481041708E+03  0.22481041708E+03  0.00000000000E+00 0. -1.
         23    2    1    2    0    0 -0.32018026937E+02 -0.15870713932E+03  0.59821497277E+02  0.21316052928E+03  0.12508273096E+03 0.  0.
          5    1    3    3  502    0 -0.57017116127E+02 -0.16761613729E+03  0.57480822322E+02  0.18619247661E+03  0.41800000000E+01 0. -1.
         -5    1    3    3    0  502  0.24999089190E+02  0.89089979714E+01  0.23406749553E+01  0.26968052663E+02  0.41800000000E+01 0. -1.
        -11    1    1    2    0    0  0.13116334069E+02  0.92203855745E+02  0.46221141438E+00  0.93133253315E+02  0.00000000000E+00 0.  1.
         11    1    1    2    0    0  0.18901692868E+02  0.66503283578E+02 -0.90067393608E+02  0.11354336665E+03  0.00000000000E+00 0. -1.
</event>
<event>
 7    1  0.4394360E-006  0.1070212E+03  0.7561462E-02  0.1266188E+00
         -2   -1    0    0    0  501 -0.00000000000E+00  0.00000000000E+00  0.26803757169E+03  0.26803757169E+03  0.00000000000E+00 0.  1.
          2   -1    0    0  501    0  0.00000000000E+00 -0.00000000000E+00 -0.50352708605E+02  0.50352708605E+02  0.00000000000E+00 0. -1.
         23    2    1    2    0    0  0.39941335496E+02 -0.15722918145E+02  0.14811979433E+03  0.19856929292E+03  0.12509104758E+03 0.  0.
          5    1    3    3  502    0  0.52517603372E+02  0.45378312187E+02  0.83381865102E+02  0.10856932213E+03  0.41800000000E+01 0.  1.
         -5    1    3    3    0  502 -0.12576267876E+02 -0.61101230332E+02  0.64737929224E+02  0.89999970789E+02  0.41800000000E+01 0.  1.
        -11    1    1    2    0    0 -0.14379794739E+01  0.37650958657E+02  0.65190563909E+02  0.75295896937E+02  0.00000000000E+00 0.  1.
         11    1    1    2    0    0 -0.38503356022E+02 -0.21928040512E+02  0.43745048528E+01  0.44525090436E+02  0.00000000000E+00 0. -1.
</event>
<event>
 6    1  0.4394360E-006  0.1055157E+03  0.7561462E-02  0.1269107E+00
         -2   -1    0    0    0  501 -0.00000000000E+00  0.00000000000E+00  0.64208922903E+02  0.64208922903E+02  0.00000000000E+00 0.  1.
          2   -1    0    0  501    0  0.00000000000E+00 -0.00000000000E+00 -0.32897537884E+03  0.32897537884E+03  0.00000000000E+00 0. -1.
          5    1    1    2  502    0 -0.50584257132E+02 -0.20839724702E+02 -0.14521120664E+03  0.15523153071E+03  0.41800000000E+01 0. -1.
         -5    1    1    2    0  502 -0.13567617157E+02  0.37361329154E+02  0.28816532229E+02  0.49272853390E+02  0.41800000000E+01 0.  1.
        -11    1    1    2    0    0  0.85738724088E+02 -0.29895556776E+02 -0.12184709993E+03  0.15195916848E+03  0.00000000000E+00 0.  1.
         11    1    1    2    0    0 -0.21586849799E+02  0.13373952324E+02 -0.26524681601E+02  0.36720749162E+02  0.00000000000E+00 0. -1.
</event>
<event>
 7    1  0.4394360E-006  0.1343435E+03  0.7561462E-02  0.1221149E+00
         -2   -1    0    0    0  501 -0.00000000000E+00  0.00000000000E+00  0.37518802149E+02  0.37518802149E+02  0.00000000000E+00 0. -1.
          2   -1    0    0  501    0  0.00000000000E+00 -0.00000000000E+00 -0.53939207862E+03  0.53939207862E+03  0.00000000000E+00 0.  1.
         23    2    1    2    0    0  0.70798287206E+02  0.56996673529E+02 -0.30476987164E+03  0.34174975832E+03  0.12508878601E+03 0.  0.
          5    1    3    3  502    0  0.39629980925E+02 -0.29205968254E+02 -0.18133218554E+03  0.18794243237E+03  0.41800000000E+01 0.  1.
         -5    1    3    3    0  502  0.31168306281E+02  0.86202641783E+02 -0.12343768610E+03  0.15380732595E+03  0.41800000000E+01 0.  1.
        -11    1    1    2    0    0 -0.14832525469E+02 -0.68752063068E+02 -0.12114567555E+03  0.14008256384E+03  0.00000000000E+00 0. -1.
         11    1    1    2    0    0 -0.55965761737E+02  0.11755389539E+02 -0.75957729275E+02  0.95078558606E+02  0.00000000000E+00 0.  1.
</event>
<event>
 7    1  0.4905567E-006  0.1323641E+03  0.7561462E-02  0.1223989E+00
         -1   -1    0    0    0  501 -0.00000000000E+00  0.00000000000E+00  0.34161147194E+03  0.34161147194E+03  0.00000000000E+00 0.  1.
          1   -1    0    0  501    0  0.00000000000E+00 -0.00000000000E+00 -0.63984844440E+02  0.63984844440E+02  0.00000000000E+00 0. -1.
         23    2    1    2    0    0 -0.81877413631E+02 -0.37081460447E+02  0.21179783115E+03  0.26188738617E+03  0.12509091167E+03 0.  0.
          5    1    3    3  502    0 -0.10776604395E+03  0.56005572134E+00  0.15602683133E+03  0.18967255570E+03  0.41800000000E+01 0. -1.
         -5    1    3    3    0  502  0.25888630316E+02 -0.37641516168E+02  0.55770999814E+02  0.72214830467E+02  0.41800000000E+01 0. -1.
        -11    1    1    2    0    0  0.20823850649E+02  0.44859347226E+02  0.65608875929E+02  0.82161538387E+02  0.00000000000E+00 0.  1.
         11    1    1    2    0    0  0.61053562982E+02 -0.77778867794E+01  0.21992042357E+00  0.61547391825E+02  0.00000000000E+00 0. -1.
</event>
<event>
 7    1  0.4394360E-006  0.1017228E+03  0.7561462E-02  0.1276714E+00
          2   -1    0    0  501    0  0.00000000000E+00  0.00000000000E+00  0.21443555493E+03  0.21443555493E+03  0.00000000000E+00 0. -1.
         -2   -1    0    0    0  501 -0.00000000000E+00 -0.00000000000E+00 -0.59563947229E+02  0.59563947229E+02  0.00000000000E+00 0.  1.
         23    2    1    2    0    0  0.28593646078E+02  0.43332056623E+01  0.70917163770E+02  0.14667131492E+03  0.12508739839E+03 0.  0.
          5    1    3    3  502    0  0.67987005535E+02 -0.46268791577E+01  0.39955461982E+01  0.68389163774E+02  0.41800000000E+01 0.  1.
         -5    1    3    3    0  502 -0.39393359457E+02  0.89600848200E+01  0.66921617572E+02  0.78282151144E+02  0.41800000000E+01 0.  1.
        -11    1    1    2    0    0 -0.46798827234E+02 -0.35311653170E+02  0.61452639570E+02  0.84932149332E+02  0.00000000000E+00 0. -1.
         11    1    1    2    0    0  0.18205181156E+02  0.30978447508E+02  0.22501804360E+02  0.42396037909E+02  0.00000000000E+00 0.  1.
</event>
<event>
 7    1  0.4394360E-006  0.7734671E+02  0.7561462E-02  0.1336754E+00
          1   -1    0    0  501    0  0.00000000000E+00  0.00000000000E+00  0.36936583018E+03  0.36936583018E+03  0.00000000000E+00 0. -1.
         -1   -1    0    0    0  501 -0.00000000000E+00 -0.00000000000E+00 -0.38577499598E+02  0.38577499598E+02  0.00000000000E+00 0.  1.
         23    2    1    2    0    0  0.17329050618E+02  0.42223596784E+02  0.21815437546E+03  0.25558026276E+03  0.12508721381E+03 0.  0.
          5    1    3    3  502    0  0.18335098478E+02 -0.15604161349E+02 -0.50616960199E+01  0.24955136831E+02  0.41800000000E+01 0.  1.
         -5    1    3    3    0  502 -0.10060478600E+01  0.57827758134E+02  0.22321607148E+03  0.23062512593E+03  0.41800000000E+01 0.  1.
        -11    1    1    2    0    0  0.10119092714E+02 -0.43627468115E+02  0.11630977291E+03  0.12463432627E+03  0.00000000000E+00 0. -1.
         11    1    1    2    0    0 -0.27448143332E+02  0.14038713301E+01 -0.36758177829E+01  0.27728740748E+02  0.00000000000E+00 0.  1.
</event>
<event>
 7    1  0.4394360E-006  0.1573410E+03  0.7561462E-02  0.1191732E+00
          1   -1    0    0  501    0  0.00000000000E+00  0.00000000000E+00  0.28711354204E+03  0.28711354204E+03  0.00000000000E+00 0. -1.
         -1   -1    0    0    0  501 -0.00000000000E+00 -0.00000000000E+00 -0.13048040440E+03  0.13048040440E+03  0.00000000000E+00 0.  1.
         23    2    1    2    0    0 -0.96419760980E+02 -0.10248582812E+03 -0.20735070528E+01  0.18831772354E+03  0.12513652663E+03 0.  0.
          5    1    3    3  502    0 -0.10387229545E+03 -0.11468528192E+03  0.25598989616E+02  0.15689151768E+03  0.41800000000E+01 0.  1.
         -5    1    3    3    0  502  0.74525344671E+01  0.12199453802E+02 -0.27672496668E+02  0.31426205863E+02  0.41800000000E+01 0.  1.
        -11    1    1    2    0    0  0.49192482562E+02  0.27437308301E+02  0.11992549880E+03  0.13249464702E+03  0.00000000000E+00 0. -1.
         11    1    1    2    0    0  0.47227278419E+02  0.75048519816E+02  0.38781145895E+02  0.96781575883E+02  0.00000000000E+00 0.  1.
</event>
<event>
 7    1  0.4394360E-006  0.1573147E+03  0.7561462E-02  0.1191762E+00
         -2   -1    0    0    0  501 -0.00000000000E+00  0.00000000000E+00  0.70303426242E+03  0.70303426242E+03  0.00000000000E+00 0.  1.
          2   -1    0    0  501    0  0.00000000000E+00 -0.00000000000E+00 -0.57992833594E+02  0.57992833594E+02  0.00000000000E+00 0. -1.
         23    2    1    2    0    0  0.94813908645E+02 -0.10685242871E+03  0.50988224062E+03  0.54408666572E+03  0.12507310551E+03 0.  0.
          5    1    3    3  502    0  0.93464237206E+02 -0.98020725277E+02  0.25288785793E+03  0.28690306256E+03  0.41800000000E+01 0.  1.
         -5    1    3    3    0  502  0.13496714390E+01 -0.88317034328E+01  0.25699438269E+03  0.25718360316E+03  0.41800000000E+01 0.  1.
        -11    1    1    2    0    0 -0.20123518876E+02  0.90621509523E+02  0.81762457663E+02  0.12370252012E+03  0.00000000000E+00 0. -1.
         11    1    1    2    0    0 -0.74690389769E+02  0.16230919187E+02  0.53396730546E+02  0.93237910178E+02  0.00000000000E+00 0.  1.
</event>
<event>
 7    1  0.4394360E-006  0.2559291E+03  0.7561462E-02  0.1109614E+00
         -2   -1    0    0    0  501 -0.00000000000E+00  0.00000000000E+00  0.57180765248E+02  0.57180765248E+02  0.00000000000E+00 0. -1.
          2   -1    0    0  501    0  0.00000000000E+00 -0.00000000000E+00 -0.15822367205E+04  0.15822367205E+04  0.00000000000E+00 0.  1.
         23    2    1    2    0    0 -0.19882057789E+03  0.13819861037E+03 -0.39811280328E+03  0.48246195996E+03  0.12508901059E+03 0.  0.
          5    1    3    3  502    0 -0.19096682790E+03  0.74095131113E+02 -0.27003159145E+03  0.33895862667E+03  0.41800000000E+01 0. -1.
         -5    1    3    3    0  502 -0.78537499955E+01  0.64103479252E+02 -0.12808121183E+03  0.14350333329E+03  0.41800000000E+01 0. -1.
        -11    1    1    2    0    0  0.14811640443E+03 -0.10706245699E+03 -0.10024563065E+04  0.10189796295E+04  0.00000000000E+00 0.  1.
         11    1    1    2    0    0  0.50704173457E+02 -0.31136153372E+02 -0.12448684546E+03  0.13797589624E+03  0.00000000000E+00 0. -1.
</event>
<event>
 7    1  0.4394360E-006  0.1388593E+03  0.7561462E-02  0.1214872E+00
         -1   -1    0    0    0  501 -0.00000000000E+00  0.00000000000E+00  0.10512994990E+03  0.10512994990E+03  0.00000000000E+00 0.  1.
          1   -1    0    0  501    0  0.00000000000E+00 -0.00000000000E+00 -0.21348291318E+03  0.21348291318E+03  0.00000000000E+00 0. -1.
         23    2    1    2    0    0  0.42873182115E+02  0.95758207691E+02 -0.58872164277E+02  0.17492949965E+03  0.12699076358E+03 0.  0.
          5    1    3    3  502    0  0.22204812718E+02 -0.18591045649E+02  0.19088208152E+02  0.34935837998E+02  0.41800000000E+01 0. -1.
         -5    1    3    3    0  502  0.20668369397E+02  0.11434925334E+03 -0.77960372429E+02  0.13999366165E+03  0.41800000000E+01 0.  1.
        -11    1    1    2    0    0 -0.47199606032E+02 -0.12521565860E+02 -0.46777258599E+01  0.49055820658E+02  0.00000000000E+00 0.  1.
         11    1    1    2    0    0  0.43264239175E+01 -0.83236641831E+02 -0.44803073143E+02  0.94627542768E+02  0.00000000000E+00 0. -1.
</event>
<event>
 7    1  0.4394360E-006  0.1100445E+03  0.7561462E-02  0.1260488E+00
         -2   -1    0    0    0  501 -0.00000000000E+00  0.00000000000E+00  0.68756116086E+02  0.68756116086E+02  0.00000000000E+00 0.  1.
          2   -1    0    0  501    0  0.00000000000E+00 -0.00000000000E+00 -0.18887990179E+03  0.18887990179E+03  0.00000000000E+00 0. -1.
         23    2    1    2    0    0 -0.31618429868E+02  0.41932755914E+02 -0.74464257589E+02  0.15475825919E+03  0.12508841674E+03 0.  0.
          5    1    3    3  502    0 -0.63475063496E+02 -0.18138649339E+02 -0.47756709655E+02  0.81585966948E+02  0.41800000000E+01 0.  1.
         -5    1    3    3    0  502  0.31856633629E+02  0.60071405253E+02 -0.26707547934E+02  0.73172292242E+02  0.41800000000E+01 0.  1.
        -11    1    1    2    0    0  0.38219221117E+02 -0.57422849557E+02 -0.19350152009E+02  0.71641614281E+02  0.00000000000E+00 0.  1.
         11    1    1    2    0    0 -0.66007912494E+01  0.15490093643E+02 -0.26309376108E+02  0.31236144407E+02  0.00000000000E+00 0. -1.
</event>
<event>
 6    1  0.4394360E-006  0.1884412E+03  0.7561462E-02  0.1159875E+00
          3   -1    0    0  501    0  0.00000000000E+00  0.00000000000E+00  0.28241329870E+03  0.28241329870E+03  0.00000000000E+00 0. -1.
         -3   -1    0    0    0  501 -0.00000000000E+00 -0.00000000000E+00 -0.15977301058E+03  0.15977301058E+03  0.00000000000E+00 0.  1.
          5    1    1    2  502    0  0.53738436753E+02  0.14743223649E+03  0.58229168024E+02  0.16742817072E+03  0.41800000000E+01 0. -1.
         -5    1    1    2    0  502 -0.51318599223E+02 -0.16689200039E+03  0.40846859690E+02  0.17936687756E+03  0.41800000000E+01 0.  1.
        -11    1    1    2    0    0  0.19171627965E+02  0.10663115914E+02 -0.29888423274E+02  0.37075210123E+02  0.00000000000E+00 0.  1.
         11    1    1    2    0    0 -0.21591465495E+02  0.87966479852E+01  0.53452683675E+02  0.58316050879E+02  0.00000000000E+00 0. -1.
</event>
<event>
 7    1  0.4394360E-006  0.1049343E+03  0.7561462E-02  0.1270249E+00
          1   -1    0    0  501    0  0.00000000000E+00  0.00000000000E+00  0.95247036733E+02  0.95247036733E+02  0.00000000000E+00 0. -1.
         -1   -1    0    0    0  501 -0.00000000000E+00 -0.00000000000E+00 -0.24595786570E+03  0.24595786570E+03  0.00000000000E+00 0.  1.
         23    2    1    2    0    0  0.31758476716E+02  0.52527066354E+02 -0.18009142122E+03  0.22769314068E+03  0.12507418907E+03 0.  0.
          5    1    3    3  502    0  0.51486021636E+02  0.62389040645E+02 -0.18734296063E+03  0.20410306248E+03  0.41800000000E+01 0. -1.
         -5    1    3    3    0  502 -0.19727544919E+02 -0.98619742915E+01  0.72515394110E+01  0.23590078196E+02  0.41800000000E+01 0. -1.
        -11    1    1    2    0    0  0.19008264011E+02 -0.52308915061E+02  0.16842411491E+01  0.55680996433E+02  0.00000000000E+00 0.  1.
         11    1    1    2    0    0 -0.50766740727E+02 -0.21815129252E+00  0.27696351099E+02  0.57830765327E+02  0.00000000000E+00 0. -1.
</event>
<event>
 7    1  0.4394360E-006  0.1352955E+03  0.7561462E-02  0.1219803E+00
          2   -1    0    0  501    0  0.00000000000E+00  0.00000000000E+00  0.33952135023E+02  0.33952135023E+02  0.00000000000E+00 0. -1.
         -2   -1    0    0    0  501 -0.00000000000E+00 -0.00000000000E+00 -0.65446648658E+03  0.65446648658E+03  0.00000000000E+00 0.  1.
         23    2    1    2    0    0  0.87619366288E+02 -0.31636509713E+02 -0.46812279674E+03  0.49342149047E+03  0.12509113611E+03 0.  0.
          5    1    3    3  502    0  0.41570655433E+02  0.45071978506E+02 -0.25382536061E+03  0.26115969966E+03  0.41800000000E+01 0. -1.
         -5    1    3    3    0  502  0.46048710855E+02 -0.76708488219E+02 -0.21429743613E+03  0.23226179080E+03  0.41800000000E+01 0. -1.
        -11    1    1    2    0    0 -0.18822557437E+01  0.33751036730E+02 -0.60488726630E+02  0.69293299938E+02  0.00000000000E+00 0.  1.
         11    1    1    2    0    0 -0.85737110545E+02 -0.21145270166E+01 -0.91902828195E+02  0.12570383120E+03  0.00000000000E+00 0. -1.
</event>
<event>
 7    1  0.4394360E-006  0.1444019E+03  0.7561462E-02  0.1207526E+00
          2   -1    0    0  501    0  0.00000000000E+00  0.00000000000E+00  0.35878343006E+03  0.35878343006E+03  0.00000000000E+00 0. -1.
         -2   -1    0    0    0  501 -0.00000000000E+00 -0.00000000000E+00 -0.83945858178E+02  0.83945858178E+02  0.00000000000E+00 0.  1.
         23    2    1    2    0    0  0.12073215624E+03 -0.22049547874E+02  0.73647934182E+02  0.19008926461E+03  0.12508986450E+03 0.  0.
          5    1    3    3  502    0  0.12699679059E+03 -0.20860619812E+02  0.13513819013E+02  0.12947372700E+03  0.41800000000E+01 0.  1.
         -5    1    3    3    0  502 -0.62646343466E+01 -0.11889280623E+01  0.60134115170E+02  0.60615537618E+02  0.41800000000E+01 0.  1.
        -11    1    1    2    0    0 -0.29915994258E+02  0.49238388085E+02  0.84962853388E+02  0.10265511205E+03  0.00000000000E+00 0.  1.
         11    1    1    2    0    0 -0.90816161981E+02 -0.27188840211E+02  0.11622678431E+03  0.14998491158E+03  0.00000000000E+00 0. -1.
</event>
<event>
 7    1  0.4394360E-006  0.1253920E+03  0.7561462E-02  0.1234458E+00
         -2   -1    0    0    0  501 -0.00000000000E+00  0.00000000000E+00  0.36368968731E+02  0.36368968731E+02  0.00000000000E+00 0. -1.
          2   -1    0    0  501    0  0.00000000000E+00 -0.00000000000E+00 -0.57755568090E+03  0.57755568090E+03  0.00000000000E+00 0.  1.
         23    2    1    2    0    0 -0.60967299178E+02  0.35984490684E+02 -0.15606492143E+03  0.21216766056E+03  0.12508781455E+03 0.  0.
          5    1    3    3  502    0  0.17214587030E+02  0.58060273067E+02 -0.50937628258E+02  0.79242991410E+02  0.41800000000E+01 0. -1.
         -5    1    3    3    0  502 -0.78181886208E+02 -0.22075782383E+02 -0.10512729317E+03  0.13292466915E+03  0.41800000000E+01 0. -1.
        -11    1    1    2    0    0  0.21616491334E+02 -0.59216139475E+02 -0.15853598123E+03  0.17060914752E+03  0.00000000000E+00 0. -1.
         11    1    1    2    0    0  0.39350807844E+02  0.23231648792E+02 -0.22658580951E+03  0.23114784155E+03  0.00000000000E+00 0.  1.
</event>
<event>
 7    1  0.4394360E-006  0.1078952E+03  0.7561462E-02  0.1264518E+00
          1   -1    0    0  501    0  0.00000000000E+00  0.00000000000E+00  0.25796079405E+03  0.25796079405E+03  0.00000000000E+00 0. -1.
         -1   -1    0    0    0  501 -0.00000000000E+00 -0.00000000000E+00 -0.70687795798E+02  0.70687795798E+02  0.00000000000E+00 0.  1.
         23    2    1    2    0    0 -0.28728092434E+02 -0.10473985103E+02  0.15354695263E+02  0.12968251322E+03  0.12508708930E+03 0.  0.
          5    1    3    3  502    0 -0.15987663537E+02 -0.67709984904E+02  0.12639947608E+02  0.70834229837E+02  0.41800000000E+01 0. -1.
         -5    1    3    3    0  502 -0.12740428897E+02  0.57235999801E+02  0.27147476553E+01  0.58848283378E+02  0.41800000000E+01 0. -1.
        -11    1    1    2    0    0 -0.55432919813E+01  0.41023702537E+02  0.33880432758E+02  0.53493513436E+02  0.00000000000E+00 0. -1.
         11    1    1    2    0    0  0.34271384415E+02 -0.30549717435E+02  0.13803787023E+03  0.14547256319E+03  0.00000000000E+00 0.  1.
</event>
<event>
 7    1  0.4394360E-006  0.1326399E+03  0.7561462E-02  0.1223590E+00
         -1   -1    0    0    0  501 -0.00000000000E+00  0.00000000000E+00  0.68339050139E+03  0.68339050139E+03  0.00000000000E+00 0.  1.
          1   -1    0    0  501    0  0.00000000000E+00 -0.00000000000E+00 -0.41687133003E+02  0.41687133003E+02  0.00000000000E+00 0. -1.
         23    2    1    2    0    0  0.63991715177E+02  0.61332530987E+02  0.54268909730E+03  0.56392962950E+03  0.12509417145E+03 0.  0.
          5    1    3    3  502    0 -0.11459291390E+02 -0.29298989003E+02  0.17227571272E+03  0.17517459779E+03  0.41800000000E+01 0. -1.
         -5    1    3    3    0  502  0.75451006567E+02  0.90631519990E+02  0.37041338458E+03  0.38875503172E+03  0.41800000000E+01 0. -1.
        -11    1    1    2    0    0  0.15569936393E+02 -0.21554975485E+02 -0.18617534450E+01  0.26655318669E+02  0.00000000000E+00 0. -1.
         11    1    1    2    0    0 -0.79561651570E+02 -0.39777555503E+02  0.10087602452E+03  0.13449268622E+03  0.00000000000E+00 0.  1.
</event>
<event>
 7    1  0.4394360E-006  0.1004764E+03  0.7561462E-02  0.1279297E+00
          1   -1    0    0  501    0  0.00000000000E+00  0.00000000000E+00  0.28338774292E+03  0.28338774292E+03  0.00000000000E+00 0. -1.
         -1   -1    0    0    0  501 -0.00000000000E+00 -0.00000000000E+00 -0.78796462934E+02  0.78796462934E+02  0.00000000000E+00 0.  1.
         23    2    1    2    0    0  0.19501698832E+02 -0.77434600724E+02  0.32551288383E+02  0.15195105051E+03  0.12511235642E+03 0.  0.
          5    1    3    3  502    0  0.25899474847E+02 -0.77298776150E+02  0.73773168389E+02  0.11002652574E+03  0.41800000000E+01 0.  1.
         -5    1    3    3    0  502 -0.63977760148E+01 -0.13582457462E+00 -0.41221880005E+02  0.41924524773E+02  0.41800000000E+01 0.  1.
        -11    1    1    2    0    0 -0.41608674030E+02  0.13052228823E+02  0.10922086789E+03  0.11760459351E+03  0.00000000000E+00 0. -1.
         11    1    1    2    0    0  0.22106975198E+02  0.64382371901E+02  0.62819123717E+02  0.92628561841E+02  0.00000000000E+00 0.  1.
</event>
<event>
 7    1  0.4394360E-006  0.1226910E+03  0.7561462E-02  0.1238723E+00
          2   -1    0    0  501    0  0.00000000000E+00  0.00000000000E+00  0.39887634586E+03  0.39887634586E+03  0.00000000000E+00 0. -1.
         -2   -1    0    0    0  501 -0.00000000000E+00 -0.00000000000E+00 -0.50292450316E+02  0.50292450316E+02  0.00000000000E+00 0.  1.
         23    2    1    2    0    0  0.59841681579E+02  0.72602550099E+02  0.16060634028E+03  0.22426342454E+03  0.12509008720E+03 0.  0.
          5    1    3    3  502    0  0.79530068504E+02  0.36614032609E+02  0.16067513676E+03  0.18302893529E+03  0.41800000000E+01 0. -1.
         -5    1    3    3    0  502 -0.19688386925E+02  0.35988517491E+02 -0.68796488810E-01  0.41234489251E+02  0.41800000000E+01 0. -1.
        -11    1    1    2    0    0 -0.42725495463E+02 -0.85560098720E+00  0.35621553024E+02  0.55633578489E+02  0.00000000000E+00 0. -1.
         11    1    1    2    0    0 -0.17116186116E+02 -0.71746949112E+02  0.15235600224E+03  0.16927179314E+03  0.00000000000E+00 0.  1.
</event>
<event>
 7    1  0.4394360E-006  0.1170313E+03  0.7561462E-02  0.1248076E+00
          2   -1    0    0  501    0  0.00000000000E+00  0.00000000000E+00  0.35932281233E+03  0.35932281233E+03  0.00000000000E+00 0. -1.
         -2   -1    0    0    0  501 -0.00000000000E+00 -0.00000000000E+00 -0.64960368375E+02  0.64960368375E+02  0.00000000000E+00 0.  1.
         23    2    1    2    0    0 -0.23412952996E+02 -0.41517248680E+02  0.25415408327E+02  0.13625439076E+03  0.12508983858E+03 0.  0.
          5    1    3    3  502    0  0.44570401408E+02  0.11345842507E+02  0.18532228337E+02  0.49761076264E+02  0.41800000000E+01 0.  1.
         -5    1    3    3    0  502 -0.67983354403E+02 -0.52863091187E+02  0.68831799900E+01  0.86493314496E+02  0.41800000000E+01 0.  1.
        -11    1    1    2    0    0  0.53781399473E+02  0.47731103962E+01  0.16646871114E+03  0.17500586648E+03  0.00000000000E+00 0. -1.
         11    1    1    2    0    0 -0.30368446477E+02  0.36744138284E+02  0.10247832448E+03  0.11302292347E+03  0.00000000000E+00 0.  1.
</event>
<event>
 7    1  0.4394360E-006  0.1330781E+03  0.7561462E-02  0.1222959E+00
         -1   -1    0    0    0  501 -0.00000000000E+00  0.00000000000E+00  0.94950323104E+02  0.94950323104E+02  0.00000000000E+00 0.  1.
          1   -1    0    0  501    0  0.00000000000E+00 -0.00000000000E+00 -0.26113629199E+03  0.26113629199E+03  0.00000000000E+00 0. -1.
         23    2    1    2    0    0 -0.55058051594E+02 -0.63718615306E+02 -0.28400343049E+01  0.15082153234E+03  0.12509043865E+03 0.  0.
          5    1    3    3  502    0 -0.56198211367E+02 -0.97996470750E+02  0.11050672325E+02  0.11358317217E+03  0.41800000000E+01 0. -1.
         -5    1    3    3    0  502  0.11401597734E+01  0.34277855444E+02 -0.13890706630E+02  0.37238360179E+02  0.41800000000E+01 0. -1.
        -11    1    1    2    0    0  0.76213957485E+02  0.37704176466E+02 -0.85878966309E+02  0.12085267516E+03  0.00000000000E+00 0.  1.
         11    1    1    2    0    0 -0.21155905892E+02  0.26014438840E+02 -0.77466968271E+02  0.84412407592E+02  0.00000000000E+00 0. -1.
</event>
<event>
 7    1  0.4394360E-006  0.1173412E+03  0.7561462E-02  0.1247549E+00
          1   -1    0    0  501    0  0.00000000000E+00  0.00000000000E+00  0.51891299670E+03  0.51891299670E+03  0.00000000000E+00 0. -1.
         -1   -1    0    0    0  501 -0.00000000000E+00 -0.00000000000E+00 -0.26911686941E+02  0.26911686941E+02  0.00000000000E+00 0.  1.
         23    2    1    2    0    0  0.42487221990E+02  0.20915555975E+02  0.29174989681E+03  0.32094809462E+03  0.12508817945E+03 0.  0.
          5    1    3    3  502    0 -0.44221141213E+02  0.12625541287E+01  0.87080040922E+02  0.97762514800E+02  0.41800000000E+01 0.  1.
         -5    1    3    3    0  502  0.86708363203E+02  0.19653001846E+02  0.20466985589E+03  0.22318557982E+03  0.41800000000E+01 0.  1.
        -11    1    1    2    0    0  0.20067468024E+02 -0.31940575494E+02  0.90893482001E+02  0.98410003079E+02  0.00000000000E+00 0. -1.
         11    1    1    2    0    0 -0.62554690014E+02  0.11025019519E+02  0.10935793095E+03  0.12646658594E+03  0.00000000000E+00 0.  1.
</event>
<event>
 7    1  0.4394360E-006  0.2560989E+03  0.7561462E-02  0.1109510E+00
         -1   -1    0    0    0  501 -0.00000000000E+00  0.00000000000E+00  0.15756857489E+03  0.15756857489E+03  0.00000000000E+00 0.  1.
          1   -1    0    0  501    0  0.00000000000E+00 -0.00000000000E+00 -0.45401037317E+03  0.45401037317E+03  0.00000000000E+00 0. -1.
         23    2    1    2    0    0  0.12102664046E+03  0.20117614928E+03 -0.66373025475E+02  0.27073825506E+03  0.11736495858E+03 0.  0.
          5    1    3    3  502    0  0.63076393498E+01 -0.14825886425E+02  0.19630839393E+01  0.16760647989E+02  0.41800000000E+01 0. -1.
         -5    1    3    3    0  502  0.11471900111E+03  0.21600203570E+03 -0.68336109414E+02  0.25397760707E+03  0.41800000000E+01 0.  1.
        -11    1    1    2    0    0  0.45666792279E+01 -0.67002262890E+02 -0.51946220364E+02  0.84903283810E+02  0.00000000000E+00 0.  1.
         11    1    1    2    0    0 -0.12559331969E+03 -0.13417388639E+03 -0.17812255243E+03  0.25593740919E+03  0.00000000000E+00 0. -1.
</event>
<event>
 7    1  0.4394360E-006  0.9180454E+02  0.7561462E-02  0.1298540E+00
          3   -1    0    0  501    0  0.00000000000E+00  0.00000000000E+00  0.13496906609E+03  0.13496906609E+03  0.00000000000E+00 0. -1.
         -3   -1    0    0    0  501 -0.00000000000E+00 -0.00000000000E+00 -0.12101797439E+03  0.12101797439E+03  0.00000000000E+00 0.  1.
         23    2    1    2    0    0  0.25485387653E+02 -0.49225290381E+02 -0.30907594547E+02  0.14023256543E+03  0.12504902562E+03 0.  0.
          5    1    3    3  502    0 -0.44021395514E+00 -0.83641462375E+02 -0.44529211323E+02  0.94849412637E+02  0.41800000000E+01 0.  1.
         -5    1    3    3    0  502  0.25925601608E+02  0.34416171995E+02  0.13621616776E+02  0.45383152790E+02  0.41800000000E+01 0.  1.
        -11    1    1    2    0    0 -0.25020744479E+02  0.39003641945E+02  0.72632554453E+02  0.86155729384E+02  0.00000000000E+00 0. -1.
         11    1    1    2    0    0 -0.46464317416E+00  0.10221648435E+02 -0.27773868203E+02  0.29598745666E+02  0.00000000000E+00 0.  1.
</event>
<event>
 7    1  0.4394360E-006  0.2509742E+03  0.7561462E-02  0.1112691E+00
          2   -1    0    0  501    0  0.00000000000E+00  0.00000000000E+00  0.12672734158E+04  0.12672734158E+04  0.00000000000E+00 0. -1.
         -2   -1    0    0    0  501 -0.00000000000E+00 -0.00000000000E+00 -0.50541119979E+02  0.50541119979E+02  0.00000000000E+00 0.  1.
         23    2    1    2    0    0  0.34445391235E+02 -0.22319475253E+03  0.69762245674E+03  0.74385837258E+03  0.12508318736E+03 0.  0.
          5    1    3    3  502    0  0.53810853599E+02 -0.23009128550E+03  0.65545084824E+03  0.69675741437E+03  0.41800000000E+01 0.  1.
         -5    1    3    3    0  502 -0.19365462363E+02  0.68965329672E+01  0.42171608506E+02  0.47100958202E+02  0.41800000000E+01 0.  1.
        -11    1    1    2    0    0 -0.65287698764E+02  0.11622641449E+03  0.27088712237E+03  0.30191206683E+03  0.00000000000E+00 0. -1.
         11    1    1    2    0    0  0.30842307529E+02  0.10696833804E+03  0.24822271668E+03  0.27204409634E+03  0.00000000000E+00 0.  1.
</event>
<event>
 7    1  0.4394360E-006  0.1074502E+03  0.7561462E-02  0.1265366E+00
          2   -1    0    0  501    0  0.00000000000E+00  0.00000000000E+00  0.94466787525E+03  0.94466787525E+03  0.00000000000E+00 0.  1.
         -2   -1    0    0    0  501 -0.00000000000E+00 -0.00000000000E+00 -0.23796578563E+02  0.23796578563E+02  0.00000000000E+00 0. -1.
         23    2    1    2    0    0  0.26929060440E+02 -0.75633591567E+02  0.29037707108E+03  0.32621016889E+03  0.12509442996E+03 0.  0.
          5    1    3    3  502    0 -0.47890739217E+01 -0.53040268767E+02  0.26848939543E+02  0.59787484430E+02  0.41800000000E+01 0.  1.
         -5    1    3    3    0  502  0.31718134362E+02 -0.22593322801E+02  0.26352813154E+03  0.26642268446E+03  0.41800000000E+01 0.  1.
        -11    1    1    2    0    0 -0.48371030547E+02  0.85868437630E+02  0.50255516977E+03  0.51212776124E+03  0.00000000000E+00 0.  1.
         11    1    1    2    0    0  0.21441970107E+02 -0.10234846063E+02  0.12793905584E+03  0.13012652368E+03  0.00000000000E+00 0. -1.
</event>
<event>
 7    1  0.4394360E-006  0.8475130E+02  0.7561462E-02  0.1316084E+00
         -1   -1    0    0    0  501 -0.00000000000E+00  0.00000000000E+00  0.48058786583E+02  0.48058786583E+02  0.00000000000E+00 0.  1.
          1   -1    0    0  501    0  0.00000000000E+00 -0.00000000000E+00 -0.26225511490E+03  0.26225511490E+03  0.00000000000E+00 0. -1.
         23    2    1    2    0    0 -0.12451435076E+02 -0.13220642435E+02 -0.88081000902E+02  0.15406318807E+03  0.12508948628E+03 0.  0.
          5    1    3    3  502    0  0.28783885155E+02 -0.45209350684E+02 -0.25967509471E+01  0.53820190908E+02  0.41800000000E+01 0. -1.
         -5    1    3    3    0  502 -0.41235320231E+02  0.31988708249E+02 -0.85484249955E+02  0.10024299716E+03  0.41800000000E+01 0. -1.
        -11    1    1    2    0    0  0.27347013588E+02 -0.15210675635E+02 -0.11943437459E+03  0.12346575898E+03  0.00000000000E+00 0. -1.
         11    1    1    2    0    0 -0.14895578512E+02  0.28431318070E+02 -0.66809528181E+01  0.32784954430E+02  0.00000000000E+00 0.  1.
</event>
<event>
 7    1  0.4394360E-006  0.1083511E+03  0.7561462E-02  0.1263654E+00
         -2   -1    0    0    0  501 -0.00000000000E+00  0.00000000000E+00  0.14465946108E+03  0.14465946108E+03  0.00000000000E+00 0.  1.
          2   -1    0    0  501    0  0.00000000000E+00 -0.00000000000E+00 -0.95758234976E+02  0.95758234976E+02  0.00000000000E+00 0. -1.
         23    2    1    2    0    0  0.29378719453E+02  0.43044315017E+02  0.64406592090E+02  0.15004198649E+03  0.12509383036E+03 0.  0.
          5    1    3    3  502    0 -0.39937819992E+02 -0.94544599635E+01 -0.82132431357E+00  0.41262128551E+02  0.41800000000E+01 0. -1.
         -5    1    3    3    0  502  0.69316539445E+02  0.52498774980E+02  0.65227916404E+02  0.10877985794E+03  0.41800000000E+01 0. -1.
        -11    1    1    2    0    0 -0.45459892420E+02 -0.33697386192E+01 -0.25813889490E+01  0.45657644772E+02  0.00000000000E+00 0.  1.
         11    1    1    2    0    0  0.16081172968E+02 -0.39674576398E+02 -0.12923977037E+02  0.44718064793E+02  0.00000000000E+00 0. -1.
</event>
<event>
 7    1  0.4394360E-006  0.1005969E+03  0.7561462E-02  0.1279046E+00
         -2   -1    0    0    0  501 -0.00000000000E+00  0.00000000000E+00  0.20143243853E+03  0.20143243853E+03  0.00000000000E+00 0.  1.
          2   -1    0    0  501    0  0.00000000000E+00 -0.00000000000E+00 -0.66395826822E+02  0.66395826822E+02  0.00000000000E+00 0. -1.
         23    2    1    2    0    0 -0.48147096214E+01  0.20535203888E+02  0.12222725060E+03  0.17609972792E+03  0.12500694923E+03 0.  0.
          5    1    3    3  502    0  0.57149075996E+02  0.26629899558E+02  0.73491537508E+02  0.96920828117E+02  0.41800000000E+01 0.  1.
         -5    1    3    3    0  502 -0.61963785617E+02 -0.60946956704E+01  0.48735713096E+02  0.79178899805E+02  0.41800000000E+01 0.  1.
        -11    1    1    2    0    0 -0.20945752086E+02  0.19090581183E+02  0.30155585077E+02  0.41382775786E+02  0.00000000000E+00 0.  1.
         11    1    1    2    0    0  0.25760461708E+02 -0.39625785070E+02 -0.17346223970E+02  0.50345761647E+02  0.00000000000E+00 0. -1.
</event>
<event>
 7    1  0.4394360E-006  0.9049252E+02  0.7561462E-02  0.1301663E+00
          3   -1    0    0  501    0  0.00000000000E+00  0.00000000000E+00  0.58123551621E+02  0.58123551621E+02  0.00000000000E+00 0. -1.
         -3   -1    0    0    0  501 -0.00000000000E+00 -0.00000000000E+00 -0.21586656091E+03  0.21586656091E+03  0.00000000000E+00 0.  1.
         23    2    1    2    0    0  0.19738050056E+02 -0.45439169961E+01 -0.11841806371E+03  0.17343726522E+03  0.12508960529E+03 0.  0.
          5    1    3    3  502    0 -0.88391836378E+01 -0.47891764443E+02 -0.56306431091E+01  0.49202934981E+02  0.41800000000E+01 0. -1.
         -5    1    3    3    0  502  0.28577233694E+02  0.43347847447E+02 -0.11278742060E+03  0.12423433024E+03  0.41800000000E+01 0. -1.
        -11    1    1    2    0    0  0.29997143272E+02  0.41318677223E+01 -0.40782235120E+02  0.50794602437E+02  0.00000000000E+00 0.  1.
         11    1    1    2    0    0 -0.49735193328E+02  0.41204927373E+00  0.14572895433E+01  0.49758244873E+02  0.00000000000E+00 0. -1.
</event>
<event>
 7    1  0.4394360E-006  0.1242809E+03  0.7561462E-02  0.1236197E+00
          2   -1    0    0  501    0  0.00000000000E+00  0.00000000000E+00  0.31153903964E+03  0.31153903964E+03  0.00000000000E+00 0. -1.
         -2   -1    0    0    0  501 -0.00000000000E+00 -0.00000000000E+00 -0.67552690195E+02  0.67552690195E+02  0.00000000000E+00 0.  1.
         23    2    1    2    0    0 -0.45842940869E+02 -0.64093808366E+02  0.62394164814E+02  0.16046829137E+03  0.12508976470E+03 0.  0.
          5    1    3    3  502    0 -0.63650161705E+02 -0.37444255325E+01  0.72460671578E+02  0.96609446397E+02  0.41800000000E+01 0.  1.
         -5    1    3    3    0  502  0.17807220837E+02 -0.60349382834E+02 -0.10066506764E+02  0.63858844969E+02  0.41800000000E+01 0.  1.
        -11    1    1    2    0    0 -0.10866401417E+02  0.63978587308E+02  0.91756717815E+02  0.11238609157E+03  0.00000000000E+00 0.  1.
         11    1    1    2    0    0  0.56709342285E+02  0.11522105780E+00  0.89835466817E+02  0.10623734690E+03  0.00000000000E+00 0. -1.
</event>
<event>
 7    1  0.4394360E-006  0.2527965E+03  0.7561462E-02  0.1111550E+00
         -1   -1    0    0    0  501 -0.00000000000E+00  0.00000000000E+00  0.55014514321E+03  0.55014514321E+03  0.00000000000E+00 0.  1.
          1   -1    0    0  501    0  0.00000000000E+00 -0.00000000000E+00 -0.18636568581E+03  0.18636568581E+03  0.00000000000E+00 0. -1.
         23    2    1    2    0    0 -0.21625970503E+03 -0.78294298404E+02  0.40817778558E+03  0.48492610038E+03  0.12508381594E+03 0.  0.
          5    1    3    3  502    0 -0.12425539874E+03 -0.10743663225E+03  0.23735232136E+03  0.28867911411E+03  0.41800000000E+01 0. -1.
         -5    1    3    3    0  502 -0.92004306286E+02  0.29142333847E+02  0.17082546421E+03  0.19624698627E+03  0.41800000000E+01 0. -1.
        -11    1    1    2    0    0  0.19152070519E+03  0.34824009463E+02 -0.19275595049E+02  0.19561298709E+03  0.00000000000E+00 0.  1.
         11    1    1    2    0    0  0.24738999835E+02  0.43470288941E+02 -0.25122733127E+02  0.55971741560E+02  0.00000000000E+00 0. -1.
</event>
<event>
 7    1  0.4394360E-006  0.7792970E+02  0.7561462E-02  0.1335031E+00
         -1   -1    0    0    0  501 -0.00000000000E+00  0.00000000000E+00  0.36245908594E+02  0.36245908594E+02  0.00000000000E+00 0.  1.
          1   -1    0    0  501    0  0.00000000000E+00 -0.00000000000E+00 -0.45388976772E+03  0.45388976772E+03  0.00000000000E+00 0. -1.
         23    2    1    2    0    0  0.50328496320E+02  0.17976263103E+02 -0.15083798237E+03  0.20311510104E+03  0.12509014258E+03 0.  0.
          5    1    3    3  502    0  0.10367422753E+02  0.19961006275E+02  0.18276471306E+02  0.29281854952E+02  0.41800000000E+01 0.  1.
         -5    1    3    3    0  502  0.39961073567E+02 -0.19847431723E+01 -0.16911445367E+03  0.17383324609E+03  0.41800000000E+01 0.  1.
        -11    1    1    2    0    0 -0.45193234549E+02 -0.45868654097E+02 -0.23815423535E+03  0.24670590121E+03  0.00000000000E+00 0. -1.
         11    1    1    2    0    0 -0.51352617715E+01  0.27892390994E+02 -0.28651641408E+02  0.40314674055E+02  0.00000000000E+00 0.  1.
</event>
<event>
 7    1  0.4394360E-006  0.1493821E+03  0.7561462E-02  0.1201234E+00
          1   -1    0    0  501    0  0.00000000000E+00  0.00000000000E+00  0.12429349469E+04  0.12429349469E+04  0.00000000000E+00 0. -1.
         -1   -1    0    0    0  501 -0.00000000000E+00 -0.00000000000E+00 -0.18308469701E+02  0.18308469701E+02  0.00000000000E+00 0.  1.
         23    2    1    2    0    0  0.59114582969E+02 -0.79354111149E+02  0.59012271595E+03  0.61129718521E+03  0.12509124624E+03 0.  0.
          5    1    3    3  502    0 -0.37200171207E+02 -0.87583221482E+01  0.10984340729E+03  0.11637700576E+03  0.41800000000E+01 0. -1.
         -5    1    3    3    0  502  0.96314754176E+02 -0.70595789001E+02  0.48027930866E+03  0.49492017944E+03  0.41800000000E+01 0. -1.
        -11    1    1    2    0    0  0.25607939735E+02  0.13135771463E+01  0.11293417233E+03  0.11580854607E+03  0.00000000000E+00 0.  1.
         11    1    1    2    0    0 -0.84722522704E+02  0.78040534003E+02  0.52156958896E+03  0.53413768536E+03  0.00000000000E+00 0. -1.
</event>
<event>
 7    1  0.4394360E-006  0.8255336E+02  0.7561462E-02  0.1321958E+00
         -2   -1    0    0    0  501 -0.00000000000E+00  0.00000000000E+00  0.46785190460E+02  0.46785190460E+02  0.00000000000E+00 0.  1.
          2   -1    0    0  501    0  0.00000000000E+00 -0.00000000000E+00 -0.25531030328E+03  0.25531030328E+03  0.00000000000E+00 0. -1.
         23    2    1    2    0    0  0.25772083439E+01 -0.33486957046E+01 -0.11134686351E+03  0.16752432339E+03  0.12509364151E+03 0.  0.
          5    1    3    3  502    0  0.50794519528E+02  0.87024145316E+01 -0.10526686089E+03  0.11727915260E+03  0.41800000000E+01 0.  1.
         -5    1    3    3    0  502 -0.48217311184E+02 -0.12051110236E+02 -0.60800026211E+01  0.50245170789E+02  0.41800000000E+01 0.  1.
        -11    1    1    2    0    0 -0.29271112148E+02  0.16679112911E+02 -0.82055135794E+00  0.33699615998E+02  0.00000000000E+00 0.  1.
         11    1    1    2    0    0  0.26693903804E+02 -0.13330417206E+02 -0.96357697951E+02  0.10087155435E+03  0.00000000000E+00 0. -1.
</event>
<event>
 7    1  0.4394360E-006  0.1071699E+03  0.7561462E-02  0.1265902E+00
         -2   -1    0    0    0  501 -0.00000000000E+00  0.00000000000E+00  0.41672793101E+02  0.41672793101E+02  0.00000000000E+00 0.  1.
          2   -1    0    0  501    0  0.00000000000E+00 -0.00000000000E+00 -0.34684750440E+03  0.34684750440E+03  0.00000000000E+00 0. -1.
         23    2    1    2    0    0  0.50865692800E+02  0.22395276640E+01 -0.18348599706E+03  0.22783095377E+03  0.12508996039E+03 0.  0.
          5    1    3    3  502    0  0.42437594514E+02  0.48266064604E+02 -0.37622104864E+02  0.74588588905E+02  0.41800000000E+01 0.  1.
         -5    1    3    3    0  502  0.84280982869E+01 -0.46026536940E+02 -0.14586389219E+03  0.15324236486E+03  0.41800000000E+01 0.  1.
        -11    1    1    2    0    0 -0.21541388351E+02 -0.45703240032E+02 -0.44205916787E+02  0.67134049785E+02  0.00000000000E+00 0.  1.
         11    1    1    2    0    0 -0.29324304450E+02  0.43463712368E+02 -0.77482797461E+02  0.93555293954E+02  0.00000000000E+00 0. -1.
</event>
<event>
 7    1  0.4394360E-006  0.9743411E+02  0.7561462E-02  0.1285786E+00
         -2   -1    0    0    0  501 -0.00000000000E+00  0.00000000000E+00  0.21302023992E+03  0.21302023992E+03  0.00000000000E+00 0.  1.
          2   -1    0    0  501    0  0.00000000000E+00 -0.00000000000E+00 -0.70291950849E+02  0.70291950849E+02  0.00000000000E+00 0. -1.
         23    2    1    2    0    0  0.53507697301E+02 -0.13013375560E+02  0.67633782897E+02  0.15249504118E+03  0.12509191574E+03 0.  0.
          5    1    3    3  502    0 -0.34012661897E+02 -0.20977080864E+02  0.47546430333E+02  0.62249775328E+02  0.41800000000E+01 0. -1.
         -5    1    3    3    0  502  0.87520359198E+02  0.79637053033E+01  0.20087352564E+02  0.90245265856E+02  0.41800000000E+01 0. -1.
        -11    1    1    2    0    0 -0.33402854761E+02  0.26381219296E+02  0.91982588677E+02  0.10135342154E+03  0.00000000000E+00 0.  1.
         11    1    1    2    0    0 -0.20104842540E+02 -0.13367843736E+02 -0.16888082505E+02  0.29463728047E+02  0.00000000000E+00 0. -1.
</event>
<event>
 7    1  0.4394360E-006  0.2467098E+03  0.7561462E-02  0.1115402E+00
          2   -1    0    0  501    0  0.00000000000E+00  0.00000000000E+00  0.10727100562E+04  0.10727100562E+04  0.00000000000E+00 0. -1.
         -2   -1    0    0    0  501 -0.00000000000E+00 -0.00000000000E+00 -0.66996573631E+02  0.66996573631E+02  0.00000000000E+00 0.  1.
         23    2    1    2    0    0 -0.18333362962E+03 -0.15152607256E+03  0.63876595129E+03  0.69299387206E+03  0.12508875159E+03 0.  0.
          5    1    3    3  502    0 -0.13309181767E+03 -0.15300571166E+03  0.58549513700E+03  0.61963393031E+03  0.41800000000E+01 0.  1.
         -5    1    3    3    0  502 -0.50241811948E+02  0.14796390967E+01  0.53270814281E+02  0.73359941751E+02  0.41800000000E+01 0.  1.
        -11    1    1    2    0    0  0.13957067832E+03  0.95769699346E+02  0.18150121346E+03  0.24818239270E+03  0.00000000000E+00 0.  1.
         11    1    1    2    0    0  0.43762951299E+02  0.55756373217E+02  0.18544631784E+03  0.19853036508E+03  0.00000000000E+00 0. -1.
</event>
<event>
 7    1  0.4394360E-006  0.1168631E+03  0.7561462E-02  0.1248363E+00
         -1   -1    0    0    0  501 -0.00000000000E+00  0.00000000000E+00  0.81173323563E+02  0.81173323563E+02  0.00000000000E+00 0.  1.
          1   -1    0    0  501    0  0.00000000000E+00 -0.00000000000E+00 -0.20902539659E+03  0.20902539659E+03  0.00000000000E+00 0. -1.
         23    2    1    2    0    0  0.66611544318E+02 -0.63463703348E+01 -0.39784150917E+02  0.14733795655E+03  0.12509324732E+03 0.  0.
          5    1    3    3  502    0  0.19611835446E+02  0.52813637934E+02 -0.43913692604E+02  0.71552702531E+02  0.41800000000E+01 0. -1.
         -5    1    3    3    0  502  0.46999708871E+02 -0.59160008269E+02  0.41295416866E+01  0.75785254021E+02  0.41800000000E+01 0. -1.
        -11    1    1    2    0    0 -0.29082704238E+02 -0.35143483764E+02 -0.70961988558E+02  0.84359184189E+02  0.00000000000E+00 0. -1.
         11    1    1    2    0    0 -0.37528840080E+02  0.41489854098E+02 -0.17105933548E+02  0.58501579409E+02  0.00000000000E+00 0.  1.
</event>
<event>
 7    1  0.4394360E-006  0.1112495E+03  0.7561462E-02  0.1258273E+00
          3   -1    0    0  501    0  0.00000000000E+00  0.00000000000E+00  0.24826528796E+03  0.24826528796E+03  0.00000000000E+00 0. -1.
         -3   -1    0    0    0  501 -0.00000000000E+00 -0.00000000000E+00 -0.64506534037E+02  0.64506534037E+02  0.00000000000E+00 0.  1.
         23    2    1    2    0    0  0.81910493912E+01 -0.18319658107E+02  0.29018322617E+02  0.13005403030E+03  0.12517701302E+03 0.  0.
          5    1    3    3  502    0 -0.43817194849E+02 -0.49250448091E+02  0.13014393211E+02  0.67323101773E+02  0.41800000000E+01 0. -1.
         -5    1    3    3    0  502  0.52008244240E+02  0.30930789984E+02  0.16003929406E+02  0.62730928532E+02  0.41800000000E+01 0. -1.
        -11    1    1    2    0    0  0.36747903676E+01  0.56084926112E+02  0.75326886180E+02  0.93984907314E+02  0.00000000000E+00 0. -1.
         11    1    1    2    0    0 -0.11865839759E+02 -0.37765268006E+02  0.79413545126E+02  0.88732884379E+02  0.00000000000E+00 0.  1.
</event>
<event>
 7    1  0.4394360E-006  0.7559802E+02  0.7561462E-02  0.1342029E+00
          1   -1    0    0  501    0  0.00000000000E+00  0.00000000000E+00  0.76815954635E+02  0.76815954635E+02  0.00000000000E+00 0. -1.
         -1   -1    0    0    0  501 -0.00000000000E+00 -0.00000000000E+00 -0.21183832168E+03  0.21183832168E+03  0.00000000000E+00 0.  1.
         23    2    1    2    0    0 -0.58043295788E+02  0.25265225823E+02 -0.10306605134E+03  0.17400458097E+03  0.12509047701E+03 0.  0.
          5    1    3    3  502    0 -0.20517233607E+02 -0.20801265230E+01  0.27924713577E+02  0.34964922845E+02  0.41800000000E+01 0. -1.
         -5    1    3    3    0  502 -0.37526062181E+02  0.27345352346E+02 -0.13099076492E+03  0.13903965813E+03  0.41800000000E+01 0. -1.
        -11    1    1    2    0    0  0.13922877113E+02 -0.35594518915E+02 -0.52465501066E+02  0.64911055191E+02  0.00000000000E+00 0.  1.
         11    1    1    2    0    0  0.44120418675E+02  0.10329293092E+02  0.20509185364E+02  0.49738640152E+02  0.00000000000E+00 0. -1.
</event>
<event>
 7    1  0.4394360E-006  0.2035440E+03  0.7561462E-02  0.1146783E+00
          2   -1    0    0  501    0  0.00000000000E+00  0.00000000000E+00  0.54906059373E+03  0.54906059373E+03  0.00000000000E+00 0. -1.
         -2   -1    0    0    0  501 -0.00000000000E+00 -0.00000000000E+00 -0.10215382114E+03  0.10215382114E+03  0.00000000000E+00 0.  1.
         23    2    1    2    0    0 -0.17712572600E+03  0.33266618588E+02  0.81631543181E+02  0.23407512347E+03  0.12508902376E+03 0.  0.
          5    1    3    3  502    0 -0.13026652387E+03  0.77445997408E+02  0.38395507786E+02  0.15639353303E+03  0.41800000000E+01 0. -1.
         -5    1    3    3    0  502 -0.46859202126E+02 -0.44179378820E+02  0.43236035395E+02  0.77681590441E+02  0.41800000000E+01 0. -1.
        -11    1    1    2    0    0  0.10661528172E+03 -0.51076413592E+02  0.15699487344E+03  0.19652737369E+03  0.00000000000E+00 0.  1.
         11    1    1    2    0    0  0.70510444278E+02  0.17809795004E+02  0.20828035597E+03  0.22061191770E+03  0.00000000000E+00 0. -1.
</event>
<event>
 7    1  0.4394360E-006  0.1335297E+03  0.7561462E-02  0.1222310E+00
         -1   -1    0    0    0  501 -0.00000000000E+00  0.00000000000E+00  0.31202337504E+03  0.31202337504E+03  0.00000000000E+00 0.  1.
          1   -1    0    0  501    0  0.00000000000E+00 -0.00000000000E+00 -0.59934849808E+02  0.59934849808E+02  0.00000000000E+00 0. -1.
         23    2    1    2    0    0  0.42962226964E+02 -0.71382951528E+02  0.13927898399E+03  0.20490863416E+03  0.12509050428E+03 0.  0.
          5    1    3    3  502    0 -0.28859110030E+02 -0.65490974871E+02  0.99050973485E+02  0.12227217087E+03  0.41800000000E+01 0. -1.
         -5    1    3    3    0  502  0.71821336994E+02 -0.58919766565E+01  0.40228010501E+02  0.82636463292E+02  0.41800000000E+01 0. -1.
        -11    1    1    2    0    0 -0.67039423583E+02  0.26178427197E+02  0.64450099945E+02  0.96609573790E+02  0.00000000000E+00 0. -1.
         11    1    1    2    0    0  0.24077196619E+02  0.45204524331E+02  0.48359441299E+02  0.70440016893E+02  0.00000000000E+00 0.  1.
</event>
<event>
 7    1  0.4394360E-006  0.1453202E+03  0.7561462E-02  0.1206344E+00
         -2   -1    0    0    0  501 -0.00000000000E+00  0.00000000000E+00  0.28982868481E+03  0.28982868481E+03  0.00000000000E+00 0.  1.
          2   -1    0    0  501    0  0.00000000000E+00 -0.00000000000E+00 -0.99956263120E+02  0.99956263120E+02  0.00000000000E+00 0. -1.
         23    2    1    2    0    0 -0.85786775717E+02  0.65007001136E+02  0.17939894515E+03  0.24375511583E+03  0.12508914377E+03 0.  0.
          5    1    3    3  502    0  0.10448428890E+02  0.58408050106E+02  0.10930943296E+03  0.12444554840E+03  0.41800000000E+01 0.  1.
         -5    1    3    3    0  502 -0.96235204607E+02  0.65989510293E+01  0.70089512191E+02  0.11930956743E+03  0.41800000000E+01 0.  1.
        -11    1    1    2    0    0 -0.65528694188E+01 -0.37769039583E+02  0.28903010986E+02  0.48008587697E+02  0.00000000000E+00 0.  1.
         11    1    1    2    0    0  0.92339645136E+02 -0.27237961553E+02 -0.18429534451E+02  0.98021244398E+02  0.00000000000E+00 0. -1.
</event>
<event>
 7    1  0.4394360E-006  0.1003451E+03  0.7561462E-02  0.1279572E+00
          1   -1    0    0  501    0  0.00000000000E+00  0.00000000000E+00  0.56521879510E+02  0.56521879510E+02  0.00000000000E+00 0. -1.
         -1   -1    0    0    0  501 -0.00000000000E+00 -0.00000000000E+00 -0.28828309257E+03  0.28828309257E+03  0.00000000000E+00 0.  1.
         23    2    1    2    0    0 -0.45302367811E+02 -0.51669613698E+02 -0.15752200853E+03  0.20409853238E+03  0.11009529618E+03 0.  0.
          5    1    3    3  502    0 -0.48935565061E+02 -0.25317772682E+02 -0.12570622432E+02  0.56667204711E+02  0.41800000000E+01 0. -1.
         -5    1    3    3    0  502  0.36331972498E+01 -0.26351841015E+02 -0.14495138610E+03  0.14743132767E+03  0.41800000000E+01 0.  1.
        -11    1    1    2    0    0 -0.30648105204E+02  0.16532479409E+02 -0.30446224606E+02  0.46255830127E+02  0.00000000000E+00 0.  1.
         11    1    1    2    0    0  0.75950473015E+02  0.35137134289E+02 -0.43792979921E+02  0.94450609567E+02  0.00000000000E+00 0. -1.
</event>
<event>
 7    1  0.4394360E-006  0.1146404E+03  0.7561462E-02  0.1252210E+00
         -4   -1    0    0    0  501 -0.00000000000E+00  0.00000000000E+00  0.15549445123E+03  0.15549445123E+03  0.00000000000E+00 0.  1.
          4   -1    0    0  501    0  0.00000000000E+00 -0.00000000000E+00 -0.97539065746E+02  0.97539065746E+02  0.00000000000E+00 0. -1.
         23    2    1    2    0    0  0.29112965871E+02 -0.43735222034E+02  0.76167249027E+02  0.14571505418E+03  0.11256594850E+03 0.  0.
          5    1    3    3  502    0  0.34607690856E+02  0.32413378117E+02  0.25629006912E+02  0.54061425643E+02  0.41800000000E+01 0. -1.
         -5    1    3    3    0  502 -0.54947249851E+01 -0.76148600151E+02  0.50538242115E+02  0.91653628535E+02  0.41800000000E+01 0.  1.
        -11    1    1    2    0    0 -0.24835860551E+02  0.72242901798E+02 -0.18027758496E+02  0.78491126288E+02  0.00000000000E+00 0. -1.
         11    1    1    2    0    0 -0.42771053193E+01 -0.28507679764E+02 -0.18410504796E+00  0.28827336508E+02  0.00000000000E+00 0.  1.
</event>
<event>
 7    1  0.4394360E-006  0.1082946E+03  0.7561462E-02  0.1263761E+00
          3   -1    0    0  501    0  0.00000000000E+00  0.00000000000E+00  0.11234875689E+02  0.11234875689E+02  0.00000000000E+00 0.  1.
         -3   -1    0    0    0  501 -0.00000000000E+00 -0.00000000000E+00 -0.13931391290E+04  0.13931391290E+04  0.00000000000E+00 0. -1.
         23    2    1    2    0    0 -0.44528844043E+02 -0.14605434383E+01 -0.10157349535E+04  0.10243778280E+04  0.12508991796E+03 0.  0.
          5    1    3    3  502    0 -0.81555016549E+02 -0.22695429045E+02 -0.79576318784E+03  0.80026422308E+03  0.41800000000E+01 0.  1.
         -5    1    3    3    0  502  0.37026172506E+02  0.21234885607E+02 -0.21997176571E+03  0.22411360496E+03  0.41800000000E+01 0.  1.
        -11    1    1    2    0    0  0.42255147574E+02  0.35281142190E+02 -0.30620949430E+03  0.31111816226E+03  0.00000000000E+00 0. -1.
         11    1    1    2    0    0  0.22736964689E+01 -0.33820598751E+02 -0.59959805501E+02  0.68878014426E+02  0.00000000000E+00 0.  1.
</event>
<event>
 7    1  0.4394360E-006  0.1235506E+03  0.7561462E-02  0.1237352E+00
          1   -1    0    0  501    0  0.00000000000E+00  0.00000000000E+00  0.49860154566E+02  0.49860154566E+02  0.00000000000E+00 0. -1.
         -1   -1    0    0    0  501 -0.00000000000E+00 -0.00000000000E+00 -0.38132552505E+03  0.38132552505E+03  0.00000000000E+00 0.  1.
         23    2    1    2    0    0  0.96921712221E+01  0.76385329641E+02 -0.24748002914E+03  0.28779779259E+03  0.12511014279E+03 0.  0.
          5    1    3    3  502    0 -0.51744742300E+02  0.10978965401E+02 -0.12594534546E+03  0.13666659606E+03  0.41800000000E+01 0. -1.
         -5    1    3    3    0  502  0.61436913522E+02  0.65406364240E+02 -0.12153468368E+03  0.15113119653E+03  0.41800000000E+01 0. -1.
        -11    1    1    2    0    0 -0.23228669083E+02  0.32269350758E+01  0.41876972280E+01  0.23822698954E+02  0.00000000000E+00 0. -1.
         11    1    1    2    0    0  0.13536497861E+02 -0.79612264717E+02 -0.88173038579E+02  0.11956518808E+03  0.00000000000E+00 0.  1.
</event>
<event>
 7    1  0.4394360E-006  0.1298730E+03  0.7561462E-02  0.1227644E+00
          3   -1    0    0  501    0  0.00000000000E+00  0.00000000000E+00  0.41680729167E+02  0.41680729167E+02  0.00000000000E+00 0. -1.
         -3   -1    0    0    0  501 -0.00000000000E+00 -0.00000000000E+00 -0.59656883671E+03  0.59656883671E+03  0.00000000000E+00 0.  1.
         23    2    1    2    0    0  0.36600564336E+02 -0.81047196617E+02 -0.44308846428E+03  0.46891629961E+03  0.12508740735E+03 0.  0.
          5    1    3    3  502    0 -0.17511398773E+01  0.22179881988E+02 -0.20858723951E+03  0.20981211248E+03  0.41800000000E+01 0. -1.
         -5    1    3    3    0  502  0.38351704213E+02 -0.10322707861E+03 -0.23450122477E+03  0.25910418714E+03  0.41800000000E+01 0. -1.
        -11    1    1    2    0    0 -0.61939241487E+02  0.27705743672E+02 -0.65281978622E+02  0.94158454751E+02  0.00000000000E+00 0.  1.
         11    1    1    2    0    0  0.25338677151E+02  0.53341452945E+02 -0.46517664644E+02  0.75174811513E+02  0.00000000000E+00 0. -1.
</event>
<event>
 7    1  0.4394360E-006  0.2870754E+03  0.7561462E-02  0.1091886E+00
          2   -1    0    0  501    0  0.00000000000E+00  0.00000000000E+00  0.13012504957E+04  0.13012504957E+04  0.00000000000E+00 0. -1.
         -2   -1    0    0    0  501 -0.00000000000E+00 -0.00000000000E+00 -0.72645703553E+02  0.72645703553E+02  0.00000000000E+00 0.  1.
         23    2    1    2    0    0  0.18266308091E+03  0.22041250208E+03  0.67386242290E+03  0.74275374312E+03  0.12508031706E+03 0.  0.
          5    1    3    3  502    0  0.11616789489E+03  0.14849184635E+03  0.56791105040E+03  0.59840224081E+03  0.41800000000E+01 0.  1.
         -5    1    3    3    0  502  0.66495186023E+02  0.71920655732E+02  0.10595137250E+03  0.14435150231E+03  0.41800000000E+01 0.  1.
        -11    1    1    2    0    0 -0.11871681606E+03 -0.12249402858E+03  0.23273287922E+03  0.28855339631E+03  0.00000000000E+00 0.  1.
         11    1    1    2    0    0 -0.63946264856E+02 -0.97918473508E+02  0.32200948999E+03  0.34258905979E+03  0.00000000000E+00 0. -1.
</event>
<event>
 7    1  0.4394360E-006  0.1035000E+03  0.7561462E-02  0.1273104E+00
          2   -1    0    0  501    0  0.00000000000E+00  0.00000000000E+00  0.81521127944E+03  0.81521127944E+03  0.00000000000E+00 0. -1.
         -2   -1    0    0    0  501 -0.00000000000E+00 -0.00000000000E+00 -0.17587113010E+02  0.17587113010E+02  0.00000000000E+00 0.  1.
         23    2    1    2    0    0  0.15010789009E+02  0.18814865549E+02  0.34132867188E+03  0.36432690442E+03  0.12509799393E+03 0.  0.
          5    1    3    3  502    0  0.51639370929E+02 -0.17256255781E+02  0.73431749034E+02  0.91510093212E+02  0.41800000000E+01 0. -1.
         -5    1    3    3    0  502 -0.36628581920E+02  0.36071121331E+02  0.26789692285E+03  0.27281681121E+03  0.41800000000E+01 0. -1.
        -11    1    1    2    0    0 -0.42016743721E+02  0.25333021643E+02  0.14959319695E+03  0.15743345678E+03  0.00000000000E+00 0.  1.
         11    1    1    2    0    0  0.27005954712E+02 -0.44147887192E+02  0.30670229760E+03  0.31103803125E+03  0.00000000000E+00 0. -1.
</event>
<event>
 7    1  0.4394360E-006  0.9309402E+02  0.7561462E-02  0.1295527E+00
          1   -1    0    0  501    0  0.00000000000E+00  0.00000000000E+00  0.13951128234E+03  0.13951128234E+03  0.00000000000E+00 0. -1.
         -1   -1    0    0    0  501 -0.00000000000E+00 -0.00000000000E+00 -0.10093898380E+03  0.10093898380E+03  0.00000000000E+00 0.  1.
         23    2    1    2    0    0  0.57031889608E+02  0.20204421789E+02  0.11119185425E+02  0.12766795488E+03  0.11186874151E+03 0.  0.
          5    1    3    3  502    0  0.25811607330E+02  0.33706308008E+02  0.56502859489E+02  0.70798303673E+02  0.41800000000E+01 0. -1.
         -5    1    3    3    0  502  0.31220282278E+02 -0.13501886219E+02 -0.45383674064E+02  0.56869651208E+02  0.41800000000E+01 0.  1.
        -11    1    1    2    0    0  0.23368068688E+02 -0.16810378336E+02  0.48072509150E+01  0.29185015254E+02  0.00000000000E+00 0.  1.
         11    1    1    2    0    0 -0.80399958296E+02 -0.33940434531E+01  0.22645862198E+02  0.83597296007E+02  0.00000000000E+00 0. -1.
</event>
<event>
 6    1  0.4394360E-006  0.1579940E+03  0.7561462E-02  0.1190980E+00
         -2   -1    0    0    0  501 -0.00000000000E+00  0.00000000000E+00  0.50723997880E+02  0.50723997880E+02  0.00000000000E+00 0.  1.
          2   -1    0    0  501    0  0.00000000000E+00 -0.00000000000E+00 -0.52289050873E+03  0.52289050873E+03  0.00000000000E+00 0. -1.
          5    1    1    2  502    0 -0.13446267296E+02 -0.13637931592E+03 -0.25541848616E+03  0.28988997118E+03  0.41800000000E+01 0. -1.
         -5    1    1    2    0  502 -0.12333790673E+02  0.59745698770E+02 -0.60764977854E+02  0.86206298189E+02  0.41800000000E+01 0.  1.
        -11    1    1    2    0    0  0.34334124348E+02  0.93072698150E+02 -0.14586978235E+03  0.17640678173E+03  0.00000000000E+00 0.  1.
         11    1    1    2    0    0 -0.85540663794E+01 -0.16439080996E+02 -0.10113264483E+02  0.21111455519E+02  0.00000000000E+00 0. -1.
</event>
<event>
 7    1  0.4394360E-006  0.1572250E+03  0.7561462E-02  0.1191866E+00
         -1   -1    0    0    0  501 -0.00000000000E+00  0.00000000000E+00  0.19723213130E+03  0.19723213130E+03  0.00000000000E+00 0.  1.
          1   -1    0    0  501    0  0.00000000000E+00 -0.00000000000E+00 -0.15793039966E+03  0.15793039966E+03  0.00000000000E+00 0. -1.
         23    2    1    2    0    0 -0.13384041113E+03 -0.16072643646E+02  0.53934800840E+02  0.19164757996E+03  0.12509295199E+03 0.  0.
          5    1    3    3  502    0 -0.12348031528E+02  0.25189221792E+02  0.56528988094E+02  0.63245313440E+02  0.41800000000E+01 0. -1.
         -5    1    3    3    0  502 -0.12149237960E+03 -0.41261865439E+02 -0.25941872537E+01  0.12840226652E+03  0.41800000000E+01 0. -1.
        -11    1    1    2    0    0  0.13946042393E+03 -0.12850162778E+01 -0.26209052991E+02  0.14190763041E+03  0.00000000000E+00 0.  1.
         11    1    1    2    0    0 -0.56200128024E+01  0.17357659924E+02  0.11575983792E+02  0.21607320581E+02  0.00000000000E+00 0. -1.
</event>
<event>
 7    1  0.4394360E-006  0.1124694E+03  0.7561462E-02  0.1256064E+00
         -2   -1    0    0    0  501 -0.00000000000E+00  0.00000000000E+00  0.71340550765E+03  0.71340550765E+03  0.00000000000E+00 0.  1.
          2   -1    0    0  501    0  0.00000000000E+00 -0.00000000000E+00 -0.23938777330E+02  0.23938777330E+02  0.00000000000E+00 0. -1.
         23    2    1    2    0    0  0.24720270366E+02  0.58994066504E+02  0.46305114718E+03  0.48389660518E+03  0.12509263747E+03 0.  0.
          5    1    3    3  502    0  0.17519603348E+02 -0.25287810751E+02  0.28547325985E+03  0.28715651545E+03  0.41800000000E+01 0.  1.
         -5    1    3    3    0  502  0.72006670173E+01  0.84281877255E+02  0.17757788732E+03  0.19674008973E+03  0.41800000000E+01 0.  1.
        -11    1    1    2    0    0 -0.57693324771E+02 -0.45890558262E+02  0.18356244351E+03  0.19781211724E+03  0.00000000000E+00 0.  1.
         11    1    1    2    0    0  0.32973054405E+02 -0.13103508242E+02  0.42853139636E+02  0.55635562563E+02  0.00000000000E+00 0. -1.
</event>
<event>
 7    1  0.4394360E-006  0.1169965E+03  0.7561462E-02  0.1248136E+00
          1   -1    0    0  501    0  0.00000000000E+00  0.00000000000E+00  0.38880361125E+03  0.38880361125E+03  0.00000000000E+00 0. -1.
         -1   -1    0    0    0  501 -0.00000000000E+00 -0.00000000000E+00 -0.42115079878E+02  0.42115079878E+02  0.00000000000E+00 0.  1.
         23    2    1    2    0    0 -0.57368200912E+02 -0.17788961356E+00  0.13689553538E+03  0.19410659636E+03  0.12508333631E+03 0.  0.
          5    1    3    3  502    0  0.11205314640E+02 -0.48749878811E+02  0.31557120021E+02  0.59291095320E+02  0.41800000000E+01 0. -1.
         -5    1    3    3    0  502 -0.68573515552E+02  0.48571989197E+02  0.10533841536E+03  0.13481550104E+03  0.41800000000E+01 0. -1.
        -11    1    1    2    0    0  0.40959942019E+02 -0.39389178110E+02  0.16641355472E+03  0.17584850126E+03  0.00000000000E+00 0.  1.
         11    1    1    2    0    0  0.16408258893E+02  0.39567067724E+02  0.43379441276E+02  0.60963593510E+02  0.00000000000E+00 0. -1.
</event>
<event>
 6    1  0.4394360E-006  0.8318144E+02  0.7561462E-02  0.1320258E+00
         -2   -1    0    0    0  501 -0.00000000000E+00  0.00000000000E+00  0.11836798633E+03  0.11836798633E+03  0.00000000000E+00 0.  1.
          2   -1    0    0  501    0  0.00000000000E+00 -0.00000000000E+00 -0.22221730670E+03  0.22221730670E+03  0.00000000000E+00 0. -1.
          5    1    1    2  502    0 -0.78132431898E+01  0.35946997891E+02 -0.12099343147E+03  0.12653108821E+03  0.41800000000E+01 0. -1.
         -5    1    1    2    0  502  0.78754887957E+01  0.21531005610E+02  0.82890058551E+02  0.86103668522E+02  0.41800000000E+01 0.  1.
        -11    1    1    2    0    0 -0.90069022577E+01  0.23187748903E+02 -0.30788799264E+02  0.39582144302E+02  0.00000000000E+00 0. -1.
         11    1    1    2    0    0  0.89446566517E+01 -0.80665752404E+02 -0.34957148186E+02  0.88368391989E+02  0.00000000000E+00 0.  1.
</event>
<event>
 6    1  0.4394360E-006  0.1206491E+03  0.7561462E-02  0.1242030E+00
         -1   -1    0    0    0  501 -0.00000000000E+00  0.00000000000E+00  0.56028020478E+03  0.56028020478E+03  0.00000000000E+00 0.  1.
          1   -1    0    0  501    0  0.00000000000E+00 -0.00000000000E+00 -0.76314481024E+02  0.76314481024E+02  0.00000000000E+00 0. -1.
          5    1    1    2  502    0  0.36419420069E+02 -0.56483923601E+02  0.92183938454E+02  0.11415848060E+03  0.41800000000E+01 0. -1.
         -5    1    1    2    0  502 -0.67676046969E+02  0.11535234484E+02  0.40891714943E+03  0.41466108627E+03  0.41800000000E+01 0.  1.
        -11    1    1    2    0    0 -0.27244129107E+02  0.37289880206E+02 -0.15632374540E+02  0.48756013684E+02  0.00000000000E+00 0. -1.
         11    1    1    2    0    0  0.58500756008E+02  0.76588089119E+01 -0.15029895862E+01  0.59019105255E+02  0.00000000000E+00 0.  1.
</event>
<event>
 7    1  0.4394360E-006  0.1061346E+03  0.7561462E-02  0.1267900E+00
          1   -1    0    0  501    0  0.00000000000E+00  0.00000000000E+00  0.40345922862E+03  0.40345922862E+03  0.00000000000E+00 0. -1.
         -1   -1    0    0    0  501 -0.00000000000E+00 -0.00000000000E+00 -0.37908895572E+02  0.37908895572E+02  0.00000000000E+00 0.  1.
         23    2    1    2    0    0  0.18498811425E+02 -0.53346461969E+02  0.17522842804E+03  0.22257764915E+03  0.12509099440E+03 0.  0.
          5    1    3    3  502    0 -0.34753814159E+02 -0.71710313583E+02  0.11534838926E+03  0.14026018672E+03  0.41800000000E+01 0.  1.
         -5    1    3    3    0  502  0.53252625584E+02  0.18363851614E+02  0.59880038774E+02  0.82317462432E+02  0.41800000000E+01 0.  1.
        -11    1    1    2    0    0  0.80880651904E+01  0.48240636378E+02  0.18479546294E+03  0.19115945941E+03  0.00000000000E+00 0. -1.
         11    1    1    2    0    0 -0.26586876615E+02  0.51058255914E+01  0.55264420708E+01  0.27631015636E+02  0.00000000000E+00 0.  1.
</event>
<event>
 7    1  0.4394360E-006  0.9091596E+02  0.7561462E-02  0.1300649E+00
          3   -1    0    0  501    0  0.00000000000E+00  0.00000000000E+00  0.68238564739E+02  0.68238564739E+02  0.00000000000E+00 0. -1.
         -3   -1    0    0    0  501 -0.00000000000E+00 -0.00000000000E+00 -0.23498921223E+03  0.23498921223E+03  0.00000000000E+00 0.  1.
         23    2    1    2    0    0  0.17112351142E+01  0.12196170724E+02 -0.16965877578E+03  0.21114904156E+03  0.12509253632E+03 0.  0.
          5    1    3    3  502    0 -0.31243652880E+02 -0.33882688274E+02 -0.13920513069E+03  0.14669609136E+03  0.41800000000E+01 0.  1.
         -5    1    3    3    0  502  0.32954887995E+02  0.46078858997E+02 -0.30453645090E+02  0.64452950193E+02  0.41800000000E+01 0.  1.
        -11    1    1    2    0    0 -0.39601808610E+02 -0.97229748788E+01 -0.22323761939E+02  0.46488598955E+02  0.00000000000E+00 0.  1.
         11    1    1    2    0    0  0.37890573496E+02 -0.24731958448E+01  0.25231890232E+02  0.45590136458E+02  0.00000000000E+00 0. -1.
</event>
<event>
 7    1  0.4394360E-006  0.1284098E+03  0.7561462E-02  0.1229835E+00
          1   -1    0    0  501    0  0.00000000000E+00  0.00000000000E+00  0.10835678397E+03  0.10835678397E+03  0.00000000000E+00 0. -1.
         -1   -1    0    0    0  501 -0.00000000000E+00 -0.00000000000E+00 -0.20779328312E+03  0.20779328312E+03  0.00000000000E+00 0.  1.
         23    2    1    2    0    0  0.22689013324E+02 -0.92609048112E+02 -0.94588203616E+02  0.18353585223E+03  0.12508898302E+03 0.  0.
          5    1    3    3  502    0 -0.19144301296E+02 -0.10357179979E+03 -0.37686987312E+02  0.11194375104E+03  0.41800000000E+01 0.  1.
         -5    1    3    3    0  502  0.41833314620E+02  0.10962751680E+02 -0.56901216304E+02  0.71592101194E+02  0.41800000000E+01 0.  1.
        -11    1    1    2    0    0  0.16101386121E+02  0.34814398638E+02  0.35411572851E+02  0.52204180669E+02  0.00000000000E+00 0. -1.
         11    1    1    2    0    0 -0.38790399446E+02  0.57794649474E+02 -0.40259868383E+02  0.80410034195E+02  0.00000000000E+00 0.  1.
</event>
<event>
 7    1  0.4394360E-006  0.1146088E+03  0.7561462E-02  0.1252266E+00
         -2   -1    0    0    0  501 -0.00000000000E+00  0.00000000000E+00  0.11127371737E+03  0.11127371737E+03  0.00000000000E+00 0.  1.
          2   -1    0    0  501    0  0.00000000000E+00 -0.00000000000E+00 -0.26175339329E+03  0.26175339329E+03  0.00000000000E+00 0. -1.
         23    2    1    2    0    0 -0.65364020648E+02  0.71546032770E+02  0.15531686181E+02  0.15900087789E+03  0.12509498748E+03 0.  0.
          5    1    3    3  502    0 -0.30763853577E+02  0.28907392227E+02 -0.55036648828E+02  0.69487819986E+02  0.41800000000E+01 0.  1.
         -5    1    3    3    0  502 -0.34600167071E+02  0.42638640543E+02  0.70568335009E+02  0.89513057900E+02  0.41800000000E+01 0.  1.
        -11    1    1    2    0    0  0.43501281225E+02  0.12195472585E+02 -0.35648838905E+02  0.57549376496E+02  0.00000000000E+00 0. -1.
         11    1    1    2    0    0  0.21862739423E+02 -0.83741505355E+02 -0.13036252320E+03  0.15647685628E+03  0.00000000000E+00 0.  1.
</event>
<event>
 7    1  0.4394360E-006  0.1398440E+03  0.7561462E-02  0.1213539E+00
          3   -1    0    0  501    0  0.00000000000E+00  0.00000000000E+00  0.14388799051E+03  0.14388799051E+03  0.00000000000E+00 0. -1.
         -3   -1    0    0    0  501 -0.00000000000E+00 -0.00000000000E+00 -0.14762466766E+03  0.14762466766E+03  0.00000000000E+00 0.  1.
         23    2    1    2    0    0  0.34135380377E+02  0.85056134305E+02 -0.34171239978E+02  0.15878957922E+03  0.12508671652E+03 0.  0.
          5    1    3    3  502    0  0.72706112739E+02  0.20532169458E+02 -0.35293587807E+02  0.83491667564E+02  0.41800000000E+01 0. -1.
         -5    1    3    3    0  502 -0.38570732362E+02  0.64523964847E+02  0.11223478288E+01  0.75297911652E+02  0.41800000000E+01 0. -1.
        -11    1    1    2    0    0  0.22974939138E+02 -0.63774379711E+02  0.21566237222E+02  0.71134533975E+02  0.00000000000E+00 0.  1.
         11    1    1    2    0    0 -0.57110319515E+02 -0.21281754594E+02  0.88683256025E+01  0.61588544980E+02  0.00000000000E+00 0. -1.
</event>
<event>
 7    1  0.4394360E-006  0.1497141E+03  0.7561462E-02  0.1200825E+00
         -1   -1    0    0    0  501 -0.00000000000E+00  0.00000000000E+00  0.25881529821E+02  0.25881529821E+02  0.00000000000E+00 0.  1.
          1   -1    0    0  501    0  0.00000000000E+00 -0.00000000000E+00 -0.10793709293E+04  0.10793709293E+04  0.00000000000E+00 0. -1.
         23    2    1    2    0    0  0.52269729727E+02 -0.11421219835E+03 -0.52566384671E+03  0.55474880171E+03  0.12508877794E+03 0.  0.
          5    1    3    3  502    0  0.40273682751E+02  0.95494151178E+01 -0.23383866236E+03  0.23751032244E+03  0.41800000000E+01 0. -1.
         -5    1    3    3    0  502  0.11996046976E+02 -0.12376161347E+03 -0.29182518435E+03  0.31723847928E+03  0.41800000000E+01 0. -1.
        -11    1    1    2    0    0 -0.22239882507E+02  0.89835856719E+01 -0.20629431550E+02  0.31636855588E+02  0.00000000000E+00 0.  1.
         11    1    1    2    0    0 -0.30029847220E+02  0.10522861268E+03 -0.50719612124E+03  0.51886680184E+03  0.00000000000E+00 0. -1.
</event>
<event>
 7    1  0.4394360E-006  0.1221684E+03  0.7561462E-02  0.1239562E+00
          1   -1    0    0  501    0  0.00000000000E+00  0.00000000000E+00  0.37651957645E+03  0.37651957645E+03  0.00000000000E+00 0. -1.
         -1   -1    0    0    0  501 -0.00000000000E+00 -0.00000000000E+00 -0.96629589955E+02  0.96629589955E+02  0.00000000000E+00 0.  1.
         23    2    1    2    0    0  0.82260308516E+02 -0.62717899096E+00 -0.18406184448E+02  0.15083597284E+03  0.12508217845E+03 0.  0.
          5    1    3    3  502    0 -0.19804406162E+01  0.34033173659E+02 -0.44288408665E+02  0.56045647435E+02  0.41800000000E+01 0.  1.
         -5    1    3    3    0  502  0.84240749133E+02 -0.34660352650E+02  0.25882224217E+02  0.94790325407E+02  0.41800000000E+01 0.  1.
        -11    1    1    2    0    0  0.18022124291E+02 -0.38157233225E+01  0.79234660946E+02  0.81347945295E+02  0.00000000000E+00 0. -1.
         11    1    1    2    0    0 -0.10028243281E+03  0.44429023134E+01  0.21906150999E+03  0.24096524827E+03  0.00000000000E+00 0.  1.
</event>
<event>
 7    1  0.4394360E-006  0.9987302E+02  0.7561462E-02  0.1280563E+00
         -3   -1    0    0    0  501 -0.00000000000E+00  0.00000000000E+00  0.17267213611E+03  0.17267213611E+03  0.00000000000E+00 0.  1.
          3   -1    0    0  501    0  0.00000000000E+00 -0.00000000000E+00 -0.12941957457E+03  0.12941957457E+03  0.00000000000E+00 0. -1.
         23    2    1    2    0    0 -0.37827702438E+02  0.82367041416E+02  0.70738738845E+02  0.16990076335E+03  0.12508811147E+03 0.  0.
          5    1    3    3  502    0  0.89805367893E+01  0.23262235272E+02 -0.33011218273E+02  0.41581180392E+02  0.41800000000E+01 0. -1.
         -5    1    3    3    0  502 -0.46808239227E+02  0.59104806144E+02  0.10374995712E+03  0.12831958296E+03  0.41800000000E+01 0. -1.
        -11    1    1    2    0    0  0.31799755874E+02 -0.22917206873E+02  0.29933489942E+02  0.49319739097E+02  0.00000000000E+00 0.  1.
         11    1    1    2    0    0  0.60279465638E+01 -0.59449834544E+02 -0.57419667252E+02  0.82871208235E+02  0.00000000000E+00 0. -1.
</event>
<event>
 7    1  0.4394360E-006  0.2438324E+03  0.7561462E-02  0.1117266E+00
          4   -1    0    0  501    0  0.00000000000E+00  0.00000000000E+00  0.15098033879E+03  0.15098033879E+03  0.00000000000E+00 0. -1.
         -4   -1    0    0    0  501 -0.00000000000E+00 -0.00000000000E+00 -0.46477195548E+03  0.46477195548E+03  0.00000000000E+00 0.  1.
         23    2    1    2    0    0 -0.11135120841E+03 -0.21221653779E+03 -0.19953864830E+03  0.33599868905E+03  0.12507796108E+03 0.  0.
          5    1    3    3  502    0 -0.19469918767E+02 -0.39014613063E+01 -0.72408618723E+02  0.75198268614E+02  0.41800000000E+01 0.  1.
         -5    1    3    3    0  502 -0.91881289646E+02 -0.20831507648E+03 -0.12713002958E+03  0.26080042043E+03  0.41800000000E+01 0.  1.
        -11    1    1    2    0    0  0.82204904761E+02  0.15702670184E+03 -0.12437129411E+03  0.21652540326E+03  0.00000000000E+00 0.  1.
         11    1    1    2    0    0  0.29146303652E+02  0.55189835950E+02  0.10118325716E+02  0.63228201968E+02  0.00000000000E+00 0. -1.
</event>
<event>
 7    1  0.7255469E-006  0.1275148E+03  0.7561462E-02  0.1231191E+00
         -1   -1    0    0    0  501 -0.00000000000E+00  0.00000000000E+00  0.32488645683E+02  0.32488645683E+02  0.00000000000E+00 0.  1.
          1   -1    0    0  501    0  0.00000000000E+00 -0.00000000000E+00 -0.64784649750E+03  0.64784649750E+03  0.00000000000E+00 0. -1.
         23    2    1    2    0    0  0.19247080319E+02 -0.90577690447E+02 -0.27670399835E+03  0.31746994350E+03  0.12508914506E+03 0.  0.
          5    1    3    3  502    0  0.44022817896E+02  0.17677379686E+01 -0.31700780656E+02  0.54438454122E+02  0.41800000000E+01 0.  1.
         -5    1    3    3    0  502 -0.24775737577E+02 -0.92345428416E+02 -0.24500321770E+03  0.26303148938E+03  0.41800000000E+01 0.  1.
        -11    1    1    2    0    0  0.25748078559E+02  0.28606983660E+02 -0.20708173285E+03  0.21062803029E+03  0.00000000000E+00 0. -1.
         11    1    1    2    0    0 -0.44995158877E+02  0.61970706787E+02 -0.13157212061E+03  0.15223716939E+03  0.00000000000E+00 0.  1.
</event>
<event>
 7    1  0.4394360E-006  0.1096387E+03  0.7561462E-02  0.1261240E+00
          1   -1    0    0  501    0  0.00000000000E+00  0.00000000000E+00  0.29160383256E+03  0.29160383256E+03  0.00000000000E+00 0. -1.
         -1   -1    0    0    0  501 -0.00000000000E+00 -0.00000000000E+00 -0.43742925643E+02  0.43742925643E+02  0.00000000000E+00 0.  1.
         23    2    1    2    0    0  0.77190384337E+01  0.12082208113E+02  0.14695918189E+03  0.19351793877E+03  0.12508648278E+03 0.  0.
          5    1    3    3  502    0  0.55166591436E+02 -0.29176426449E+02  0.80341425270E+02  0.10181764918E+03  0.41800000000E+01 0.  1.
         -5    1    3    3    0  502 -0.47447553003E+02  0.41258634561E+02  0.66617756624E+02  0.91700289582E+02  0.41800000000E+01 0.  1.
        -11    1    1    2    0    0  0.17449298103E+02  0.35684877050E+02  0.19761682426E+02  0.44366795542E+02  0.00000000000E+00 0.  1.
         11    1    1    2    0    0 -0.25168336537E+02 -0.47767085163E+02  0.81140042600E+02  0.97462023897E+02  0.00000000000E+00 0. -1.
</event>
<event>
 7    1  0.4394360E-006  0.1065022E+03  0.7561462E-02  0.1267188E+00
         -2   -1    0    0    0  501 -0.00000000000E+00  0.00000000000E+00  0.26045935019E+03  0.26045935019E+03  0.00000000000E+00 0.  1.
          2   -1    0    0  501    0  0.00000000000E+00 -0.00000000000E+00 -0.58063925481E+02  0.58063925481E+02  0.00000000000E+00 0. -1.
         23    2    1    2    0    0 -0.42905015427E+02  0.37439470016E+02  0.12680279104E+03  0.18700209537E+03  0.12509309172E+03 0.  0.
          5    1    3    3  502    0 -0.51979275750E+02 -0.27615127386E+02  0.99636459303E+02  0.11579869080E+03  0.41800000000E+01 0. -1.
         -5    1    3    3    0  502  0.90742603234E+01  0.65054597402E+02  0.27166331732E+02  0.71203404577E+02  0.41800000000E+01 0. -1.
        -11    1    1    2    0    0  0.54266155383E+02 -0.58159572727E+01  0.68497011883E+01  0.55005085087E+02  0.00000000000E+00 0. -1.
         11    1    1    2    0    0 -0.11361139956E+02 -0.31623512744E+02  0.68742932488E+02  0.76516095212E+02  0.00000000000E+00 0.  1.
</event>
<event>
 7    1  0.4394360E-006  0.1143890E+03  0.7561462E-02  0.1252651E+00
         -4   -1    0    0    0  501 -0.00000000000E+00  0.00000000000E+00  0.14629499834E+03  0.14629499834E+03  0.00000000000E+00 0.  1.
          4   -1    0    0  501    0  0.00000000000E+00 -0.00000000000E+00 -0.15631799963E+03  0.15631799963E+03  0.00000000000E+00 0. -1.
         23    2    1    2    0    0 -0.48821081244E+02  0.11919414048E+02  0.91770865849E+02  0.15716268629E+03  0.11727168345E+03 0.  0.
          5    1    3    3  502    0 -0.29855529562E+02  0.63274758826E+02  0.35588485542E+02  0.78607000026E+02  0.41800000000E+01 0. -1.
         -5    1    3    3    0  502 -0.18965551681E+02 -0.51355344778E+02  0.56182380307E+02  0.78555686267E+02  0.41800000000E+01 0.  1.
        -11    1    1    2    0    0  0.47729121145E+02 -0.47997470625E+02 -0.63179344820E+02  0.92592957635E+02  0.00000000000E+00 0.  1.
         11    1    1    2    0    0  0.10919600984E+01  0.36078056577E+02 -0.38614522320E+02  0.52857354050E+02  0.00000000000E+00 0. -1.
</event>
<event>
 7    1  0.4394360E-006  0.1006987E+03  0.7561462E-02  0.1278833E+00
          1   -1    0    0  501    0  0.00000000000E+00  0.00000000000E+00  0.72465860521E+02  0.72465860521E+02  0.00000000000E+00 0. -1.
         -1   -1    0    0    0  501 -0.00000000000E+00 -0.00000000000E+00 -0.23443201304E+03  0.23443201304E+03  0.00000000000E+00 0.  1.
         23    2    1    2    0    0  0.18434183758E+02 -0.46430756921E+02 -0.14944182862E+03  0.20117514445E+03  0.12507175654E+03 0.  0.
          5    1    3    3  502    0  0.42292200624E+02  0.17418078497E+02 -0.11676020738E+03  0.12546887311E+03  0.41800000000E+01 0.  1.
         -5    1    3    3    0  502 -0.23858016866E+02 -0.63848835418E+02 -0.32681621242E+02  0.75706271338E+02  0.41800000000E+01 0.  1.
        -11    1    1    2    0    0 -0.23532035818E+02  0.64366592744E+02  0.17177341062E+02  0.70653209532E+02  0.00000000000E+00 0. -1.
         11    1    1    2    0    0  0.50978520604E+01 -0.17935835823E+02 -0.29701664962E+02  0.35069519584E+02  0.00000000000E+00 0.  1.
</event>
<event>
 7    1  0.4394360E-006  0.1074979E+03  0.7561462E-02  0.1265275E+00
         -1   -1    0    0    0  501 -0.00000000000E+00  0.00000000000E+00  0.46862785408E+02  0.46862785408E+02  0.00000000000E+00 0.  1.
          1   -1    0    0  501    0  0.00000000000E+00 -0.00000000000E+00 -0.38923507596E+03  0.38923507596E+03  0.00000000000E+00 0. -1.
         23    2    1    2    0    0  0.25671438732E+02 -0.65839086010E+02 -0.12147285165E+03  0.18814366246E+03  0.12509426854E+03 0.  0.
          5    1    3    3  502    0  0.72913124702E+02 -0.45468616799E+02 -0.48495118492E+02  0.98757115111E+02  0.41800000000E+01 0.  1.
         -5    1    3    3    0  502 -0.47241685970E+02 -0.20370469211E+02 -0.72977733162E+02  0.89386547347E+02  0.41800000000E+01 0.  1.
        -11    1    1    2    0    0 -0.58559488465E+01  0.53896081027E+02 -0.21799648421E+03  0.22463647704E+03  0.00000000000E+00 0. -1.
         11    1    1    2    0    0 -0.19815489886E+02  0.11943004983E+02 -0.29029546864E+01  0.23317721873E+02  0.00000000000E+00 0.  1.
</event>
<event>
 6    1  0.4394360E-006  0.7662143E+02  0.7561462E-02  0.1338922E+00
         -2   -1    0    0    0  501 -0.00000000000E+00  0.00000000000E+00  0.41313330349E+03  0.41313330349E+03  0.00000000000E+00 0.  1.
          2   -1    0    0  501    0  0.00000000000E+00 -0.00000000000E+00 -0.58045682629E+02  0.58045682629E+02  0.00000000000E+00 0. -1.
          5    1    1    2  502    0  0.29665747529E+02 -0.29530304176E+01 -0.20560501609E+02  0.36455227218E+02  0.41800000000E+01 0. -1.
         -5    1    1    2    0  502  0.31356382663E+02 -0.22285576744E+02  0.28837138839E+03  0.29095600991E+03  0.41800000000E+01 0.  1.
        -11    1    1    2    0    0 -0.39428572768E+02  0.41626268974E+02  0.98864411325E+02  0.11428705284E+03  0.00000000000E+00 0.  1.
         11    1    1    2    0    0 -0.21593557425E+02 -0.16387661812E+02 -0.11587677240E+02  0.29480696154E+02  0.00000000000E+00 0. -1.
</event>
<event>
 7    1  0.4394360E-006  0.1149369E+03  0.7561462E-02  0.1251691E+00
         -2   -1    0    0    0  501 -0.00000000000E+00  0.00000000000E+00  0.35332717804E+02  0.35332717804E+02  0.00000000000E+00 0.  1.
          2   -1    0    0  501    0  0.00000000000E+00 -0.00000000000E+00 -0.40351302177E+03  0.40351302177E+03  0.00000000000E+00 0. -1.
         23    2    1    2    0    0 -0.11754008816E+01 -0.47079846857E+02 -0.19103672570E+03  0.23315106362E+03  0.12508594786E+03 0.  0.
          5    1    3    3  502    0 -0.56858669562E+02  0.93560059482E+00 -0.59561848878E+02  0.82455259958E+02  0.41800000000E+01 0.  1.
         -5    1    3    3    0  502  0.55683268681E+02 -0.48015447452E+02 -0.13147487683E+03  0.15069580366E+03  0.41800000000E+01 0.  1.
        -11    1    1    2    0    0  0.13674125402E+02 -0.23685052780E+02 -0.82148987675E+02  0.86581866500E+02  0.00000000000E+00 0. -1.
         11    1    1    2    0    0 -0.12498724521E+02  0.70764899637E+02 -0.94994590587E+02  0.11911280945E+03  0.00000000000E+00 0.  1.
</event>
<event>
 6    1  0.4394360E-006  0.1258853E+03  0.7561462E-02  0.1233692E+00
          1   -1    0    0  501    0  0.00000000000E+00  0.00000000000E+00  0.31318109364E+03  0.31318109364E+03  0.00000000000E+00 0. -1.
         -1   -1    0    0    0  501 -0.00000000000E+00 -0.00000000000E+00 -0.53166761746E+02  0.53166761746E+02  0.00000000000E+00 0.  1.
          5    1    1    2  502    0  0.20226201499E+02 -0.61515840411E+02  0.41010590852E+02  0.76763525261E+02  0.41800000000E+01 0. -1.
         -5    1    1    2    0  502  0.24696143327E+01  0.90089271952E+02  0.89494301827E+02  0.12707823722E+03  0.41800000000E+01 0.  1.
        -11    1    1    2    0    0  0.28147841993E+02 -0.35545524828E+02  0.46744482057E+02  0.65121670333E+02  0.00000000000E+00 0. -1.
         11    1    1    2    0    0 -0.50843657825E+02  0.69720932866E+01  0.82764957159E+02  0.97384422571E+02  0.00000000000E+00 0.  1.
</event>
<event>
 7    1  0.4394360E-006  0.1792213E+03  0.7561462E-02  0.1168559E+00
          2   -1    0    0  501    0  0.00000000000E+00  0.00000000000E+00  0.17799837371E+04  0.17799837371E+04  0.00000000000E+00 0. -1.
         -2   -1    0    0    0  501 -0.00000000000E+00 -0.00000000000E+00 -0.21798999262E+02  0.21798999262E+02  0.00000000000E+00 0.  1.
         23    2    1    2    0    0  0.13794843887E+03  0.89266517151E+02  0.90438519247E+03  0.92765963644E+03  0.12506614992E+03 0.  0.
          5    1    3    3  502    0  0.74103090073E+01  0.23141047844E+02  0.21478145348E+02  0.32698683498E+02  0.41800000000E+01 0.  1.
         -5    1    3    3    0  502  0.13053812987E+03  0.66125469307E+02  0.88290704712E+03  0.89496095295E+03  0.41800000000E+01 0.  1.
        -11    1    1    2    0    0 -0.98011216731E+02 -0.10575570850E+03  0.65621390835E+03  0.67186841122E+03  0.00000000000E+00 0. -1.
         11    1    1    2    0    0 -0.39937222143E+02  0.16489191349E+02  0.19758563702E+03  0.20225468870E+03  0.00000000000E+00 0.  1.
</event>
<event>
 7    1  0.4394360E-006  0.8328568E+02  0.7561462E-02  0.1319978E+00
          3   -1    0    0  501    0  0.00000000000E+00  0.00000000000E+00  0.16281829455E+02  0.16281829455E+02  0.00000000000E+00 0. -1.
         -3   -1    0    0    0  501 -0.00000000000E+00 -0.00000000000E+00 -0.92007403055E+03  0.92007403055E+03  0.00000000000E+00 0.  1.
         23    2    1    2    0    0  0.61984781128E+01  0.13040664204E+02 -0.71671996527E+03  0.72769752456E+03  0.12509076136E+03 0.  0.
          5    1    3    3  502    0  0.30222436225E+01  0.44294092367E+02 -0.92647104647E+02  0.10282051826E+03  0.41800000000E+01 0.  1.
         -5    1    3    3    0  502  0.31762344903E+01 -0.31253428163E+02 -0.62407286062E+03  0.62487700630E+03  0.41800000000E+01 0.  1.
        -11    1    1    2    0    0 -0.11548079307E+02 -0.50827578567E+02 -0.12938979559E+03  0.13949379943E+03  0.00000000000E+00 0.  1.
         11    1    1    2    0    0  0.53496011944E+01  0.37786914363E+02 -0.57682440234E+02  0.69164536009E+02  0.00000000000E+00 0. -1.
</event>
<event>
 7    1  0.4394360E-006  0.7475317E+02  0.7561462E-02  0.1344637E+00
         -1   -1    0    0    0  501 -0.00000000000E+00  0.00000000000E+00  0.38390039708E+03  0.38390039708E+03  0.00000000000E+00 0.  1.
          1   -1    0    0  501    0  0.00000000000E+00 -0.00000000000E+00 -0.41780962248E+02  0.41780962248E+02  0.00000000000E+00 0. -1.
         23    2    1    2    0    0  0.16459279146E+02 -0.33422980353E+02  0.28345002793E+03  0.31205686849E+03  0.12509023684E+03 0.  0.
          5    1    3    3  502    0  0.12095012435E+02  0.52997701748E+01  0.27039308916E+03  0.27074761671E+03  0.41800000000E+01 0. -1.
         -5    1    3    3    0  502  0.43642667112E+01 -0.38722750528E+02  0.13056938771E+02  0.41309251778E+02  0.41800000000E+01 0. -1.
        -11    1    1    2    0    0  0.31870763178E+02 -0.79460533928E+01  0.27213012538E+02  0.42654816392E+02  0.00000000000E+00 0.  1.
         11    1    1    2    0    0 -0.48330042324E+02  0.41369033746E+02  0.31456394356E+02  0.70969674439E+02  0.00000000000E+00 0. -1.
</event>
<event>
 7    1  0.4394360E-006  0.1265753E+03  0.7561462E-02  0.1232628E+00
         -1   -1    0    0    0  501 -0.00000000000E+00  0.00000000000E+00  0.37660287074E+02  0.37660287074E+02  0.00000000000E+00 0.  1.
          1   -1    0    0  501    0  0.00000000000E+00 -0.00000000000E+00 -0.44747099219E+03  0.44747099219E+03  0.00000000000E+00 0. -1.
         23    2    1    2    0    0  0.23033206072E+02 -0.63252889064E+02 -0.19070549435E+03  0.23779415811E+03  0.12508404972E+03 0.  0.
          5    1    3    3  502    0 -0.50962383337E+02 -0.37797949531E+02 -0.81066176985E+02  0.10302934997E+03  0.41800000000E+01 0.  1.
         -5    1    3    3    0  502  0.73995589409E+02 -0.25454939533E+02 -0.10963931737E+03  0.13476480814E+03  0.41800000000E+01 0.  1.
        -11    1    1    2    0    0 -0.15127565965E+02  0.85895433051E+02 -0.14256665448E+03  0.16712905086E+03  0.00000000000E+00 0.  1.
         11    1    1    2    0    0 -0.79056401070E+01 -0.22642543987E+02 -0.76538556277E+02  0.80208070296E+02  0.00000000000E+00 0. -1.
</event>
<event>
 7    1  0.4394360E-006  0.1091968E+03  0.7561462E-02  0.1262065E+00
         -1   -1    0    0    0  501 -0.00000000000E+00  0.00000000000E+00  0.25609683597E+02  0.25609683597E+02  0.00000000000E+00 0.  1.
          1   -1    0    0  501    0  0.00000000000E+00 -0.00000000000E+00 -0.63475863838E+03  0.63475863838E+03  0.00000000000E+00 0. -1.
         23    2    1    2    0    0  0.55490742797E+02 -0.37280759561E+02 -0.32235082338E+03  0.35217306153E+03  0.12508690726E+03 0.  0.
          5    1    3    3  502    0  0.46517651091E+02 -0.68907902559E+02 -0.30204595504E+03  0.31330723300E+03  0.41800000000E+01 0. -1.
         -5    1    3    3    0  502  0.89730917061E+01  0.31627142998E+02 -0.20304868340E+02  0.38865828530E+02  0.41800000000E+01 0. -1.
        -11    1    1    2    0    0  0.19587903050E+02  0.45704502188E+01 -0.17305516401E+02  0.26534050935E+02  0.00000000000E+00 0.  1.
         11    1    1    2    0    0 -0.75078645847E+02  0.32710309342E+02 -0.26949261500E+03  0.28166120951E+03  0.00000000000E+00 0. -1.
</event>
<event>
 6    1  0.4394360E-006  0.8911626E+02  0.7561462E-02  0.1305006E+00
         -2   -1    0    0    0  501 -0.00000000000E+00  0.00000000000E+00  0.39195705387E+02  0.39195705387E+02  0.00000000000E+00 0.  1.
          2   -1    0    0  501    0  0.00000000000E+00 -0.00000000000E+00 -0.75654735447E+03  0.75654735447E+03  0.00000000000E+00 0. -1.
          5    1    1    2  502    0  0.24116416026E+02  0.28050349585E+02 -0.24781265199E+03  0.25059330901E+03  0.41800000000E+01 0. -1.
         -5    1    1    2    0  502 -0.15585982342E+02  0.31675850294E+02  0.21803318077E+02  0.41702990500E+02  0.41800000000E+01 0.  1.
        -11    1    1    2    0    0 -0.31032934149E+02 -0.73005176575E+02 -0.42100193934E+03  0.42841035438E+03  0.00000000000E+00 0. -1.
         11    1    1    2    0    0  0.22502500465E+02  0.13278976695E+02 -0.70340375826E+02  0.75036405968E+02  0.00000000000E+00 0.  1.
</event>
<event>
 6    1  0.4394360E-006  0.1429055E+03  0.7561462E-02  0.1209472E+00
         -2   -1    0    0    0  501 -0.00000000000E+00  0.00000000000E+00  0.14951055628E+03  0.14951055628E+03  0.00000000000E+00 0.  1.
          2   -1    0    0  501    0  0.00000000000E+00 -0.00000000000E+00 -0.13777139427E+03  0.13777139427E+03  0.00000000000E+00 0. -1.
          5    1    1    2  502    0  0.86129309578E+02 -0.55461993252E+02  0.41917181594E+01  0.10261254097E+03  0.41800000000E+01 0. -1.
         -5    1    1    2    0  502 -0.76465907841E+02  0.39279292042E+02 -0.13774599954E+01  0.86077102886E+02  0.41800000000E+01 0.  1.
        -11    1    1    2    0    0  0.72335795637E+01 -0.38918062822E+02 -0.31425961392E+01  0.39709145013E+02  0.00000000000E+00 0.  1.
         11    1    1    2    0    0 -0.16896981300E+02  0.55100764033E+02  0.12067499986E+02  0.58883161685E+02  0.00000000000E+00 0. -1.
</event>
<event>
 7    1  0.4394360E-006  0.1076127E+03  0.7561462E-02  0.1265056E+00
         -1   -1    0    0    0  501 -0.00000000000E+00  0.00000000000E+00  0.16553736151E+03  0.16553736151E+03  0.00000000000E+00 0.  1.
          1   -1    0    0  501    0  0.00000000000E+00 -0.00000000000E+00 -0.14730093335E+03  0.14730093335E+03  0.00000000000E+00 0. -1.
         23    2    1    2    0    0 -0.36119010214E+01  0.70877681317E+02  0.96348923644E+02  0.17312227317E+03  0.12510601441E+03 0.  0.
          5    1    3    3  502    0  0.27439709371E+02  0.40598518444E+01 -0.20622274586E+02  0.34816241274E+02  0.41800000000E+01 0.  1.
         -5    1    3    3    0  502 -0.31051610393E+02  0.66817829473E+02  0.11697119823E+03  0.13830603190E+03  0.41800000000E+01 0.  1.
        -11    1    1    2    0    0 -0.39010070428E+02 -0.55965158723E+02 -0.32617585990E+02  0.75616079649E+02  0.00000000000E+00 0.  1.
         11    1    1    2    0    0  0.42621971449E+02 -0.14912522594E+02 -0.45494909490E+02  0.64099942043E+02  0.00000000000E+00 0. -1.
</event>
<event>
 7    1  0.4394360E-006  0.2257077E+03  0.7561462E-02  0.1129698E+00
          2   -1    0    0  501    0  0.00000000000E+00  0.00000000000E+00  0.73178042727E+03  0.73178042727E+03  0.00000000000E+00 0. -1.
         -2   -1    0    0    0  501 -0.00000000000E+00 -0.00000000000E+00 -0.76692576709E+02  0.76692576709E+02  0.00000000000E+00 0.  1.
         23    2    1    2    0    0  0.13787133732E+03 -0.15630242053E+03  0.29288305113E+03  0.38061416125E+03  0.12509079016E+03 0.  0.
          5    1    3    3  502    0 -0.20019037811E+02 -0.10623517471E+02  0.57291479158E+02  0.61752789268E+02  0.41800000000E+01 0. -1.
         -5    1    3    3    0  502  0.15789037513E+03 -0.14567890306E+03  0.23559157197E+03  0.31886137198E+03  0.41800000000E+01 0. -1.
        -11    1    1    2    0    0 -0.64804965149E+02  0.10786796134E+03  0.28299427435E+03  0.30971105874E+03  0.00000000000E+00 0. -1.
         11    1    1    2    0    0 -0.73066372168E+02  0.48434459186E+02  0.79210525074E+02  0.11814778399E+03  0.00000000000E+00 0.  1.
</event>
<event>
 7    1  0.4394360E-006  0.3383815E+03  0.7561462E-02  0.1067487E+00
          2   -1    0    0  501    0  0.00000000000E+00  0.00000000000E+00  0.54268710252E+03  0.54268710252E+03  0.00000000000E+00 0. -1.
         -2   -1    0    0    0  501 -0.00000000000E+00 -0.00000000000E+00 -0.33291814206E+03  0.33291814206E+03  0.00000000000E+00 0.  1.
         23    2    1    2    0    0 -0.47496308816E+02 -0.31902330446E+03 -0.15933566325E+03  0.37661720778E+03  0.11144908914E+03 0.  0.
          5    1    3    3  502    0 -0.13238305601E+02  0.54721718063E+01 -0.73370714555E+01  0.16628361826E+02  0.41800000000E+01 0. -1.
         -5    1    3    3    0  502 -0.34258003215E+02 -0.32449547627E+03 -0.15199859179E+03  0.35998884595E+03  0.41800000000E+01 0.  1.
        -11    1    1    2    0    0 -0.28180598257E+02  0.82490732287E+02  0.10479330017E+03  0.13631031800E+03  0.00000000000E+00 0.  1.
         11    1    1    2    0    0  0.75676907073E+02  0.23653257217E+03  0.26431132354E+03  0.36267771880E+03  0.00000000000E+00 0. -1.
</event>
<event>
 7    1  0.4394360E-006  0.1545369E+03  0.7561462E-02  0.1195006E+00
         -1   -1    0    0    0  501 -0.00000000000E+00  0.00000000000E+00  0.82332639407E+02  0.82332639407E+02  0.00000000000E+00 0.  1.
          1   -1    0    0  501    0  0.00000000000E+00 -0.00000000000E+00 -0.36356690379E+03  0.36356690379E+03  0.00000000000E+00 0. -1.
         23    2    1    2    0    0 -0.31797362004E+01 -0.13391600665E+03 -0.13077526689E+03  0.22515138677E+03  0.12508944390E+03 0.  0.
          5    1    3    3  502    0 -0.77967319986E+01 -0.13941317508E+03 -0.14953550323E+03  0.20463421400E+03  0.41800000000E+01 0.  1.
         -5    1    3    3    0  502  0.46169957981E+01  0.54971684330E+01  0.18760236335E+02  0.20517172766E+02  0.41800000000E+01 0.  1.
        -11    1    1    2    0    0  0.84721646592E+01  0.14685211663E+03 -0.13235527807E+03  0.19787683383E+03  0.00000000000E+00 0.  1.
         11    1    1    2    0    0 -0.52924284588E+01 -0.12936109984E+02 -0.18103719425E+02  0.22871322601E+02  0.00000000000E+00 0. -1.
</event>
<event>
 7    1  0.4394360E-006  0.1342352E+03  0.7561462E-02  0.1221303E+00
          1   -1    0    0  501    0  0.00000000000E+00  0.00000000000E+00  0.50138384246E+03  0.50138384246E+03  0.00000000000E+00 0. -1.
         -1   -1    0    0    0  501 -0.00000000000E+00 -0.00000000000E+00 -0.47454859955E+02  0.47454859955E+02  0.00000000000E+00 0.  1.
         23    2    1    2    0    0  0.74994469248E+02 -0.68994151472E+02  0.17706853893E+03  0.23955433693E+03  0.12509456227E+03 0.  0.
          5    1    3    3  502    0  0.23040981410E+02  0.32848997675E+02  0.79681336687E+02  0.89311428657E+02  0.41800000000E+01 0.  1.
         -5    1    3    3    0  502  0.51953487837E+02 -0.10184314915E+03  0.97387202241E+02  0.15024290827E+03  0.41800000000E+01 0.  1.
        -11    1    1    2    0    0 -0.29519279681E+02 -0.18085699915E+01  0.17349347632E+03  0.17599615088E+03  0.00000000000E+00 0. -1.
         11    1    1    2    0    0 -0.45475189567E+02  0.70802721463E+02  0.10336696726E+03  0.13328821460E+03  0.00000000000E+00 0.  1.
</event>
<event>
 7    1  0.4394360E-006  0.1353833E+03  0.7561462E-02  0.1219680E+00
         -1   -1    0    0    0  501 -0.00000000000E+00  0.00000000000E+00  0.45248828490E+02  0.45248828490E+02  0.00000000000E+00 0.  1.
          1   -1    0    0  501    0  0.00000000000E+00 -0.00000000000E+00 -0.70807524406E+03  0.70807524406E+03  0.00000000000E+00 0. -1.
         23    2    1    2    0    0 -0.54601463889E+02  0.65011932729E+02 -0.10916874830E+03  0.18647324504E+03  0.12508630723E+03 0.  0.
          5    1    3    3  502    0 -0.87401655343E+02  0.74363329413E+02 -0.70517742750E+02  0.13475599638E+03  0.41800000000E+01 0.  1.
         -5    1    3    3    0  502  0.32800191454E+02 -0.93513966839E+01 -0.38651005550E+02  0.51717248664E+02  0.41800000000E+01 0.  1.
        -11    1    1    2    0    0  0.43971187613E+02 -0.86815007720E+02 -0.43976989852E+03  0.45040856402E+03  0.00000000000E+00 0. -1.
         11    1    1    2    0    0  0.10630276276E+02  0.21803074991E+02 -0.11388776876E+03  0.11644226348E+03  0.00000000000E+00 0.  1.
</event>
<event>
 7    1  0.4394360E-006  0.1419654E+03  0.7561462E-02  0.1210709E+00
          1   -1    0    0  501    0  0.00000000000E+00  0.00000000000E+00  0.45688622146E+03  0.45688622146E+03  0.00000000000E+00 0. -1.
         -1   -1    0    0    0  501 -0.00000000000E+00 -0.00000000000E+00 -0.55559251748E+02  0.55559251748E+02  0.00000000000E+00 0.  1.
         23    2    1    2    0    0 -0.96586939374E+02 -0.64874257478E+02  0.19297985725E+03  0.25773266690E+03  0.12508875306E+03 0.  0.
          5    1    3    3  502    0 -0.91726638332E+02 -0.85643060386E+02  0.95216571258E+02  0.15758228902E+03  0.41800000000E+01 0.  1.
         -5    1    3    3    0  502 -0.48603010420E+01  0.20768802907E+02  0.97763285991E+02  0.10015037787E+03  0.41800000000E+01 0.  1.
        -11    1    1    2    0    0 -0.81253079771E+01  0.22054220022E+02  0.81152161495E+02  0.84487173972E+02  0.00000000000E+00 0. -1.
         11    1    1    2    0    0  0.10471224735E+03  0.42820037456E+02  0.12719495097E+03  0.17022563234E+03  0.00000000000E+00 0.  1.
</event>
<event>
 7    1  0.4394360E-006  0.2533593E+03  0.7561462E-02  0.1111200E+00
         -1   -1    0    0    0  501 -0.00000000000E+00  0.00000000000E+00  0.16668883198E+03  0.16668883198E+03  0.00000000000E+00 0.  1.
          1   -1    0    0  501    0  0.00000000000E+00 -0.00000000000E+00 -0.42244605122E+03  0.42244605122E+03  0.00000000000E+00 0. -1.
         23    2    1    2    0    0 -0.20413287929E+03  0.12900197108E+03 -0.13735424093E+03  0.30467287646E+03  0.12509050004E+03 0.  0.
          5    1    3    3  502    0 -0.18249775792E+03  0.13319946167E+03 -0.74505892877E+02  0.23794143966E+03  0.41800000000E+01 0.  1.
         -5    1    3    3    0  502 -0.21635121366E+02 -0.41974905906E+01 -0.62848348054E+02  0.66731436796E+02  0.41800000000E+01 0.  1.
        -11    1    1    2    0    0  0.17059234436E+03 -0.58683786368E+02 -0.75961228990E+02  0.19574381994E+03  0.00000000000E+00 0.  1.
         11    1    1    2    0    0  0.33540534928E+02 -0.70318184714E+02 -0.42441749314E+02  0.88718186803E+02  0.00000000000E+00 0. -1.
</event>
<event>
 7    1  0.4394360E-006  0.1114179E+03  0.7561462E-02  0.1257967E+00
         -2   -1    0    0    0  501 -0.00000000000E+00  0.00000000000E+00  0.18405310795E+02  0.18405310795E+02  0.00000000000E+00 0.  1.
          2   -1    0    0  501    0  0.00000000000E+00 -0.00000000000E+00 -0.72976094292E+03  0.72976094292E+03  0.00000000000E+00 0. -1.
         23    2    1    2    0    0  0.17764586777E+01 -0.28302966030E+02 -0.30549430189E+03  0.33132860790E+03  0.12509062409E+03 0.  0.
          5    1    3    3  502    0  0.38976252174E+02 -0.64960299572E+02 -0.18039460996E+03  0.19570047638E+03  0.41800000000E+01 0.  1.
         -5    1    3    3    0  502 -0.37199793496E+02  0.36657333542E+02 -0.12509969194E+03  0.13562813152E+03  0.41800000000E+01 0.  1.
        -11    1    1    2    0    0 -0.32290097798E+02 -0.19601489684E+02 -0.18248852761E+03  0.18635700020E+03  0.00000000000E+00 0. -1.
         11    1    1    2    0    0  0.30513639121E+02  0.47904455715E+02 -0.22337280262E+03  0.23048064561E+03  0.00000000000E+00 0.  1.
</event>
<event>
 7    1  0.4394360E-006  0.1045762E+03  0.7561462E-02  0.1270957E+00
          1   -1    0    0  501    0  0.00000000000E+00  0.00000000000E+00  0.71476867468E+03  0.71476867468E+03  0.00000000000E+00 0. -1.
         -1   -1    0    0    0  501 -0.00000000000E+00 -0.00000000000E+00 -0.24539902000E+02  0.24539902000E+02  0.00000000000E+00 0.  1.
         23    2    1    2    0    0  0.53992543441E+01 -0.65338763957E+02  0.27648646887E+03  0.31050432277E+03  0.12517931525E+03 0.  0.
          5    1    3    3  502    0 -0.14595181746E+02  0.20544107563E+02  0.63686799684E+01  0.26327023574E+02  0.41800000000E+01 0. -1.
         -5    1    3    3    0  502  0.19994436090E+02 -0.85882871520E+02  0.27011778890E+03  0.28417729919E+03  0.41800000000E+01 0. -1.
        -11    1    1    2    0    0  0.27123863212E+02  0.61793571707E+01  0.38278604974E+02  0.47319552083E+02  0.00000000000E+00 0.  1.
         11    1    1    2    0    0 -0.32523117557E+02  0.59159406787E+02  0.37546369884E+03  0.38148470183E+03  0.00000000000E+00 0. -1.
</event>
<event>
 7    1  0.4394360E-006  0.1068345E+03  0.7561462E-02  0.1266547E+00
         -1   -1    0    0    0  501 -0.00000000000E+00  0.00000000000E+00  0.30886470455E+02  0.30886470455E+02  0.00000000000E+00 0.  1.
          1   -1    0    0  501    0  0.00000000000E+00 -0.00000000000E+00 -0.49385815474E+03  0.49385815474E+03  0.00000000000E+00 0. -1.
         23    2    1    2    0    0 -0.13660915373E+02  0.50928655497E+02 -0.20861372117E+03  0.24889320595E+03  0.12509114577E+03 0.  0.
          5    1    3    3  502    0 -0.52296693523E+02  0.44261538455E+02 -0.19572342824E+03  0.20741060894E+03  0.41800000000E+01 0. -1.
         -5    1    3    3    0  502  0.38635778149E+02  0.66671170424E+01 -0.12890292930E+02  0.41482597010E+02  0.41800000000E+01 0. -1.
        -11    1    1    2    0    0 -0.21077810997E+02  0.18448601297E+02 -0.86653080350E+02  0.91068003933E+02  0.00000000000E+00 0. -1.
         11    1    1    2    0    0  0.34738726371E+02 -0.69377256794E+02 -0.16770488276E+03  0.18478341531E+03  0.00000000000E+00 0.  1.
</event>
<event>
 7    1  0.4394360E-006  0.7775082E+02  0.7561462E-02  0.1335558E+00
          1   -1    0    0  501    0  0.00000000000E+00  0.00000000000E+00  0.10243762079E+03  0.10243762079E+03  0.00000000000E+00 0. -1.
         -1   -1    0    0    0  501 -0.00000000000E+00 -0.00000000000E+00 -0.11753305910E+03  0.11753305910E+03  0.00000000000E+00 0.  1.
         23    2    1    2    0    0 -0.29724702947E+01 -0.10287746883E+02 -0.21984152045E+02  0.12745761402E+03  0.12508983618E+03 0.  0.
          5    1    3    3  502    0 -0.47159378852E+02  0.60986639712E+01  0.30615964356E+02  0.56709879117E+02  0.41800000000E+01 0. -1.
         -5    1    3    3    0  502  0.44186908557E+02 -0.16386410854E+02 -0.52600116401E+02  0.70747734903E+02  0.41800000000E+01 0. -1.
        -11    1    1    2    0    0 -0.23838799672E+02  0.20817395962E+02 -0.31410976890E+02  0.44590378039E+02  0.00000000000E+00 0.  1.
         11    1    1    2    0    0  0.26811269967E+02 -0.10529649079E+02  0.38299690629E+02  0.47922687834E+02  0.00000000000E+00 0. -1.
</event>
<event>
 7    1  0.4394360E-006  0.1069213E+03  0.7561462E-02  0.1266380E+00
         -2   -1    0    0    0  501 -0.00000000000E+00  0.00000000000E+00  0.85614258586E+02  0.85614258586E+02  0.00000000000E+00 0.  1.
          2   -1    0    0  501    0  0.00000000000E+00 -0.00000000000E+00 -0.27525863029E+03  0.27525863029E+03  0.00000000000E+00 0. -1.
         23    2    1    2    0    0  0.71211957782E+02  0.73318278969E+02 -0.57479236721E+02  0.17145823450E+03  0.12508937030E+03 0.  0.
          5    1    3    3  502    0  0.38218791176E+02  0.94018833225E+01  0.35953133966E+02  0.53471222643E+02  0.41800000000E+01 0.  1.
         -5    1    3    3    0  502  0.32993166607E+02  0.63916395647E+02 -0.93432370687E+02  0.11798701186E+03  0.41800000000E+01 0.  1.
        -11    1    1    2    0    0 -0.29985951650E+02 -0.30327310661E+02 -0.12167698812E+03  0.12893483822E+03  0.00000000000E+00 0. -1.
         11    1    1    2    0    0 -0.41226006132E+02 -0.42990968308E+02 -0.10488146863E+02  0.60479816156E+02  0.00000000000E+00 0.  1.
</event>
<event>
 7    1  0.4394360E-006  0.9796893E+02  0.7561462E-02  0.1284626E+00
          1   -1    0    0  501    0  0.00000000000E+00  0.00000000000E+00  0.26451960689E+02  0.26451960689E+02  0.00000000000E+00 0. -1.
         -1   -1    0    0    0  501 -0.00000000000E+00 -0.00000000000E+00 -0.47573680340E+03  0.47573680340E+03  0.00000000000E+00 0.  1.
         23    2    1    2    0    0  0.25855672613E+02 -0.84114792892E+01 -0.28797816493E+03  0.31514288731E+03  0.12507736467E+03 0.  0.
          5    1    3    3  502    0  0.33967211037E+02  0.44651891526E+02 -0.22667458516E+03  0.23355171333E+03  0.41800000000E+01 0. -1.
         -5    1    3    3    0  502 -0.81115384245E+01 -0.53063370815E+02 -0.61303579775E+02  0.81591173978E+02  0.41800000000E+01 0. -1.
        -11    1    1    2    0    0 -0.49068128899E+02 -0.16518003015E+02 -0.13311740137E+03  0.14283125794E+03  0.00000000000E+00 0.  1.
         11    1    1    2    0    0  0.23212456286E+02  0.24929482304E+02 -0.28189276406E+02  0.44214618839E+02  0.00000000000E+00 0. -1.
</event>
<event>
 7    1  0.4394360E-006  0.1027799E+03  0.7561462E-02  0.1274557E+00
         -1   -1    0    0    0  501 -0.00000000000E+00  0.00000000000E+00  0.84679977718E+03  0.84679977718E+03  0.00000000000E+00 0.  1.
          1   -1    0    0  501    0  0.00000000000E+00 -0.00000000000E+00 -0.10849007247E+03  0.10849007247E+03  0.00000000000E+00 0. -1.
         23    2    1    2    0    0 -0.75496674802E+02 -0.31887832871E+02  0.80378737835E+03  0.81758041324E+03  0.12508797198E+03 0.  0.
          5    1    3    3  502    0 -0.79287652542E+02 -0.82966220943E+01  0.77834391492E+03  0.78242704968E+03  0.41800000000E+01 0.  1.
         -5    1    3    3    0  502  0.37909777395E+01 -0.23591210777E+02  0.25443463424E+02  0.35153363554E+02  0.41800000000E+01 0.  1.
        -11    1    1    2    0    0  0.78508330784E+02  0.43308769589E+02 -0.21541089312E+02  0.92212938650E+02  0.00000000000E+00 0.  1.
         11    1    1    2    0    0 -0.30116559815E+01 -0.11420936718E+02 -0.43936584315E+02  0.45496497761E+02  0.00000000000E+00 0. -1.
</event>
<event>
 7    1  0.4394360E-006  0.2773123E+03  0.7561462E-02  0.1097166E+00
          1   -1    0    0  501    0  0.00000000000E+00  0.00000000000E+00  0.12485212843E+03  0.12485212843E+03  0.00000000000E+00 0. -1.
         -1   -1    0    0    0  501 -0.00000000000E+00 -0.00000000000E+00 -0.63151480576E+03  0.63151480576E+03  0.00000000000E+00 0.  1.
         23    2    1    2    0    0  0.21358440179E+03 -0.14391475729E+03 -0.31650301359E+03  0.42679049122E+03  0.12508481816E+03 0.  0.
          5    1    3    3  502    0  0.15839636921E+03 -0.16300383863E+03 -0.26097876507E+03  0.34610265732E+03  0.41800000000E+01 0. -1.
         -5    1    3    3    0  502  0.55188032580E+02  0.19089081340E+02 -0.55524248519E+02  0.80687833904E+02  0.41800000000E+01 0. -1.
        -11    1    1    2    0    0 -0.30399714302E+02  0.60002054698E+02 -0.39666488557E+02  0.78088536368E+02  0.00000000000E+00 0.  1.
         11    1    1    2    0    0 -0.18318468749E+03  0.83912702587E+02 -0.15049317519E+03  0.25148790659E+03  0.00000000000E+00 0. -1.
</event>
<event>
 7    1  0.4394360E-006  0.8790579E+02  0.7561462E-02  0.1308004E+00
          1   -1    0    0  501    0  0.00000000000E+00  0.00000000000E+00  0.72291690570E+03  0.72291690570E+03  0.00000000000E+00 0. -1.
         -1   -1    0    0    0  501 -0.00000000000E+00 -0.00000000000E+00 -0.18493085528E+02  0.18493085528E+02  0.00000000000E+00 0.  1.
         23    2    1    2    0    0  0.12393741546E+02 -0.36286452499E+02  0.39170231471E+03  0.41297529822E+03  0.12509029592E+03 0.  0.
          5    1    3    3  502    0 -0.13858419520E+02 -0.54580223961E+02  0.36953791532E+03  0.37382723269E+03  0.41800000000E+01 0. -1.
         -5    1    3    3    0  502  0.26252161066E+02  0.18293771462E+02  0.22164399381E+02  0.39148065531E+02  0.41800000000E+01 0. -1.
        -11    1    1    2    0    0 -0.14408959312E+02 -0.23332026595E+02  0.35448165577E+02  0.44817117447E+02  0.00000000000E+00 0.  1.
         11    1    1    2    0    0  0.20152177659E+01  0.59618479094E+02  0.27727333989E+03  0.28361757556E+03  0.00000000000E+00 0. -1.
</event>
<event>
 6    1  0.4394360E-006  0.1704453E+03  0.7561462E-02  0.1177384E+00
         -2   -1    0    0    0  501 -0.00000000000E+00  0.00000000000E+00  0.18485898130E+03  0.18485898130E+03  0.00000000000E+00 0.  1.
          2   -1    0    0  501    0  0.00000000000E+00 -0.00000000000E+00 -0.25697383074E+03  0.25697383074E+03  0.00000000000E+00 0. -1.
          5    1    1    2  502    0 -0.39063488635E+02  0.61989922186E+02 -0.28099216076E+02  0.78585908031E+02  0.41800000000E+01 0. -1.
         -5    1    1    2    0  502  0.34789728430E+02  0.83726329687E+02  0.97256293571E+02  0.13302887854E+03  0.41800000000E+01 0.  1.
        -11    1    1    2    0    0  0.19722189509E+02  0.86959194524E+01 -0.19024381997E+01  0.21638000029E+02  0.00000000000E+00 0.  1.
         11    1    1    2    0    0 -0.15448429304E+02 -0.15441217133E+03 -0.13936948873E+03  0.20858002543E+03  0.00000000000E+00 0. -1.
</event>
<event>
 7    1  0.4394360E-006  0.1330207E+03  0.7561462E-02  0.1223041E+00
          1   -1    0    0  501    0  0.00000000000E+00  0.00000000000E+00  0.46342044361E+02  0.46342044361E+02  0.00000000000E+00 0. -1.
         -1   -1    0    0    0  501 -0.00000000000E+00 -0.00000000000E+00 -0.60204652546E+03  0.60204652546E+03  0.00000000000E+00 0.  1.
         23    2    1    2    0    0  0.98870972561E+02 -0.25777953643E+02 -0.44058753708E+03  0.46926003202E+03  0.12509047810E+03 0.  0.
          5    1    3    3  502    0  0.28649142175E+02  0.50180000065E+02 -0.15228105682E+03  0.16292881397E+03  0.41800000000E+01 0.  1.
         -5    1    3    3    0  502  0.70221830386E+02 -0.75957953708E+02 -0.28830648026E+03  0.30633121805E+03  0.41800000000E+01 0.  1.
        -11    1    1    2    0    0 -0.83020157272E+02  0.29833532084E+02 -0.12993621261E+03  0.15705351157E+03  0.00000000000E+00 0.  1.
         11    1    1    2    0    0 -0.15850815289E+02 -0.40555784410E+01  0.14819268586E+02  0.22075026234E+02  0.00000000000E+00 0. -1.
</event>
<event>
 7    1  0.4394360E-006  0.4495317E+02  0.7561462E-02  0.1474634E+00
          1   -1    0    0  501    0  0.00000000000E+00  0.00000000000E+00  0.46223405759E+02  0.46223405759E+02  0.00000000000E+00 0. -1.
         -1   -1    0    0    0  501 -0.00000000000E+00 -0.00000000000E+00 -0.27057670032E+03  0.27057670032E+03  0.00000000000E+00 0.  1.
         23    2    1    2    0    0 -0.68325707888E+01  0.31058535875E+02 -0.15383465913E+03  0.20080779886E+03  0.12508938028E+03 0.  0.
          5    1    3    3  502    0 -0.78633394205E+00  0.13509618987E+02 -0.17313081052E+03  0.17370917672E+03  0.41800000000E+01 0. -1.
         -5    1    3    3    0  502 -0.60462368468E+01  0.17548916887E+02  0.19296151383E+02  0.27098622145E+02  0.41800000000E+01 0. -1.
        -11    1    1    2    0    0  0.26641952260E+02 -0.23464378792E+02 -0.83767487438E+02  0.90980012333E+02  0.00000000000E+00 0.  1.
         11    1    1    2    0    0 -0.19809381472E+02 -0.75941570826E+01  0.13248852006E+02  0.25012294888E+02  0.00000000000E+00 0. -1.
</event>
<event>
 7    1  0.4394360E-006  0.1106558E+03  0.7561462E-02  0.1259360E+00
          4   -1    0    0  501    0  0.00000000000E+00  0.00000000000E+00  0.81291095207E+02  0.81291095207E+02  0.00000000000E+00 0. -1.
         -4   -1    0    0    0  501 -0.00000000000E+00 -0.00000000000E+00 -0.22656218323E+03  0.22656218323E+03  0.00000000000E+00 0.  1.
         23    2    1    2    0    0 -0.21562364703E+02  0.25632734994E+02 -0.16246654508E+03  0.20775873677E+03  0.12508533790E+03 0.  0.
          5    1    3    3  502    0 -0.66252663437E+02  0.45421437931E+02 -0.10031650972E+03  0.12858225756E+03  0.41800000000E+01 0.  1.
         -5    1    3    3    0  502  0.44690298735E+02 -0.19788702936E+02 -0.62150035361E+02  0.79176479211E+02  0.41800000000E+01 0.  1.
        -11    1    1    2    0    0 -0.16148556926E+02  0.24344064993E+02  0.23052006386E+02  0.37212959968E+02  0.00000000000E+00 0.  1.
         11    1    1    2    0    0  0.37710921628E+02 -0.49976799988E+02 -0.58565493281E+01  0.62881581700E+02  0.00000000000E+00 0. -1.
</event>
<event>
 7    1  0.4394360E-006  0.1112914E+03  0.7561462E-02  0.1258197E+00
         -2   -1    0    0    0  501 -0.00000000000E+00  0.00000000000E+00  0.43410294378E+02  0.43410294378E+02  0.00000000000E+00 0.  1.
          2   -1    0    0  501    0  0.00000000000E+00 -0.00000000000E+00 -0.33448831470E+03  0.33448831470E+03  0.00000000000E+00 0. -1.
         23    2    1    2    0    0  0.40173329133E+02  0.27991880094E+02 -0.13699767443E+03  0.19186546060E+03  0.12508617210E+03 0.  0.
          5    1    3    3  502    0  0.56093649563E+02 -0.27472913443E+02 -0.28236263793E+02  0.68673266176E+02  0.41800000000E+01 0. -1.
         -5    1    3    3    0  502 -0.15920320430E+02  0.55464793537E+02 -0.10876141064E+03  0.12319219443E+03  0.41800000000E+01 0. -1.
        -11    1    1    2    0    0 -0.29396312561E+02 -0.60833006052E+02 -0.11863538727E+03  0.13652528311E+03  0.00000000000E+00 0.  1.
         11    1    1    2    0    0 -0.10777016572E+02  0.32841125958E+02 -0.35444958628E+02  0.49507865361E+02  0.00000000000E+00 0. -1.
</event>
<event>
 7    1  0.4394360E-006  0.1136454E+03  0.7561462E-02  0.1253964E+00
          1   -1    0    0  501    0  0.00000000000E+00  0.00000000000E+00  0.77267757227E+03  0.77267757227E+03  0.00000000000E+00 0. -1.
         -1   -1    0    0    0  501 -0.00000000000E+00 -0.00000000000E+00 -0.18799092922E+02  0.18799092922E+02  0.00000000000E+00 0.  1.
         23    2    1    2    0    0 -0.43109818507E+02  0.29847597004E+02  0.43751527995E+03  0.45805656756E+03  0.12508742302E+03 0.  0.
          5    1    3    3  502    0 -0.35674735646E+02  0.73589253550E+02  0.19525120417E+03  0.21172758472E+03  0.41800000000E+01 0. -1.
         -5    1    3    3    0  502 -0.74350828616E+01 -0.43741656546E+02  0.24226407578E+03  0.24632898284E+03  0.41800000000E+01 0. -1.
        -11    1    1    2    0    0  0.31566525911E+02  0.27789740435E+02  0.86818778185E+02  0.96468727975E+02  0.00000000000E+00 0.  1.
         11    1    1    2    0    0  0.11543292596E+02 -0.57637337439E+02  0.22954442121E+03  0.23695136965E+03  0.00000000000E+00 0. -1.
</event>
<event>
 7    1  0.4394360E-006  0.1003237E+03  0.7561462E-02  0.1279617E+00
         -2   -1    0    0    0  501 -0.00000000000E+00  0.00000000000E+00  0.12514277662E+03  0.12514277662E+03  0.00000000000E+00 0.  1.
          2   -1    0    0  501    0  0.00000000000E+00 -0.00000000000E+00 -0.11930099098E+03  0.11930099098E+03  0.00000000000E+00 0. -1.
         23    2    1    2    0    0  0.19869277530E+02 -0.31509506856E+02  0.27891221611E+02  0.13343574404E+03  0.12505814780E+03 0.  0.
          5    1    3    3  502    0 -0.32901340745E+02 -0.41575189435E+02 -0.24252782914E+02  0.58452241005E+02  0.41800000000E+01 0.  1.
         -5    1    3    3    0  502  0.52770618275E+02  0.10065682579E+02  0.52144004526E+02  0.74983503031E+02  0.41800000000E+01 0.  1.
        -11    1    1    2    0    0 -0.39708841235E+02  0.51755407315E+02  0.12393727744E+02  0.66400442363E+02  0.00000000000E+00 0.  1.
         11    1    1    2    0    0  0.19839563705E+02 -0.20245900458E+02 -0.34443163724E+02  0.44607581202E+02  0.00000000000E+00 0. -1.
</event>
<event>
 7    1  0.4394360E-006  0.1198958E+03  0.7561462E-02  0.1243269E+00
         -2   -1    0    0    0  501 -0.00000000000E+00  0.00000000000E+00  0.30136688224E+02  0.30136688224E+02  0.00000000000E+00 0.  1.
          2   -1    0    0  501    0  0.00000000000E+00 -0.00000000000E+00 -0.52724510182E+03  0.52724510182E+03  0.00000000000E+00 0. -1.
         23    2    1    2    0    0  0.25376103187E+02 -0.53645142362E+02 -0.22282077180E+03  0.26233339327E+03  0.12509182615E+03 0.  0.
          5    1    3    3  502    0  0.54162272309E+02 -0.76927537648E+02 -0.11729144138E+03  0.15041992026E+03  0.41800000000E+01 0.  1.
         -5    1    3    3    0  502 -0.28786169122E+02  0.23282395286E+02 -0.10552933041E+03  0.11191347301E+03  0.41800000000E+01 0.  1.
        -11    1    1    2    0    0 -0.99827287200E+01 -0.25680858830E+02 -0.59725877773E+02  0.65774933361E+02  0.00000000000E+00 0. -1.
         11    1    1    2    0    0 -0.15393374467E+02  0.79326001192E+02 -0.21456176402E+03  0.22927346341E+03  0.00000000000E+00 0.  1.
</event>
<event>
 7    1  0.4394360E-006  0.1469561E+03  0.7561462E-02  0.1204264E+00
          1   -1    0    0  501    0  0.00000000000E+00  0.00000000000E+00  0.97061644164E+02  0.97061644164E+02  0.00000000000E+00 0. -1.
         -1   -1    0    0    0  501 -0.00000000000E+00 -0.00000000000E+00 -0.29944493154E+03  0.29944493154E+03  0.00000000000E+00 0.  1.
         23    2    1    2    0    0  0.14073976595E+02 -0.13110971207E+03 -0.98829273068E+02  0.20688355218E+03  0.12508295460E+03 0.  0.
          5    1    3    3  502    0 -0.53102373625E+01  0.14017244402E+02 -0.50184582768E+02  0.52541854831E+02  0.41800000000E+01 0.  1.
         -5    1    3    3    0  502  0.19384213958E+02 -0.14512695647E+03 -0.48644690301E+02  0.15434169735E+03  0.41800000000E+01 0.  1.
        -11    1    1    2    0    0 -0.38899945895E+01  0.44276652938E+02  0.10738072810E+02  0.45725925479E+02  0.00000000000E+00 0. -1.
         11    1    1    2    0    0 -0.10183982006E+02  0.86833059134E+02 -0.11429208712E+03  0.14389709805E+03  0.00000000000E+00 0.  1.
</event>
<event>
 7    1  0.4394360E-006  0.1227710E+03  0.7561462E-02  0.1238595E+00
          1   -1    0    0  501    0  0.00000000000E+00  0.00000000000E+00  0.16438951677E+02  0.16438951677E+02  0.00000000000E+00 0. -1.
         -1   -1    0    0    0  501 -0.00000000000E+00 -0.00000000000E+00 -0.97524433706E+03  0.97524433706E+03  0.00000000000E+00 0.  1.
         23    2    1    2    0    0 -0.32460188897E+02  0.54514622280E+02 -0.57340309963E+03  0.59031334031E+03  0.12511281776E+03 0.  0.
          5    1    3    3  502    0 -0.72630974307E+02  0.13004782316E+01 -0.26912012095E+03  0.27878318022E+03  0.41800000000E+01 0. -1.
         -5    1    3    3    0  502  0.40170785410E+02  0.53214144048E+02 -0.30428297868E+03  0.31153016009E+03  0.41800000000E+01 0. -1.
        -11    1    1    2    0    0 -0.22485257746E+02 -0.44870030051E+02 -0.24887774697E+03  0.25388784798E+03  0.00000000000E+00 0. -1.
         11    1    1    2    0    0  0.54945446643E+02 -0.96445922288E+01 -0.13652453878E+03  0.14748210046E+03  0.00000000000E+00 0.  1.
</event>
<event>
 7    1  0.4394360E-006  0.3352162E+03  0.7561462E-02  0.1068852E+00
         -1   -1    0    0    0  501 -0.00000000000E+00  0.00000000000E+00  0.24565478283E+03  0.24565478283E+03  0.00000000000E+00 0.  1.
          1   -1    0    0  501    0  0.00000000000E+00 -0.00000000000E+00 -0.53667630152E+03  0.53667630152E+03  0.00000000000E+00 0. -1.
         23    2    1    2    0    0  0.32251866701E+03  0.24384092478E+02 -0.14516001071E+02  0.34708599687E+03  0.12508037574E+03 0.  0.
          5    1    3    3  502    0 -0.78083620444E+01 -0.11467049782E+02 -0.62682112044E+00  0.14502725717E+02  0.41800000000E+01 0. -1.
         -5    1    3    3    0  502  0.33032702906E+03  0.35851142260E+02 -0.13889179950E+02  0.33258327115E+03  0.41800000000E+01 0. -1.
        -11    1    1    2    0    0 -0.11987558983E+03 -0.34053248777E+01 -0.48171083570E+02  0.12923701701E+03  0.00000000000E+00 0.  1.
         11    1    1    2    0    0 -0.20264307719E+03 -0.20978767600E+02 -0.22833443405E+03  0.30600807047E+03  0.00000000000E+00 0. -1.
</event>
<event>
 7    1  0.4394360E-006  0.6954904E+02  0.7561462E-02  0.1361633E+00
         -1   -1    0    0    0  501 -0.00000000000E+00  0.00000000000E+00  0.11013412365E+03  0.11013412365E+03  0.00000000000E+00 0.  1.
          1   -1    0    0  501    0  0.00000000000E+00 -0.00000000000E+00 -0.14055880246E+03  0.14055880246E+03  0.00000000000E+00 0. -1.
         23    2    1    2    0    0  0.39592775283E+02 -0.23347551926E+02  0.20953133159E+02  0.13490356985E+03  0.12508894169E+03 0.  0.
          5    1    3    3  502    0  0.13618034848E+02 -0.53704661044E+01 -0.52592649818E+02  0.54751730513E+02  0.41800000000E+01 0. -1.
         -5    1    3    3    0  502  0.25974740436E+02 -0.17977085822E+02  0.73545782977E+02  0.80151839336E+02  0.41800000000E+01 0. -1.
        -11    1    1    2    0    0  0.16470318888E+02 -0.16433782946E+02  0.83535761566E+01  0.24720899272E+02  0.00000000000E+00 0.  1.
         11    1    1    2    0    0 -0.56063094172E+02  0.39781334872E+02 -0.59731388125E+02  0.91068456996E+02  0.00000000000E+00 0. -1.
</event>
<event>
 6    1  0.4394360E-006  0.1408058E+03  0.7561462E-02  0.1212249E+00
          4   -1    0    0  501    0  0.00000000000E+00  0.00000000000E+00  0.15124263570E+03  0.15124263570E+03  0.00000000000E+00 0. -1.
         -4   -1    0    0    0  501 -0.00000000000E+00 -0.00000000000E+00 -0.22576078308E+03  0.22576078308E+03  0.00000000000E+00 0.  1.
          5    1    1    2  502    0 -0.70245669908E+02  0.87231752069E+02 -0.27704490258E+02  0.11545061234E+03  0.41800000000E+01 0. -1.
         -5    1    1    2    0  502  0.10147175165E+02  0.46059046125E+01 -0.95626055953E+02  0.96363865107E+02  0.41800000000E+01 0.  1.
        -11    1    1    2    0    0  0.90417619906E+02 -0.89501506037E+02  0.36250338053E+02  0.13228738633E+03  0.00000000000E+00 0.  1.
         11    1    1    2    0    0 -0.30319125164E+02 -0.23361506451E+01  0.12562060776E+02  0.32901555001E+02  0.00000000000E+00 0. -1.
</event>
<event>
 7    1  0.4394360E-006  0.1229388E+03  0.7561462E-02  0.1238326E+00
         -1   -1    0    0    0  501 -0.00000000000E+00  0.00000000000E+00  0.55235389533E+03  0.55235389533E+03  0.00000000000E+00 0.  1.
          1   -1    0    0  501    0  0.00000000000E+00 -0.00000000000E+00 -0.43911203050E+02  0.43911203050E+02  0.00000000000E+00 0. -1.
         23    2    1    2    0    0 -0.45431527291E+02 -0.75987566446E+02  0.40079944365E+03  0.42910033660E+03  0.12509504752E+03 0.  0.
          5    1    3    3  502    0 -0.62619053412E+02 -0.95092360700E+02  0.37694877860E+03  0.39379126070E+03  0.41800000000E+01 0.  1.
         -5    1    3    3    0  502  0.17187526122E+02  0.19104794254E+02  0.23850665047E+02  0.35309075899E+02  0.41800000000E+01 0.  1.
        -11    1    1    2    0    0  0.40843664921E+02  0.13159550449E+02  0.93098752035E+02  0.10251222543E+03  0.00000000000E+00 0.  1.
         11    1    1    2    0    0  0.45878623694E+01  0.62828015998E+02  0.14544496594E+02  0.64652536350E+02  0.00000000000E+00 0. -1.
</event>
<event>
 7    1  0.4394360E-006  0.7582228E+02  0.7561462E-02  0.1341343E+00
         -1   -1    0    0    0  501 -0.00000000000E+00  0.00000000000E+00  0.57349741711E+03  0.57349741711E+03  0.00000000000E+00 0.  1.
          1   -1    0    0  501    0  0.00000000000E+00 -0.00000000000E+00 -0.26741088255E+02  0.26741088255E+02  0.00000000000E+00 0. -1.
         23    2    1    2    0    0  0.23514860666E+02  0.29192363530E+02  0.41385150062E+03  0.43396545889E+03  0.12509121547E+03 0.  0.
          5    1    3    3  502    0  0.30983234337E+02 -0.16135299795E+02  0.26934872522E+02  0.44308785441E+02  0.41800000000E+01 0. -1.
         -5    1    3    3    0  502 -0.74683736706E+01  0.45327663326E+02  0.38691662810E+03  0.38965667345E+03  0.41800000000E+01 0. -1.
        -11    1    1    2    0    0 -0.43644155619E+02 -0.22627293008E+02  0.22871112240E+02  0.54220793831E+02  0.00000000000E+00 0. -1.
         11    1    1    2    0    0  0.20129294953E+02 -0.65650705223E+01  0.11003371599E+03  0.11205225264E+03  0.00000000000E+00 0.  1.
</event>
<event>
 7    1  0.4394360E-006  0.1150495E+03  0.7561462E-02  0.1251495E+00
          1   -1    0    0  501    0  0.00000000000E+00  0.00000000000E+00  0.40427268410E+02  0.40427268410E+02  0.00000000000E+00 0. -1.
         -1   -1    0    0    0  501 -0.00000000000E+00 -0.00000000000E+00 -0.61195631822E+03  0.61195631822E+03  0.00000000000E+00 0.  1.
         23    2    1    2    0    0  0.11250150266E+03  0.48658998266E+01 -0.26608853332E+03  0.31485102306E+03  0.12509114309E+03 0.  0.
          5    1    3    3  502    0  0.24827023780E+02 -0.12333880324E+02  0.57993453860E+01  0.28628840712E+02  0.41800000000E+01 0.  1.
         -5    1    3    3    0  502  0.87674478875E+02  0.17199780151E+02 -0.27188787871E+03  0.28622218235E+03  0.41800000000E+01 0.  1.
        -11    1    1    2    0    0 -0.59350482107E+02 -0.16893269454E+01 -0.53162839396E+02  0.79697057941E+02  0.00000000000E+00 0. -1.
         11    1    1    2    0    0 -0.53151020548E+02 -0.31765728813E+01 -0.25227767709E+03  0.25783550562E+03  0.00000000000E+00 0.  1.
</event>
<event>
 6    1  0.4394360E-006  0.2373162E+03  0.7561462E-02  0.1121594E+00
         -2   -1    0    0    0  501 -0.00000000000E+00  0.00000000000E+00  0.16120329761E+03  0.16120329761E+03  0.00000000000E+00 0.  1.
          2   -1    0    0  501    0  0.00000000000E+00 -0.00000000000E+00 -0.40573488833E+03  0.40573488833E+03  0.00000000000E+00 0. -1.
          5    1    1    2  502    0  0.17348643172E+03  0.82233051925E+02 -0.55929831377E+02  0.20001358768E+03  0.41800000000E+01 0. -1.
         -5    1    1    2    0  502 -0.21126563493E+01 -0.88808125289E+02  0.10036224805E+02  0.89496059368E+02  0.41800000000E+01 0.  1.
        -11    1    1    2    0    0 -0.10982373196E+03 -0.39574566526E+02 -0.12092985940E+03  0.16808161503E+03  0.00000000000E+00 0.  1.
         11    1    1    2    0    0 -0.61550043410E+02  0.46149639889E+02 -0.77708124750E+02  0.10934692386E+03  0.00000000000E+00 0. -1.
</event>
<event>
 7    1  0.4394360E-006  0.1034021E+03  0.7561462E-02  0.1273300E+00
          1   -1    0    0  501    0  0.00000000000E+00  0.00000000000E+00  0.58289681549E+03  0.58289681549E+03  0.00000000000E+00 0. -1.
         -1   -1    0    0    0  501 -0.00000000000E+00 -0.00000000000E+00 -0.27729711950E+02  0.27729711950E+02  0.00000000000E+00 0.  1.
         23    2    1    2    0    0  0.61581003773E+02  0.17970782246E+01  0.25404437086E+03  0.28979528613E+03  0.12508923208E+03 0.  0.
          5    1    3    3  502    0  0.10424173235E+02  0.44128820392E+02  0.19688379862E+03  0.20208097074E+03  0.41800000000E+01 0.  1.
         -5    1    3    3    0  502  0.51156830538E+02 -0.42331742167E+02  0.57160572239E+02  0.87714315390E+02  0.41800000000E+01 0.  1.
        -11    1    1    2    0    0 -0.44746529867E+02 -0.35463856697E+02  0.25492303601E+03  0.26123876312E+03  0.00000000000E+00 0. -1.
         11    1    1    2    0    0 -0.16834473906E+02  0.33666778472E+02  0.46199696668E+02  0.59592478188E+02  0.00000000000E+00 0.  1.
</event>
<event>
 7    1  0.4394360E-006  0.1362755E+03  0.7561462E-02  0.1218430E+00
         -1   -1    0    0    0  501 -0.00000000000E+00  0.00000000000E+00  0.56033347927E+02  0.56033347927E+02  0.00000000000E+00 0.  1.
          1   -1    0    0  501    0  0.00000000000E+00 -0.00000000000E+00 -0.36141487288E+03  0.36141487288E+03  0.00000000000E+00 0. -1.
         23    2    1    2    0    0 -0.88940710900E+02  0.20137672004E+02 -0.18539878668E+03  0.24153303437E+03  0.12509804434E+03 0.  0.
          5    1    3    3  502    0 -0.11453572069E+02  0.62251684425E+02 -0.54443390315E+02  0.83594328013E+02  0.41800000000E+01 0. -1.
         -5    1    3    3    0  502 -0.77487138831E+02 -0.42114012422E+02 -0.13095539637E+03  0.15793870635E+03  0.41800000000E+01 0. -1.
        -11    1    1    2    0    0  0.10403556061E+03 -0.17955933444E+02 -0.12105701375E+03  0.16062569532E+03  0.00000000000E+00 0.  1.
         11    1    1    2    0    0 -0.15094849714E+02 -0.21817385597E+01  0.10742754800E+01  0.15289491124E+02  0.00000000000E+00 0. -1.
</event>
<event>
 7    1  0.4394360E-006  0.1297161E+03  0.7561462E-02  0.1227878E+00
         -1   -1    0    0    0  501 -0.00000000000E+00  0.00000000000E+00  0.55527769636E+02  0.55527769636E+02  0.00000000000E+00 0. -1.
          1   -1    0    0  501    0  0.00000000000E+00 -0.00000000000E+00 -0.35685148264E+03  0.35685148264E+03  0.00000000000E+00 0.  1.
         23    2    1    2    0    0 -0.90662702010E+02  0.65867554327E+01 -0.15096478463E+03  0.21610051623E+03  0.12508379605E+03 0.  0.
          5    1    3    3  502    0  0.21174145988E+02 -0.78157399378E+01 -0.79000216246E+02  0.82267471190E+02  0.41800000000E+01 0. -1.
         -5    1    3    3    0  502 -0.11183684800E+03  0.14402495371E+02 -0.71964568384E+02  0.13383304504E+03  0.41800000000E+01 0. -1.
        -11    1    1    2    0    0  0.84705468006E+02  0.27483676509E+02 -0.12460599099E+03  0.15315685351E+03  0.00000000000E+00 0.  1.
         11    1    1    2    0    0  0.59572340033E+01 -0.34070431942E+02 -0.25752937384E+02  0.43121882537E+02  0.00000000000E+00 0. -1.
</event>
<event>
 7    1  0.4394360E-006  0.8149804E+02  0.7561462E-02  0.1324853E+00
         -1   -1    0    0    0  501 -0.00000000000E+00  0.00000000000E+00  0.30548915184E+03  0.30548915184E+03  0.00000000000E+00 0.  1.
          1   -1    0    0  501    0  0.00000000000E+00 -0.00000000000E+00 -0.43820540839E+02  0.43820540839E+02  0.00000000000E+00 0. -1.
         23    2    1    2    0    0 -0.56748316304E+00 -0.78134722683E+01  0.19937040396E+03  0.23549349376E+03  0.12508898929E+03 0.  0.
          5    1    3    3  502    0  0.31546485624E+02  0.66129193004E+01  0.19732274334E+03  0.19998162140E+03  0.41800000000E+01 0. -1.
         -5    1    3    3    0  502 -0.32113968787E+02 -0.14426391569E+02  0.20476606211E+01  0.35511872366E+02  0.41800000000E+01 0. -1.
        -11    1    1    2    0    0  0.13118297063E+02 -0.41828446616E+02  0.32523249644E+02  0.54584525569E+02  0.00000000000E+00 0.  1.
         11    1    1    2    0    0 -0.12550813900E+02  0.49641918884E+02  0.29774957399E+02  0.59231673352E+02  0.00000000000E+00 0. -1.
</event>
<event>
 7    1  0.4394360E-006  0.1160106E+03  0.7561462E-02  0.1249827E+00
         -1   -1    0    0    0  501 -0.00000000000E+00  0.00000000000E+00  0.90309803761E+02  0.90309803761E+02  0.00000000000E+00 0. -1.
          1   -1    0    0  501    0  0.00000000000E+00 -0.00000000000E+00 -0.15751640326E+03  0.15751640326E+03  0.00000000000E+00 0.  1.
         23    2    1    2    0    0  0.18342376402E+02 -0.47849617366E+02 -0.41013309954E+02  0.14126174806E+03  0.12508701458E+03 0.  0.
          5    1    3    3  502    0  0.66879862647E+02 -0.88992433024E+00 -0.14366861500E+02  0.68538945880E+02  0.41800000000E+01 0.  1.
         -5    1    3    3    0  502 -0.48537486246E+02 -0.46959693036E+02 -0.26646448454E+02  0.72722802176E+02  0.41800000000E+01 0.  1.
        -11    1    1    2    0    0  0.30398900329E+02  0.36115121976E+02 -0.30570012861E+02  0.56239851199E+02  0.00000000000E+00 0.  1.
         11    1    1    2    0    0 -0.48741276731E+02  0.11734495390E+02  0.43767233189E+01  0.50324607763E+02  0.00000000000E+00 0. -1.
</event>
<event>
 7    1  0.4394360E-006  0.1083378E+03  0.7561462E-02  0.1263679E+00
          2   -1    0    0  501    0  0.00000000000E+00  0.00000000000E+00  0.69303729540E+02  0.69303729540E+02  0.00000000000E+00 0.  1.
         -2   -1    0    0    0  501 -0.00000000000E+00 -0.00000000000E+00 -0.31600808493E+03  0.31600808493E+03  0.00000000000E+00 0. -1.
         23    2    1    2    0    0 -0.85461452369E+00  0.45935813596E+02 -0.24396504592E+03  0.27798607024E+03  0.12508589961E+03 0.  0.
          5    1    3    3  502    0 -0.41757164751E+02 -0.22722757401E+02 -0.55271330350E+02  0.73023125588E+02  0.41800000000E+01 0.  1.
         -5    1    3    3    0  502  0.40902550227E+02  0.68658570996E+02 -0.18869371557E+03  0.20496294466E+03  0.41800000000E+01 0.  1.
        -11    1    1    2    0    0 -0.56593854822E+00 -0.67405622606E+02 -0.28995211922E+02  0.73379565001E+02  0.00000000000E+00 0. -1.
         11    1    1    2    0    0  0.14205530719E+01  0.21469809010E+02  0.26255902456E+02  0.33946179222E+02  0.00000000000E+00 0.  1.
</event>
<event>
 6    1  0.4394360E-006  0.1225604E+03  0.7561462E-02  0.1238932E+00
         -2   -1    0    0    0  501 -0.00000000000E+00  0.00000000000E+00  0.58666468261E+02  0.58666468261E+02  0.00000000000E+00 0.  1.
          2   -1    0    0  501    0  0.00000000000E+00 -0.00000000000E+00 -0.36992448082E+03  0.36992448082E+03  0.00000000000E+00 0. -1.
          5    1    1    2  502    0  0.29790831364E+02 -0.65840759448E+01 -0.15174440718E+03  0.15483759621E+03  0.41800000000E+01 0. -1.
         -5    1    1    2    0  502  0.41102092082E+02  0.71904332858E+02 -0.28552889895E+02  0.87706071504E+02  0.41800000000E+01 0.  1.
        -11    1    1    2    0    0 -0.49581323556E+02 -0.87542464771E+02 -0.10827874478E+03  0.14780486242E+03  0.00000000000E+00 0. -1.
         11    1    1    2    0    0 -0.21311599890E+02  0.22222207858E+02 -0.22681970701E+02  0.38242418946E+02  0.00000000000E+00 0.  1.
</event>
<event>
 7    1  0.4394360E-006  0.8420276E+02  0.7561462E-02  0.1317531E+00
         -1   -1    0    0    0  501 -0.00000000000E+00  0.00000000000E+00  0.66192584699E+02  0.66192584699E+02  0.00000000000E+00 0.  1.
          1   -1    0    0  501    0  0.00000000000E+00 -0.00000000000E+00 -0.17832426898E+03  0.17832426898E+03  0.00000000000E+00 0. -1.
         23    2    1    2    0    0 -0.26627982672E+02 -0.36518572123E+01 -0.13272195811E+02  0.12863003296E+03  0.12508856333E+03 0.  0.
          5    1    3    3  502    0 -0.33942880165E+02  0.51248000096E+02  0.18896987997E+02  0.64444124504E+02  0.41800000000E+01 0.  1.
         -5    1    3    3    0  502  0.73148974934E+01 -0.54899857308E+02 -0.32169183808E+02  0.64185908459E+02  0.41800000000E+01 0.  1.
        -11    1    1    2    0    0 -0.10563368340E+02 -0.68697176778E+01 -0.36309581717E+01  0.13113414083E+02  0.00000000000E+00 0.  1.
         11    1    1    2    0    0  0.37191351012E+02  0.10521574890E+02 -0.95228530303E+02  0.10277340664E+03  0.00000000000E+00 0. -1.
</event>
<event>
 7    1  0.4394360E-006  0.7779331E+02  0.7561462E-02  0.1335433E+00
          2   -1    0    0  501    0  0.00000000000E+00  0.00000000000E+00  0.20218956826E+03  0.20218956826E+03  0.00000000000E+00 0. -1.
         -2   -1    0    0    0  501 -0.00000000000E+00 -0.00000000000E+00 -0.90192603736E+02  0.90192603736E+02  0.00000000000E+00 0.  1.
         23    2    1    2    0    0  0.28825335983E+02 -0.18817440889E+02 -0.13710865859E+02  0.13045899072E+03  0.12508622763E+03 0.  0.
          5    1    3    3  502    0  0.26355713369E+02 -0.45163640128E+02  0.42941007263E+02  0.67792186287E+02  0.41800000000E+01 0.  1.
         -5    1    3    3    0  502  0.24696226146E+01  0.26346199239E+02 -0.56651873122E+02  0.62666804438E+02  0.41800000000E+01 0.  1.
        -11    1    1    2    0    0 -0.53362039205E+01 -0.25569189948E+02  0.10397142609E+03  0.10720222008E+03  0.00000000000E+00 0. -1.
         11    1    1    2    0    0 -0.23489132063E+02  0.44386630837E+02  0.21736404294E+02  0.54720961192E+02  0.00000000000E+00 0.  1.
</event>
<event>
 7    1  0.4394360E-006  0.1186047E+03  0.7561462E-02  0.1245417E+00
          1   -1    0    0  501    0  0.00000000000E+00  0.00000000000E+00  0.14562093265E+03  0.14562093265E+03  0.00000000000E+00 0. -1.
         -1   -1    0    0    0  501 -0.00000000000E+00 -0.00000000000E+00 -0.16610803573E+03  0.16610803573E+03  0.00000000000E+00 0.  1.
         23    2    1    2    0    0 -0.17659331398E+02 -0.65577280195E+02 -0.99763430226E+02  0.17381709574E+03  0.12508960428E+03 0.  0.
          5    1    3    3  502    0  0.13636671789E+02 -0.94890672315E+02 -0.85246644699E+02  0.12835365730E+03  0.41800000000E+01 0. -1.
         -5    1    3    3    0  502 -0.31296003187E+02  0.29313392120E+02 -0.14516785527E+02  0.45463438443E+02  0.41800000000E+01 0. -1.
        -11    1    1    2    0    0 -0.24966693068E+02  0.73865011398E+01  0.56595578300E+02  0.62297316515E+02  0.00000000000E+00 0.  1.
         11    1    1    2    0    0  0.42626024466E+02  0.58190779055E+02  0.22680748845E+02  0.75614556118E+02  0.00000000000E+00 0. -1.
</event>
<event>
 7    1  0.4394360E-006  0.1136582E+03  0.7561462E-02  0.1253942E+00
         -2   -1    0    0    0  501 -0.00000000000E+00  0.00000000000E+00  0.53864106271E+03  0.53864106271E+03  0.00000000000E+00 0.  1.
          2   -1    0    0  501    0  0.00000000000E+00 -0.00000000000E+00 -0.28707946968E+02  0.28707946968E+02  0.00000000000E+00 0. -1.
         23    2    1    2    0    0  0.24163763231E+02  0.54356019326E+02  0.31834470450E+03  0.34717249860E+03  0.12508768369E+03 0.  0.
          5    1    3    3  502    0 -0.39861082898E+02  0.43765374908E+02  0.22964279707E+03  0.23718684748E+03  0.41800000000E+01 0. -1.
         -5    1    3    3    0  502  0.64024846129E+02  0.10590644419E+02  0.88701907431E+02  0.10998565112E+03  0.41800000000E+01 0. -1.
        -11    1    1    2    0    0 -0.47658245304E+02 -0.62031982026E+02  0.11037032159E+03  0.13528075631E+03  0.00000000000E+00 0.  1.
         11    1    1    2    0    0  0.23494482073E+02  0.76759626992E+01  0.81218089645E+02  0.84895754763E+02  0.00000000000E+00 0. -1.
</event>
<event>
 6    1  0.4394360E-006  0.1607391E+03  0.7561462E-02  0.1187865E+00
          1   -1    0    0  501    0  0.00000000000E+00  0.00000000000E+00  0.16476504712E+03  0.16476504712E+03  0.00000000000E+00 0. -1.
         -1   -1    0    0    0  501 -0.00000000000E+00 -0.00000000000E+00 -0.26719674425E+03  0.26719674425E+03  0.00000000000E+00 0.  1.
          5    1    1    2  502    0 -0.32093290761E+01  0.83444818228E+02 -0.98337339516E+02  0.12907765967E+03  0.41800000000E+01 0. -1.
         -5    1    1    2    0  502 -0.45179901836E+02 -0.13617458636E+03 -0.79429372125E+02  0.16404645396E+03  0.41800000000E+01 0.  1.
        -11    1    1    2    0    0  0.32590518790E+02 -0.63270389618E+01 -0.92590104160E+01  0.34465963079E+02  0.00000000000E+00 0.  1.
         11    1    1    2    0    0  0.15798712122E+02  0.59056807092E+02  0.84594024925E+02  0.10437171466E+03  0.00000000000E+00 0. -1.
</event>
<event>
 7    1  0.4394360E-006  0.1810889E+03  0.7561462E-02  0.1166753E+00
         -1   -1    0    0    0  501 -0.00000000000E+00  0.00000000000E+00  0.35085726349E+03  0.35085726349E+03  0.00000000000E+00 0.  1.
          1   -1    0    0  501    0  0.00000000000E+00 -0.00000000000E+00 -0.13938160370E+03  0.13938160370E+03  0.00000000000E+00 0. -1.
         23    2    1    2    0    0  0.77073661933E+02 -0.14254246648E+03  0.22502351469E+03  0.30420805682E+03  0.12509298765E+03 0.  0.
          5    1    3    3  502    0 -0.27663982905E+02 -0.93792471085E+01  0.63830339034E+02  0.70321055223E+02  0.41800000000E+01 0.  1.
         -5    1    3    3    0  502  0.10473764484E+03 -0.13316321937E+03  0.16119317566E+03  0.23388700160E+03  0.41800000000E+01 0.  1.
        -11    1    1    2    0    0 -0.25000219850E+02  0.29017427411E+02  0.35139058491E+02  0.51978606346E+02  0.00000000000E+00 0.  1.
         11    1    1    2    0    0 -0.52073442084E+02  0.11352503907E+03 -0.48686913393E+02  0.13405220402E+03  0.00000000000E+00 0. -1.
</event>
<event>
 7    1  0.4394360E-006  0.8433508E+02  0.7561462E-02  0.1317181E+00
         -2   -1    0    0    0  501 -0.00000000000E+00  0.00000000000E+00  0.60187042552E+02  0.60187042552E+02  0.00000000000E+00 0.  1.
          2   -1    0    0  501    0  0.00000000000E+00 -0.00000000000E+00 -0.26866011019E+03  0.26866011019E+03  0.00000000000E+00 0. -1.
         23    2    1    2    0    0  0.34858843134E+02 -0.28846483331E+02 -0.53510892415E+02  0.14337742913E+03  0.12508562280E+03 0.  0.
          5    1    3    3  502    0 -0.28709375409E+02 -0.21796629919E+02  0.23462902171E+02  0.43212284023E+02  0.41800000000E+01 0.  1.
         -5    1    3    3    0  502  0.63568218543E+02 -0.70498534121E+01 -0.76973794586E+02  0.10016514511E+03  0.41800000000E+01 0.  1.
        -11    1    1    2    0    0 -0.57271170000E+01  0.37471311146E+02 -0.14996280905E+03  0.15467948515E+03  0.00000000000E+00 0. -1.
         11    1    1    2    0    0 -0.29131726134E+02 -0.86248278146E+01 -0.49993661746E+01  0.30790238462E+02  0.00000000000E+00 0.  1.
</event>
<event>
 7    1  0.4394360E-006  0.3074230E+03  0.7561462E-02  0.1081588E+00
         -1   -1    0    0    0  501 -0.00000000000E+00  0.00000000000E+00  0.91313237537E+02  0.91313237537E+02  0.00000000000E+00 0.  1.
          1   -1    0    0  501    0  0.00000000000E+00 -0.00000000000E+00 -0.10684474121E+04  0.10684474121E+04  0.00000000000E+00 0. -1.
         23    2    1    2    0    0 -0.25141758857E+03  0.14859354537E+03 -0.52748452105E+03  0.61577465635E+03  0.12509061467E+03 0.  0.
          5    1    3    3  502    0 -0.10957199850E+03  0.94894642251E+01 -0.12260429310E+03  0.16475848346E+03  0.41800000000E+01 0. -1.
         -5    1    3    3    0  502 -0.14184559007E+03  0.13910408115E+03 -0.40488022795E+03  0.45101617288E+03  0.41800000000E+01 0. -1.
        -11    1    1    2    0    0  0.15299843395E+03 -0.13981439464E+03 -0.29814823932E+03  0.36311011876E+03  0.00000000000E+00 0.  1.
         11    1    1    2    0    0  0.98419154625E+02 -0.87791507379E+01 -0.15150141416E+03  0.18087587451E+03  0.00000000000E+00 0. -1.
</event>
<event>
 7    1  0.4394360E-006  0.1052030E+03  0.7561462E-02  0.1269720E+00
          1   -1    0    0  501    0  0.00000000000E+00  0.00000000000E+00  0.69838637599E+02  0.69838637599E+02  0.00000000000E+00 0. -1.
         -1   -1    0    0    0  501 -0.00000000000E+00 -0.00000000000E+00 -0.43764778998E+03  0.43764778998E+03  0.00000000000E+00 0.  1.
         23    2    1    2    0    0 -0.12115559685E+02  0.38610076524E+02 -0.39153547550E+03  0.41301967241E+03  0.12509075276E+03 0.  0.
          5    1    3    3  502    0 -0.61164100417E+02  0.34553505046E+02 -0.30831917373E+03  0.31624860028E+03  0.41800000000E+01 0. -1.
         -5    1    3    3    0  502  0.49048540732E+02  0.40565714783E+01 -0.83216301775E+02  0.96771072130E+02  0.41800000000E+01 0. -1.
        -11    1    1    2    0    0 -0.34862886821E+02 -0.13633811869E+02  0.36957124493E+01  0.37615953983E+02  0.00000000000E+00 0.  1.
         11    1    1    2    0    0  0.46978446505E+02 -0.24976264655E+02  0.20030610668E+02  0.56850801190E+02  0.00000000000E+00 0. -1.
</event>
<event>
 7    1  0.4394360E-006  0.1051893E+03  0.7561462E-02  0.1269747E+00
         -1   -1    0    0    0  501 -0.00000000000E+00  0.00000000000E+00  0.25744693987E+03  0.25744693987E+03  0.00000000000E+00 0.  1.
          1   -1    0    0  501    0  0.00000000000E+00 -0.00000000000E+00 -0.98376392633E+02  0.98376392633E+02  0.00000000000E+00 0. -1.
         23    2    1    2    0    0 -0.34584019475E+02 -0.89786347714E+02  0.15780590100E+03  0.22317549886E+03  0.12508780221E+03 0.  0.
          5    1    3    3  502    0  0.11983316251E+02 -0.95617108230E-01  0.11100311511E+03  0.11172633071E+03  0.41800000000E+01 0.  1.
         -5    1    3    3    0  502 -0.46567335726E+02 -0.89690730605E+02  0.46802785890E+02  0.11144916815E+03  0.41800000000E+01 0.  1.
        -11    1    1    2    0    0  0.11105978106E+02  0.39719356259E+02 -0.44642171061E+02  0.60777409030E+02  0.00000000000E+00 0. -1.
         11    1    1    2    0    0  0.23478041369E+02  0.50066991455E+02  0.45906817304E+02  0.71870424619E+02  0.00000000000E+00 0.  1.
</event>
<event>
 7    1  0.4394360E-006  0.1712251E+03  0.7561462E-02  0.1176576E+00
          2   -1    0    0  501    0  0.00000000000E+00  0.00000000000E+00  0.53015449170E+02  0.53015449170E+02  0.00000000000E+00 0. -1.
         -2   -1    0    0    0  501 -0.00000000000E+00 -0.00000000000E+00 -0.63164011280E+03  0.63164011280E+03  0.00000000000E+00 0.  1.
         23    2    1    2    0    0 -0.70015250793E+02  0.11379328481E+03 -0.41803179946E+03  0.45634081497E+03  0.12508120179E+03 0.  0.
          5    1    3    3  502    0  0.35706230843E+02  0.20635978141E+02 -0.11119193360E+03  0.11866716906E+03  0.41800000000E+01 0. -1.
         -5    1    3    3    0  502 -0.10572148164E+03  0.93157306668E+02 -0.30683986586E+03  0.33767364592E+03  0.41800000000E+01 0. -1.
        -11    1    1    2    0    0  0.83923535100E+02 -0.56742129727E+02 -0.11939556209E+03  0.15658265956E+03  0.00000000000E+00 0. -1.
         11    1    1    2    0    0 -0.13908284307E+02 -0.57051155082E+02 -0.41197302086E+02  0.71732087434E+02  0.00000000000E+00 0.  1.
</event>
<event>
 7    1  0.4394360E-006  0.1486372E+03  0.7561462E-02  0.1202158E+00
          1   -1    0    0  501    0  0.00000000000E+00  0.00000000000E+00  0.74344698537E+03  0.74344698537E+03  0.00000000000E+00 0. -1.
         -1   -1    0    0    0  501 -0.00000000000E+00 -0.00000000000E+00 -0.32702273785E+02  0.32702273785E+02  0.00000000000E+00 0.  1.
         23    2    1    2    0    0 -0.96458499988E+02 -0.40768990033E+02  0.28544271557E+03  0.32877220723E+03  0.12508903871E+03 0.  0.
          5    1    3    3  502    0  0.22307890277E+02 -0.37085735245E+02  0.91106236332E+02  0.10094955387E+03  0.41800000000E+01 0.  1.
         -5    1    3    3    0  502 -0.11876639026E+03 -0.36832547880E+01  0.19433647924E+03  0.22782265336E+03  0.41800000000E+01 0.  1.
        -11    1    1    2    0    0  0.47612982792E+02 -0.24363664537E+02  0.22262983585E+03  0.22896425068E+03  0.00000000000E+00 0. -1.
         11    1    1    2    0    0  0.48845517195E+02  0.65132654570E+02  0.20267216016E+03  0.21841280124E+03  0.00000000000E+00 0.  1.
</event>
<event>
 6    1  0.4394360E-006  0.2193813E+03  0.7561462E-02  0.1134345E+00
         -2   -1    0    0    0  501 -0.00000000000E+00  0.00000000000E+00  0.22558969196E+03  0.22558969196E+03  0.00000000000E+00 0.  1.
          2   -1    0    0  501    0  0.00000000000E+00 -0.00000000000E+00 -0.35702726452E+03  0.35702726452E+03  0.00000000000E+00 0. -1.
          5    1    1    2  502    0  0.98386107384E+01  0.17264636319E+03  0.11715352743E+03  0.20891621855E+03  0.41800000000E+01 0. -1.
         -5    1    1    2    0  502  0.76715179277E+02 -0.64188343474E+02 -0.41480226338E+02  0.10836717098E+03  0.41800000000E+01 0.  1.
        -11    1    1    2    0    0 -0.10047248684E+03 -0.11283169226E+03 -0.19220413173E+03  0.24447523319E+03  0.00000000000E+00 0.  1.
         11    1    1    2    0    0  0.13918696821E+02  0.43736725436E+01 -0.14906741922E+02  0.20858333765E+02  0.00000000000E+00 0. -1.
</event>
<event>
 7    1  0.4394360E-006  0.1288663E+03  0.7561462E-02  0.1229148E+00
          1   -1    0    0  501    0  0.00000000000E+00  0.00000000000E+00  0.59118070638E+03  0.59118070638E+03  0.00000000000E+00 0. -1.
         -1   -1    0    0    0  501 -0.00000000000E+00 -0.00000000000E+00 -0.35918019120E+02  0.35918019120E+02  0.00000000000E+00 0.  1.
         23    2    1    2    0    0 -0.63797797802E+02 -0.41492658534E+02  0.16961329542E+03  0.22405257706E+03  0.12505633765E+03 0.  0.
          5    1    3    3  502    0 -0.34745843498E+02 -0.86050319530E+02  0.10293571844E+03  0.13865484363E+03  0.41800000000E+01 0.  1.
         -5    1    3    3    0  502 -0.29051954304E+02  0.44557660995E+02  0.66677576983E+02  0.85397733428E+02  0.41800000000E+01 0.  1.
        -11    1    1    2    0    0  0.37203974570E+02  0.65711603882E+02  0.19655617446E+03  0.21056229560E+03  0.00000000000E+00 0.  1.
         11    1    1    2    0    0  0.26593823233E+02 -0.24218945347E+02  0.18909321738E+03  0.19248385284E+03  0.00000000000E+00 0. -1.
</event>
<event>
 7    1  0.4394360E-006  0.1378370E+03  0.7561462E-02  0.1216269E+00
         -1   -1    0    0    0  501 -0.00000000000E+00  0.00000000000E+00  0.14001110495E+04  0.14001110495E+04  0.00000000000E+00 0.  1.
          1   -1    0    0  501    0  0.00000000000E+00 -0.00000000000E+00 -0.16791843681E+02  0.16791843681E+02  0.00000000000E+00 0. -1.
         23    2    1    2    0    0 -0.84110583164E+02 -0.42147037666E+02  0.99097108292E+03  0.10032558465E+04  0.12509054090E+03 0.  0.
          5    1    3    3  502    0  0.70136789249E+01  0.31634564723E+02  0.35923972050E+03  0.36072231226E+03  0.41800000000E+01 0. -1.
         -5    1    3    3    0  502 -0.91124262089E+02 -0.73781602389E+02  0.63173136242E+03  0.64253353427E+03  0.41800000000E+01 0. -1.
        -11    1    1    2    0    0  0.55899929877E+01  0.46693553641E+02  0.94021334320E+02  0.10512633961E+03  0.00000000000E+00 0. -1.
         11    1    1    2    0    0  0.78520590176E+02 -0.45465159751E+01  0.29832678856E+03  0.30852070702E+03  0.00000000000E+00 0.  1.
</event>
<event>
 7    1  0.4394360E-006  0.1182090E+03  0.7561462E-02  0.1246081E+00
         -3   -1    0    0    0  501 -0.00000000000E+00  0.00000000000E+00  0.14688823942E+02  0.14688823942E+02  0.00000000000E+00 0.  1.
          3   -1    0    0  501    0  0.00000000000E+00 -0.00000000000E+00 -0.11062616646E+04  0.11062616646E+04  0.00000000000E+00 0. -1.
         23    2    1    2    0    0  0.11394936484E+02  0.60881145689E+02 -0.48962365190E+03  0.50913196759E+03  0.12509069290E+03 0.  0.
          5    1    3    3  502    0 -0.41466396332E+02  0.62874042492E+02 -0.37907637355E+03  0.38650870188E+03  0.41800000000E+01 0. -1.
         -5    1    3    3    0  502  0.52861332816E+02 -0.19928968025E+01 -0.11054727835E+03  0.12262326572E+03  0.41800000000E+01 0. -1.
        -11    1    1    2    0    0 -0.85061355811E+00 -0.83217360267E+02 -0.50269316933E+03  0.50953535214E+03  0.00000000000E+00 0. -1.
         11    1    1    2    0    0 -0.10544322926E+02  0.22336214577E+02 -0.99256019475E+02  0.10228316885E+03  0.00000000000E+00 0.  1.
</event>
<event>
 7    1  0.4394360E-006  0.1223184E+03  0.7561462E-02  0.1239321E+00
         -2   -1    0    0    0  501 -0.00000000000E+00  0.00000000000E+00  0.35578693133E+02  0.35578693133E+02  0.00000000000E+00 0.  1.
          2   -1    0    0  501    0  0.00000000000E+00 -0.00000000000E+00 -0.55595568062E+03  0.55595568062E+03  0.00000000000E+00 0. -1.
         23    2    1    2    0    0  0.30538220018E+02 -0.76563675854E+02 -0.21676313993E+03  0.26349360033E+03  0.12509212302E+03 0.  0.
          5    1    3    3  502    0  0.61955793347E+02 -0.22170189167E+02 -0.17737362016E+03  0.18923242625E+03  0.41800000000E+01 0. -1.
         -5    1    3    3    0  502 -0.31417573329E+02 -0.54393486687E+02 -0.39389519771E+02  0.74261174080E+02  0.41800000000E+01 0. -1.
        -11    1    1    2    0    0 -0.21525701395E+01  0.85853293891E+02 -0.26872251195E+03  0.28211205232E+03  0.00000000000E+00 0.  1.
         11    1    1    2    0    0 -0.28385649879E+02 -0.92896180375E+01 -0.34891335602E+02  0.45928721106E+02  0.00000000000E+00 0. -1.
</event>
<event>
 7    1  0.4394360E-006  0.9560597E+02  0.7561462E-02  0.1289817E+00
         -2   -1    0    0    0  501 -0.00000000000E+00  0.00000000000E+00  0.10121051087E+03  0.10121051087E+03  0.00000000000E+00 0.  1.
          2   -1    0    0  501    0  0.00000000000E+00 -0.00000000000E+00 -0.12349225439E+03  0.12349225439E+03  0.00000000000E+00 0. -1.
         23    2    1    2    0    0 -0.19590416265E+02  0.16275488896E+02 -0.21675084668E+02  0.12948363632E+03  0.12509007487E+03 0.  0.
          5    1    3    3  502    0 -0.56326767603E+02  0.27450328115E+02 -0.51071494644E+02  0.80944395899E+02  0.41800000000E+01 0. -1.
         -5    1    3    3    0  502  0.36736351338E+02 -0.11174839218E+02  0.29396409976E+02  0.48539240421E+02  0.41800000000E+01 0. -1.
        -11    1    1    2    0    0 -0.31894488720E+02 -0.20842512757E+02  0.15422250939E+02  0.41103705098E+02  0.00000000000E+00 0. -1.
         11    1    1    2    0    0  0.51484904985E+02  0.45670238608E+01 -0.16028909794E+02  0.54115423840E+02  0.00000000000E+00 0.  1.
</event>
<event>
 7    1  0.4394360E-006  0.1100702E+03  0.7561462E-02  0.1260440E+00
          2   -1    0    0  501    0  0.00000000000E+00  0.00000000000E+00  0.74630160611E+03  0.74630160611E+03  0.00000000000E+00 0. -1.
         -2   -1    0    0    0  501 -0.00000000000E+00 -0.00000000000E+00 -0.16992520822E+02  0.16992520822E+02  0.00000000000E+00 0.  1.
         23    2    1    2    0    0 -0.16151204970E+02  0.19259145135E+02  0.35330065622E+03  0.37563706660E+03  0.12510026388E+03 0.  0.
          5    1    3    3  502    0 -0.70230114469E+02  0.19890909962E+02  0.21421047145E+03  0.22634379991E+03  0.41800000000E+01 0.  1.
         -5    1    3    3    0  502  0.54078909498E+02 -0.63176482705E+00  0.13909018477E+03  0.14929326669E+03  0.41800000000E+01 0.  1.
        -11    1    1    2    0    0 -0.31388086475E+02 -0.30680910500E+02  0.21294873203E+03  0.21742514279E+03  0.00000000000E+00 0.  1.
         11    1    1    2    0    0  0.47539291445E+02  0.11421765365E+02  0.16305969703E+03  0.17023191755E+03  0.00000000000E+00 0. -1.
</event>
<event>
 7    1  0.4394360E-006  0.8959666E+02  0.7561462E-02  0.1303831E+00
         -2   -1    0    0    0  501 -0.00000000000E+00  0.00000000000E+00  0.72122746509E+02  0.72122746509E+02  0.00000000000E+00 0.  1.
          2   -1    0    0  501    0  0.00000000000E+00 -0.00000000000E+00 -0.22049742284E+03  0.22049742284E+03  0.00000000000E+00 0. -1.
         23    2    1    2    0    0  0.26484417843E+02 -0.46021899158E+02 -0.45763948871E+02  0.14339202029E+03  0.12508993914E+03 0.  0.
          5    1    3    3  502    0  0.60851036321E+02 -0.62759807480E+02 -0.54600019309E+01  0.87686521640E+02  0.41800000000E+01 0.  1.
         -5    1    3    3    0  502 -0.34366618478E+02  0.16737908322E+02 -0.40303946940E+02  0.55705498647E+02  0.41800000000E+01 0.  1.
        -11    1    1    2    0    0 -0.78370231943E+01  0.17108622671E+02  0.16636024478E+02  0.25117348838E+02  0.00000000000E+00 0.  1.
         11    1    1    2    0    0 -0.18647394649E+02  0.28913276487E+02 -0.11924675194E+03  0.12411080023E+03  0.00000000000E+00 0. -1.
</event>
<event>
 6    1  0.4394360E-006  0.1486938E+03  0.7561462E-02  0.1202087E+00
         -2   -1    0    0    0  501 -0.00000000000E+00  0.00000000000E+00  0.28857104442E+03  0.28857104442E+03  0.00000000000E+00 0.  1.
          2   -1    0    0  501    0  0.00000000000E+00 -0.00000000000E+00 -0.15712836348E+03  0.15712836348E+03  0.00000000000E+00 0. -1.
          5    1    1    2  502    0  0.13516021332E+03  0.78356366350E+01  0.17945977421E+02  0.13663532110E+03  0.41800000000E+01 0. -1.
         -5    1    1    2    0  502  0.21897724240E+01  0.20660694528E+02  0.13763908261E+03  0.13926108165E+03  0.41800000000E+01 0.  1.
        -11    1    1    2    0    0 -0.97341094888E+02 -0.14828134018E+02  0.28290572014E+02  0.10244763920E+03  0.00000000000E+00 0. -1.
         11    1    1    2    0    0 -0.40008890854E+02 -0.13668197145E+02 -0.52432951102E+02  0.67355365947E+02  0.00000000000E+00 0.  1.
</event>
<event>
 7    1  0.4394360E-006  0.1397974E+03  0.7561462E-02  0.1213602E+00
          3   -1    0    0  501    0  0.00000000000E+00  0.00000000000E+00  0.61371797612E+02  0.61371797612E+02  0.00000000000E+00 0. -1.
         -3   -1    0    0    0  501 -0.00000000000E+00 -0.00000000000E+00 -0.34501084596E+03  0.34501084596E+03  0.00000000000E+00 0.  1.
         23    2    1    2    0    0  0.90320189398E+02 -0.32804868753E+02 -0.16922004332E+03  0.23134280727E+03  0.12510066102E+03 0.  0.
          5    1    3    3  502    0 -0.27564371229E+02 -0.27996571332E+02 -0.37740315641E+02  0.54638872539E+02  0.41800000000E+01 0.  1.
         -5    1    3    3    0  502  0.11788456063E+03 -0.48082974211E+01 -0.13147972768E+03  0.17670393473E+03  0.41800000000E+01 0.  1.
        -11    1    1    2    0    0 -0.95093165493E+02  0.47700356755E+02 -0.68504517739E+02  0.12653419739E+03  0.00000000000E+00 0. -1.
         11    1    1    2    0    0  0.47729760949E+01 -0.14895488002E+02 -0.45914487286E+02  0.48505638913E+02  0.00000000000E+00 0.  1.
</event>
<event>
 7    1  0.4394360E-006  0.1131292E+03  0.7561462E-02  0.1254882E+00
         -1   -1    0    0    0  501 -0.00000000000E+00  0.00000000000E+00  0.19577800409E+02  0.19577800409E+02  0.00000000000E+00 0.  1.
          1   -1    0    0  501    0  0.00000000000E+00 -0.00000000000E+00 -0.71576004930E+03  0.71576004930E+03  0.00000000000E+00 0. -1.
         23    2    1    2    0    0 -0.74534339262E+01  0.32260051334E+02 -0.35007562614E+03  0.37322412359E+03  0.12508812024E+03 0.  0.
          5    1    3    3  502    0 -0.27057255336E+02 -0.42751526705E+02 -0.11646969642E+03  0.12705294443E+03  0.41800000000E+01 0. -1.
         -5    1    3    3    0  502  0.19603821410E+02  0.75011578039E+02 -0.23360592971E+03  0.24617117916E+03  0.41800000000E+01 0. -1.
        -11    1    1    2    0    0 -0.41136910733E+02 -0.26462073645E+02 -0.24440682278E+03  0.24925324830E+03  0.00000000000E+00 0. -1.
         11    1    1    2    0    0  0.48590344659E+02 -0.57979776893E+01 -0.10169979997E+03  0.11286047782E+03  0.00000000000E+00 0.  1.
</event>
<event>
 7    1  0.4394360E-006  0.9929897E+02  0.7561462E-02  0.1281777E+00
          1   -1    0    0  501    0  0.00000000000E+00  0.00000000000E+00  0.60634238598E+02  0.60634238598E+02  0.00000000000E+00 0. -1.
         -1   -1    0    0    0  501 -0.00000000000E+00 -0.00000000000E+00 -0.21836760072E+03  0.21836760072E+03  0.00000000000E+00 0.  1.
         23    2    1    2    0    0  0.36778096131E+02 -0.15872452519E+01 -0.98911953904E+02  0.16362767710E+03  0.12504117077E+03 0.  0.
          5    1    3    3  502    0  0.60061144981E+02  0.36778807303E+02 -0.95074774659E+02  0.11839217449E+03  0.41800000000E+01 0.  1.
         -5    1    3    3    0  502 -0.23283048850E+02 -0.38366052555E+02 -0.38371792441E+01  0.45235502617E+02  0.41800000000E+01 0.  1.
        -11    1    1    2    0    0  0.23026290728E+02  0.25094336716E+01 -0.49751176522E+02  0.54878838247E+02  0.00000000000E+00 0.  1.
         11    1    1    2    0    0 -0.59804386859E+02 -0.92218841964E+00 -0.90702316984E+01  0.60495323969E+02  0.00000000000E+00 0. -1.
</event>
<event>
 7    1  0.4394360E-006  0.7230245E+02  0.7561462E-02  0.1352434E+00
          2   -1    0    0  501    0  0.00000000000E+00  0.00000000000E+00  0.15874532492E+03  0.15874532492E+03  0.00000000000E+00 0. -1.
         -2   -1    0    0    0  501 -0.00000000000E+00 -0.00000000000E+00 -0.10347214533E+03  0.10347214533E+03  0.00000000000E+00 0.  1.
         23    2    1    2    0    0 -0.11367882130E+02 -0.42721995130E+02 -0.20831779398E+02  0.13429564318E+03  0.12508780569E+03 0.  0.
          5    1    3    3  502    0  0.52609930938E+01 -0.23125959017E+02 -0.72522847886E+02  0.76416777571E+02  0.41800000000E+01 0. -1.
         -5    1    3    3    0  502 -0.16628875224E+02 -0.19596036113E+02  0.51691068488E+02  0.57878865607E+02  0.41800000000E+01 0. -1.
        -11    1    1    2    0    0 -0.30761404650E+02  0.42362833218E+02  0.16425667760E+02  0.54869629264E+02  0.00000000000E+00 0.  1.
         11    1    1    2    0    0  0.42129286780E+02  0.35916191231E+00  0.59679291233E+02  0.73052197804E+02  0.00000000000E+00 0. -1.
</event>
<event>
 7    1  0.4394360E-006  0.1103064E+03  0.7561462E-02  0.1260003E+00
          1   -1    0    0  501    0  0.00000000000E+00  0.00000000000E+00  0.52716295142E+03  0.52716295142E+03  0.00000000000E+00 0. -1.
         -1   -1    0    0    0  501 -0.00000000000E+00 -0.00000000000E+00 -0.27738925097E+02  0.27738925097E+02  0.00000000000E+00 0.  1.
         23    2    1    2    0    0  0.16641820203E+02 -0.56559690414E+02  0.27439311927E+03  0.30726975661E+03  0.12508865121E+03 0.  0.
          5    1    3    3  502    0 -0.35824233197E+02 -0.74340127753E+02  0.15818356185E+03  0.17846383924E+03  0.41800000000E+01 0. -1.
         -5    1    3    3    0  502  0.52466053400E+02  0.17780437340E+02  0.11620955742E+03  0.12880591736E+03  0.41800000000E+01 0. -1.
        -11    1    1    2    0    0 -0.36540016197E+02  0.49046449425E+02  0.21605718354E+03  0.22454717443E+03  0.00000000000E+00 0. -1.
         11    1    1    2    0    0  0.19898195995E+02  0.75132409887E+01  0.89737235038E+01  0.23084945474E+02  0.00000000000E+00 0.  1.
</event>
<event>
 7    1  0.4394360E-006  0.1542894E+03  0.7561462E-02  0.1195299E+00
         -2   -1    0    0    0  501 -0.00000000000E+00  0.00000000000E+00  0.23854878616E+02  0.23854878616E+02  0.00000000000E+00 0. -1.
          2   -1    0    0  501    0  0.00000000000E+00 -0.00000000000E+00 -0.13132765221E+04  0.13132765221E+04  0.00000000000E+00 0.  1.
         23    2    1    2    0    0  0.49414975416E+01 -0.13191404981E+03 -0.51440585392E+03  0.54563787177E+03  0.12522607403E+03 0.  0.
          5    1    3    3  502    0 -0.17669090208E+02 -0.11016498251E+00 -0.48277741131E+01  0.18787993187E+02  0.41800000000E+01 0. -1.
         -5    1    3    3    0  502  0.22610587750E+02 -0.13180388483E+03 -0.50957807981E+03  0.52684987858E+03  0.41800000000E+01 0. -1.
        -11    1    1    2    0    0  0.28652870707E+02  0.11594025016E+03 -0.65658225876E+03  0.66735552078E+03  0.00000000000E+00 0.  1.
         11    1    1    2    0    0 -0.33594368249E+02  0.15973799650E+02 -0.11843353083E+03  0.12413800819E+03  0.00000000000E+00 0. -1.
</event>
<event>
 7    1  0.4394360E-006  0.2784565E+03  0.7561462E-02  0.1096535E+00
         -2   -1    0    0    0  501 -0.00000000000E+00  0.00000000000E+00  0.10207589572E+03  0.10207589572E+03  0.00000000000E+00 0.  1.
          2   -1    0    0  501    0  0.00000000000E+00 -0.00000000000E+00 -0.78317499167E+03  0.78317499167E+03  0.00000000000E+00 0. -1.
         23    2    1    2    0    0 -0.78963837572E+02 -0.25144498519E+03 -0.33171391806E+03  0.44175002943E+03  0.12509635026E+03 0.  0.
          5    1    3    3  502    0  0.93316413497E+01  0.83505658708E+01 -0.29888753251E+01  0.13535776902E+02  0.41800000000E+01 0.  1.
         -5    1    3    3    0  502 -0.88295478922E+02 -0.25979555106E+03 -0.32872504273E+03  0.42821425253E+03  0.41800000000E+01 0.  1.
        -11    1    1    2    0    0  0.79999851079E+02  0.17047263430E+03 -0.20809763818E+03  0.28065195926E+03  0.00000000000E+00 0.  1.
         11    1    1    2    0    0 -0.10360135072E+01  0.80972350887E+02 -0.14128753971E+03  0.16284889870E+03  0.00000000000E+00 0. -1.
</event>
<event>
 7    1  0.4394360E-006  0.1175348E+03  0.7561462E-02  0.1247220E+00
          1   -1    0    0  501    0  0.00000000000E+00  0.00000000000E+00  0.77867903130E+03  0.77867903130E+03  0.00000000000E+00 0. -1.
         -1   -1    0    0    0  501 -0.00000000000E+00 -0.00000000000E+00 -0.27957231272E+02  0.27957231272E+02  0.00000000000E+00 0.  1.
         23    2    1    2    0    0  0.40743320512E+02 -0.95795670163E+02  0.40309330028E+03  0.43470495180E+03  0.12508939921E+03 0.  0.
          5    1    3    3  502    0 -0.79874729306E+01  0.58562379999E+01  0.21577165291E+03  0.21603928774E+03  0.41800000000E+01 0. -1.
         -5    1    3    3    0  502  0.48730793443E+02 -0.10165190816E+03  0.18732164738E+03  0.21866566406E+03  0.41800000000E+01 0. -1.
        -11    1    1    2    0    0 -0.48405242386E+02  0.74147859953E+02  0.33330439253E+03  0.34486633745E+03  0.00000000000E+00 0. -1.
         11    1    1    2    0    0  0.76619218739E+01  0.21647810209E+02  0.14324107216E+02  0.27064973327E+02  0.00000000000E+00 0.  1.
</event>
<event>
 7    1  0.4394360E-006  0.1238908E+03  0.7561462E-02  0.1236813E+00
          1   -1    0    0  501    0  0.00000000000E+00  0.00000000000E+00  0.36890630325E+03  0.36890630325E+03  0.00000000000E+00 0. -1.
         -1   -1    0    0    0  501 -0.00000000000E+00 -0.00000000000E+00 -0.65353243084E+02  0.65353243084E+02  0.00000000000E+00 0.  1.
         23    2    1    2    0    0  0.12883913554E+02 -0.10458984220E+03  0.12310852936E+03  0.20471425469E+03  0.12508871154E+03 0.  0.
          5    1    3    3  502    0 -0.25645595254E+01  0.61021203510E+01 -0.20933480490E+02  0.22349403656E+02  0.41800000000E+01 0. -1.
         -5    1    3    3    0  502  0.15448473079E+02 -0.11069196255E+03  0.14404200985E+03  0.18236485104E+03  0.41800000000E+01 0. -1.
        -11    1    1    2    0    0 -0.27742237507E+02  0.10910830168E+03  0.18192841486E+03  0.21394438850E+03  0.00000000000E+00 0.  1.
         11    1    1    2    0    0  0.14858323953E+02 -0.45184594876E+01 -0.14838840515E+01  0.15600903138E+02  0.00000000000E+00 0. -1.
</event>
<event>
 7    1  0.4394360E-006  0.7554055E+02  0.7561462E-02  0.1342205E+00
          3   -1    0    0  501    0  0.00000000000E+00  0.00000000000E+00  0.70468202567E+02  0.70468202567E+02  0.00000000000E+00 0. -1.
         -3   -1    0    0    0  501 -0.00000000000E+00 -0.00000000000E+00 -0.19661119622E+03  0.19661119622E+03  0.00000000000E+00 0.  1.
         23    2    1    2    0    0  0.92618693761E+01  0.45798378081E+02 -0.99432944905E+02  0.16648297821E+03  0.12508556209E+03 0.  0.
          5    1    3    3  502    0  0.28645658918E+02  0.20387670725E+02 -0.12206634284E+03  0.12709797539E+03  0.41800000000E+01 0.  1.
         -5    1    3    3    0  502 -0.19383789542E+02  0.25410707356E+02  0.22633397940E+02  0.39385002826E+02  0.41800000000E+01 0.  1.
        -11    1    1    2    0    0  0.93726733148E+01 -0.59549340578E+02  0.59318442413E+01  0.60573572987E+02  0.00000000000E+00 0.  1.
         11    1    1    2    0    0 -0.18634542691E+02  0.13750962497E+02 -0.32641892987E+02  0.40022847583E+02  0.00000000000E+00 0. -1.
</event>
<event>
 7    1  0.4394360E-006  0.9509038E+02  0.7561462E-02  0.1290973E+00
          1   -1    0    0  501    0  0.00000000000E+00  0.00000000000E+00  0.65277267202E+02  0.65277267202E+02  0.00000000000E+00 0. -1.
         -1   -1    0    0    0  501 -0.00000000000E+00 -0.00000000000E+00 -0.30367127717E+03  0.30367127717E+03  0.00000000000E+00 0.  1.
         23    2    1    2    0    0  0.18742190754E+01  0.43077562958E+02 -0.23158223100E+03  0.26671504687E+03  0.12508955746E+03 0.  0.
          5    1    3    3  502    0 -0.48814868078E+02  0.13098421012E+02 -0.35414523204E+02  0.61855645112E+02  0.41800000000E+01 0. -1.
         -5    1    3    3    0  502  0.50689087154E+02  0.29979141945E+02 -0.19616770780E+03  0.20485940176E+03  0.41800000000E+01 0. -1.
        -11    1    1    2    0    0 -0.29588561511E+02 -0.43619255853E+02 -0.34547174410E+02  0.63020867284E+02  0.00000000000E+00 0.  1.
         11    1    1    2    0    0  0.27714342435E+02  0.54169289536E+00  0.27735395443E+02  0.39212630213E+02  0.00000000000E+00 0. -1.
</event>
<event>
 7    1  0.4394360E-006  0.9327735E+02  0.7561462E-02  0.1295104E+00
         -1   -1    0    0    0  501 -0.00000000000E+00  0.00000000000E+00  0.85000880120E+03  0.85000880120E+03  0.00000000000E+00 0.  1.
          1   -1    0    0  501    0  0.00000000000E+00 -0.00000000000E+00 -0.18854584948E+02  0.18854584948E+02  0.00000000000E+00 0. -1.
         23    2    1    2    0    0  0.45441270915E+02  0.16285132309E+02  0.61791230756E+03  0.63229229223E+03  0.12509120013E+03 0.  0.
          5    1    3    3  502    0  0.15532195855E+02  0.58652815953E+02  0.49636851815E+03  0.50008057365E+03  0.41800000000E+01 0.  1.
         -5    1    3    3    0  502  0.29909075060E+02 -0.42367683644E+02  0.12154378940E+03  0.13221171858E+03  0.41800000000E+01 0.  1.
        -11    1    1    2    0    0 -0.15833844588E+02 -0.35183545691E+02  0.27111178769E+02  0.47155153865E+02  0.00000000000E+00 0. -1.
         11    1    1    2    0    0 -0.29607426327E+02  0.18898413382E+02  0.18613072993E+03  0.18941594006E+03  0.00000000000E+00 0.  1.
</event>
<event>
 7    1  0.4394360E-006  0.1001855E+03  0.7561462E-02  0.1279906E+00
         -1   -1    0    0    0  501 -0.00000000000E+00  0.00000000000E+00  0.52444620266E+03  0.52444620266E+03  0.00000000000E+00 0.  1.
          1   -1    0    0  501    0  0.00000000000E+00 -0.00000000000E+00 -0.34693446593E+02  0.34693446593E+02  0.00000000000E+00 0. -1.
         23    2    1    2    0    0  0.52865459644E+02 -0.54354145857E+02  0.31468654935E+03  0.34702228012E+03  0.12509080126E+03 0.  0.
          5    1    3    3  502    0  0.75854350925E+01 -0.72710927889E+02  0.27303239932E+03  0.28268105939E+03  0.41800000000E+01 0. -1.
         -5    1    3    3    0  502  0.45280024552E+02  0.18356782031E+02  0.41654150035E+02  0.64341220730E+02  0.41800000000E+01 0. -1.
        -11    1    1    2    0    0 -0.17146608700E+02  0.31017850435E+02  0.38327264046E+01  0.35648324326E+02  0.00000000000E+00 0. -1.
         11    1    1    2    0    0 -0.35718850944E+02  0.23336295422E+02  0.17123348031E+03  0.17646904481E+03  0.00000000000E+00 0.  1.
</event>
<event>
 7    1  0.4394360E-006  0.8046985E+02  0.7561462E-02  0.1327723E+00
          1   -1    0    0  501    0  0.00000000000E+00  0.00000000000E+00  0.27995335114E+02  0.27995335114E+02  0.00000000000E+00 0. -1.
         -1   -1    0    0    0  501 -0.00000000000E+00 -0.00000000000E+00 -0.52103245808E+03  0.52103245808E+03  0.00000000000E+00 0.  1.
         23    2    1    2    0    0 -0.17013648125E+02  0.83703177198E+01 -0.38936556726E+03  0.40938956872E+03  0.12503898419E+03 0.  0.
          5    1    3    3  502    0 -0.35680863966E+02 -0.40314274979E+02 -0.85998600645E+02  0.10154603160E+03  0.41800000000E+01 0. -1.
         -5    1    3    3    0  502  0.18667215841E+02  0.48684592699E+02 -0.30336696661E+03  0.30784353712E+03  0.41800000000E+01 0. -1.
        -11    1    1    2    0    0  0.35011577109E+02 -0.10394042670E+02 -0.11336023088E+03  0.11909823088E+03  0.00000000000E+00 0.  1.
         11    1    1    2    0    0 -0.17997928984E+02  0.20237249505E+01  0.96886751698E+01  0.20539993596E+02  0.00000000000E+00 0. -1.
</event>
<event>
 7    1  0.4394360E-006  0.1118205E+03  0.7561462E-02  0.1257235E+00
          1   -1    0    0  501    0  0.00000000000E+00  0.00000000000E+00  0.52534114762E+03  0.52534114762E+03  0.00000000000E+00 0. -1.
         -1   -1    0    0    0  501 -0.00000000000E+00 -0.00000000000E+00 -0.33766149198E+02  0.33766149198E+02  0.00000000000E+00 0.  1.
         23    2    1    2    0    0 -0.43524338808E+02 -0.18461843060E+02  0.14504285597E+03  0.19728344943E+03  0.12509245234E+03 0.  0.
          5    1    3    3  502    0 -0.85311645872E+02 -0.25167136797E+02  0.11388134955E+03  0.14456104548E+03  0.41800000000E+01 0.  1.
         -5    1    3    3    0  502  0.41787307063E+02  0.67052937365E+01  0.31161506427E+02  0.52722403952E+02  0.41800000000E+01 0.  1.
        -11    1    1    2    0    0 -0.16245744435E+02 -0.16227015599E+02  0.29692138285E+02  0.37534828139E+02  0.00000000000E+00 0.  1.
         11    1    1    2    0    0  0.59770083244E+02  0.34688858659E+02  0.31684000416E+03  0.32428901924E+03  0.00000000000E+00 0. -1.
</event>
<event>
 7    1  0.4394360E-006  0.1589703E+03  0.7561462E-02  0.1189864E+00
          1   -1    0    0  501    0  0.00000000000E+00  0.00000000000E+00  0.12996776553E+03  0.12996776553E+03  0.00000000000E+00 0. -1.
         -1   -1    0    0    0  501 -0.00000000000E+00 -0.00000000000E+00 -0.29686454955E+03  0.29686454955E+03  0.00000000000E+00 0.  1.
         23    2    1    2    0    0 -0.51462985860E+02 -0.11064209474E+03 -0.20695499534E+03  0.27086748506E+03  0.12509481334E+03 0.  0.
          5    1    3    3  502    0 -0.65610771845E+02 -0.13266166967E+03 -0.17083494470E+03  0.22606623523E+03  0.41800000000E+01 0.  1.
         -5    1    3    3    0  502  0.14147785984E+02  0.22019574926E+02 -0.36120050637E+02  0.44801249829E+02  0.41800000000E+01 0.  1.
        -11    1    1    2    0    0 -0.18886523740E+02  0.12586643084E+02 -0.10640542794E+02  0.25066820981E+02  0.00000000000E+00 0.  1.
         11    1    1    2    0    0  0.70349509601E+02  0.98055451655E+02  0.50698754110E+02  0.13089800903E+03  0.00000000000E+00 0. -1.
</event>
<event>
 7    1  0.4394360E-006  0.7761632E+02  0.7561462E-02  0.1335955E+00
          4   -1    0    0  501    0  0.00000000000E+00  0.00000000000E+00  0.10119858866E+03  0.10119858866E+03  0.00000000000E+00 0.  1.
         -4   -1    0    0    0  501 -0.00000000000E+00 -0.00000000000E+00 -0.13296106898E+03  0.13296106898E+03  0.00000000000E+00 0. -1.
         23    2    1    2    0    0 -0.35975696093E+01 -0.66011922205E+01 -0.47405468589E+02  0.13397059510E+03  0.12507727073E+03 0.  0.
          5    1    3    3  502    0 -0.38353747739E+02  0.27088246889E+02 -0.66715241936E+02  0.81689528042E+02  0.41800000000E+01 0. -1.
         -5    1    3    3    0  502  0.34756178130E+02 -0.33689439110E+02  0.19309773347E+02  0.52281067055E+02  0.41800000000E+01 0. -1.
        -11    1    1    2    0    0  0.16621824052E+02 -0.22296448364E+02  0.47631594902E+02  0.55156010347E+02  0.00000000000E+00 0.  1.
         11    1    1    2    0    0 -0.13024254443E+02  0.28897640584E+02 -0.31988606639E+02  0.45033052194E+02  0.00000000000E+00 0. -1.
</event>
<event>
 7    1  0.4394360E-006  0.1092616E+03  0.7561462E-02  0.1261943E+00
         -1   -1    0    0    0  501 -0.00000000000E+00  0.00000000000E+00  0.10449189155E+03  0.10449189155E+03  0.00000000000E+00 0.  1.
          1   -1    0    0  501    0  0.00000000000E+00 -0.00000000000E+00 -0.16844994291E+03  0.16844994291E+03  0.00000000000E+00 0. -1.
         23    2    1    2    0    0  0.65426919891E+02  0.39479459787E+02 -0.26039733894E+02  0.14888100430E+03  0.12509267009E+03 0.  0.
          5    1    3    3  502    0 -0.34638465370E+02  0.76609927680E+01 -0.25334758268E+02  0.43793109845E+02  0.41800000000E+01 0. -1.
         -5    1    3    3    0  502  0.10006538526E+03  0.31818467019E+02 -0.70497562634E+00  0.10508789446E+03  0.41800000000E+01 0. -1.
        -11    1    1    2    0    0 -0.24453625154E+02 -0.22945802528E+02  0.28689272059E+02  0.44131213083E+02  0.00000000000E+00 0.  1.
         11    1    1    2    0    0 -0.40973294737E+02 -0.16533657258E+02 -0.66607589522E+02  0.79929617076E+02  0.00000000000E+00 0. -1.
</event>
<event>
 7    1  0.4394360E-006  0.1616908E+03  0.7561462E-02  0.1186801E+00
         -2   -1    0    0    0  501 -0.00000000000E+00  0.00000000000E+00  0.98475655671E+02  0.98475655671E+02  0.00000000000E+00 0. -1.
          2   -1    0    0  501    0  0.00000000000E+00 -0.00000000000E+00 -0.29331514964E+03  0.29331514964E+03  0.00000000000E+00 0.  1.
         23    2    1    2    0    0  0.58832135541E+02  0.11704206730E+03 -0.98333972575E+02  0.20610053031E+03  0.12509113774E+03 0.  0.
          5    1    3    3  502    0  0.18694776283E+02  0.12268559871E+03 -0.31963545856E+02  0.12822008990E+03  0.41800000000E+01 0.  1.
         -5    1    3    3    0  502  0.40137359258E+02 -0.56435314069E+01 -0.66370426719E+02  0.77880440406E+02  0.41800000000E+01 0.  1.
        -11    1    1    2    0    0 -0.28537907596E+02 -0.12411479699E+03 -0.81013444483E+02  0.15093731543E+03  0.00000000000E+00 0.  1.
         11    1    1    2    0    0 -0.30294227945E+02  0.70727296835E+01 -0.15492076906E+02  0.34752959569E+02  0.00000000000E+00 0. -1.
</event>
<event>
 7    1  0.4394360E-006  0.1268207E+03  0.7561462E-02  0.1232251E+00
          1   -1    0    0  501    0  0.00000000000E+00  0.00000000000E+00  0.22268729214E+03  0.22268729214E+03  0.00000000000E+00 0. -1.
         -1   -1    0    0    0  501 -0.00000000000E+00 -0.00000000000E+00 -0.81525941338E+02  0.81525941338E+02  0.00000000000E+00 0.  1.
         23    2    1    2    0    0  0.79805068570E+02  0.71079723914E+01  0.77538695971E+02  0.16756708615E+03  0.12508839574E+03 0.  0.
          5    1    3    3  502    0  0.82012465188E+02  0.46813099311E+02  0.18588711761E+02  0.96335472793E+02  0.41800000000E+01 0.  1.
         -5    1    3    3    0  502 -0.22073966178E+01 -0.39705126920E+02  0.58949984210E+02  0.71231613360E+02  0.41800000000E+01 0.  1.
        -11    1    1    2    0    0 -0.55092997040E+01  0.33848595550E+02  0.29383579178E+02  0.45160541729E+02  0.00000000000E+00 0. -1.
         11    1    1    2    0    0 -0.74295768866E+02 -0.40956567941E+02  0.34239075649E+02  0.91485605591E+02  0.00000000000E+00 0.  1.
</event>
<event>
 7    1  0.4394360E-006  0.1573835E+03  0.7561462E-02  0.1191683E+00
          2   -1    0    0  501    0  0.00000000000E+00  0.00000000000E+00  0.19197204399E+03  0.19197204399E+03  0.00000000000E+00 0. -1.
         -2   -1    0    0    0  501 -0.00000000000E+00 -0.00000000000E+00 -0.15350154650E+03  0.15350154650E+03  0.00000000000E+00 0.  1.
         23    2    1    2    0    0  0.61998210400E+02  0.11571988278E+03  0.39917418872E+02  0.18567618913E+03  0.12508947804E+03 0.  0.
          5    1    3    3  502    0  0.88538796373E+02  0.33776415797E+02  0.16096639076E+02  0.96210908513E+02  0.41800000000E+01 0. -1.
         -5    1    3    3    0  502 -0.26540585973E+02  0.81943466987E+02  0.23820779796E+02  0.89465280616E+02  0.41800000000E+01 0. -1.
        -11    1    1    2    0    0 -0.12991102229E+02 -0.78060853603E+01 -0.33713290086E+02  0.36963355289E+02  0.00000000000E+00 0.  1.
         11    1    1    2    0    0 -0.49007108171E+02 -0.10791379742E+03  0.32266368696E+02  0.12283404607E+03  0.00000000000E+00 0. -1.
</event>
<event>
 7    1  0.4394360E-006  0.1304434E+03  0.7561462E-02  0.1226799E+00
         -3   -1    0    0    0  501 -0.00000000000E+00  0.00000000000E+00  0.49429014772E+02  0.49429014772E+02  0.00000000000E+00 0.  1.
          3   -1    0    0  501    0  0.00000000000E+00 -0.00000000000E+00 -0.34804657007E+03  0.34804657007E+03  0.00000000000E+00 0. -1.
         23    2    1    2    0    0  0.67682440870E+02  0.23766141560E+02 -0.14679179856E+03  0.20576827473E+03  0.12508800292E+03 0.  0.
          5    1    3    3  502    0  0.29403872348E+02 -0.51418268670E+02 -0.67671532310E+02  0.90029632607E+02  0.41800000000E+01 0. -1.
         -5    1    3    3    0  502  0.38278568522E+02  0.75184410230E+02 -0.79120266246E+02  0.11573864212E+03  0.41800000000E+01 0. -1.
        -11    1    1    2    0    0 -0.20696932928E+02 -0.56235367811E+02 -0.76272333883E+02  0.96996126426E+02  0.00000000000E+00 0. -1.
         11    1    1    2    0    0 -0.46985507941E+02  0.32469226252E+02 -0.75553422859E+02  0.94711183688E+02  0.00000000000E+00 0.  1.
</event>
<event>
 7    1  0.4394360E-006  0.1060812E+03  0.7561462E-02  0.1268004E+00
          1   -1    0    0  501    0  0.00000000000E+00  0.00000000000E+00  0.26162174671E+03  0.26162174671E+03  0.00000000000E+00 0. -1.
         -1   -1    0    0    0  501 -0.00000000000E+00 -0.00000000000E+00 -0.68428441614E+02  0.68428441614E+02  0.00000000000E+00 0.  1.
         23    2    1    2    0    0  0.32805715668E+02  0.55642118183E+02  0.46412816262E+02  0.14823426536E+03  0.12508791955E+03 0.  0.
          5    1    3    3  502    0 -0.29567652988E+02  0.59766572091E+02 -0.52691347628E+01  0.67018843797E+02  0.41800000000E+01 0.  1.
         -5    1    3    3    0  502  0.62373368655E+02 -0.41244539080E+01  0.51681951025E+02  0.81215421560E+02  0.41800000000E+01 0.  1.
        -11    1    1    2    0    0  0.12998278590E+02 -0.23130014548E+02  0.21007057294E+01  0.26615142004E+02  0.00000000000E+00 0.  1.
         11    1    1    2    0    0 -0.45803994257E+02 -0.32512103634E+02  0.14467978310E+03  0.15520078096E+03  0.00000000000E+00 0. -1.
</event>
<event>
 7    1  0.4394360E-006  0.1007286E+03  0.7561462E-02  0.1278771E+00
          1   -1    0    0  501    0  0.00000000000E+00  0.00000000000E+00  0.27226954070E+02  0.27226954070E+02  0.00000000000E+00 0. -1.
         -1   -1    0    0    0  501 -0.00000000000E+00 -0.00000000000E+00 -0.43974533325E+03  0.43974533325E+03  0.00000000000E+00 0.  1.
         23    2    1    2    0    0 -0.40938636399E+01  0.85812369459E+01 -0.26982764267E+03  0.29756173293E+03  0.12508249601E+03 0.  0.
          5    1    3    3  502    0  0.51099971493E+02  0.17327828474E+02 -0.20426707358E+03  0.21131486099E+03  0.41800000000E+01 0.  1.
         -5    1    3    3    0  502 -0.55193835133E+02 -0.87465915284E+01 -0.65560569085E+02  0.86246871936E+02  0.41800000000E+01 0.  1.
        -11    1    1    2    0    0  0.39375766337E+02 -0.30461468716E+02 -0.75997543939E+02  0.90851410202E+02  0.00000000000E+00 0.  1.
         11    1    1    2    0    0 -0.35281902697E+02  0.21880231770E+02 -0.66693192574E+02  0.78559144190E+02  0.00000000000E+00 0. -1.
</event>
<event>
 7    1  0.4394360E-006  0.1281565E+03  0.7561462E-02  0.1230217E+00
         -3   -1    0    0    0  501 -0.00000000000E+00  0.00000000000E+00  0.19165016523E+02  0.19165016523E+02  0.00000000000E+00 0.  1.
          3   -1    0    0  501    0  0.00000000000E+00 -0.00000000000E+00 -0.91618570498E+03  0.91618570498E+03  0.00000000000E+00 0. -1.
         23    2    1    2    0    0  0.78020930519E+02 -0.12376708927E+01 -0.50572066688E+03  0.52677153785E+03  0.12508422262E+03 0.  0.
          5    1    3    3  502    0  0.81544355191E+01 -0.56629220947E+02 -0.22526882749E+03  0.23245834148E+03  0.41800000000E+01 0.  1.
         -5    1    3    3    0  502  0.69866495000E+02  0.55391550055E+02 -0.28045183939E+03  0.29431319637E+03  0.41800000000E+01 0.  1.
        -11    1    1    2    0    0 -0.45552968692E+02 -0.37600887980E+02 -0.28208229922E+03  0.28820014446E+03  0.00000000000E+00 0. -1.
         11    1    1    2    0    0 -0.32467961827E+02  0.38838558873E+02 -0.10921772236E+03  0.12037903920E+03  0.00000000000E+00 0.  1.
</event>
<event>
 7    1  0.4394360E-006  0.1087535E+03  0.7561462E-02  0.1262896E+00
          2   -1    0    0  501    0  0.00000000000E+00  0.00000000000E+00  0.48625228063E+03  0.48625228063E+03  0.00000000000E+00 0. -1.
         -2   -1    0    0    0  501 -0.00000000000E+00 -0.00000000000E+00 -0.40439015203E+02  0.40439015203E+02  0.00000000000E+00 0.  1.
         23    2    1    2    0    0  0.40127071275E+02  0.34125280229E+02  0.92441087599E+02  0.15793589372E+03  0.11672050055E+03 0.  0.
          5    1    3    3  502    0  0.77355131515E+02  0.24106652157E+01  0.67982852313E+02  0.10309591790E+03  0.41800000000E+01 0. -1.
         -5    1    3    3    0  502 -0.37228060239E+02  0.31714615013E+02  0.24458235286E+02  0.54839975820E+02  0.41800000000E+01 0.  1.
        -11    1    1    2    0    0 -0.17395709862E+02  0.23345977217E+02  0.40745841236E+02  0.50078627696E+02  0.00000000000E+00 0.  1.
         11    1    1    2    0    0 -0.22731361414E+02 -0.57471257446E+02  0.31262633659E+03  0.31867677442E+03  0.00000000000E+00 0. -1.
</event>
<event>
 7    1  0.4394360E-006  0.1390831E+03  0.7561462E-02  0.1214568E+00
          1   -1    0    0  501    0  0.00000000000E+00  0.00000000000E+00  0.40523270931E+03  0.40523270931E+03  0.00000000000E+00 0. -1.
         -1   -1    0    0    0  501 -0.00000000000E+00 -0.00000000000E+00 -0.59706458227E+02  0.59706458227E+02  0.00000000000E+00 0.  1.
         23    2    1    2    0    0  0.50763460568E+02  0.83384395316E+02  0.10668694180E+03  0.19120369727E+03  0.12508742538E+03 0.  0.
          5    1    3    3  502    0  0.54229069248E+02  0.11423305834E+03  0.92985805574E+02  0.15701533686E+03  0.41800000000E+01 0. -1.
         -5    1    3    3    0  502 -0.34656086797E+01 -0.30848663027E+02  0.13701136225E+02  0.34188360416E+02  0.41800000000E+01 0. -1.
        -11    1    1    2    0    0  0.16331395016E+02 -0.48633409230E+01  0.95810699798E+02  0.97314216556E+02  0.00000000000E+00 0. -1.
         11    1    1    2    0    0 -0.67094855585E+02 -0.78521054393E+02  0.14302860949E+03  0.17642125371E+03  0.00000000000E+00 0.  1.
</event>
<event>
 7    1  0.4394360E-006  0.1148849E+03  0.7561462E-02  0.1251782E+00
         -1   -1    0    0    0  501 -0.00000000000E+00  0.00000000000E+00  0.74178716978E+02  0.74178716978E+02  0.00000000000E+00 0.  1.
          1   -1    0    0  501    0  0.00000000000E+00 -0.00000000000E+00 -0.29093194247E+03  0.29093194247E+03  0.00000000000E+00 0. -1.
         23    2    1    2    0    0  0.42876627130E+02 -0.44684939448E+02 -0.20296614931E+02  0.14104896795E+03  0.12509080627E+03 0.  0.
          5    1    3    3  502    0 -0.26497333337E+02 -0.49236224894E+02  0.21236954812E+02  0.59956610690E+02  0.41800000000E+01 0. -1.
         -5    1    3    3    0  502  0.69373960467E+02  0.45512854462E+01 -0.41533569743E+02  0.81092357258E+02  0.41800000000E+01 0. -1.
        -11    1    1    2    0    0 -0.58332110042E+02  0.16827700144E+01 -0.80505757830E+02  0.99431603732E+02  0.00000000000E+00 0. -1.
         11    1    1    2    0    0  0.15455482912E+02  0.43002169433E+02 -0.11595085273E+03  0.12463008776E+03  0.00000000000E+00 0.  1.
</event>
<event>
 7    1  0.4394360E-006  0.7330359E+02  0.7561462E-02  0.1349206E+00
         -1   -1    0    0    0  501 -0.00000000000E+00  0.00000000000E+00  0.34245887992E+02  0.34245887992E+02  0.00000000000E+00 0.  1.
          1   -1    0    0  501    0  0.00000000000E+00 -0.00000000000E+00 -0.45613798868E+03  0.45613798868E+03  0.00000000000E+00 0. -1.
         23    2    1    2    0    0  0.31031861493E+02  0.21519703161E+02 -0.14326169157E+03  0.19390032183E+03  0.12508936198E+03 0.  0.
          5    1    3    3  502    0  0.33505417189E+02  0.96616155754E+01 -0.16498367045E+03  0.16868030031E+03  0.41800000000E+01 0. -1.
         -5    1    3    3    0  502 -0.24735556966E+01  0.11858087586E+02  0.21721978881E+02  0.25220021520E+02  0.41800000000E+01 0. -1.
        -11    1    1    2    0    0 -0.16709518357E+02  0.35844309774E+02 -0.80018559888E+02  0.89258010696E+02  0.00000000000E+00 0. -1.
         11    1    1    2    0    0 -0.14322343136E+02 -0.57364012936E+02 -0.19861184923E+03  0.20722554415E+03  0.00000000000E+00 0.  1.
</event>
<event>
 7    1  0.4394360E-006  0.8299839E+02  0.7561462E-02  0.1320752E+00
          1   -1    0    0  501    0  0.00000000000E+00  0.00000000000E+00  0.79137978593E+02  0.79137978593E+02  0.00000000000E+00 0.  1.
         -1   -1    0    0    0  501 -0.00000000000E+00 -0.00000000000E+00 -0.20934301611E+03  0.20934301611E+03  0.00000000000E+00 0. -1.
         23    2    1    2    0    0 -0.21564955108E+02  0.88197684034E+01 -0.14665781547E+03  0.19416047248E+03  0.12508772374E+03 0.  0.
          5    1    3    3  502    0 -0.37404277647E+02  0.47623571127E+02 -0.13855510276E+03  0.15126821680E+03  0.41800000000E+01 0. -1.
         -5    1    3    3    0  502  0.15839322539E+02 -0.38803802723E+02 -0.81027127165E+01  0.42892255684E+02  0.41800000000E+01 0. -1.
        -11    1    1    2    0    0  0.41901127246E+02 -0.89189318734E+01 -0.23955948469E+02  0.49082983582E+02  0.00000000000E+00 0. -1.
         11    1    1    2    0    0 -0.20336172138E+02  0.99163469987E-01  0.40408726427E+02  0.45237538639E+02  0.00000000000E+00 0.  1.
</event>
<event>
 7    1  0.4394360E-006  0.9766248E+02  0.7561462E-02  0.1285290E+00
          1   -1    0    0  501    0  0.00000000000E+00  0.00000000000E+00  0.45559590613E+02  0.45559590613E+02  0.00000000000E+00 0. -1.
         -1   -1    0    0    0  501 -0.00000000000E+00 -0.00000000000E+00 -0.28154371866E+03  0.28154371866E+03  0.00000000000E+00 0.  1.
         23    2    1    2    0    0  0.28681884224E+02 -0.19226049836E+02 -0.15463949373E+03  0.20187376878E+03  0.12508938415E+03 0.  0.
          5    1    3    3  502    0  0.76076115699E+02 -0.24914566752E+02 -0.11200758712E+03  0.13773700660E+03  0.41800000000E+01 0. -1.
         -5    1    3    3    0  502 -0.47394231475E+02  0.56885169153E+01 -0.42631906610E+02  0.64136762180E+02  0.41800000000E+01 0. -1.
        -11    1    1    2    0    0  0.16079229270E+02  0.15495644986E+02 -0.76920008270E+02  0.80095844460E+02  0.00000000000E+00 0.  1.
         11    1    1    2    0    0 -0.44761113494E+02  0.37304048504E+01 -0.44246260498E+01  0.45133696029E+02  0.00000000000E+00 0. -1.
</event>
<event>
 7    1  0.4394360E-006  0.1250199E+03  0.7561462E-02  0.1235038E+00
          1   -1    0    0  501    0  0.00000000000E+00  0.00000000000E+00  0.14307142332E+03  0.14307142332E+03  0.00000000000E+00 0. -1.
         -1   -1    0    0    0  501 -0.00000000000E+00 -0.00000000000E+00 -0.24452134454E+03  0.24452134454E+03  0.00000000000E+00 0.  1.
         23    2    1    2    0    0  0.94712596958E+02  0.57748951732E+02 -0.16185072511E+03  0.23269842623E+03  0.12508989928E+03 0.  0.
          5    1    3    3  502    0  0.65857930854E+02  0.31584147363E+02 -0.17635273054E+03  0.19092559648E+03  0.41800000000E+01 0.  1.
         -5    1    3    3    0  502  0.28854666104E+02  0.26164804369E+02  0.14502005434E+02  0.41772829749E+02  0.41800000000E+01 0.  1.
        -11    1    1    2    0    0 -0.30728983254E+02 -0.66375077815E+02  0.52097384654E+02  0.89800104980E+02  0.00000000000E+00 0. -1.
         11    1    1    2    0    0 -0.63983613704E+02  0.86261260828E+01  0.83034192331E+01  0.65094236648E+02  0.00000000000E+00 0.  1.
</event>
<event>
 7    1  0.4394360E-006  0.1496509E+03  0.7561462E-02  0.1200903E+00
         -4   -1    0    0    0  501 -0.00000000000E+00  0.00000000000E+00  0.15849970844E+04  0.15849970844E+04  0.00000000000E+00 0.  1.
          4   -1    0    0  501    0  0.00000000000E+00 -0.00000000000E+00 -0.15435053216E+02  0.15435053216E+02  0.00000000000E+00 0. -1.
         23    2    1    2    0    0 -0.58085954212E+02  0.88338211480E+02  0.10421184417E+04  0.10549101618E+04  0.12508791063E+03 0.  0.
          5    1    3    3  502    0 -0.50909301078E+02  0.11957319060E+03  0.88509598850E+03  0.89459593455E+03  0.41800000000E+01 0.  1.
         -5    1    3    3    0  502 -0.71766531347E+01 -0.31234979125E+02  0.15702245316E+03  0.16031422728E+03  0.41800000000E+01 0.  1.
        -11    1    1    2    0    0  0.81365349858E+02 -0.67838506850E+02  0.44501314458E+03  0.45744844739E+03  0.00000000000E+00 0.  1.
         11    1    1    2    0    0 -0.23279395646E+02 -0.20499704630E+02  0.82430444912E+02  0.88073528372E+02  0.00000000000E+00 0. -1.
</event>
<event>
 7    1  0.4394360E-006  0.1067565E+03  0.7561462E-02  0.1266697E+00
         -2   -1    0    0    0  501 -0.00000000000E+00  0.00000000000E+00  0.38077311360E+02  0.38077311360E+02  0.00000000000E+00 0.  1.
          2   -1    0    0  501    0  0.00000000000E+00 -0.00000000000E+00 -0.41066569420E+03  0.41066569420E+03  0.00000000000E+00 0. -1.
         23    2    1    2    0    0 -0.34859087189E+02 -0.49531478181E+02 -0.18118579058E+03  0.22834951124E+03  0.12508671106E+03 0.  0.
          5    1    3    3  502    0  0.29562776251E+02 -0.44582687440E+02 -0.24840508030E+02  0.59127802244E+02  0.41800000000E+01 0.  1.
         -5    1    3    3    0  502 -0.64421863440E+02 -0.49487907411E+01 -0.15634528255E+03  0.16922170899E+03  0.41800000000E+01 0.  1.
        -11    1    1    2    0    0  0.56301220025E+02  0.22558907966E+02 -0.63013580408E+02  0.87461094326E+02  0.00000000000E+00 0.  1.
         11    1    1    2    0    0 -0.21442132836E+02  0.26972570214E+02 -0.12838901185E+03  0.13293240000E+03  0.00000000000E+00 0. -1.
</event>
<event>
 7    1  0.4394360E-006  0.1043233E+03  0.7561462E-02  0.1271459E+00
         -2   -1    0    0    0  501 -0.00000000000E+00  0.00000000000E+00  0.25682156955E+02  0.25682156955E+02  0.00000000000E+00 0.  1.
          2   -1    0    0  501    0  0.00000000000E+00 -0.00000000000E+00 -0.54529343779E+03  0.54529343779E+03  0.00000000000E+00 0. -1.
         23    2    1    2    0    0 -0.24136221923E+01 -0.39898297593E+02 -0.22796343298E+03  0.26308022577E+03  0.12508468607E+03 0.  0.
          5    1    3    3  502    0 -0.17938686210E+02  0.33043128407E+02 -0.15164827509E+03  0.15629560625E+03  0.41800000000E+01 0. -1.
         -5    1    3    3    0  502  0.15525064018E+02 -0.72941426000E+02 -0.76315157896E+02  0.10678461951E+03  0.41800000000E+01 0. -1.
        -11    1    1    2    0    0  0.38185502081E+02  0.46055000462E+02 -0.14576676174E+03  0.15756631767E+03  0.00000000000E+00 0.  1.
         11    1    1    2    0    0 -0.35771879888E+02 -0.61567028695E+01 -0.14588108611E+03  0.15032905130E+03  0.00000000000E+00 0. -1.
</event>
<event>
 7    1  0.4394360E-006  0.8447146E+02  0.7561462E-02  0.1316821E+00
         -1   -1    0    0    0  501 -0.00000000000E+00  0.00000000000E+00  0.50114419671E+02  0.50114419671E+02  0.00000000000E+00 0.  1.
          1   -1    0    0  501    0  0.00000000000E+00 -0.00000000000E+00 -0.31283500526E+03  0.31283500526E+03  0.00000000000E+00 0. -1.
         23    2    1    2    0    0 -0.12085599360E+02  0.40433160041E+02 -0.79530186921E+02  0.15412933525E+03  0.12509955719E+03 0.  0.
          5    1    3    3  502    0 -0.47212652052E+02  0.41395478925E+02  0.43604818434E+01  0.63080158458E+02  0.41800000000E+01 0.  1.
         -5    1    3    3    0  502  0.35127052692E+02 -0.96231888400E+00 -0.83890668765E+02  0.91049176790E+02  0.41800000000E+01 0.  1.
        -11    1    1    2    0    0  0.28221980815E+02 -0.45647912605E+02 -0.18417354112E+03  0.19183353559E+03  0.00000000000E+00 0. -1.
         11    1    1    2    0    0 -0.16136381455E+02  0.52147525646E+01  0.98314245934E+00  0.16986554091E+02  0.00000000000E+00 0.  1.
</event>
<event>
 6    1  0.4394360E-006  0.1041673E+03  0.7561462E-02  0.1271769E+00
         -2   -1    0    0    0  501 -0.00000000000E+00  0.00000000000E+00  0.37557027369E+02  0.37557027369E+02  0.00000000000E+00 0.  1.
          2   -1    0    0  501    0  0.00000000000E+00 -0.00000000000E+00 -0.76051747201E+03  0.76051747201E+03  0.00000000000E+00 0. -1.
          5    1    1    2  502    0  0.28906248257E+02 -0.41587281596E+02 -0.46725976737E+03  0.47001514421E+03  0.41800000000E+01 0. -1.
         -5    1    1    2    0  502 -0.79902935704E+02  0.38609240725E+02 -0.63804643949E+02  0.10937850608E+03  0.41800000000E+01 0.  1.
        -11    1    1    2    0    0  0.56213637833E+02 -0.77507287515E+01 -0.19750713618E+03  0.20549724017E+03  0.00000000000E+00 0.  1.
         11    1    1    2    0    0 -0.52169503863E+01  0.10728769622E+02  0.56111028590E+01  0.13183608923E+02  0.00000000000E+00 0. -1.
</event>
<event>
 7    1  0.4394360E-006  0.1092559E+03  0.7561462E-02  0.1261954E+00
          4   -1    0    0  501    0  0.00000000000E+00  0.00000000000E+00  0.10592433017E+03  0.10592433017E+03  0.00000000000E+00 0. -1.
         -4   -1    0    0    0  501 -0.00000000000E+00 -0.00000000000E+00 -0.12140637900E+03  0.12140637900E+03  0.00000000000E+00 0.  1.
         23    2    1    2    0    0 -0.23816975291E+02 -0.22639871972E+01  0.10546623555E+02  0.12779411331E+03  0.12509088768E+03 0.  0.
          5    1    3    3  502    0 -0.33630557259E+02 -0.57815594418E+02  0.21084638206E+02  0.70254478204E+02  0.41800000000E+01 0.  1.
         -5    1    3    3    0  502  0.98135819684E+01  0.55551607221E+02 -0.10538014650E+02  0.57539635110E+02  0.41800000000E+01 0.  1.
        -11    1    1    2    0    0  0.34253717184E+02 -0.39266712972E+02 -0.21877441308E+02  0.56513841904E+02  0.00000000000E+00 0.  1.
         11    1    1    2    0    0 -0.10436741893E+02  0.41530700170E+02 -0.41512310827E+01  0.43022753950E+02  0.00000000000E+00 0. -1.
</event>
<event>
 7    1  0.4394360E-006  0.1878958E+03  0.7561462E-02  0.1160373E+00
          1   -1    0    0  501    0  0.00000000000E+00  0.00000000000E+00  0.51095888228E+02  0.51095888228E+02  0.00000000000E+00 0. -1.
         -1   -1    0    0    0  501 -0.00000000000E+00 -0.00000000000E+00 -0.83595600256E+03  0.83595600256E+03  0.00000000000E+00 0.  1.
         23    2    1    2    0    0  0.13869942262E+02  0.16806882236E+03 -0.51158781709E+03  0.55300038296E+03  0.12509126511E+03 0.  0.
          5    1    3    3  502    0 -0.38456346789E+02  0.14015922008E+03 -0.30258021214E+03  0.33570188376E+03  0.41800000000E+01 0.  1.
         -5    1    3    3    0  502  0.52326289051E+02  0.27909602275E+02 -0.20900760495E+03  0.21729849919E+03  0.41800000000E+01 0.  1.
        -11    1    1    2    0    0  0.86249176040E+01 -0.41169181343E+02 -0.13686210089E+02  0.44233505883E+02  0.00000000000E+00 0.  1.
         11    1    1    2    0    0 -0.22494859866E+02 -0.12689964102E+03 -0.25958608715E+03  0.28981800195E+03  0.00000000000E+00 0. -1.
</event>
<event>
 7    1  0.4394360E-006  0.1805423E+03  0.7561462E-02  0.1167279E+00
          1   -1    0    0  501    0  0.00000000000E+00  0.00000000000E+00  0.77164247959E+02  0.77164247959E+02  0.00000000000E+00 0. -1.
         -1   -1    0    0    0  501 -0.00000000000E+00 -0.00000000000E+00 -0.54711066741E+03  0.54711066741E+03  0.00000000000E+00 0.  1.
         23    2    1    2    0    0  0.15360992564E+03 -0.76506393649E+02 -0.28282653453E+03  0.35367700681E+03  0.12508932406E+03 0.  0.
          5    1    3    3  502    0  0.13094769073E+03 -0.55369823187E+02 -0.11484912916E+03  0.18281386680E+03  0.41800000000E+01 0. -1.
         -5    1    3    3    0  502  0.22662234917E+02 -0.21136570462E+02 -0.16797740536E+03  0.17086314001E+03  0.41800000000E+01 0. -1.
        -11    1    1    2    0    0 -0.13432446332E+03  0.30568891928E+02 -0.16793837332E+03  0.21721145420E+03  0.00000000000E+00 0.  1.
         11    1    1    2    0    0 -0.19285462322E+02  0.45937501721E+02 -0.19181511599E+02  0.53386454355E+02  0.00000000000E+00 0. -1.
</event>
<event>
 7    1  0.4394360E-006  0.1308741E+03  0.7561462E-02  0.1226164E+00
          2   -1    0    0  501    0  0.00000000000E+00  0.00000000000E+00  0.80415088870E+03  0.80415088870E+03  0.00000000000E+00 0. -1.
         -2   -1    0    0    0  501 -0.00000000000E+00 -0.00000000000E+00 -0.35425230364E+02  0.35425230364E+02  0.00000000000E+00 0.  1.
         23    2    1    2    0    0  0.91613885932E+02 -0.73696650264E+02  0.28243925406E+03  0.33051968806E+03  0.12508809538E+03 0.  0.
          5    1    3    3  502    0 -0.14206358158E+02 -0.83091793653E+01 -0.46554819589E+01  0.17607072048E+02  0.41800000000E+01 0. -1.
         -5    1    3    3    0  502  0.10582024409E+03 -0.65387470899E+02  0.28709473602E+03  0.31291261601E+03  0.41800000000E+01 0. -1.
        -11    1    1    2    0    0 -0.87097133228E+02  0.59688782733E+02  0.48241892265E+03  0.49383871692E+03  0.00000000000E+00 0. -1.
         11    1    1    2    0    0 -0.45167527039E+01  0.14007867532E+02  0.38674816283E+01  0.15217714083E+02  0.00000000000E+00 0.  1.
</event>
<event>
 7    1  0.4394360E-006  0.9964401E+02  0.7561462E-02  0.1281046E+00
          1   -1    0    0  501    0  0.00000000000E+00  0.00000000000E+00  0.31496282905E+02  0.31496282905E+02  0.00000000000E+00 0. -1.
         -1   -1    0    0    0  501 -0.00000000000E+00 -0.00000000000E+00 -0.44723474998E+03  0.44723474998E+03  0.00000000000E+00 0.  1.
         23    2    1    2    0    0 -0.26459899455E+02 -0.39536420953E+02 -0.24812420343E+03  0.28191568955E+03  0.12509029070E+03 0.  0.
          5    1    3    3  502    0  0.42457942201E+02  0.10102956593E+02 -0.12343252724E+03  0.13098781534E+03  0.41800000000E+01 0. -1.
         -5    1    3    3    0  502 -0.68917841655E+02 -0.49639377546E+02 -0.12469167619E+03  0.15092787421E+03  0.41800000000E+01 0. -1.
        -11    1    1    2    0    0  0.39317959621E+02  0.13854574653E+02 -0.16234910170E+03  0.16761587637E+03  0.00000000000E+00 0.  1.
         11    1    1    2    0    0 -0.12858060166E+02  0.25681846300E+02 -0.52651619402E+01  0.29199466962E+02  0.00000000000E+00 0. -1.
</event>
<event>
 7    1  0.4394360E-006  0.1005926E+03  0.7561462E-02  0.1279055E+00
         -2   -1    0    0    0  501 -0.00000000000E+00  0.00000000000E+00  0.35486669561E+02  0.35486669561E+02  0.00000000000E+00 0. -1.
          2   -1    0    0  501    0  0.00000000000E+00 -0.00000000000E+00 -0.36212457368E+03  0.36212457368E+03  0.00000000000E+00 0.  1.
         23    2    1    2    0    0 -0.23970879938E+02  0.25695650931E+02 -0.18246101068E+03  0.22399785509E+03  0.12509256215E+03 0.  0.
          5    1    3    3  502    0 -0.17635414445E+02 -0.47839340890E+02 -0.45991328337E+02  0.68791606040E+02  0.41800000000E+01 0. -1.
         -5    1    3    3    0  502 -0.63354654936E+01  0.73534991820E+02 -0.13646968234E+03  0.15520624905E+03  0.41800000000E+01 0. -1.
        -11    1    1    2    0    0  0.31498597828E+02 -0.45258600806E+02 -0.14225048342E+03  0.15256376583E+03  0.00000000000E+00 0.  1.
         11    1    1    2    0    0 -0.75277178896E+01  0.19562949875E+02 -0.19264100261E+01  0.21049622325E+02  0.00000000000E+00 0. -1.
</event>
<event>
 7    1  0.4394360E-006  0.9392221E+02  0.7561462E-02  0.1293622E+00
          2   -1    0    0  501    0  0.00000000000E+00  0.00000000000E+00  0.25951613113E+03  0.25951613113E+03  0.00000000000E+00 0. -1.
         -2   -1    0    0    0  501 -0.00000000000E+00 -0.00000000000E+00 -0.78113663019E+02  0.78113663019E+02  0.00000000000E+00 0.  1.
         23    2    1    2    0    0  0.52498533980E+02  0.44622276477E+01  0.93140414641E+01  0.13614694140E+03  0.12519277431E+03 0.  0.
          5    1    3    3  502    0  0.55835821339E+01  0.31050907192E+02 -0.47839395037E+02  0.57457944136E+02  0.41800000000E+01 0. -1.
         -5    1    3    3    0  502  0.46914951846E+02 -0.26588679545E+02  0.57153436501E+02  0.78688997264E+02  0.41800000000E+01 0. -1.
        -11    1    1    2    0    0 -0.74053388930E+02  0.11725427512E+02  0.10363071950E+03  0.12790901487E+03  0.00000000000E+00 0.  1.
         11    1    1    2    0    0  0.21554854950E+02 -0.16187655160E+02  0.68457707152E+02  0.73573837878E+02  0.00000000000E+00 0. -1.
</event>
<event>
 7    1  0.4394360E-006  0.1890006E+03  0.7561462E-02  0.1159366E+00
         -2   -1    0    0    0  501 -0.00000000000E+00  0.00000000000E+00  0.33030244695E+02  0.33030244695E+02  0.00000000000E+00 0.  1.
          2   -1    0    0  501    0  0.00000000000E+00 -0.00000000000E+00 -0.12946911896E+04  0.12946911896E+04  0.00000000000E+00 0. -1.
         23    2    1    2    0    0  0.15244419151E+03 -0.51714094463E+02 -0.42296776978E+03  0.46953420865E+03  0.12508820779E+03 0.  0.
          5    1    3    3  502    0  0.67476247573E+02  0.36410785769E+02 -0.21342165200E+03  0.22681504194E+03  0.41800000000E+01 0.  1.
         -5    1    3    3    0  502  0.84967943935E+02 -0.88124880231E+02 -0.20954611777E+03  0.24271916671E+03  0.41800000000E+01 0.  1.
        -11    1    1    2    0    0 -0.11505932032E+03  0.17817545354E+00 -0.45952085125E+03  0.47370675705E+03  0.00000000000E+00 0.  1.
         11    1    1    2    0    0 -0.37384871192E+02  0.51535919009E+02 -0.37917232390E+03  0.38448046863E+03  0.00000000000E+00 0. -1.
</event>
<event>
 7    1  0.4394360E-006  0.1552093E+03  0.7561462E-02  0.1194214E+00
         -3   -1    0    0    0  501 -0.00000000000E+00  0.00000000000E+00  0.41269914536E+02  0.41269914536E+02  0.00000000000E+00 0.  1.
          3   -1    0    0  501    0  0.00000000000E+00 -0.00000000000E+00 -0.64388902081E+03  0.64388902081E+03  0.00000000000E+00 0. -1.
         23    2    1    2    0    0 -0.98890766463E+02 -0.69134557970E+02 -0.34128683195E+03  0.38299280835E+03  0.12509124186E+03 0.  0.
          5    1    3    3  502    0 -0.12133260821E+03 -0.82849134341E+02 -0.28221032541E+03  0.31819132773E+03  0.41800000000E+01 0. -1.
         -5    1    3    3    0  502  0.22441841744E+02  0.13714576371E+02 -0.59076506536E+02  0.64801480619E+02  0.41800000000E+01 0. -1.
        -11    1    1    2    0    0  0.77467839317E+02  0.81195877321E+02 -0.25201941216E+03  0.27587645918E+03  0.00000000000E+00 0. -1.
         11    1    1    2    0    0  0.21422927146E+02 -0.12061319351E+02 -0.93128621577E+01  0.26289667810E+02  0.00000000000E+00 0.  1.
</event>
<event>
 7    1  0.4394360E-006  0.9404441E+02  0.7561462E-02  0.1293343E+00
         -2   -1    0    0    0  501 -0.00000000000E+00  0.00000000000E+00  0.69728715109E+03  0.69728715109E+03  0.00000000000E+00 0.  1.
          2   -1    0    0  501    0  0.00000000000E+00 -0.00000000000E+00 -0.23638211112E+02  0.23638211112E+02  0.00000000000E+00 0. -1.
         23    2    1    2    0    0  0.16116477034E+02 -0.50404271075E+02  0.62413908260E+03  0.63699911417E+03  0.11583585649E+03 0.  0.
          5    1    3    3  502    0  0.63443980478E+02 -0.94816832311E+01  0.33987424780E+03  0.34590030022E+03  0.41800000000E+01 0. -1.
         -5    1    3    3    0  502 -0.47327503443E+02 -0.40922587844E+02  0.28426483480E+03  0.29109881395E+03  0.41800000000E+01 0.  1.
        -11    1    1    2    0    0  0.89990873022E+01  0.93969485658E+01  0.28734543625E+02  0.31542989902E+02  0.00000000000E+00 0.  1.
         11    1    1    2    0    0 -0.25115564337E+02  0.41007322509E+02  0.20775313762E+02  0.52383258139E+02  0.00000000000E+00 0. -1.
</event>
<event>
 7    1  0.4394360E-006  0.1096990E+03  0.7561462E-02  0.1261128E+00
          1   -1    0    0  501    0  0.00000000000E+00  0.00000000000E+00  0.59184135942E+02  0.59184135942E+02  0.00000000000E+00 0. -1.
         -1   -1    0    0    0  501 -0.00000000000E+00 -0.00000000000E+00 -0.23394423086E+03  0.23394423086E+03  0.00000000000E+00 0.  1.
         23    2    1    2    0    0 -0.47039275369E+01  0.43143470620E+02 -0.12311579459E+03  0.18079761987E+03  0.12508714755E+03 0.  0.
          5    1    3    3  502    0 -0.62698705633E+02  0.30418552796E+02 -0.85519239642E+02  0.11039668832E+03  0.41800000000E+01 0.  1.
         -5    1    3    3    0  502  0.57994778096E+02  0.12724917825E+02 -0.37596554951E+02  0.70400931558E+02  0.41800000000E+01 0.  1.
        -11    1    1    2    0    0  0.71911728643E+00 -0.66432321166E+02 -0.14014625870E+02  0.67898307516E+02  0.00000000000E+00 0.  1.
         11    1    1    2    0    0  0.39848102504E+01  0.23288850546E+02 -0.37629674455E+02  0.44432439412E+02  0.00000000000E+00 0. -1.
</event>
<event>
 7    1  0.4394360E-006  0.1013309E+03  0.7561462E-02  0.1277522E+00
         -3   -1    0    0    0  501 -0.00000000000E+00  0.00000000000E+00  0.12550628401E+03  0.12550628401E+03  0.00000000000E+00 0.  1.
          3   -1    0    0  501    0  0.00000000000E+00 -0.00000000000E+00 -0.12259735126E+03  0.12259735126E+03  0.00000000000E+00 0. -1.
         23    2    1    2    0    0  0.42420618448E+02 -0.23789513524E+02  0.37216449764E+02  0.13927905063E+03  0.12509252571E+03 0.  0.
          5    1    3    3  502    0  0.76152495808E+02  0.15961233294E+02  0.38606571018E+02  0.86959204871E+02  0.41800000000E+01 0. -1.
         -5    1    3    3    0  502 -0.33731877360E+02 -0.39750746819E+02 -0.13901212541E+01  0.52319845757E+02  0.41800000000E+01 0. -1.
        -11    1    1    2    0    0 -0.14399838218E+02 -0.17423907806E+02  0.23427868291E+02  0.32554767954E+02  0.00000000000E+00 0.  1.
         11    1    1    2    0    0 -0.28020780230E+02  0.41213421330E+02 -0.57735385298E+02  0.76269816690E+02  0.00000000000E+00 0. -1.
</event>
<event>
 7    1  0.4394360E-006  0.1228230E+03  0.7561462E-02  0.1238511E+00
          4   -1    0    0  501    0  0.00000000000E+00  0.00000000000E+00  0.69750954611E+02  0.69750954611E+02  0.00000000000E+00 0. -1.
         -4   -1    0    0    0  501 -0.00000000000E+00 -0.00000000000E+00 -0.32954926778E+03  0.32954926778E+03  0.00000000000E+00 0.  1.
         23    2    1    2    0    0 -0.55012067468E+02 -0.60321450268E+02 -0.22302286824E+03  0.26842638191E+03  0.12509403590E+03 0.  0.
          5    1    3    3  502    0 -0.54387307649E+02 -0.94207247829E+02 -0.13133178813E+03  0.17058281200E+03  0.41800000000E+01 0. -1.
         -5    1    3    3    0  502 -0.62475981956E+00  0.33885797561E+02 -0.91691080111E+02  0.97843569912E+02  0.41800000000E+01 0. -1.
        -11    1    1    2    0    0 -0.58267538553E+00  0.44954731533E+02 -0.54388981407E+02  0.70565067110E+02  0.00000000000E+00 0.  1.
         11    1    1    2    0    0  0.55594742854E+02  0.15366718735E+02  0.17613536481E+02  0.60308773367E+02  0.00000000000E+00 0. -1.
</event>
<event>
 7    1  0.4394360E-006  0.1084827E+03  0.7561462E-02  0.1263406E+00
         -1   -1    0    0    0  501 -0.00000000000E+00  0.00000000000E+00  0.60988684347E+03  0.60988684347E+03  0.00000000000E+00 0.  1.
          1   -1    0    0  501    0  0.00000000000E+00 -0.00000000000E+00 -0.30334975779E+02  0.30334975779E+02  0.00000000000E+00 0. -1.
         23    2    1    2    0    0  0.77436465568E+02 -0.72149469601E+01  0.38934351113E+03  0.41627511793E+03  0.12509253570E+03 0.  0.
          5    1    3    3  502    0  0.66574609629E+00  0.44906468184E+02  0.20438383482E+03  0.20930183572E+03  0.41800000000E+01 0.  1.
         -5    1    3    3    0  502  0.76770719472E+02 -0.52121415145E+02  0.18495967632E+03  0.20697328221E+03  0.41800000000E+01 0.  1.
        -11    1    1    2    0    0 -0.40624293932E+02  0.10662889672E+02  0.18104753685E+03  0.18585543057E+03  0.00000000000E+00 0.  1.
         11    1    1    2    0    0 -0.36812171636E+02 -0.34479427117E+01  0.91608197117E+01  0.38091270749E+02  0.00000000000E+00 0. -1.
</event>
<event>
 6    1  0.4394360E-006  0.1378837E+03  0.7561462E-02  0.1216205E+00
         -1   -1    0    0    0  501 -0.00000000000E+00  0.00000000000E+00  0.47172736184E+02  0.47172736184E+02  0.00000000000E+00 0.  1.
          1   -1    0    0  501    0  0.00000000000E+00 -0.00000000000E+00 -0.93480162209E+03  0.93480162209E+03  0.00000000000E+00 0. -1.
          5    1    1    2  502    0 -0.36614113788E+02  0.72811243183E+02 -0.42043265989E+03  0.42827930649E+03  0.41800000000E+01 0. -1.
         -5    1    1    2    0  502  0.73370263691E+02 -0.17667541107E+01 -0.28123291364E+01  0.73564248173E+02  0.41800000000E+01 0.  1.
        -11    1    1    2    0    0 -0.40776839055E+02  0.79580960282E+01 -0.19476799770E+03  0.19914983008E+03  0.00000000000E+00 0.  1.
         11    1    1    2    0    0  0.40206891517E+01 -0.79002585101E+02 -0.26961589918E+03  0.28098097353E+03  0.00000000000E+00 0. -1.
</event>
<event>
 7    1  0.4394360E-006  0.8385658E+02  0.7561462E-02  0.1318450E+00
          2   -1    0    0  501    0  0.00000000000E+00  0.00000000000E+00  0.49786268341E+03  0.49786268341E+03  0.00000000000E+00 0. -1.
         -2   -1    0    0    0  501 -0.00000000000E+00 -0.00000000000E+00 -0.33461911518E+02  0.33461911518E+02  0.00000000000E+00 0.  1.
         23    2    1    2    0    0  0.29248979942E+02  0.10706780555E+02  0.12926695009E+03  0.18255871186E+03  0.12509037098E+03 0.  0.
          5    1    3    3  502    0  0.62157002471E+01  0.36082660282E+02 -0.10718242747E+02  0.38378984225E+02  0.41800000000E+01 0. -1.
         -5    1    3    3    0  502  0.23033279695E+02 -0.25375879727E+02  0.13998519284E+03  0.14417972763E+03  0.41800000000E+01 0. -1.
        -11    1    1    2    0    0 -0.36974442611E+02 -0.46676550916E+02  0.21837145297E+03  0.22634465155E+03  0.00000000000E+00 0.  1.
         11    1    1    2    0    0  0.77254626688E+01  0.35969770361E+02  0.11676236883E+03  0.12242123152E+03  0.00000000000E+00 0. -1.
</event>
<event>
 7    1  0.4394360E-006  0.1091365E+03  0.7561462E-02  0.1262177E+00
         -2   -1    0    0    0  501 -0.00000000000E+00  0.00000000000E+00  0.21511548886E+03  0.21511548886E+03  0.00000000000E+00 0.  1.
          2   -1    0    0  501    0  0.00000000000E+00 -0.00000000000E+00 -0.18589640718E+03  0.18589640718E+03  0.00000000000E+00 0. -1.
         23    2    1    2    0    0  0.67966959485E+02  0.41575195534E+02  0.16279545223E+03  0.22021715318E+03  0.12508089711E+03 0.  0.
          5    1    3    3  502    0  0.77787191281E+02  0.36918624731E+02  0.36877102008E+02  0.93761532794E+02  0.41800000000E+01 0. -1.
         -5    1    3    3    0  502 -0.98202317959E+01  0.46565708032E+01  0.12591835022E+03  0.12645562039E+03  0.41800000000E+01 0. -1.
        -11    1    1    2    0    0 -0.12038724505E+02  0.28398719337E+02 -0.22939107349E+02  0.38439833424E+02  0.00000000000E+00 0.  1.
         11    1    1    2    0    0 -0.55928234981E+02 -0.69973914871E+02 -0.11063726321E+03  0.14235490943E+03  0.00000000000E+00 0. -1.
</event>
<event>
 6    1  0.4394360E-006  0.1036208E+03  0.7561462E-02  0.1272861E+00
         -2   -1    0    0    0  501 -0.00000000000E+00  0.00000000000E+00  0.83942502926E+02  0.83942502926E+02  0.00000000000E+00 0.  1.
          2   -1    0    0  501    0  0.00000000000E+00 -0.00000000000E+00 -0.19316443222E+03  0.19316443222E+03  0.00000000000E+00 0. -1.
          5    1    1    2  502    0 -0.16056377854E+02  0.55629480365E+02 -0.51395221960E+02  0.77533138695E+02  0.41800000000E+01 0. -1.
         -5    1    1    2    0  502  0.46316600803E+02 -0.35496664000E+02  0.32437629619E+02  0.66894789636E+02  0.41800000000E+01 0.  1.
        -11    1    1    2    0    0 -0.50010902681E+02 -0.38963676148E+02 -0.38527725349E+02  0.74186549094E+02  0.00000000000E+00 0.  1.
         11    1    1    2    0    0  0.19750679732E+02  0.18830859782E+02 -0.51736611608E+02  0.58492457725E+02  0.00000000000E+00 0. -1.
</event>
<event>
 7    1  0.4394360E-006  0.9289919E+02  0.7561462E-02  0.1295979E+00
         -2   -1    0    0    0  501 -0.00000000000E+00  0.00000000000E+00  0.78598612592E+03  0.78598612592E+03  0.00000000000E+00 0.  1.
          2   -1    0    0  501    0  0.00000000000E+00 -0.00000000000E+00 -0.29273506440E+02  0.29273506440E+02  0.00000000000E+00 0. -1.
         23    2    1    2    0    0  0.68674063042E+02  0.25410532865E+02  0.62769928092E+03  0.64421712821E+03  0.12508996322E+03 0.  0.
          5    1    3    3  502    0 -0.77680802412E+01 -0.99106131990E+01  0.26786326095E+01  0.13535538307E+02  0.41800000000E+01 0.  1.
         -5    1    3    3    0  502  0.76442143283E+02  0.35321146064E+02  0.62502064831E+03  0.63068158990E+03  0.41800000000E+01 0.  1.
        -11    1    1    2    0    0 -0.45077135014E+02 -0.40176352853E+02  0.12984024994E+03  0.14319419658E+03  0.00000000000E+00 0.  1.
         11    1    1    2    0    0 -0.23596928028E+02  0.14765819987E+02 -0.82691137706E+00  0.27848307573E+02  0.00000000000E+00 0. -1.
</event>
<event>
 7    1  0.4394360E-006  0.1068749E+03  0.7561462E-02  0.1266469E+00
          1   -1    0    0  501    0  0.00000000000E+00  0.00000000000E+00  0.94797988659E+03  0.94797988659E+03  0.00000000000E+00 0. -1.
         -1   -1    0    0    0  501 -0.00000000000E+00 -0.00000000000E+00 -0.20656389211E+02  0.20656389211E+02  0.00000000000E+00 0.  1.
         23    2    1    2    0    0  0.76421970650E+02  0.33166528955E+02  0.40275086463E+03  0.42987056261E+03  0.12506040700E+03 0.  0.
          5    1    3    3  502    0  0.31587046154E+02  0.32999520323E+02  0.30911505363E+02  0.55314585690E+02  0.41800000000E+01 0. -1.
         -5    1    3    3    0  502  0.44834924496E+02  0.16700863257E+00  0.37183935927E+03  0.37455597692E+03  0.41800000000E+01 0. -1.
        -11    1    1    2    0    0 -0.56017758385E+02  0.24899328068E+02  0.26072809572E+03  0.26783783469E+03  0.00000000000E+00 0.  1.
         11    1    1    2    0    0 -0.20404212265E+02 -0.58065857024E+02  0.26384453702E+03  0.27092787850E+03  0.00000000000E+00 0. -1.
</event>
<event>
 7    1  0.8852522E-006  0.1390238E+03  0.7561462E-02  0.1214649E+00
          1   -1    0    0  501    0  0.00000000000E+00  0.00000000000E+00  0.30083796577E+03  0.30083796577E+03  0.00000000000E+00 0. -1.
         -1   -1    0    0    0  501 -0.00000000000E+00 -0.00000000000E+00 -0.81296785110E+02  0.81296785110E+02  0.00000000000E+00 0.  1.
         23    2    1    2    0    0  0.99415245719E+02  0.14761251997E+02  0.57309445048E+02  0.17039188925E+03  0.12509091809E+03 0.  0.
          5    1    3    3  502    0 -0.24384502639E+02  0.24910828653E+01  0.36534904687E+02  0.44193677412E+02  0.41800000000E+01 0.  1.
         -5    1    3    3    0  502  0.12379974836E+03  0.12270169132E+02  0.20774540362E+02  0.12619821184E+03  0.41800000000E+01 0.  1.
        -11    1    1    2    0    0 -0.27332743703E+02  0.32534642320E+02  0.23921848526E+02  0.48763066619E+02  0.00000000000E+00 0.  1.
         11    1    1    2    0    0 -0.72082502016E+02 -0.47295894317E+02  0.13830988709E+03  0.16297979501E+03  0.00000000000E+00 0. -1.
</event>
<event>
 7    1  0.4394360E-006  0.1287861E+03  0.7561462E-02  0.1229268E+00
         -2   -1    0    0    0  501 -0.00000000000E+00  0.00000000000E+00  0.41362557962E+02  0.41362557962E+02  0.00000000000E+00 0.  1.
          2   -1    0    0  501    0  0.00000000000E+00 -0.00000000000E+00 -0.55201406879E+03  0.55201406879E+03  0.00000000000E+00 0. -1.
         23    2    1    2    0    0  0.10226498854E+03 -0.61359231988E+01 -0.22074500152E+03  0.27362708591E+03  0.12509056324E+03 0.  0.
          5    1    3    3  502    0  0.88142139626E+02  0.25107500263E+02 -0.22078329601E+03  0.23908609233E+03  0.41800000000E+01 0. -1.
         -5    1    3    3    0  502  0.14122848918E+02 -0.31243423462E+02  0.38294488474E-01  0.34540993583E+02  0.41800000000E+01 0. -1.
        -11    1    1    2    0    0 -0.33275772790E+02 -0.37125988856E+02 -0.14758414204E+03  0.15577771049E+03  0.00000000000E+00 0. -1.
         11    1    1    2    0    0 -0.68989215755E+02  0.43261912055E+02 -0.14232236726E+03  0.16397183035E+03  0.00000000000E+00 0.  1.
</event>
<event>
 7    1  0.4394360E-006  0.2280443E+03  0.7561462E-02  0.1128024E+00
         -2   -1    0    0    0  501 -0.00000000000E+00  0.00000000000E+00  0.98503146954E+02  0.98503146954E+02  0.00000000000E+00 0.  1.
          2   -1    0    0  501    0  0.00000000000E+00 -0.00000000000E+00 -0.81736971864E+03  0.81736971864E+03  0.00000000000E+00 0. -1.
         23    2    1    2    0    0 -0.87851565670E+02  0.18652218488E+03 -0.10713893470E+03  0.26388999248E+03  0.12510297263E+03 0.  0.
          5    1    3    3  502    0  0.11272460968E+02 -0.13295851542E+02 -0.10420275333E+02  0.20734092276E+02  0.41800000000E+01 0.  1.
         -5    1    3    3    0  502 -0.99124026638E+02  0.19981803642E+03 -0.96718659369E+02  0.24315590021E+03  0.41800000000E+01 0.  1.
        -11    1    1    2    0    0  0.91697050346E+02 -0.13378655446E+03 -0.36133756955E+03  0.39607073909E+03  0.00000000000E+00 0.  1.
         11    1    1    2    0    0 -0.38454846751E+01 -0.52735630423E+02 -0.25039006743E+03  0.25591213402E+03  0.00000000000E+00 0. -1.
</event>
<event>
 7    1  0.4394360E-006  0.1082569E+03  0.7561462E-02  0.1263832E+00
          1   -1    0    0  501    0  0.00000000000E+00  0.00000000000E+00  0.47790224786E+03  0.47790224786E+03  0.00000000000E+00 0. -1.
         -1   -1    0    0    0  501 -0.00000000000E+00 -0.00000000000E+00 -0.38468727709E+02  0.38468727709E+02  0.00000000000E+00 0.  1.
         23    2    1    2    0    0 -0.20886811366E+02 -0.76831817885E+02  0.28367481387E+03  0.32009224799E+03  0.12509300569E+03 0.  0.
          5    1    3    3  502    0 -0.45666584039E+02 -0.80068338466E+02  0.10563712599E+03  0.14026065204E+03  0.41800000000E+01 0.  1.
         -5    1    3    3    0  502  0.24779772672E+02  0.32365205815E+01  0.17803768787E+03  0.17983159595E+03  0.41800000000E+01 0.  1.
        -11    1    1    2    0    0 -0.20137584153E+02  0.34566382991E+02  0.12199460228E+03  0.12838629255E+03  0.00000000000E+00 0. -1.
         11    1    1    2    0    0  0.41024395520E+02  0.42265434894E+02  0.33764103994E+02  0.67892435020E+02  0.00000000000E+00 0.  1.
</event>
<event>
 7    1  0.4394360E-006  0.1683930E+03  0.7561462E-02  0.1179534E+00
         -1   -1    0    0    0  501 -0.00000000000E+00  0.00000000000E+00  0.12991833586E+03  0.12991833586E+03  0.00000000000E+00 0.  1.
          1   -1    0    0  501    0  0.00000000000E+00 -0.00000000000E+00 -0.29848586028E+03  0.29848586028E+03  0.00000000000E+00 0. -1.
         23    2    1    2    0    0 -0.15360525538E+03 -0.55174765585E+02 -0.10108270120E+03  0.22913828696E+03  0.12509121803E+03 0.  0.
          5    1    3    3  502    0 -0.46851526904E+02  0.44743409744E+00  0.26245931457E+02  0.53866381803E+02  0.41800000000E+01 0. -1.
         -5    1    3    3    0  502 -0.10675372848E+03 -0.55622199682E+02 -0.12732863266E+03  0.17527190516E+03  0.41800000000E+01 0. -1.
        -11    1    1    2    0    0  0.11766537831E+03  0.20652323247E+02 -0.84808253801E+02  0.14650631256E+03  0.00000000000E+00 0. -1.
         11    1    1    2    0    0  0.35939877070E+02  0.34522442338E+02  0.17323430585E+02  0.52759596625E+02  0.00000000000E+00 0.  1.
</event>
<event>
 7    1  0.4394360E-006  0.1234221E+03  0.7561462E-02  0.1237556E+00
          2   -1    0    0  501    0  0.00000000000E+00  0.00000000000E+00  0.18607306952E+03  0.18607306952E+03  0.00000000000E+00 0. -1.
         -2   -1    0    0    0  501 -0.00000000000E+00 -0.00000000000E+00 -0.91462682741E+02  0.91462682741E+02  0.00000000000E+00 0.  1.
         23    2    1    2    0    0  0.64399154116E+02  0.38317009813E+02  0.53217100820E+02  0.15522809012E+03  0.12509298881E+03 0.  0.
          5    1    3    3  502    0  0.92684846228E+02  0.45205244441E+02  0.66690054411E+02  0.12287811279E+03  0.41800000000E+01 0. -1.
         -5    1    3    3    0  502 -0.28285692112E+02 -0.68882346282E+01 -0.13472953591E+02  0.32349977327E+02  0.41800000000E+01 0. -1.
        -11    1    1    2    0    0 -0.53193145984E+02  0.18497971542E+02  0.12938503365E+02  0.57784864801E+02  0.00000000000E+00 0. -1.
         11    1    1    2    0    0 -0.11206008132E+02 -0.56814981355E+02  0.28454782593E+02  0.64522797343E+02  0.00000000000E+00 0.  1.
</event>
<event>
 7    1  0.4394360E-006  0.1225306E+03  0.7561462E-02  0.1238980E+00
          2   -1    0    0  501    0  0.00000000000E+00  0.00000000000E+00  0.49779653415E+03  0.49779653415E+03  0.00000000000E+00 0.  1.
         -2   -1    0    0    0  501 -0.00000000000E+00 -0.00000000000E+00 -0.49731897276E+02  0.49731897276E+02  0.00000000000E+00 0. -1.
         23    2    1    2    0    0 -0.34790187208E+02  0.10684544511E+03  0.27105837207E+03  0.31897771997E+03  0.12509132065E+03 0.  0.
          5    1    3    3  502    0 -0.17479327517E+02  0.78125196541E+02  0.48133550967E+02  0.93506065866E+02  0.41800000000E+01 0.  1.
         -5    1    3    3    0  502 -0.17310859691E+02  0.28720248567E+02  0.22292482111E+03  0.22547165411E+03  0.41800000000E+01 0.  1.
        -11    1    1    2    0    0 -0.18662962201E+02 -0.48530722991E+02  0.26126088872E+02  0.58190289154E+02  0.00000000000E+00 0. -1.
         11    1    1    2    0    0  0.53453149409E+02 -0.58314722117E+02  0.15088017593E+03  0.17036042230E+03  0.00000000000E+00 0.  1.
</event>
<event>
 7    1  0.4394360E-006  0.2070854E+03  0.7561462E-02  0.1143895E+00
          1   -1    0    0  501    0  0.00000000000E+00  0.00000000000E+00  0.11502125201E+04  0.11502125201E+04  0.00000000000E+00 0.  1.
         -1   -1    0    0    0  501 -0.00000000000E+00 -0.00000000000E+00 -0.41378903293E+02  0.41378903293E+02  0.00000000000E+00 0. -1.
         23    2    1    2    0    0  0.17001199247E+03  0.55414489838E+02  0.41649782772E+03  0.47020608173E+03  0.12509386689E+03 0.  0.
          5    1    3    3  502    0 -0.10671740480E+02 -0.13872084755E+02  0.11563919000E+02  0.21389656447E+02  0.41800000000E+01 0. -1.
         -5    1    3    3    0  502  0.18068373295E+03  0.69286574592E+02  0.40493390872E+03  0.44881642529E+03  0.41800000000E+01 0. -1.
        -11    1    1    2    0    0 -0.17618915269E+03 -0.32852144669E+02  0.61653177427E+03  0.64205397719E+03  0.00000000000E+00 0.  1.
         11    1    1    2    0    0  0.61771602139E+01 -0.22562345168E+02  0.75804014846E+02  0.79331364507E+02  0.00000000000E+00 0. -1.
</event>
<event>
 7    1  0.4394360E-006  0.1012611E+03  0.7561462E-02  0.1277666E+00
          3   -1    0    0  501    0  0.00000000000E+00  0.00000000000E+00  0.46745141255E+02  0.46745141255E+02  0.00000000000E+00 0. -1.
         -3   -1    0    0    0  501 -0.00000000000E+00 -0.00000000000E+00 -0.30384768307E+03  0.30384768307E+03  0.00000000000E+00 0.  1.
         23    2    1    2    0    0 -0.18288476663E+02  0.36032186913E+02 -0.18886223897E+03  0.23010748511E+03  0.12509085707E+03 0.  0.
          5    1    3    3  502    0 -0.22809354640E+02  0.73700798428E+02 -0.17165044921E+03  0.18823767811E+03  0.41800000000E+01 0.  1.
         -5    1    3    3    0  502  0.45208779767E+01 -0.37668611515E+02 -0.17211789760E+02  0.41869806996E+02  0.41800000000E+01 0.  1.
        -11    1    1    2    0    0  0.41787707305E+02  0.26048720686E+01 -0.62031266794E+02  0.74838999862E+02  0.00000000000E+00 0. -1.
         11    1    1    2    0    0 -0.23499230642E+02 -0.38637058982E+02 -0.62090360517E+01  0.45646339352E+02  0.00000000000E+00 0.  1.
</event>
<event>
 7    1  0.4394360E-006  0.7567585E+02  0.7561462E-02  0.1341791E+00
          2   -1    0    0  501    0  0.00000000000E+00  0.00000000000E+00  0.38401553509E+03  0.38401553509E+03  0.00000000000E+00 0. -1.
         -2   -1    0    0    0  501 -0.00000000000E+00 -0.00000000000E+00 -0.53464712047E+02  0.53464712047E+02  0.00000000000E+00 0.  1.
         23    2    1    2    0    0 -0.37950070906E+02 -0.52602294562E+02  0.80503488822E+02  0.16228434911E+03  0.12509272153E+03 0.  0.
          5    1    3    3  502    0 -0.20169282856E+02 -0.40911723861E+02  0.11372976788E+03  0.12260710265E+03  0.41800000000E+01 0. -1.
         -5    1    3    3    0  502 -0.17780788049E+02 -0.11690570701E+02 -0.33226279053E+02  0.39677246461E+02  0.41800000000E+01 0. -1.
        -11    1    1    2    0    0 -0.50214359567E+01  0.38217099195E+02  0.21357708534E+03  0.21702749336E+03  0.00000000000E+00 0. -1.
         11    1    1    2    0    0  0.42971506862E+02  0.14385195367E+02  0.36470248874E+02  0.58168404660E+02  0.00000000000E+00 0.  1.
</event>
<event>
 7    1  0.4394360E-006  0.3174337E+03  0.7561462E-02  0.1076836E+00
         -2   -1    0    0    0  501 -0.00000000000E+00  0.00000000000E+00  0.16705669483E+03  0.16705669483E+03  0.00000000000E+00 0.  1.
          2   -1    0    0  501    0  0.00000000000E+00 -0.00000000000E+00 -0.71235932664E+03  0.71235932664E+03  0.00000000000E+00 0. -1.
         23    2    1    2    0    0  0.71307298440E+02  0.29008327647E+03 -0.10719948540E+03  0.34113408516E+03  0.12509075221E+03 0.  0.
          5    1    3    3  502    0  0.12313424824E+02 -0.10720888093E+02 -0.96730884061E+01  0.19431904480E+02  0.41800000000E+01 0.  1.
         -5    1    3    3    0  502  0.58993873616E+02  0.30080416457E+03 -0.97526396998E+02  0.32170218068E+03  0.41800000000E+01 0.  1.
        -11    1    1    2    0    0 -0.84625910408E+02 -0.16287786693E+03 -0.23374679359E+03  0.29720078695E+03  0.00000000000E+00 0.  1.
         11    1    1    2    0    0  0.13318611968E+02 -0.12720540954E+03 -0.20435635281E+03  0.24108114936E+03  0.00000000000E+00 0. -1.
</event>
<event>
 7    1  0.4394360E-006  0.1066657E+03  0.7561462E-02  0.1266872E+00
          2   -1    0    0  501    0  0.00000000000E+00  0.00000000000E+00  0.14649335549E+03  0.14649335549E+03  0.00000000000E+00 0. -1.
         -2   -1    0    0    0  501 -0.00000000000E+00 -0.00000000000E+00 -0.16730986339E+03  0.16730986339E+03  0.00000000000E+00 0.  1.
         23    2    1    2    0    0  0.67074383982E+02 -0.72840789903E+02 -0.32208581442E+02  0.16275706383E+03  0.12509082880E+03 0.  0.
          5    1    3    3  502    0  0.73346750411E+02 -0.69107965593E+02  0.25826204642E+02  0.10411590633E+03  0.41800000000E+01 0. -1.
         -5    1    3    3    0  502 -0.62723664288E+01 -0.37328243098E+01 -0.58034786084E+02  0.58641157507E+02  0.41800000000E+01 0. -1.
        -11    1    1    2    0    0 -0.63750074047E+02  0.50113333479E+02  0.57586268478E+02  0.99456505321E+02  0.00000000000E+00 0. -1.
         11    1    1    2    0    0 -0.33243099350E+01  0.22727456424E+02 -0.46194194935E+02  0.51589649715E+02  0.00000000000E+00 0.  1.
</event>
<event>
 7    1  0.4394360E-006  0.1051226E+03  0.7561462E-02  0.1269878E+00
          2   -1    0    0  501    0  0.00000000000E+00  0.00000000000E+00  0.53819394405E+02  0.53819394405E+02  0.00000000000E+00 0. -1.
         -2   -1    0    0    0  501 -0.00000000000E+00 -0.00000000000E+00 -0.24242486923E+03  0.24242486923E+03  0.00000000000E+00 0.  1.
         23    2    1    2    0    0  0.29414178167E+02 -0.15903680576E+01 -0.13167346986E+03  0.18398731447E+03  0.12508279687E+03 0.  0.
          5    1    3    3  502    0 -0.47742496892E+01 -0.52853867283E+02 -0.10289896996E+03  0.11585333472E+03  0.41800000000E+01 0. -1.
         -5    1    3    3    0  502  0.34188427856E+02  0.51263499225E+02 -0.28774499900E+02  0.68133979750E+02  0.41800000000E+01 0. -1.
        -11    1    1    2    0    0  0.49562070484E+01  0.41949289516E+02 -0.35120508884E+02  0.54934115297E+02  0.00000000000E+00 0.  1.
         11    1    1    2    0    0 -0.34370385215E+02 -0.40358921458E+02 -0.21811496077E+02  0.57322833865E+02  0.00000000000E+00 0. -1.
</event>
<event>
 6    1  0.4394360E-006  0.1037701E+03  0.7561462E-02  0.1272562E+00
         -2   -1    0    0    0  501 -0.00000000000E+00  0.00000000000E+00  0.21531938828E+03  0.21531938828E+03  0.00000000000E+00 0.  1.
          2   -1    0    0  501    0  0.00000000000E+00 -0.00000000000E+00 -0.83370277240E+02  0.83370277240E+02  0.00000000000E+00 0. -1.
          5    1    1    2  502    0  0.16848098643E+02 -0.64853166768E+02  0.37679353261E+02  0.76986997148E+02  0.41800000000E+01 0. -1.
         -5    1    1    2    0  502 -0.17185281153E+02  0.51987045325E+02  0.11572785848E+03  0.12809526298E+03  0.41800000000E+01 0.  1.
        -11    1    1    2    0    0  0.21047634652E+02 -0.30717529627E+02 -0.25581838759E+02  0.45177428271E+02  0.00000000000E+00 0. -1.
         11    1    1    2    0    0 -0.20710452142E+02  0.43583651070E+02  0.41237380624E+01  0.48429977123E+02  0.00000000000E+00 0.  1.
</event>
<event>
 7    1  0.4394360E-006  0.1084401E+03  0.7561462E-02  0.1263486E+00
          1   -1    0    0  501    0  0.00000000000E+00  0.00000000000E+00  0.24471299210E+02  0.24471299210E+02  0.00000000000E+00 0. -1.
         -1   -1    0    0    0  501 -0.00000000000E+00 -0.00000000000E+00 -0.63966910719E+03  0.63966910719E+03  0.00000000000E+00 0.  1.
         23    2    1    2    0    0  0.34855020756E+02 -0.33583620154E+02 -0.44697860126E+03  0.46666978253E+03  0.12509230162E+03 0.  0.
          5    1    3    3  502    0 -0.42062014882E+02 -0.97158291080E+01 -0.25146112665E+03  0.25517402111E+03  0.41800000000E+01 0.  1.
         -5    1    3    3    0  502  0.76917035637E+02 -0.23867791046E+02 -0.19551747461E+03  0.21149576142E+03  0.41800000000E+01 0.  1.
        -11    1    1    2    0    0  0.21685891721E+02  0.28898897222E+02 -0.26470823589E+02  0.44789827661E+02  0.00000000000E+00 0. -1.
         11    1    1    2    0    0 -0.56540912477E+02  0.46847229326E+01 -0.14174838313E+03  0.15268079622E+03  0.00000000000E+00 0.  1.
</event>
<event>
 7    1  0.4394360E-006  0.1876715E+03  0.7561462E-02  0.1160578E+00
         -1   -1    0    0    0  501 -0.00000000000E+00  0.00000000000E+00  0.30832318748E+02  0.30832318748E+02  0.00000000000E+00 0.  1.
          1   -1    0    0  501    0  0.00000000000E+00 -0.00000000000E+00 -0.13205752608E+04  0.13205752608E+04  0.00000000000E+00 0. -1.
         23    2    1    2    0    0 -0.13121165236E+03  0.94848035391E+02 -0.85133899477E+03  0.87557882233E+03  0.12509013778E+03 0.  0.
          5    1    3    3  502    0 -0.12367398933E+03  0.30788431019E+02 -0.69160742696E+03  0.70326487795E+03  0.41800000000E+01 0.  1.
         -5    1    3    3    0  502 -0.75376630344E+01  0.64059604372E+02 -0.15973156780E+03  0.17231394438E+03  0.41800000000E+01 0.  1.
        -11    1    1    2    0    0 -0.10872242685E+02 -0.19589253149E+02 -0.78670114265E+02  0.81798113539E+02  0.00000000000E+00 0.  1.
         11    1    1    2    0    0  0.14208389505E+03 -0.75258782242E+02 -0.35973383299E+03  0.39403064364E+03  0.00000000000E+00 0. -1.
</event>
<event>
 7    1  0.4394360E-006  0.1621166E+03  0.7561462E-02  0.1186328E+00
          2   -1    0    0  501    0  0.00000000000E+00  0.00000000000E+00  0.20939258526E+03  0.20939258526E+03  0.00000000000E+00 0. -1.
         -2   -1    0    0    0  501 -0.00000000000E+00 -0.00000000000E+00 -0.15396703444E+03  0.15396703444E+03  0.00000000000E+00 0.  1.
         23    2    1    2    0    0 -0.75632938589E+02  0.10352417614E+03 -0.34770122161E+02  0.18246664399E+03  0.12509004088E+03 0.  0.
          5    1    3    3  502    0 -0.93557146475E+02  0.35039698324E+02 -0.47032028329E+02  0.11049979278E+03  0.41800000000E+01 0. -1.
         -5    1    3    3    0  502  0.17924207886E+02  0.68484477817E+02  0.12261906168E+02  0.71966851210E+02  0.41800000000E+01 0. -1.
        -11    1    1    2    0    0  0.93970337429E+02 -0.92877463988E+02  0.62908290763E+02  0.14633557558E+03  0.00000000000E+00 0.  1.
         11    1    1    2    0    0 -0.18337398840E+02 -0.10646712153E+02  0.27287382215E+02  0.34557400134E+02  0.00000000000E+00 0. -1.
</event>
<event>
 7    1  0.4394360E-006  0.1503308E+03  0.7561462E-02  0.1200067E+00
          1   -1    0    0  501    0  0.00000000000E+00  0.00000000000E+00  0.17582309052E+03  0.17582309052E+03  0.00000000000E+00 0. -1.
         -1   -1    0    0    0  501 -0.00000000000E+00 -0.00000000000E+00 -0.19037532358E+03  0.19037532358E+03  0.00000000000E+00 0.  1.
         23    2    1    2    0    0  0.71722444962E+02  0.88442342447E+02 -0.10035699964E+03  0.19669102296E+03  0.12509865742E+03 0.  0.
          5    1    3    3  502    0  0.10048284295E+03  0.82233123363E+02 -0.51996995877E+02  0.13992944038E+03  0.41800000000E+01 0.  1.
         -5    1    3    3    0  502 -0.28760397983E+02  0.62092190843E+01 -0.48360003759E+02  0.56761582583E+02  0.41800000000E+01 0.  1.
        -11    1    1    2    0    0  0.32413396350E-02 -0.65826663976E+02  0.17989244507E+02  0.68240476395E+02  0.00000000000E+00 0.  1.
         11    1    1    2    0    0 -0.71725686302E+02 -0.22615678471E+02  0.67815522066E+02  0.10126691474E+03  0.00000000000E+00 0. -1.
</event>
<event>
 7    1  0.4394360E-006  0.9954655E+02  0.7561462E-02  0.1281252E+00
          2   -1    0    0  501    0  0.00000000000E+00  0.00000000000E+00  0.60219961835E+03  0.60219961835E+03  0.00000000000E+00 0. -1.
         -2   -1    0    0    0  501 -0.00000000000E+00 -0.00000000000E+00 -0.18953202381E+02  0.18953202381E+02  0.00000000000E+00 0.  1.
         23    2    1    2    0    0  0.43684075944E+01  0.12967647625E+02  0.26195132882E+03  0.28652097764E+03  0.11527588252E+03 0.  0.
          5    1    3    3  502    0 -0.36748568567E+02 -0.31179369336E+02  0.16769727697E+03  0.17453498064E+03  0.41800000000E+01 0. -1.
         -5    1    3    3    0  502  0.41116976161E+02  0.44147016961E+02  0.94254051851E+02  0.11198599701E+03  0.41800000000E+01 0.  1.
        -11    1    1    2    0    0 -0.28754714102E+02 -0.42894466128E+02  0.22577791690E+03  0.23160836894E+03  0.00000000000E+00 0. -1.
         11    1    1    2    0    0  0.24386306507E+02  0.29926818504E+02  0.95517170258E+02  0.10302347414E+03  0.00000000000E+00 0.  1.
</event>
<event>
 7    1  0.4394360E-006  0.8759177E+02  0.7561462E-02  0.1308791E+00
          3   -1    0    0  501    0  0.00000000000E+00  0.00000000000E+00  0.22696952148E+02  0.22696952148E+02  0.00000000000E+00 0. -1.
         -3   -1    0    0    0  501 -0.00000000000E+00 -0.00000000000E+00 -0.11328055922E+04  0.11328055922E+04  0.00000000000E+00 0.  1.
         23    2    1    2    0    0  0.73299360210E+02  0.23764101216E+01 -0.90232870490E+03  0.91390534186E+03  0.12508972240E+03 0.  0.
          5    1    3    3  502    0  0.70423504622E+02  0.30024015484E+01 -0.20991839448E+03  0.22147615935E+03  0.41800000000E+01 0. -1.
         -5    1    3    3    0  502  0.28758555875E+01 -0.62599142676E+00 -0.69241031042E+03  0.69242918251E+03  0.41800000000E+01 0. -1.
        -11    1    1    2    0    0 -0.48885425169E+02  0.31164834497E+02 -0.18582849823E+03  0.19466191836E+03  0.00000000000E+00 0.  1.
         11    1    1    2    0    0 -0.24413935041E+02 -0.33541244618E+02 -0.21951436932E+02  0.46935284149E+02  0.00000000000E+00 0. -1.
</event>
<event>
 7    1  0.4394360E-006  0.1211410E+03  0.7561462E-02  0.1241227E+00
         -2   -1    0    0    0  501 -0.00000000000E+00  0.00000000000E+00  0.55010220092E+02  0.55010220092E+02  0.00000000000E+00 0. -1.
          2   -1    0    0  501    0  0.00000000000E+00 -0.00000000000E+00 -0.27904093595E+03  0.27904093595E+03  0.00000000000E+00 0.  1.
         23    2    1    2    0    0 -0.16713518031E+02  0.53406953878E+02 -0.15395803394E+03  0.20611405389E+03  0.12509309569E+03 0.  0.
          5    1    3    3  502    0  0.46713628610E+02 -0.89759394388E+01 -0.48170093373E+02  0.67827434584E+02  0.41800000000E+01 0. -1.
         -5    1    3    3    0  502 -0.63427146641E+02  0.62382893316E+02 -0.10578794057E+03  0.13828661930E+03  0.41800000000E+01 0. -1.
        -11    1    1    2    0    0 -0.36994413752E+02 -0.18015512154E+02 -0.16897132369E+02  0.44482113364E+02  0.00000000000E+00 0.  1.
         11    1    1    2    0    0  0.53707931783E+02 -0.35391441723E+02 -0.53175549549E+02  0.83454988787E+02  0.00000000000E+00 0. -1.
</event>
<event>
 7    1  0.4394360E-006  0.4178048E+02  0.7561462E-02  0.1495503E+00
         -1   -1    0    0    0  501 -0.00000000000E+00  0.00000000000E+00  0.37114744157E+03  0.37114744157E+03  0.00000000000E+00 0.  1.
          1   -1    0    0  501    0  0.00000000000E+00 -0.00000000000E+00 -0.30191291683E+02  0.30191291683E+02  0.00000000000E+00 0. -1.
         23    2    1    2    0    0  0.11432613707E+02 -0.54416783787E+01  0.24626536479E+03  0.27650102551E+03  0.12508345491E+03 0.  0.
          5    1    3    3  502    0 -0.11264515730E+02  0.20589459571E+01 -0.11995576576E+02  0.17102480243E+02  0.41800000000E+01 0.  1.
         -5    1    3    3    0  502  0.22697129437E+02 -0.75006243357E+01  0.25826094137E+03  0.25939854527E+03  0.41800000000E+01 0.  1.
        -11    1    1    2    0    0  0.17576307745E+02  0.41843065085E+01  0.94075789050E+02  0.95795036930E+02  0.00000000000E+00 0.  1.
         11    1    1    2    0    0 -0.29008921452E+02  0.12573718702E+01  0.61499604354E+00  0.29042670813E+02  0.00000000000E+00 0. -1.
</event>
<event>
 7    1  0.4394360E-006  0.1377870E+03  0.7561462E-02  0.1216338E+00
          2   -1    0    0  501    0  0.00000000000E+00  0.00000000000E+00  0.44345644940E+02  0.44345644940E+02  0.00000000000E+00 0. -1.
         -2   -1    0    0    0  501 -0.00000000000E+00 -0.00000000000E+00 -0.10904188496E+04  0.10904188496E+04  0.00000000000E+00 0.  1.
         23    2    1    2    0    0  0.11263150597E+02  0.90475839002E+02 -0.97661325357E+03  0.98880416789E+03  0.12508996520E+03 0.  0.
          5    1    3    3  502    0  0.67287475331E+02  0.40039539891E+02 -0.55012803487E+03  0.55568794862E+03  0.41800000000E+01 0. -1.
         -5    1    3    3    0  502 -0.56024324734E+02  0.50436299110E+02 -0.42648521870E+03  0.43311621927E+03  0.41800000000E+01 0. -1.
        -11    1    1    2    0    0 -0.37415470931E+02 -0.12544626772E+02 -0.45726760359E+02  0.60400511080E+02  0.00000000000E+00 0.  1.
         11    1    1    2    0    0  0.26152320334E+02 -0.77931212230E+02 -0.23733190740E+02  0.85559815574E+02  0.00000000000E+00 0. -1.
</event>
<event>
 7    1  0.4394360E-006  0.1115257E+03  0.7561462E-02  0.1257770E+00
          1   -1    0    0  501    0  0.00000000000E+00  0.00000000000E+00  0.20479839855E+02  0.20479839855E+02  0.00000000000E+00 0. -1.
         -1   -1    0    0    0  501 -0.00000000000E+00 -0.00000000000E+00 -0.70012794086E+03  0.70012794086E+03  0.00000000000E+00 0.  1.
         23    2    1    2    0    0 -0.57308365807E+01 -0.37600672335E+02 -0.48631213346E+03  0.50358069248E+03  0.12508944657E+03 0.  0.
          5    1    3    3  502    0  0.52692200631E+02 -0.39913562417E+02 -0.18207847053E+03  0.19375139304E+03  0.41800000000E+01 0. -1.
         -5    1    3    3    0  502 -0.58423037212E+02  0.23128900821E+01 -0.30423366292E+03  0.30982929944E+03  0.41800000000E+01 0. -1.
        -11    1    1    2    0    0 -0.30304931944E+02  0.51352767880E+02 -0.12678396302E+03  0.14010592046E+03  0.00000000000E+00 0.  1.
         11    1    1    2    0    0  0.36035768524E+02 -0.13752095545E+02 -0.66552004521E+02  0.76921167768E+02  0.00000000000E+00 0. -1.
</event>
<event>
 7    1  0.4394360E-006  0.1126104E+03  0.7561462E-02  0.1255811E+00
          1   -1    0    0  501    0  0.00000000000E+00  0.00000000000E+00  0.80291145427E+03  0.80291145427E+03  0.00000000000E+00 0. -1.
         -1   -1    0    0    0  501 -0.00000000000E+00 -0.00000000000E+00 -0.17859833574E+02  0.17859833574E+02  0.00000000000E+00 0.  1.
         23    2    1    2    0    0  0.11484195872E+02  0.50494206169E+02  0.40735850661E+03  0.42926639330E+03  0.12508849626E+03 0.  0.
          5    1    3    3  502    0 -0.10206624907E+02  0.86947192311E+02  0.32396930348E+03  0.33561521336E+03  0.41800000000E+01 0. -1.
         -5    1    3    3    0  502  0.21690820779E+02 -0.36452986142E+02  0.83389203132E+02  0.93651179938E+02  0.41800000000E+01 0. -1.
        -11    1    1    2    0    0  0.66410366989E+01 -0.68842390441E+02  0.33113385504E+03  0.33827948215E+03  0.00000000000E+00 0. -1.
         11    1    1    2    0    0 -0.18125232570E+02  0.18348184272E+02  0.46559259048E+02  0.53225412397E+02  0.00000000000E+00 0.  1.
</event>
<event>
 7    1  0.4394360E-006  0.1033356E+03  0.7561462E-02  0.1273434E+00
         -1   -1    0    0    0  501 -0.00000000000E+00  0.00000000000E+00  0.41589861389E+02  0.41589861389E+02  0.00000000000E+00 0.  1.
          1   -1    0    0  501    0  0.00000000000E+00 -0.00000000000E+00 -0.33605227345E+03  0.33605227345E+03  0.00000000000E+00 0. -1.
         23    2    1    2    0    0 -0.40828785115E+02  0.15068722289E+02 -0.13628394135E+03  0.19003876017E+03  0.12508941447E+03 0.  0.
          5    1    3    3  502    0 -0.64832176215E+02 -0.31553362021E+02 -0.46250201197E+02  0.85763507615E+02  0.41800000000E+01 0. -1.
         -5    1    3    3    0  502  0.24003391100E+02  0.46622084310E+02 -0.90033740156E+02  0.10427525256E+03  0.41800000000E+01 0. -1.
        -11    1    1    2    0    0 -0.33148871524E+01 -0.33747367550E+02 -0.12446534582E+03  0.12900192093E+03  0.00000000000E+00 0. -1.
         11    1    1    2    0    0  0.44143672267E+02  0.18678645260E+02 -0.33713124881E+02  0.58601453730E+02  0.00000000000E+00 0.  1.
</event>
<event>
 6    1  0.4394360E-006  0.2042222E+03  0.7561462E-02  0.1146225E+00
          1   -1    0    0  501    0  0.00000000000E+00  0.00000000000E+00  0.11953596416E+04  0.11953596416E+04  0.00000000000E+00 0. -1.
         -1   -1    0    0    0  501 -0.00000000000E+00 -0.00000000000E+00 -0.10988553708E+03  0.10988553708E+03  0.00000000000E+00 0.  1.
          5    1    1    2  502    0  0.76992140250E+02 -0.33628436917E+02  0.72406223437E+02  0.11099006722E+03  0.41800000000E+01 0. -1.
         -5    1    1    2    0  502  0.11123552772E+03  0.32902286701E+02 -0.38448494614E+02  0.12227698980E+03  0.41800000000E+01 0.  1.
        -11    1    1    2    0    0  0.52953353157E+01 -0.13203768616E+02  0.60879400034E+02  0.62519448416E+02  0.00000000000E+00 0.  1.
         11    1    1    2    0    0 -0.19352300328E+03  0.13929918832E+02  0.99063697565E+03  0.10094586732E+04  0.00000000000E+00 0. -1.
</event>
<event>
 6    1  0.4394360E-006  0.1268145E+03  0.7561462E-02  0.1232260E+00
         -1   -1    0    0    0  501 -0.00000000000E+00  0.00000000000E+00  0.36010855839E+02  0.36010855839E+02  0.00000000000E+00 0.  1.
          1   -1    0    0  501    0  0.00000000000E+00 -0.00000000000E+00 -0.54949914952E+03  0.54949914952E+03  0.00000000000E+00 0. -1.
          5    1    1    2  502    0  0.60225889674E+02  0.17005855211E+02 -0.65231453614E+02  0.90492938062E+02  0.41800000000E+01 0. -1.
         -5    1    1    2    0  502 -0.53403915221E+02  0.66760761542E+02 -0.19990867890E+03  0.21746247893E+03  0.41800000000E+01 0.  1.
        -11    1    1    2    0    0  0.23649234339E+02 -0.10330452822E+02 -0.12518309114E+02  0.28682967131E+02  0.00000000000E+00 0.  1.
         11    1    1    2    0    0 -0.30471208792E+02 -0.73436163931E+02 -0.23582985206E+03  0.24887162124E+03  0.00000000000E+00 0. -1.
</event>
<event>
 7    1  0.4394360E-006  0.7573509E+02  0.7561462E-02  0.1341610E+00
          2   -1    0    0  501    0  0.00000000000E+00  0.00000000000E+00  0.98757735911E+02  0.98757735911E+02  0.00000000000E+00 0. -1.
         -2   -1    0    0    0  501 -0.00000000000E+00 -0.00000000000E+00 -0.17249933874E+03  0.17249933874E+03  0.00000000000E+00 0.  1.
         23    2    1    2    0    0 -0.39605122795E+02 -0.31648566379E+02 -0.92407056505E+02  0.16357562403E+03  0.12509085970E+03 0.  0.
          5    1    3    3  502    0  0.83080651233E+01 -0.30348113831E+02 -0.10833945062E+03  0.11289349370E+03  0.41800000000E+01 0. -1.
         -5    1    3    3    0  502 -0.47913187918E+02 -0.13004525476E+01  0.15932394111E+02  0.50682130336E+02  0.41800000000E+01 0. -1.
        -11    1    1    2    0    0 -0.10725564199E+02 -0.22176097664E+01 -0.28698596984E+02  0.30717502980E+02  0.00000000000E+00 0.  1.
         11    1    1    2    0    0  0.50330686994E+02  0.33866176145E+02  0.47364050665E+02  0.76963947634E+02  0.00000000000E+00 0. -1.
</event>
<event>
 7    1  0.4394360E-006  0.1453319E+03  0.7561462E-02  0.1206329E+00
         -2   -1    0    0    0  501 -0.00000000000E+00  0.00000000000E+00  0.18284946449E+02  0.18284946449E+02  0.00000000000E+00 0.  1.
          2   -1    0    0  501    0  0.00000000000E+00 -0.00000000000E+00 -0.14630647243E+04  0.14630647243E+04  0.00000000000E+00 0. -1.
         23    2    1    2    0    0 -0.53261900115E+02  0.91108705684E+02 -0.10539454813E+04  0.10665771579E+04  0.12509248518E+03 0.  0.
          5    1    3    3  502    0 -0.68550168978E+02  0.10991782203E+03 -0.98259369256E+03  0.99110488362E+03  0.41800000000E+01 0.  1.
         -5    1    3    3    0  502  0.15288268864E+02 -0.18809116347E+02 -0.71351788774E+02  0.75472274273E+02  0.41800000000E+01 0.  1.
        -11    1    1    2    0    0  0.65803790112E+02 -0.26989018472E+02 -0.24186824499E+03  0.25210869451E+03  0.00000000000E+00 0.  1.
         11    1    1    2    0    0 -0.12541889998E+02 -0.64119687212E+02 -0.14896605149E+03  0.16266381831E+03  0.00000000000E+00 0. -1.
</event>
<event>
 7    1  0.4394360E-006  0.3201550E+03  0.7561462E-02  0.1075578E+00
          2   -1    0    0  501    0  0.00000000000E+00  0.00000000000E+00  0.11416219180E+04  0.11416219180E+04  0.00000000000E+00 0.  1.
         -2   -1    0    0    0  501 -0.00000000000E+00 -0.00000000000E+00 -0.18637713970E+03  0.18637713970E+03  0.00000000000E+00 0. -1.
         23    2    1    2    0    0  0.78225409596E+02  0.29696829188E+03  0.12193674021E+02  0.33182216927E+03  0.12509150748E+03 0.  0.
          5    1    3    3  502    0  0.10992123742E+03  0.19144879924E+03  0.17060453113E+02  0.22145846705E+03  0.41800000000E+01 0.  1.
         -5    1    3    3    0  502 -0.31695827829E+02  0.10551949264E+03 -0.48667790919E+01  0.11036370222E+03  0.41800000000E+01 0.  1.
        -11    1    1    2    0    0 -0.51601504301E+02 -0.24994520961E+03  0.86019239012E+03  0.89725485292E+03  0.00000000000E+00 0.  1.
         11    1    1    2    0    0 -0.26623905295E+02 -0.47023082268E+02  0.82858714171E+02  0.98922035529E+02  0.00000000000E+00 0. -1.
</event>
<event>
 7    1  0.4394360E-006  0.1449828E+03  0.7561462E-02  0.1206777E+00
          2   -1    0    0  501    0  0.00000000000E+00  0.00000000000E+00  0.38960622674E+03  0.38960622674E+03  0.00000000000E+00 0. -1.
         -2   -1    0    0    0  501 -0.00000000000E+00 -0.00000000000E+00 -0.71214034573E+02  0.71214034573E+02  0.00000000000E+00 0.  1.
         23    2    1    2    0    0  0.77678934609E+02  0.60274404388E+02  0.73603754855E+02  0.17531016219E+03  0.12509644092E+03 0.  0.
          5    1    3    3  502    0  0.14783306466E+02 -0.30223644373E+02 -0.11717909425E+02  0.35871947682E+02  0.41800000000E+01 0. -1.
         -5    1    3    3    0  502  0.62895628144E+02  0.90498048761E+02  0.85321664280E+02  0.13943821451E+03  0.41800000000E+01 0. -1.
        -11    1    1    2    0    0  0.17165855315E+02 -0.46960785978E+02  0.67441982536E+02  0.83954767683E+02  0.00000000000E+00 0.  1.
         11    1    1    2    0    0 -0.94844789924E+02 -0.13313618411E+02  0.17734645478E+03  0.20155533144E+03  0.00000000000E+00 0. -1.
</event>
<event>
 7    1  0.4394360E-006  0.1426148E+03  0.7561462E-02  0.1209853E+00
          1   -1    0    0  501    0  0.00000000000E+00  0.00000000000E+00  0.49454235350E+03  0.49454235350E+03  0.00000000000E+00 0. -1.
         -1   -1    0    0    0  501 -0.00000000000E+00 -0.00000000000E+00 -0.43696651464E+02  0.43696651464E+02  0.00000000000E+00 0.  1.
         23    2    1    2    0    0 -0.98565049112E+02 -0.91136030496E+00  0.22665097816E+03  0.27701689002E+03  0.12510712198E+03 0.  0.
          5    1    3    3  502    0  0.76406776336E+01 -0.43765801929E+02  0.66551086356E+02  0.80127054535E+02  0.41800000000E+01 0.  1.
         -5    1    3    3    0  502 -0.10620572675E+03  0.42854441624E+02  0.16009989181E+03  0.19688983548E+03  0.41800000000E+01 0.  1.
        -11    1    1    2    0    0  0.57309086639E+02 -0.38426056400E+02  0.16595584229E+03  0.17972822487E+03  0.00000000000E+00 0. -1.
         11    1    1    2    0    0  0.41255962473E+02  0.39337416704E+02  0.58238881576E+02  0.81493890076E+02  0.00000000000E+00 0.  1.
</event>
<event>
 7    1  0.4394360E-006  0.1588380E+03  0.7561462E-02  0.1190015E+00
          1   -1    0    0  501    0  0.00000000000E+00  0.00000000000E+00  0.32702422984E+03  0.32702422984E+03  0.00000000000E+00 0. -1.
         -1   -1    0    0    0  501 -0.00000000000E+00 -0.00000000000E+00 -0.10646279779E+03  0.10646279779E+03  0.00000000000E+00 0.  1.
         23    2    1    2    0    0 -0.55007138440E+02  0.14028946508E+03  0.10223922831E+03  0.22091066297E+03  0.12506694974E+03 0.  0.
          5    1    3    3  502    0 -0.28875106347E+02  0.69744280147E+02 -0.19195914112E+02  0.77999948066E+02  0.41800000000E+01 0. -1.
         -5    1    3    3    0  502 -0.26132032093E+02  0.70545184930E+02  0.12143514243E+03  0.14291071490E+03  0.41800000000E+01 0. -1.
        -11    1    1    2    0    0  0.50027923977E+02 -0.34378948068E+02  0.10958445333E+02  0.61683002292E+02  0.00000000000E+00 0.  1.
         11    1    1    2    0    0  0.49792144639E+01 -0.10591051701E+03  0.10736375841E+03  0.15089336237E+03  0.00000000000E+00 0. -1.
</event>
<event>
 7    1  0.4394360E-006  0.1776216E+03  0.7561462E-02  0.1170125E+00
          1   -1    0    0  501    0  0.00000000000E+00  0.00000000000E+00  0.75064858051E+03  0.75064858051E+03  0.00000000000E+00 0. -1.
         -1   -1    0    0    0  501 -0.00000000000E+00 -0.00000000000E+00 -0.55415939239E+02  0.55415939239E+02  0.00000000000E+00 0.  1.
         23    2    1    2    0    0  0.14257780191E+03  0.68937250352E+01  0.17246475769E+03  0.25645036055E+03  0.12508693673E+03 0.  0.
          5    1    3    3  502    0  0.30677178127E+02 -0.53956534618E+02  0.61308062291E+02  0.87341558194E+02  0.41800000000E+01 0.  1.
         -5    1    3    3    0  502  0.11190062379E+03  0.60850259653E+02  0.11115669540E+03  0.16910880236E+03  0.41800000000E+01 0.  1.
        -11    1    1    2    0    0 -0.87732928749E+02 -0.45200933609E+02  0.25031670454E+03  0.26906996071E+03  0.00000000000E+00 0.  1.
         11    1    1    2    0    0 -0.54844873164E+02  0.38307208574E+02  0.27245117905E+03  0.28054419849E+03  0.00000000000E+00 0. -1.
</event>
<event>
 7    1  0.4394360E-006  0.1108173E+03  0.7561462E-02  0.1259064E+00
          1   -1    0    0  501    0  0.00000000000E+00  0.00000000000E+00  0.37252393359E+03  0.37252393359E+03  0.00000000000E+00 0. -1.
         -1   -1    0    0    0  501 -0.00000000000E+00 -0.00000000000E+00 -0.37189523743E+02  0.37189523743E+02  0.00000000000E+00 0.  1.
         23    2    1    2    0    0 -0.37747089531E+01 -0.43543427025E+02  0.17431278647E+03  0.21894971202E+03  0.12507497912E+03 0.  0.
          5    1    3    3  502    0 -0.41645331609E+02 -0.68403525838E+02  0.14223540546E+03  0.16328428877E+03  0.41800000000E+01 0.  1.
         -5    1    3    3    0  502  0.37870622656E+02  0.24860098813E+02  0.32077381012E+02  0.55665423253E+02  0.41800000000E+01 0.  1.
        -11    1    1    2    0    0 -0.40583124216E+02  0.26282515004E+02  0.11412301093E+03  0.12394281823E+03  0.00000000000E+00 0.  1.
         11    1    1    2    0    0  0.44357833169E+02  0.17260912021E+02  0.46898612435E+02  0.66820927078E+02  0.00000000000E+00 0. -1.
</event>
<event>
 7    1  0.4394360E-006  0.1257088E+03  0.7561462E-02  0.1233966E+00
         -2   -1    0    0    0  501 -0.00000000000E+00  0.00000000000E+00  0.31366015257E+02  0.31366015257E+02  0.00000000000E+00 0. -1.
          2   -1    0    0  501    0  0.00000000000E+00 -0.00000000000E+00 -0.66104778405E+03  0.66104778405E+03  0.00000000000E+00 0.  1.
         23    2    1    2    0    0 -0.14414839622E+02  0.59089811085E+02 -0.19550243224E+03  0.23993303296E+03  0.12508903197E+03 0.  0.
          5    1    3    3  502    0 -0.12958006703E+02 -0.33083376711E+02 -0.10398820329E+03  0.10997017130E+03  0.41800000000E+01 0. -1.
         -5    1    3    3    0  502 -0.14568329192E+01  0.92173187796E+02 -0.91514228951E+02  0.12996286166E+03  0.41800000000E+01 0. -1.
        -11    1    1    2    0    0  0.55295121304E+02 -0.61134069470E+02 -0.33891170213E+03  0.34879229740E+03  0.00000000000E+00 0. -1.
         11    1    1    2    0    0 -0.40880281681E+02  0.20442583849E+01 -0.95267634431E+02  0.10368846895E+03  0.00000000000E+00 0.  1.
</event>
<event>
 7    1  0.4394360E-006  0.2697017E+03  0.7561462E-02  0.1101450E+00
         -4   -1    0    0    0  501 -0.00000000000E+00  0.00000000000E+00  0.41609627284E+03  0.41609627284E+03  0.00000000000E+00 0.  1.
          4   -1    0    0  501    0  0.00000000000E+00 -0.00000000000E+00 -0.18057375715E+03  0.18057375715E+03  0.00000000000E+00 0. -1.
         23    2    1    2    0    0 -0.16529906540E+02  0.25240813830E+03  0.91529488101E+02  0.29665919156E+03  0.12508366262E+03 0.  0.
          5    1    3    3  502    0 -0.72155574661E+01  0.26242616141E+03  0.71633088384E+02  0.27215496728E+03  0.41800000000E+01 0.  1.
         -5    1    3    3    0  502 -0.93143490740E+01 -0.10018023115E+02  0.19896399717E+02  0.24504224279E+02  0.41800000000E+01 0.  1.
        -11    1    1    2    0    0 -0.25074966797E+02 -0.50399144579E+02  0.22383554845E+02  0.60579297303E+02  0.00000000000E+00 0. -1.
         11    1    1    2    0    0  0.41604873337E+02 -0.20200899372E+03  0.12160947274E+03  0.23943154113E+03  0.00000000000E+00 0.  1.
</event>
<event>
 7    1  0.4394360E-006  0.1178489E+03  0.7561462E-02  0.1246688E+00
          2   -1    0    0  501    0  0.00000000000E+00  0.00000000000E+00  0.29177881171E+02  0.29177881171E+02  0.00000000000E+00 0. -1.
         -2   -1    0    0    0  501 -0.00000000000E+00 -0.00000000000E+00 -0.11806329626E+04  0.11806329626E+04  0.00000000000E+00 0.  1.
         23    2    1    2    0    0  0.60186449934E+02 -0.34266761106E+02 -0.10542934428E+04  0.10639463810E+04  0.12510243142E+03 0.  0.
          5    1    3    3  502    0 -0.14949410937E+02  0.34806461349E+02 -0.20299477657E+03  0.20654134297E+03  0.41800000000E+01 0.  1.
         -5    1    3    3    0  502  0.75135860871E+02 -0.69073222455E+02 -0.85129866625E+03  0.85740503802E+03  0.41800000000E+01 0.  1.
        -11    1    1    2    0    0 -0.59674787971E+02 -0.14765831013E+01 -0.23810878975E+02  0.64266776600E+02  0.00000000000E+00 0. -1.
         11    1    1    2    0    0 -0.51166196353E+00  0.35743344207E+02 -0.73350759607E+02  0.81597686168E+02  0.00000000000E+00 0.  1.
</event>
<event>
 7    1  0.4394360E-006  0.5974822E+02  0.7561462E-02  0.1398891E+00
         -2   -1    0    0    0  501 -0.00000000000E+00  0.00000000000E+00  0.10214946330E+03  0.10214946330E+03  0.00000000000E+00 0.  1.
          2   -1    0    0  501    0  0.00000000000E+00 -0.00000000000E+00 -0.12850036802E+03  0.12850036802E+03  0.00000000000E+00 0. -1.
         23    2    1    2    0    0 -0.11299883230E+02 -0.34936161761E+02 -0.13965365623E+02  0.13111423414E+03  0.12509071987E+03 0.  0.
          5    1    3    3  502    0 -0.29144390731E+02 -0.11895946969E+02 -0.64917545171E+02  0.72268036755E+02  0.41800000000E+01 0. -1.
         -5    1    3    3    0  502  0.17844507502E+02 -0.23040214793E+02  0.50952179548E+02  0.58846197382E+02  0.41800000000E+01 0. -1.
        -11    1    1    2    0    0  0.10875291515E+02 -0.91500638474E+01  0.33202196278E+02  0.36116221724E+02  0.00000000000E+00 0.  1.
         11    1    1    2    0    0  0.42459171489E+00  0.44086225609E+02 -0.45587735378E+02  0.63419375457E+02  0.00000000000E+00 0. -1.
</event>
<event>
 7    1  0.4394360E-006  0.9393530E+02  0.7561462E-02  0.1293592E+00
         -1   -1    0    0    0  501 -0.00000000000E+00  0.00000000000E+00  0.26939846254E+03  0.26939846254E+03  0.00000000000E+00 0.  1.
          1   -1    0    0  501    0  0.00000000000E+00 -0.00000000000E+00 -0.51041093041E+02  0.51041093041E+02  0.00000000000E+00 0. -1.
         23    2    1    2    0    0 -0.10590089492E+02 -0.33853918739E+02  0.15719268783E+03  0.20399803476E+03  0.12508964494E+03 0.  0.
          5    1    3    3  502    0 -0.51809813750E+02 -0.10706308100E+02  0.14584650143E+03  0.15520166305E+03  0.41800000000E+01 0.  1.
         -5    1    3    3    0  502  0.41219724258E+02 -0.23147610639E+02  0.11346186396E+02  0.48796371708E+02  0.41800000000E+01 0.  1.
        -11    1    1    2    0    0  0.42057190715E+02  0.36603910139E+02  0.10497826990E+02  0.56734979509E+02  0.00000000000E+00 0. -1.
         11    1    1    2    0    0 -0.31467101223E+02 -0.27499914003E+01  0.50666854678E+02  0.59706541308E+02  0.00000000000E+00 0.  1.
</event>
<event>
 7    1  0.4394360E-006  0.1982095E+03  0.7561462E-02  0.1151259E+00
         -2   -1    0    0    0  501 -0.00000000000E+00  0.00000000000E+00  0.14443880347E+03  0.14443880347E+03  0.00000000000E+00 0.  1.
          2   -1    0    0  501    0  0.00000000000E+00 -0.00000000000E+00 -0.31037705508E+03  0.31037705508E+03  0.00000000000E+00 0. -1.
         23    2    1    2    0    0 -0.17580593511E+03  0.43321974477E+02 -0.98907533394E+02  0.24127699881E+03  0.12508944680E+03 0.  0.
          5    1    3    3  502    0  0.56386346625E+01 -0.20574146225E+02  0.54163242126E+01  0.22403094914E+02  0.41800000000E+01 0.  1.
         -5    1    3    3    0  502 -0.18144456977E+03  0.63896120702E+02 -0.10432385761E+03  0.21887390389E+03  0.41800000000E+01 0.  1.
        -11    1    1    2    0    0  0.26581852667E+02  0.10023261411E+01  0.21726018131E+02  0.34345587966E+02  0.00000000000E+00 0.  1.
         11    1    1    2    0    0  0.14922408244E+03 -0.44324300618E+02 -0.88756736343E+02  0.17919327178E+03  0.00000000000E+00 0. -1.
</event>
<event>
 7    1  0.4394360E-006  0.1164556E+03  0.7561462E-02  0.1249061E+00
          4   -1    0    0  501    0  0.00000000000E+00  0.00000000000E+00  0.93545617076E+02  0.93545617076E+02  0.00000000000E+00 0. -1.
         -4   -1    0    0    0  501 -0.00000000000E+00 -0.00000000000E+00 -0.17699610847E+03  0.17699610847E+03  0.00000000000E+00 0.  1.
         23    2    1    2    0    0 -0.24128521495E+02 -0.48644855810E+02 -0.89119047966E+02  0.16290622115E+03  0.12509086550E+03 0.  0.
          5    1    3    3  502    0 -0.17428642840E+02  0.41703679312E+02 -0.34735471536E+02  0.57157500315E+02  0.41800000000E+01 0.  1.
         -5    1    3    3    0  502 -0.66998786546E+01 -0.90348535122E+02 -0.54383576431E+02  0.10574872083E+03  0.41800000000E+01 0.  1.
        -11    1    1    2    0    0  0.44399547952E+02  0.29662742364E+00 -0.20657690983E+02  0.48970889750E+02  0.00000000000E+00 0.  1.
         11    1    1    2    0    0 -0.20271026457E+02  0.48348228387E+02  0.26326247552E+02  0.58664614649E+02  0.00000000000E+00 0. -1.
</event>
<event>
 7    1  0.4394360E-006  0.9815767E+02  0.7561462E-02  0.1284219E+00
         -2   -1    0    0    0  501 -0.00000000000E+00  0.00000000000E+00  0.50256615644E+03  0.50256615644E+03  0.00000000000E+00 0.  1.
          2   -1    0    0  501    0  0.00000000000E+00 -0.00000000000E+00 -0.22443278616E+02  0.22443278616E+02  0.00000000000E+00 0. -1.
         23    2    1    2    0    0 -0.26044238311E+02 -0.16360021577E+01  0.28388609147E+03  0.30742363889E+03  0.11505217062E+03 0.  0.
          5    1    3    3  502    0 -0.37478715015E+02 -0.44577819251E+02  0.23077855262E+03  0.23805051732E+03  0.41800000000E+01 0. -1.
         -5    1    3    3    0  502  0.11434476704E+02  0.42941817093E+02  0.53107538853E+02  0.69373121566E+02  0.41800000000E+01 0.  1.
        -11    1    1    2    0    0  0.58788122366E+02 -0.75821691956E+01  0.13706591598E+03  0.14933384728E+03  0.00000000000E+00 0.  1.
         11    1    1    2    0    0 -0.32743884055E+02  0.92181713533E+01  0.59170870378E+02  0.68251948891E+02  0.00000000000E+00 0. -1.
</event>
<event>
 7    1  0.4394360E-006  0.1860917E+03  0.7561462E-02  0.1162034E+00
          2   -1    0    0  501    0  0.00000000000E+00  0.00000000000E+00  0.38232700377E+03  0.38232700377E+03  0.00000000000E+00 0.  1.
         -2   -1    0    0    0  501 -0.00000000000E+00 -0.00000000000E+00 -0.11332349913E+03  0.11332349913E+03  0.00000000000E+00 0. -1.
         23    2    1    2    0    0 -0.54445422169E+02  0.15199946771E+03  0.51724276840E+02  0.21068997579E+03  0.12508686144E+03 0.  0.
          5    1    3    3  502    0  0.17025035179E+02  0.95432913074E+02 -0.14281940546E+02  0.98075169877E+02  0.41800000000E+01 0.  1.
         -5    1    3    3    0  502 -0.71470457348E+02  0.56566554640E+02  0.66006217387E+02  0.11261480591E+03  0.41800000000E+01 0.  1.
        -11    1    1    2    0    0  0.53635580314E+02 -0.29124156852E+02  0.62821176008E+02  0.87587054654E+02  0.00000000000E+00 0. -1.
         11    1    1    2    0    0  0.80984185433E+00 -0.12287531086E+03  0.15445805180E+03  0.19737347246E+03  0.00000000000E+00 0.  1.
</event>
<event>
 7    1  0.4394360E-006  0.1557401E+03  0.7561462E-02  0.1193592E+00
         -1   -1    0    0    0  501 -0.00000000000E+00  0.00000000000E+00  0.66050001358E+03  0.66050001358E+03  0.00000000000E+00 0. -1.
          1   -1    0    0  501    0  0.00000000000E+00 -0.00000000000E+00 -0.40083820382E+02  0.40083820382E+02  0.00000000000E+00 0.  1.
         23    2    1    2    0    0  0.53440749471E+02 -0.11229923690E+03  0.37050160759E+03  0.41034814183E+03  0.12508846455E+03 0.  0.
          5    1    3    3  502    0 -0.39648267848E+02 -0.51208939687E+02  0.14201117849E+03  0.15613772082E+03  0.41800000000E+01 0.  1.
         -5    1    3    3    0  502  0.93089017319E+02 -0.61090297215E+02  0.22849042910E+03  0.25421042101E+03  0.41800000000E+01 0.  1.
        -11    1    1    2    0    0 -0.35570064751E+02  0.19321209178E+02  0.13712488703E+03  0.14297472949E+03  0.00000000000E+00 0.  1.
         11    1    1    2    0    0 -0.17870684720E+02  0.92978027724E+02  0.11278969857E+03  0.14726096264E+03  0.00000000000E+00 0. -1.
</event>
<event>
 7    1  0.4394360E-006  0.8226168E+02  0.7561462E-02  0.1322753E+00
         -2   -1    0    0    0  501 -0.00000000000E+00  0.00000000000E+00  0.96164382577E+02  0.96164382577E+02  0.00000000000E+00 0. -1.
          2   -1    0    0  501    0  0.00000000000E+00 -0.00000000000E+00 -0.14459096268E+03  0.14459096268E+03  0.00000000000E+00 0.  1.
         23    2    1    2    0    0  0.19767414821E+02 -0.36190255475E+02 -0.16517494108E+02  0.13274384646E+03  0.12509043081E+03 0.  0.
          5    1    3    3  502    0  0.69095385814E+00  0.14070632184E+02  0.47105699683E+02  0.49344497666E+02  0.41800000000E+01 0. -1.
         -5    1    3    3    0  502  0.19076460963E+02 -0.50260887659E+02 -0.63623193791E+02  0.83399348794E+02  0.41800000000E+01 0. -1.
        -11    1    1    2    0    0 -0.16677801352E+02  0.64911690884E+02 -0.39953255963E+02  0.78025248051E+02  0.00000000000E+00 0.  1.
         11    1    1    2    0    0 -0.30896134683E+01 -0.28721435409E+02  0.80441699681E+01  0.29986250746E+02  0.00000000000E+00 0. -1.
</event>
<event>
 7    1  0.4394360E-006  0.1095208E+03  0.7561462E-02  0.1261460E+00
          1   -1    0    0  501    0  0.00000000000E+00  0.00000000000E+00  0.83341038376E+02  0.83341038376E+02  0.00000000000E+00 0. -1.
         -1   -1    0    0    0  501 -0.00000000000E+00 -0.00000000000E+00 -0.20946256295E+03  0.20946256295E+03  0.00000000000E+00 0.  1.
         23    2    1    2    0    0  0.51123023545E+02 -0.29378579906E+02 -0.12391549407E+03  0.18568697430E+03  0.12509171938E+03 0.  0.
          5    1    3    3  502    0  0.36389463091E+02  0.33003118069E+02 -0.10916262288E+03  0.11978042186E+03  0.41800000000E+01 0.  1.
         -5    1    3    3    0  502  0.14733560453E+02 -0.62381697976E+02 -0.14752871193E+02  0.65906552439E+02  0.41800000000E+01 0.  1.
        -11    1    1    2    0    0 -0.82308699100E+01  0.54952814579E+02  0.80229461138E+01  0.56142022710E+02  0.00000000000E+00 0.  1.
         11    1    1    2    0    0 -0.42892153635E+02 -0.25574234673E+02 -0.10228976609E+02  0.50974604314E+02  0.00000000000E+00 0. -1.
</event>
<event>
 7    1  0.4394360E-006  0.1152508E+03  0.7561462E-02  0.1251144E+00
         -2   -1    0    0    0  501 -0.00000000000E+00  0.00000000000E+00  0.34641691122E+02  0.34641691122E+02  0.00000000000E+00 0.  1.
          2   -1    0    0  501    0  0.00000000000E+00 -0.00000000000E+00 -0.54985822288E+03  0.54985822288E+03  0.00000000000E+00 0. -1.
         23    2    1    2    0    0 -0.30220434050E+02  0.46558017786E+02 -0.14097547290E+03  0.19647514987E+03  0.12508987530E+03 0.  0.
          5    1    3    3  502    0 -0.61823412238E+01 -0.43145191377E+02 -0.41609569982E+02  0.60403291269E+02  0.41800000000E+01 0.  1.
         -5    1    3    3    0  502 -0.24038092827E+02  0.89703209163E+02 -0.99365902916E+02  0.13607185860E+03  0.41800000000E+01 0.  1.
        -11    1    1    2    0    0  0.35027653259E+02 -0.65464015876E+02 -0.34482889831E+03  0.35273140345E+03  0.00000000000E+00 0.  1.
         11    1    1    2    0    0 -0.48072192087E+01  0.18905998091E+02 -0.29412160551E+02  0.35293360687E+02  0.00000000000E+00 0. -1.
</event>
<event>
 7    1  0.4394360E-006  0.1121684E+03  0.7561462E-02  0.1256606E+00
          2   -1    0    0  501    0  0.00000000000E+00  0.00000000000E+00  0.15470026349E+03  0.15470026349E+03  0.00000000000E+00 0. -1.
         -2   -1    0    0    0  501 -0.00000000000E+00 -0.00000000000E+00 -0.98846038178E+02  0.98846038178E+02  0.00000000000E+00 0.  1.
         23    2    1    2    0    0  0.45998575530E+01  0.30890474776E+02 -0.19251992446E+02  0.13035842626E+03  0.12508916805E+03 0.  0.
          5    1    3    3  502    0  0.63452215370E+02  0.28154973555E+02 -0.58248347279E+01  0.69787443504E+02  0.41800000000E+01 0.  1.
         -5    1    3    3    0  502 -0.58852357817E+02  0.27355012203E+01 -0.13427157718E+02  0.60570982755E+02  0.41800000000E+01 0.  1.
        -11    1    1    2    0    0  0.16277214438E+00  0.32329465354E+02  0.14331048275E+02  0.35363820064E+02  0.00000000000E+00 0.  1.
         11    1    1    2    0    0 -0.47626296974E+01 -0.63219940130E+02  0.60775169482E+02  0.87824055345E+02  0.00000000000E+00 0. -1.
</event>
<event>
 7    1  0.4394360E-006  0.1009985E+03  0.7561462E-02  0.1278210E+00
          1   -1    0    0  501    0  0.00000000000E+00  0.00000000000E+00  0.36157894779E+03  0.36157894779E+03  0.00000000000E+00 0. -1.
         -1   -1    0    0    0  501 -0.00000000000E+00 -0.00000000000E+00 -0.48047133656E+02  0.48047133656E+02  0.00000000000E+00 0.  1.
         23    2    1    2    0    0  0.29588138868E+02 -0.60732175958E+02  0.12703353432E+03  0.19065437473E+03  0.12509083340E+03 0.  0.
          5    1    3    3  502    0  0.54877223862E+02 -0.36691140423E+02  0.81023814176E+01  0.66639856460E+02  0.41800000000E+01 0. -1.
         -5    1    3    3    0  502 -0.25289084994E+02 -0.24041035535E+02  0.11893115291E+03  0.12401451827E+03  0.41800000000E+01 0. -1.
        -11    1    1    2    0    0 -0.32302908957E+02  0.77374532535E+02  0.98418212365E+02  0.12929207531E+03  0.00000000000E+00 0.  1.
         11    1    1    2    0    0  0.27147700883E+01 -0.16642356577E+02  0.88080067447E+02  0.89679631414E+02  0.00000000000E+00 0. -1.
</event>
<event>
 7    1  0.4394360E-006  0.1359668E+03  0.7561462E-02  0.1218861E+00
          1   -1    0    0  501    0  0.00000000000E+00  0.00000000000E+00  0.93941724645E+03  0.93941724645E+03  0.00000000000E+00 0. -1.
         -1   -1    0    0    0  501 -0.00000000000E+00 -0.00000000000E+00 -0.37110762771E+02  0.37110762771E+02  0.00000000000E+00 0.  1.
         23    2    1    2    0    0 -0.15878432249E+02 -0.12154150156E+03  0.26126803459E+03  0.31453480071E+03  0.12508674489E+03 0.  0.
          5    1    3    3  502    0 -0.40106161096E+02 -0.10375742415E+03  0.97499203311E+02  0.14797862775E+03  0.41800000000E+01 0. -1.
         -5    1    3    3    0  502  0.24227728847E+02 -0.17784077417E+02  0.16376883128E+03  0.16655617296E+03  0.41800000000E+01 0. -1.
        -11    1    1    2    0    0  0.29211754785E+02  0.10520701067E+03  0.62751568478E+03  0.63694409202E+03  0.00000000000E+00 0. -1.
         11    1    1    2    0    0 -0.13333322536E+02  0.16334490889E+02  0.13522764313E+02  0.25049116494E+02  0.00000000000E+00 0.  1.
</event>
<event>
 7    1  0.4394360E-006  0.8552235E+02  0.7561462E-02  0.1314072E+00
         -2   -1    0    0    0  501 -0.00000000000E+00  0.00000000000E+00  0.15223484147E+03  0.15223484147E+03  0.00000000000E+00 0.  1.
          2   -1    0    0  501    0  0.00000000000E+00 -0.00000000000E+00 -0.11500037407E+03  0.11500037407E+03  0.00000000000E+00 0. -1.
         23    2    1    2    0    0 -0.62739938711E+02  0.89722551664E+00  0.63223314445E+02  0.15355806239E+03  0.12508311681E+03 0.  0.
          5    1    3    3  502    0 -0.69092471434E+02 -0.30612442870E+02 -0.72053699252E+01  0.76028159409E+02  0.41800000000E+01 0.  1.
         -5    1    3    3    0  502  0.63525327232E+01  0.31509668386E+02  0.70428684370E+02  0.77529902979E+02  0.41800000000E+01 0.  1.
        -11    1    1    2    0    0  0.33199736850E+02 -0.29656662501E+01  0.33480060624E+02  0.47243329292E+02  0.00000000000E+00 0.  1.
         11    1    1    2    0    0  0.29540201861E+02  0.20684407335E+01 -0.59468907673E+02  0.66433823862E+02  0.00000000000E+00 0. -1.
</event>
<event>
 7    1  0.4394360E-006  0.1497485E+03  0.7561462E-02  0.1200782E+00
         -2   -1    0    0    0  501 -0.00000000000E+00  0.00000000000E+00  0.16364753131E+02  0.16364753131E+02  0.00000000000E+00 0.  1.
          2   -1    0    0  501    0  0.00000000000E+00 -0.00000000000E+00 -0.14790203875E+04  0.14790203875E+04  0.00000000000E+00 0. -1.
         23    2    1    2    0    0 -0.41253364614E+01 -0.10918178200E+03 -0.88768980583E+03  0.90309376249E+03  0.12508985790E+03 0.  0.
          5    1    3    3  502    0  0.51380779602E+02 -0.95090259685E+02 -0.61250533029E+03  0.62198263162E+03  0.41800000000E+01 0. -1.
         -5    1    3    3    0  502 -0.55506116064E+02 -0.14091522315E+02 -0.27518447554E+03  0.28111113087E+03  0.41800000000E+01 0. -1.
        -11    1    1    2    0    0  0.40830429421E+02  0.57959081931E+02 -0.20296944933E+03  0.21499529415E+03  0.00000000000E+00 0.  1.
         11    1    1    2    0    0 -0.36705092960E+02  0.51222700069E+02 -0.37199637917E+03  0.37729608395E+03  0.00000000000E+00 0. -1.
</event>
<event>
 7    1  0.4829267E-006  0.2429329E+03  0.7561462E-02  0.1117854E+00
          2   -1    0    0  501    0  0.00000000000E+00  0.00000000000E+00  0.10339403595E+03  0.10339403595E+03  0.00000000000E+00 0. -1.
         -2   -1    0    0    0  501 -0.00000000000E+00 -0.00000000000E+00 -0.60936621122E+03  0.60936621122E+03  0.00000000000E+00 0.  1.
         23    2    1    2    0    0  0.22009173202E+03 -0.17691353828E+02 -0.32803957971E+03  0.41474190012E+03  0.12509006095E+03 0.  0.
          5    1    3    3  502    0  0.80504630745E+02 -0.65159810259E+02 -0.16526167285E+03  0.19507867479E+03  0.41800000000E+01 0.  1.
         -5    1    3    3    0  502  0.13958710127E+03  0.47468456431E+02 -0.16277790686E+03  0.21966322532E+03  0.41800000000E+01 0.  1.
        -11    1    1    2    0    0 -0.14271938941E+03  0.49498729821E+02 -0.86424871346E+02  0.17403507335E+03  0.00000000000E+00 0.  1.
         11    1    1    2    0    0 -0.77372342605E+02 -0.31807375992E+02 -0.91507724217E+02  0.12398327371E+03  0.00000000000E+00 0. -1.
</event>
<event>
 7    1  0.4394360E-006  0.1202937E+03  0.7561462E-02  0.1242613E+00
         -2   -1    0    0    0  501 -0.00000000000E+00  0.00000000000E+00  0.15772922967E+03  0.15772922967E+03  0.00000000000E+00 0.  1.
          2   -1    0    0  501    0  0.00000000000E+00 -0.00000000000E+00 -0.12125078291E+03  0.12125078291E+03  0.00000000000E+00 0. -1.
         23    2    1    2    0    0 -0.64362696405E+02  0.52593565783E+02  0.31544848069E+02  0.15346394656E+03  0.12508983013E+03 0.  0.
          5    1    3    3  502    0 -0.40892422193E+02  0.76418245577E+02  0.63103553122E+02  0.10729151535E+03  0.41800000000E+01 0. -1.
         -5    1    3    3    0  502 -0.23470274212E+02 -0.23824679794E+02 -0.31558705053E+02  0.46172431206E+02  0.41800000000E+01 0. -1.
        -11    1    1    2    0    0  0.81996516921E+02 -0.59356094511E+02 -0.96080314621E+01  0.10168032755E+03  0.00000000000E+00 0. -1.
         11    1    1    2    0    0 -0.17633820516E+02  0.67625287273E+01  0.14541630156E+02  0.23835738470E+02  0.00000000000E+00 0.  1.
</event>
<event>
 7    1  0.4394360E-006  0.1145192E+03  0.7561462E-02  0.1252423E+00
          1   -1    0    0  501    0  0.00000000000E+00  0.00000000000E+00  0.16630323972E+03  0.16630323972E+03  0.00000000000E+00 0. -1.
         -1   -1    0    0    0  501 -0.00000000000E+00 -0.00000000000E+00 -0.85963717713E+02  0.85963717713E+02  0.00000000000E+00 0.  1.
         23    2    1    2    0    0  0.29422607468E+02  0.37105252013E+02  0.51332130735E+02  0.14326804010E+03  0.12509298186E+03 0.  0.
          5    1    3    3  502    0  0.64160798531E+01 -0.45551393530E+02  0.28901395570E+02  0.54487233359E+02  0.41800000000E+01 0.  1.
         -5    1    3    3    0  502  0.23006527615E+02  0.82656645542E+02  0.22430735165E+02  0.88780806739E+02  0.41800000000E+01 0.  1.
        -11    1    1    2    0    0 -0.49585006749E+02  0.54241198917E+01 -0.61396662764E+01  0.50257233041E+02  0.00000000000E+00 0.  1.
         11    1    1    2    0    0  0.20162399281E+02 -0.42529371904E+02  0.35147057548E+02  0.58741684293E+02  0.00000000000E+00 0. -1.
</event>
<event>
 7    1  0.4394360E-006  0.9569652E+02  0.7561462E-02  0.1289615E+00
          1   -1    0    0  501    0  0.00000000000E+00  0.00000000000E+00  0.87235867293E+03  0.87235867293E+03  0.00000000000E+00 0. -1.
         -1   -1    0    0    0  501 -0.00000000000E+00 -0.00000000000E+00 -0.14761038916E+02  0.14761038916E+02  0.00000000000E+00 0.  1.
         23    2    1    2    0    0 -0.59213332222E+01 -0.26012495171E+02  0.41087901498E+03  0.43032579956E+03  0.12508803587E+03 0.  0.
          5    1    3    3  502    0 -0.37749359834E+02  0.17995901687E+02  0.49814208436E+02  0.65175105734E+02  0.41800000000E+01 0. -1.
         -5    1    3    3    0  502  0.31828026611E+02 -0.44008396858E+02  0.36106480655E+03  0.36515069382E+03  0.41800000000E+01 0. -1.
        -11    1    1    2    0    0  0.14430464079E+01  0.60298438059E+02  0.26041044246E+03  0.26730428833E+03  0.00000000000E+00 0.  1.
         11    1    1    2    0    0  0.44782868143E+01 -0.34285942888E+02  0.18630817657E+03  0.18948962396E+03  0.00000000000E+00 0. -1.
</event>
<event>
 7    1  0.4394360E-006  0.1146687E+03  0.7561462E-02  0.1252161E+00
          3   -1    0    0  501    0  0.00000000000E+00  0.00000000000E+00  0.91574543546E+02  0.91574543546E+02  0.00000000000E+00 0. -1.
         -3   -1    0    0    0  501 -0.00000000000E+00 -0.00000000000E+00 -0.18940270940E+03  0.18940270940E+03  0.00000000000E+00 0.  1.
         23    2    1    2    0    0 -0.54493206792E+02  0.47758325977E+02 -0.36341946786E+02  0.14905445927E+03  0.12508448124E+03 0.  0.
          5    1    3    3  502    0 -0.22019051585E+01 -0.40301220604E+02 -0.85948876760E+00  0.40586301746E+02  0.41800000000E+01 0. -1.
         -5    1    3    3    0  502 -0.52291301633E+02  0.88059546581E+02 -0.35482458019E+02  0.10846815753E+03  0.41800000000E+01 0. -1.
        -11    1    1    2    0    0  0.54054797277E+02 -0.18699835746E+02 -0.79345064397E+02  0.97812290688E+02  0.00000000000E+00 0.  1.
         11    1    1    2    0    0  0.43840951427E+00 -0.29058490231E+02  0.17858845328E+02  0.34110502985E+02  0.00000000000E+00 0. -1.
</event>
<event>
 7    1  0.4394360E-006  0.7861888E+02  0.7561462E-02  0.1333017E+00
          1   -1    0    0  501    0  0.00000000000E+00  0.00000000000E+00  0.15534276372E+03  0.15534276372E+03  0.00000000000E+00 0. -1.
         -1   -1    0    0    0  501 -0.00000000000E+00 -0.00000000000E+00 -0.78368755449E+02  0.78368755449E+02  0.00000000000E+00 0.  1.
         23    2    1    2    0    0  0.24229312178E+01  0.23807710300E+02  0.34274621959E+02  0.13189563475E+03  0.12509608743E+03 0.  0.
          5    1    3    3  502    0 -0.33666806270E+02 -0.40487842304E+02  0.75525177041E+01  0.53359461603E+02  0.41800000000E+01 0. -1.
         -5    1    3    3    0  502  0.36089737488E+02  0.64295552604E+02  0.26722104255E+02  0.78536173146E+02  0.41800000000E+01 0. -1.
        -11    1    1    2    0    0 -0.10607361369E+02 -0.10388629266E+02 -0.26758582440E+02  0.30601657920E+02  0.00000000000E+00 0.  1.
         11    1    1    2    0    0  0.81844301511E+01 -0.13419081034E+02  0.69457968756E+02  0.71214226503E+02  0.00000000000E+00 0. -1.
</event>
<event>
 7    1  0.4394360E-006  0.9970153E+02  0.7561462E-02  0.1280925E+00
          1   -1    0    0  501    0  0.00000000000E+00  0.00000000000E+00  0.64646591144E+03  0.64646591144E+03  0.00000000000E+00 0. -1.
         -1   -1    0    0    0  501 -0.00000000000E+00 -0.00000000000E+00 -0.23760994988E+02  0.23760994988E+02  0.00000000000E+00 0.  1.
         23    2    1    2    0    0  0.43184283989E+02 -0.40153921035E+02  0.34153728949E+03  0.36847615067E+03  0.12509889585E+03 0.  0.
          5    1    3    3  502    0  0.64796105187E+02  0.10171925677E+02  0.92613247003E+02  0.11356359117E+03  0.41800000000E+01 0. -1.
         -5    1    3    3    0  502 -0.21611821198E+02 -0.50325846713E+02  0.24892404249E+03  0.25491255950E+03  0.41800000000E+01 0. -1.
        -11    1    1    2    0    0  0.10320235313E+02 -0.21512070731E+01 -0.17857387508E+01  0.10692231370E+02  0.00000000000E+00 0.  1.
         11    1    1    2    0    0 -0.53504519302E+02  0.42305128108E+02  0.28295336571E+03  0.29105852439E+03  0.00000000000E+00 0. -1.
</event>
<event>
 7    1  0.4394360E-006  0.1180962E+03  0.7561462E-02  0.1246271E+00
         -2   -1    0    0    0  501 -0.00000000000E+00  0.00000000000E+00  0.98342231903E+02  0.98342231903E+02  0.00000000000E+00 0. -1.
          2   -1    0    0  501    0  0.00000000000E+00 -0.00000000000E+00 -0.18282849898E+03  0.18282849898E+03  0.00000000000E+00 0.  1.
         23    2    1    2    0    0  0.37848179208E+02  0.55022128247E+02 -0.19568230157E+01  0.14181528199E+03  0.12509126981E+03 0.  0.
          5    1    3    3  502    0 -0.17624619290E+02 -0.32962801240E+02  0.17558198829E+01  0.37652739265E+02  0.41800000000E+01 0. -1.
         -5    1    3    3    0  502  0.55472798498E+02  0.87984929487E+02 -0.37126428986E+01  0.10416254273E+03  0.41800000000E+01 0. -1.
        -11    1    1    2    0    0 -0.10452006099E+02 -0.64616726110E+02 -0.88143363976E+02  0.10978988267E+03  0.00000000000E+00 0.  1.
         11    1    1    2    0    0 -0.27396173109E+02  0.95945978625E+01  0.56139199109E+01  0.29565566220E+02  0.00000000000E+00 0. -1.
</event>
<event>
 7    1  0.4394360E-006  0.1282260E+03  0.7561462E-02  0.1230112E+00
         -1   -1    0    0    0  501 -0.00000000000E+00  0.00000000000E+00  0.42201269069E+02  0.42201269069E+02  0.00000000000E+00 0.  1.
          1   -1    0    0  501    0  0.00000000000E+00 -0.00000000000E+00 -0.60705226053E+03  0.60705226053E+03  0.00000000000E+00 0. -1.
         23    2    1    2    0    0  0.74193404122E+02 -0.42535823338E+02 -0.13256937431E+03  0.20133111746E+03  0.12508246227E+03 0.  0.
          5    1    3    3  502    0 -0.23350497486E+02  0.20543821177E+02 -0.48931962519E+02  0.58130058295E+02  0.41800000000E+01 0. -1.
         -5    1    3    3    0  502  0.97543901608E+02 -0.63079644514E+02 -0.83637411796E+02  0.14320105916E+03  0.41800000000E+01 0. -1.
        -11    1    1    2    0    0 -0.26756538061E+02 -0.17759477769E+02 -0.62517797248E+02  0.70283613683E+02  0.00000000000E+00 0.  1.
         11    1    1    2    0    0 -0.47436866061E+02  0.60295301107E+02 -0.36976381990E+03  0.37763879846E+03  0.00000000000E+00 0. -1.
</event>
<event>
 7    1  0.4394360E-006  0.1112227E+03  0.7561462E-02  0.1258322E+00
          3   -1    0    0  501    0  0.00000000000E+00  0.00000000000E+00  0.28366128109E+02  0.28366128109E+02  0.00000000000E+00 0. -1.
         -3   -1    0    0    0  501 -0.00000000000E+00 -0.00000000000E+00 -0.59934847312E+03  0.59934847312E+03  0.00000000000E+00 0.  1.
         23    2    1    2    0    0  0.53436958457E+02  0.83546068441E+01 -0.43084223133E+03  0.45188293866E+03  0.12509138245E+03 0.  0.
          5    1    3    3  502    0  0.84897708300E+02 -0.22314104319E+02 -0.33554102087E+03  0.34685845703E+03  0.41800000000E+01 0. -1.
         -5    1    3    3    0  502 -0.31460749843E+02  0.30668711163E+02 -0.95301210465E+02  0.10502448163E+03  0.41800000000E+01 0. -1.
        -11    1    1    2    0    0 -0.40840430469E+02  0.29600828007E+02 -0.30072063223E+02  0.58723749592E+02  0.00000000000E+00 0. -1.
         11    1    1    2    0    0 -0.12596527988E+02 -0.37955434851E+02 -0.11006805045E+03  0.11710791298E+03  0.00000000000E+00 0.  1.
</event>
<event>
 7    1  0.4394360E-006  0.1903958E+03  0.7561462E-02  0.1158105E+00
         -2   -1    0    0    0  501 -0.00000000000E+00  0.00000000000E+00  0.28126417736E+03  0.28126417736E+03  0.00000000000E+00 0.  1.
          2   -1    0    0  501    0  0.00000000000E+00 -0.00000000000E+00 -0.26807410255E+03  0.26807410255E+03  0.00000000000E+00 0. -1.
         23    2    1    2    0    0  0.15186066280E+01 -0.18169531862E+03  0.18105442943E+03  0.28538730911E+03  0.12509882017E+03 0.  0.
          5    1    3    3  502    0 -0.34876307451E+02 -0.11744743525E+03  0.45104381726E+02  0.13062210579E+03  0.41800000000E+01 0.  1.
         -5    1    3    3    0  502  0.36394914079E+02 -0.64247883369E+02  0.13595004771E+03  0.15476520332E+03  0.41800000000E+01 0.  1.
        -11    1    1    2    0    0 -0.13222303892E+02  0.14772582406E+03 -0.78881505458E+02  0.16798821482E+03  0.00000000000E+00 0.  1.
         11    1    1    2    0    0  0.11703697265E+02  0.33969494565E+02 -0.88982849164E+02  0.95962755984E+02  0.00000000000E+00 0. -1.
</event>
<event>
 7    1  0.4394360E-006  0.1546375E+03  0.7561462E-02  0.1194888E+00
          1   -1    0    0  501    0  0.00000000000E+00  0.00000000000E+00  0.18243646184E+02  0.18243646184E+02  0.00000000000E+00 0. -1.
         -1   -1    0    0    0  501 -0.00000000000E+00 -0.00000000000E+00 -0.19743643486E+04  0.19743643486E+04  0.00000000000E+00 0.  1.
         23    2    1    2    0    0 -0.12300204605E+02 -0.14198019062E+03 -0.13470417369E+04  0.13603208840E+04  0.12506716941E+03 0.  0.
          5    1    3    3  502    0 -0.29952646586E+01  0.81540288193E+01 -0.71417534966E+01  0.11997368018E+02  0.41800000000E+01 0.  1.
         -5    1    3    3    0  502 -0.93049399468E+01 -0.15013421944E+03 -0.13398999834E+04  0.13483235160E+04  0.41800000000E+01 0.  1.
        -11    1    1    2    0    0 -0.11351177844E+02  0.10174831677E+02 -0.95573033918E+01  0.17992178474E+02  0.00000000000E+00 0. -1.
         11    1    1    2    0    0  0.23651382450E+02  0.13180535894E+03 -0.59952166208E+03  0.61429493230E+03  0.00000000000E+00 0.  1.
</event>
<event>
 7    1  0.4394360E-006  0.1254858E+03  0.7561462E-02  0.1234312E+00
         -2   -1    0    0    0  501 -0.00000000000E+00  0.00000000000E+00  0.40956656523E+03  0.40956656523E+03  0.00000000000E+00 0.  1.
          2   -1    0    0  501    0  0.00000000000E+00 -0.00000000000E+00 -0.39352150194E+02  0.39352150194E+02  0.00000000000E+00 0. -1.
         23    2    1    2    0    0 -0.62182506267E+02  0.29265061746E+01  0.22779567396E+03  0.26723300156E+03  0.12508948607E+03 0.  0.
          5    1    3    3  502    0 -0.95953044590E+02 -0.19828893523E+02  0.14788603143E+03  0.17744836566E+03  0.41800000000E+01 0. -1.
         -5    1    3    3    0  502  0.33770538322E+02  0.22755399697E+02  0.79909642536E+02  0.89784635903E+02  0.41800000000E+01 0. -1.
        -11    1    1    2    0    0  0.14396584537E+02  0.43208606162E+02  0.47217260586E+02  0.65602705661E+02  0.00000000000E+00 0.  1.
         11    1    1    2    0    0  0.47785921731E+02 -0.46135112337E+02  0.95201480492E+02  0.11608300820E+03  0.00000000000E+00 0. -1.
</event>
<event>
 7    1  0.4394360E-006  0.1400493E+03  0.7561462E-02  0.1213263E+00
          2   -1    0    0  501    0  0.00000000000E+00  0.00000000000E+00  0.92013731482E+03  0.92013731482E+03  0.00000000000E+00 0. -1.
         -2   -1    0    0    0  501 -0.00000000000E+00 -0.00000000000E+00 -0.34378030013E+02  0.34378030013E+02  0.00000000000E+00 0.  1.
         23    2    1    2    0    0  0.89658970815E+02 -0.59331890319E+02  0.22636174930E+03  0.28008158789E+03  0.12508816920E+03 0.  0.
          5    1    3    3  502    0  0.64015828035E+02  0.14988657751E+02  0.17260066934E+03  0.18474617603E+03  0.41800000000E+01 0. -1.
         -5    1    3    3    0  502  0.25643142780E+02 -0.74320548070E+02  0.53761079963E+02  0.95335411867E+02  0.41800000000E+01 0. -1.
        -11    1    1    2    0    0  0.15913566026E+01  0.42705311246E+02  0.12647424033E+03  0.13349909921E+03  0.00000000000E+00 0.  1.
         11    1    1    2    0    0 -0.91250327418E+02  0.16626579073E+02  0.53292329518E+03  0.54093465772E+03  0.00000000000E+00 0. -1.
</event>
<event>
 7    1  0.4394360E-006  0.1298369E+03  0.7561462E-02  0.1227698E+00
          2   -1    0    0  501    0  0.00000000000E+00  0.00000000000E+00  0.24253237275E+03  0.24253237275E+03  0.00000000000E+00 0. -1.
         -2   -1    0    0    0  501 -0.00000000000E+00 -0.00000000000E+00 -0.14780090260E+03  0.14780090260E+03  0.00000000000E+00 0.  1.
         23    2    1    2    0    0  0.23786386300E+02 -0.75907970203E+02 -0.86827490222E+02  0.17179752588E+03  0.12509022634E+03 0.  0.
          5    1    3    3  502    0  0.53708151672E+01 -0.10942738144E+03 -0.67384035326E+02  0.12869062935E+03  0.41800000000E+01 0. -1.
         -5    1    3    3    0  502  0.18415571133E+02  0.33519411240E+02 -0.19443454896E+02  0.43106896529E+02  0.41800000000E+01 0. -1.
        -11    1    1    2    0    0 -0.44180163867E+02  0.79407409988E+02  0.10326618612E+03  0.13755482121E+03  0.00000000000E+00 0.  1.
         11    1    1    2    0    0  0.20393777567E+02 -0.34994397851E+01  0.78292774248E+02  0.80980928259E+02  0.00000000000E+00 0. -1.
</event>
<event>
 7    1  0.4394360E-006  0.2670597E+03  0.7561462E-02  0.1102974E+00
          1   -1    0    0  501    0  0.00000000000E+00  0.00000000000E+00  0.32534196773E+02  0.32534196773E+02  0.00000000000E+00 0. -1.
         -1   -1    0    0    0  501 -0.00000000000E+00 -0.00000000000E+00 -0.27077901864E+04  0.27077901864E+04  0.00000000000E+00 0.  1.
         23    2    1    2    0    0  0.16751999404E+02  0.24872730931E+03 -0.19338359217E+04  0.19535502607E+04  0.12038000237E+03 0.  0.
          5    1    3    3  502    0  0.48769406364E+02  0.35111437845E+02 -0.37281730038E+03  0.37765259158E+03  0.41800000000E+01 0. -1.
         -5    1    3    3    0  502 -0.32017406960E+02  0.21361587146E+03 -0.15610186213E+04  0.15758976691E+04  0.41800000000E+01 0. -1.
        -11    1    1    2    0    0 -0.42343051351E+02 -0.15464892854E+03 -0.53456149303E+03  0.55809068701E+03  0.00000000000E+00 0.  1.
         11    1    1    2    0    0  0.25591051947E+02 -0.94078380774E+02 -0.20685857493E+03  0.22868343554E+03  0.00000000000E+00 0. -1.
</event>
<event>
 7    1  0.4394360E-006  0.1649417E+03  0.7561462E-02  0.1183228E+00
          1   -1    0    0  501    0  0.00000000000E+00  0.00000000000E+00  0.89096673794E+02  0.89096673794E+02  0.00000000000E+00 0. -1.
         -1   -1    0    0    0  501 -0.00000000000E+00 -0.00000000000E+00 -0.48956498228E+03  0.48956498228E+03  0.00000000000E+00 0.  1.
         23    2    1    2    0    0 -0.15200080559E+03 -0.28467378378E+02 -0.32927264654E+03  0.38468537757E+03  0.12509087665E+03 0.  0.
          5    1    3    3  502    0 -0.44938044896E+02  0.21691915757E+02 -0.21300546669E+03  0.21881217591E+03  0.41800000000E+01 0. -1.
         -5    1    3    3    0  502 -0.10706276070E+03 -0.50159294136E+02 -0.11626717985E+03  0.16587320165E+03  0.41800000000E+01 0. -1.
        -11    1    1    2    0    0  0.80074798402E+02 -0.86953438969E+01  0.77246343550E+01  0.80915093280E+02  0.00000000000E+00 0. -1.
         11    1    1    2    0    0  0.71926007189E+02  0.37162722275E+02 -0.78920296296E+02  0.11306118522E+03  0.00000000000E+00 0.  1.
</event>
<event>
 7    1  0.4394360E-006  0.8286698E+02  0.7561462E-02  0.1321107E+00
         -1   -1    0    0    0  501 -0.00000000000E+00  0.00000000000E+00  0.17742419160E+03  0.17742419160E+03  0.00000000000E+00 0.  1.
          1   -1    0    0  501    0  0.00000000000E+00 -0.00000000000E+00 -0.17317499173E+03  0.17317499173E+03  0.00000000000E+00 0. -1.
         23    2    1    2    0    0  0.53659019036E+02 -0.25986302753E+02  0.12628128093E+03  0.18747979227E+03  0.12508849804E+03 0.  0.
          5    1    3    3  502    0  0.73226418779E+02 -0.16784324553E+01  0.19156905737E+02  0.75824699011E+02  0.41800000000E+01 0. -1.
         -5    1    3    3    0  502 -0.19567399743E+02 -0.24307870298E+02  0.10712437519E+03  0.11165509326E+03  0.41800000000E+01 0. -1.
        -11    1    1    2    0    0 -0.15496955040E+02  0.14002276604E+02  0.11418324686E+02  0.23803308683E+02  0.00000000000E+00 0.  1.
         11    1    1    2    0    0 -0.38162063995E+02  0.11984026149E+02 -0.13345040575E+03  0.13931608237E+03  0.00000000000E+00 0. -1.
</event>
<event>
 7    1  0.4394360E-006  0.1643237E+03  0.7561462E-02  0.1183900E+00
          2   -1    0    0  501    0  0.00000000000E+00  0.00000000000E+00  0.30675989492E+03  0.30675989492E+03  0.00000000000E+00 0. -1.
         -2   -1    0    0    0  501 -0.00000000000E+00 -0.00000000000E+00 -0.13143489900E+03  0.13143489900E+03  0.00000000000E+00 0.  1.
         23    2    1    2    0    0  0.12503448954E+03 -0.37484743536E+02 -0.24956877702E+02  0.18250587754E+03  0.12508724963E+03 0.  0.
          5    1    3    3  502    0  0.10725114400E+03  0.20190993562E+02 -0.45921534406E+02  0.11847676495E+03  0.41800000000E+01 0. -1.
         -5    1    3    3    0  502  0.17783345535E+02 -0.57675737098E+02  0.20964656705E+02  0.64029112589E+02  0.41800000000E+01 0. -1.
        -11    1    1    2    0    0 -0.13468529547E+02 -0.26927127175E+02  0.36623966227E+02  0.47410825433E+02  0.00000000000E+00 0.  1.
         11    1    1    2    0    0 -0.11156595999E+03  0.64411870711E+02  0.16365790740E+03  0.20827809095E+03  0.00000000000E+00 0. -1.
</event>
<event>
 7    1  0.4394360E-006  0.1561425E+03  0.7561462E-02  0.1193122E+00
          2   -1    0    0  501    0  0.00000000000E+00  0.00000000000E+00  0.14401323855E+03  0.14401323855E+03  0.00000000000E+00 0. -1.
         -2   -1    0    0    0  501 -0.00000000000E+00 -0.00000000000E+00 -0.49001447603E+03  0.49001447603E+03  0.00000000000E+00 0.  1.
         23    2    1    2    0    0 -0.49722567724E+01 -0.12426412960E+03 -0.38222300056E+03  0.41859710894E+03  0.11688806701E+03 0.  0.
          5    1    3    3  502    0 -0.35073360609E+02 -0.67492209520E+02 -0.83560522125E+02  0.11307153589E+03  0.41800000000E+01 0. -1.
         -5    1    3    3    0  502  0.30101103837E+02 -0.56771920085E+02 -0.29866247843E+03  0.30552557305E+03  0.41800000000E+01 0.  1.
        -11    1    1    2    0    0  0.49466453064E+02  0.11922931061E+02 -0.46553077517E+02  0.68965754473E+02  0.00000000000E+00 0.  1.
         11    1    1    2    0    0 -0.44494196291E+02  0.11234119854E+03  0.82774840591E+02  0.14646485117E+03  0.00000000000E+00 0. -1.
</event>
<event>
 7    1  0.4394360E-006  0.1164606E+03  0.7561462E-02  0.1249053E+00
         -2   -1    0    0    0  501 -0.00000000000E+00  0.00000000000E+00  0.18914320152E+02  0.18914320152E+02  0.00000000000E+00 0. -1.
          2   -1    0    0  501    0  0.00000000000E+00 -0.00000000000E+00 -0.85235138303E+03  0.85235138303E+03  0.00000000000E+00 0.  1.
         23    2    1    2    0    0  0.28037483537E+02 -0.56592753425E+02 -0.45492144123E+03  0.47601270857E+03  0.12508293571E+03 0.  0.
          5    1    3    3  502    0 -0.17986044742E+02  0.33281762699E+02 -0.10054064436E+03  0.10750380041E+03  0.41800000000E+01 0. -1.
         -5    1    3    3    0  502  0.46023528279E+02 -0.89874516124E+02 -0.35438079688E+03  0.36850890817E+03  0.41800000000E+01 0. -1.
        -11    1    1    2    0    0 -0.50508076690E+02  0.29094170333E+02 -0.33011786041E+03  0.33522431045E+03  0.00000000000E+00 0.  1.
         11    1    1    2    0    0  0.22470593153E+02  0.27498583092E+02 -0.48397761234E+02  0.60028684153E+02  0.00000000000E+00 0. -1.
</event>
<event>
 7    1  0.4394360E-006  0.1449612E+03  0.7561462E-02  0.1206805E+00
         -2   -1    0    0    0  501 -0.00000000000E+00  0.00000000000E+00  0.17770486112E+02  0.17770486112E+02  0.00000000000E+00 0.  1.
          2   -1    0    0  501    0  0.00000000000E+00 -0.00000000000E+00 -0.13317803018E+04  0.13317803018E+04  0.00000000000E+00 0. -1.
         23    2    1    2    0    0 -0.83714547765E+02 -0.62815449108E+02 -0.79961660672E+03  0.81608122089E+03  0.12509170715E+03 0.  0.
          5    1    3    3  502    0 -0.10405852834E+02  0.30320935413E+02 -0.33537721526E+03  0.33693172871E+03  0.41800000000E+01 0.  1.
         -5    1    3    3    0  502 -0.73308694931E+02 -0.93136384521E+02 -0.46423939146E+03  0.47914949218E+03  0.41800000000E+01 0.  1.
        -11    1    1    2    0    0  0.83616341251E+01 -0.23187955791E+02 -0.59036693304E+02  0.63976006246E+02  0.00000000000E+00 0.  1.
         11    1    1    2    0    0  0.75352913640E+02  0.86003404899E+02 -0.45535651567E+03  0.46949356077E+03  0.00000000000E+00 0. -1.
</event>
<event>
 7    1  0.4394360E-006  0.1083619E+03  0.7561462E-02  0.1263634E+00
         -1   -1    0    0    0  501 -0.00000000000E+00  0.00000000000E+00  0.44378410126E+03  0.44378410126E+03  0.00000000000E+00 0.  1.
          1   -1    0    0  501    0  0.00000000000E+00 -0.00000000000E+00 -0.40999048913E+02  0.40999048913E+02  0.00000000000E+00 0. -1.
         23    2    1    2    0    0 -0.18888446826E+02 -0.71080407697E+02  0.27849941788E+03  0.31403069767E+03  0.12507659869E+03 0.  0.
          5    1    3    3  502    0  0.19014449556E+01  0.12881006046E+02  0.18900016023E+03  0.18949424470E+03  0.41800000000E+01 0.  1.
         -5    1    3    3    0  502 -0.20789891781E+02 -0.83961413743E+02  0.89499257647E+02  0.12453645297E+03  0.41800000000E+01 0.  1.
        -11    1    1    2    0    0 -0.19326624893E+02 -0.13542464446E+02  0.32757768232E+02  0.40373111752E+02  0.00000000000E+00 0. -1.
         11    1    1    2    0    0  0.38215071718E+02  0.84622872143E+02  0.91527866238E+02  0.13037934075E+03  0.00000000000E+00 0.  1.
</event>
<event>
 7    1  0.4394360E-006  0.7011324E+02  0.7561462E-02  0.1359708E+00
         -1   -1    0    0    0  501 -0.00000000000E+00  0.00000000000E+00  0.10925006420E+03  0.10925006420E+03  0.00000000000E+00 0.  1.
          1   -1    0    0  501    0  0.00000000000E+00 -0.00000000000E+00 -0.12905120387E+03  0.12905120387E+03  0.00000000000E+00 0. -1.
         23    2    1    2    0    0  0.29895409751E+02 -0.26246569111E+02 -0.20499100854E+02  0.13286015126E+03  0.12509591817E+03 0.  0.
          5    1    3    3  502    0  0.33174015112E+01 -0.57881076160E+02 -0.54125635652E+02  0.79424687377E+02  0.41800000000E+01 0.  1.
         -5    1    3    3    0  502  0.26578008240E+02  0.31634507049E+02  0.33626534798E+02  0.53435463887E+02  0.41800000000E+01 0.  1.
        -11    1    1    2    0    0 -0.11923839187E+02  0.15765953873E+02  0.49006647689E+02  0.52843114596E+02  0.00000000000E+00 0.  1.
         11    1    1    2    0    0 -0.17971570565E+02  0.10480615238E+02 -0.48308686507E+02  0.52598002209E+02  0.00000000000E+00 0. -1.
</event>
<event>
 7    1  0.4394360E-006  0.1126096E+03  0.7561462E-02  0.1255812E+00
         -3   -1    0    0    0  501 -0.00000000000E+00  0.00000000000E+00  0.67275559571E+02  0.67275559571E+02  0.00000000000E+00 0.  1.
          3   -1    0    0  501    0  0.00000000000E+00 -0.00000000000E+00 -0.26051694184E+03  0.26051694184E+03  0.00000000000E+00 0. -1.
         23    2    1    2    0    0 -0.46859938954E+02  0.57523874751E+02 -0.49917221430E+02  0.14255577128E+03  0.11102057866E+03 0.  0.
          5    1    3    3  502    0 -0.23793124354E+02  0.82030964251E+02 -0.41791664702E+01  0.85616176596E+02  0.41800000000E+01 0. -1.
         -5    1    3    3    0  502 -0.23066814600E+02 -0.24507089500E+02 -0.45738054960E+02  0.56939594687E+02  0.41800000000E+01 0.  1.
        -11    1    1    2    0    0 -0.11557241616E+02 -0.44451455017E+02 -0.24193608258E+02  0.51911774844E+02  0.00000000000E+00 0.  1.
         11    1    1    2    0    0  0.58417180569E+02 -0.13072419734E+02 -0.11913055258E+03  0.13332495529E+03  0.00000000000E+00 0. -1.
</event>
<event>
 7    1  0.4394360E-006  0.1381417E+03  0.7561462E-02  0.1215852E+00
          2   -1    0    0  501    0  0.00000000000E+00  0.00000000000E+00  0.10608562251E+03  0.10608562251E+03  0.00000000000E+00 0.  1.
         -2   -1    0    0    0  501 -0.00000000000E+00 -0.00000000000E+00 -0.20436839012E+03  0.20436839012E+03  0.00000000000E+00 0. -1.
         23    2    1    2    0    0 -0.95779616270E+02  0.22514270768E+02 -0.67955879910E+02  0.17304866701E+03  0.12508881748E+03 0.  0.
          5    1    3    3  502    0 -0.10274855105E+03  0.54838467290E+02 -0.75519573757E+02  0.13887116568E+03  0.41800000000E+01 0. -1.
         -5    1    3    3    0  502  0.69689347764E+01 -0.32324196522E+02  0.75636938479E+01  0.34177501333E+02  0.41800000000E+01 0. -1.
        -11    1    1    2    0    0  0.75637449718E+02 -0.51216889949E+02 -0.46460581769E+00  0.91347739296E+02  0.00000000000E+00 0.  1.
         11    1    1    2    0    0  0.20142166552E+02  0.28702619181E+02 -0.29862281876E+02  0.46057606321E+02  0.00000000000E+00 0. -1.
</event>
<event>
 7    1  0.4394360E-006  0.1155484E+03  0.7561462E-02  0.1250627E+00
          2   -1    0    0  501    0  0.00000000000E+00  0.00000000000E+00  0.38395623685E+03  0.38395623685E+03  0.00000000000E+00 0.  1.
         -2   -1    0    0    0  501 -0.00000000000E+00 -0.00000000000E+00 -0.70085558573E+02  0.70085558573E+02  0.00000000000E+00 0. -1.
         23    2    1    2    0    0  0.57511266025E+02  0.87911734610E+02  0.92521644749E+02  0.18773675328E+03  0.12509522366E+03 0.  0.
          5    1    3    3  502    0  0.51591871943E+02  0.98799875316E+02  0.19102160428E+02  0.11316139601E+03  0.41800000000E+01 0.  1.
         -5    1    3    3    0  502  0.59193940825E+01 -0.10888140706E+02  0.73419484321E+02  0.74575357272E+02  0.41800000000E+01 0.  1.
        -11    1    1    2    0    0 -0.23708943627E+02 -0.21705966616E+02  0.17668070135E+03  0.17958099349E+03  0.00000000000E+00 0.  1.
         11    1    1    2    0    0 -0.33802322399E+02 -0.66205767994E+02  0.44668332181E+02  0.86724048655E+02  0.00000000000E+00 0. -1.
</event>
<event>
 7    1  0.4394360E-006  0.1705516E+03  0.7561462E-02  0.1177274E+00
          4   -1    0    0  501    0  0.00000000000E+00  0.00000000000E+00  0.22349766573E+03  0.22349766573E+03  0.00000000000E+00 0. -1.
         -4   -1    0    0    0  501 -0.00000000000E+00 -0.00000000000E+00 -0.18193969984E+03  0.18193969984E+03  0.00000000000E+00 0.  1.
         23    2    1    2    0    0 -0.74729952912E+02  0.14173400148E+03 -0.34709658400E+02  0.20621548016E+03  0.12508785247E+03 0.  0.
          5    1    3    3  502    0 -0.36469889169E+02  0.70169054732E+02 -0.80517783869E+02  0.11293509188E+03  0.41800000000E+01 0. -1.
         -5    1    3    3    0  502 -0.38260063742E+02  0.71564946745E+02  0.45808125469E+02  0.93280388288E+02  0.41800000000E+01 0. -1.
        -11    1    1    2    0    0 -0.12617834175E+02  0.16848951962E+01  0.16801057763E+02  0.21078997914E+02  0.00000000000E+00 0.  1.
         11    1    1    2    0    0  0.87347787087E+02 -0.14341889667E+03  0.59466566525E+02  0.17814288750E+03  0.00000000000E+00 0. -1.
</event>
<event>
 7    1  0.4394360E-006  0.1244583E+03  0.7561462E-02  0.1235918E+00
         -2   -1    0    0    0  501 -0.00000000000E+00  0.00000000000E+00  0.14945678198E+03  0.14945678198E+03  0.00000000000E+00 0.  1.
          2   -1    0    0  501    0  0.00000000000E+00 -0.00000000000E+00 -0.14586835771E+03  0.14586835771E+03  0.00000000000E+00 0. -1.
         23    2    1    2    0    0  0.12626301549E+01  0.99050689813E+02  0.14541530330E+02  0.16022550159E+03  0.12509245328E+03 0.  0.
          5    1    3    3  502    0 -0.32597404034E+02  0.68997501645E+02  0.59065745616E+02  0.96589236917E+02  0.41800000000E+01 0.  1.
         -5    1    3    3    0  502  0.33860034189E+02  0.30053188168E+02 -0.44524215287E+02  0.63636264671E+02  0.41800000000E+01 0.  1.
        -11    1    1    2    0    0 -0.35759447974E+02 -0.79976550110E+02  0.13604287190E+02  0.88656998127E+02  0.00000000000E+00 0.  1.
         11    1    1    2    0    0  0.34496817820E+02 -0.19074139703E+02 -0.24557393243E+02  0.46442639976E+02  0.00000000000E+00 0. -1.
</event>
<event>
 7    1  0.4394360E-006  0.9687636E+02  0.7561462E-02  0.1287005E+00
         -1   -1    0    0    0  501 -0.00000000000E+00  0.00000000000E+00  0.12270326570E+03  0.12270326570E+03  0.00000000000E+00 0.  1.
          1   -1    0    0  501    0  0.00000000000E+00 -0.00000000000E+00 -0.12630681933E+03  0.12630681933E+03  0.00000000000E+00 0. -1.
         23    2    1    2    0    0 -0.28995865518E+02  0.12816112210E+02  0.61482033090E+02  0.13162861825E+03  0.11198678405E+03 0.  0.
          5    1    3    3  502    0 -0.42917510119E+02  0.55307943685E+02  0.47073447950E+02  0.84464567787E+02  0.41800000000E+01 0. -1.
         -5    1    3    3    0  502  0.13921644601E+02 -0.42491831476E+02  0.14408585140E+02  0.47164050465E+02  0.41800000000E+01 0.  1.
        -11    1    1    2    0    0 -0.18829836074E+02  0.14382026144E+02  0.87877878421E+01  0.25271141995E+02  0.00000000000E+00 0. -1.
         11    1    1    2    0    0  0.47825701592E+02 -0.27198138354E+02 -0.73873374567E+02  0.92110324788E+02  0.00000000000E+00 0.  1.
</event>
<event>
 7    1  0.4394360E-006  0.1084748E+03  0.7561462E-02  0.1263421E+00
          1   -1    0    0  501    0  0.00000000000E+00  0.00000000000E+00  0.30352044035E+03  0.30352044035E+03  0.00000000000E+00 0. -1.
         -1   -1    0    0    0  501 -0.00000000000E+00 -0.00000000000E+00 -0.65978231816E+02  0.65978231816E+02  0.00000000000E+00 0.  1.
         23    2    1    2    0    0 -0.50629659855E+02 -0.28013469273E+02  0.37719046006E+02  0.14288879548E+03  0.12508542891E+03 0.  0.
          5    1    3    3  502    0 -0.35495537424E+02  0.36481439551E+02 -0.20075574168E+02  0.54875583705E+02  0.41800000000E+01 0.  1.
         -5    1    3    3    0  502 -0.15134122432E+02 -0.64494908824E+02  0.57794620174E+02  0.88013211775E+02  0.41800000000E+01 0.  1.
        -11    1    1    2    0    0  0.61954616956E+02  0.46744745417E+02  0.11310655497E+03  0.13717338869E+03  0.00000000000E+00 0.  1.
         11    1    1    2    0    0 -0.11324957101E+02 -0.18731276144E+02  0.86716607556E+02  0.89436487997E+02  0.00000000000E+00 0. -1.
</event>
<event>
 7    1  0.4394360E-006  0.8823877E+02  0.7561462E-02  0.1307174E+00
          2   -1    0    0  501    0  0.00000000000E+00  0.00000000000E+00  0.67347103828E+02  0.67347103828E+02  0.00000000000E+00 0. -1.
         -2   -1    0    0    0  501 -0.00000000000E+00 -0.00000000000E+00 -0.20252068003E+03  0.20252068003E+03  0.00000000000E+00 0.  1.
         23    2    1    2    0    0 -0.42509939109E+02 -0.10310288538E+02 -0.73571588364E+02  0.15170765374E+03  0.12525588456E+03 0.  0.
          5    1    3    3  502    0 -0.66333351339E+02 -0.52012785514E+02 -0.49143844034E+02  0.97662854572E+02  0.41800000000E+01 0.  1.
         -5    1    3    3    0  502  0.23823412230E+02  0.41702496975E+02 -0.24427744330E+02  0.54044799170E+02  0.41800000000E+01 0.  1.
        -11    1    1    2    0    0  0.27528839513E+02  0.83176113790E+01  0.20091053748E+02  0.35080907980E+02  0.00000000000E+00 0. -1.
         11    1    1    2    0    0  0.14981099596E+02  0.19926771594E+01 -0.81693041591E+02  0.83079222142E+02  0.00000000000E+00 0.  1.
</event>
<event>
 7    1  0.4394360E-006  0.1047776E+03  0.7561462E-02  0.1270559E+00
          1   -1    0    0  501    0  0.00000000000E+00  0.00000000000E+00  0.50187542266E+03  0.50187542266E+03  0.00000000000E+00 0. -1.
         -1   -1    0    0    0  501 -0.00000000000E+00 -0.00000000000E+00 -0.32654490779E+02  0.32654490779E+02  0.00000000000E+00 0.  1.
         23    2    1    2    0    0 -0.69132050096E+02 -0.14845224747E+02  0.22190808430E+03  0.26172050827E+03  0.11939349028E+03 0.  0.
          5    1    3    3  502    0 -0.98887396203E+02  0.10390015870E+02  0.15980771831E+03  0.18826218098E+03  0.41800000000E+01 0. -1.
         -5    1    3    3    0  502  0.29755346107E+02 -0.25235240618E+02  0.62100365996E+02  0.73458327287E+02  0.41800000000E+01 0.  1.
        -11    1    1    2    0    0  0.40949567856E+02  0.10572721231E+02  0.23956667703E+03  0.24327112916E+03  0.00000000000E+00 0. -1.
         11    1    1    2    0    0  0.28182482240E+02  0.42725035167E+01  0.77461705557E+01  0.29538276012E+02  0.00000000000E+00 0.  1.
</event>
<event>
 7    1  0.4394360E-006  0.9936356E+02  0.7561462E-02  0.1281640E+00
         -2   -1    0    0    0  501 -0.00000000000E+00  0.00000000000E+00  0.39566305813E+03  0.39566305813E+03  0.00000000000E+00 0. -1.
          2   -1    0    0  501    0  0.00000000000E+00 -0.00000000000E+00 -0.44413677235E+02  0.44413677235E+02  0.00000000000E+00 0.  1.
         23    2    1    2    0    0 -0.15130977620E+02  0.23630820856E+02  0.31830277217E+03  0.34315201224E+03  0.12509710851E+03 0.  0.
          5    1    3    3  502    0  0.23684249015E+02  0.53473640762E+02  0.26173202440E+03  0.26821912479E+03  0.41800000000E+01 0.  1.
         -5    1    3    3    0  502 -0.38815226635E+02 -0.29842819907E+02  0.56570747767E+02  0.74932887450E+02  0.41800000000E+01 0.  1.
        -11    1    1    2    0    0  0.57654204852E+00 -0.55717864558E+02  0.23284763764E+02  0.60390339088E+02  0.00000000000E+00 0.  1.
         11    1    1    2    0    0  0.14554435571E+02  0.32087043702E+02  0.96618449571E+01  0.36534384028E+02  0.00000000000E+00 0. -1.
</event>
<event>
 7    1  0.4394360E-006  0.1536671E+03  0.7561462E-02  0.1196038E+00
         -2   -1    0    0    0  501 -0.00000000000E+00  0.00000000000E+00  0.32968627922E+02  0.32968627922E+02  0.00000000000E+00 0. -1.
          2   -1    0    0  501    0  0.00000000000E+00 -0.00000000000E+00 -0.82109475580E+03  0.82109475580E+03  0.00000000000E+00 0.  1.
         23    2    1    2    0    0 -0.97480583485E+02  0.66668696193E+02 -0.31903162641E+03  0.36245822213E+03  0.12509038705E+03 0.  0.
          5    1    3    3  502    0 -0.91373223738E+02  0.94478592672E+02 -0.19545215311E+03  0.23557225440E+03  0.41800000000E+01 0. -1.
         -5    1    3    3    0  502 -0.61073597473E+01 -0.27809896479E+02 -0.12357947330E+03  0.12688596773E+03  0.41800000000E+01 0. -1.
        -11    1    1    2    0    0  0.21109340576E+02 -0.67453250930E+02 -0.22381421523E+03  0.23470907153E+03  0.00000000000E+00 0. -1.
         11    1    1    2    0    0  0.76371242909E+02  0.78455473654E+00 -0.24528028624E+03  0.25689609006E+03  0.00000000000E+00 0.  1.
</event>
<event>
 6    1  0.4394360E-006  0.2254611E+03  0.7561462E-02  0.1129876E+00
         -2   -1    0    0    0  501 -0.00000000000E+00  0.00000000000E+00  0.31864410948E+02  0.31864410948E+02  0.00000000000E+00 0.  1.
          2   -1    0    0  501    0  0.00000000000E+00 -0.00000000000E+00 -0.17884552138E+04  0.17884552138E+04  0.00000000000E+00 0. -1.
          5    1    1    2  502    0  0.13177018200E+03  0.73518147256E+02 -0.82522088117E+03  0.83891315042E+03  0.41800000000E+01 0. -1.
         -5    1    1    2    0  502 -0.10933603127E+03  0.73038642197E+02 -0.31906863659E+03  0.34512501828E+03  0.41800000000E+01 0.  1.
        -11    1    1    2    0    0 -0.52154027331E+02 -0.10602507593E+03 -0.49022257440E+03  0.50426137245E+03  0.00000000000E+00 0.  1.
         11    1    1    2    0    0  0.29719876598E+02 -0.40531713526E+02 -0.12207871065E+03  0.13202008355E+03  0.00000000000E+00 0. -1.
</event>
<event>
 7    1  0.4394360E-006  0.2152928E+03  0.7561462E-02  0.1137442E+00
          2   -1    0    0  501    0  0.00000000000E+00  0.00000000000E+00  0.23458352977E+03  0.23458352977E+03  0.00000000000E+00 0. -1.
         -2   -1    0    0    0  501 -0.00000000000E+00 -0.00000000000E+00 -0.25548040329E+03  0.25548040329E+03  0.00000000000E+00 0.  1.
         23    2    1    2    0    0 -0.18680462413E+03  0.68844057299E+02 -0.96200647274E+02  0.25404600710E+03  0.12509731158E+03 0.  0.
          5    1    3    3  502    0 -0.15962385874E+03  0.80761064906E+02 -0.30081498808E+02  0.18145108116E+03  0.41800000000E+01 0.  1.
         -5    1    3    3    0  502 -0.27180765385E+02 -0.11917007607E+02 -0.66119148467E+02  0.72594925933E+02  0.41800000000E+01 0.  1.
        -11    1    1    2    0    0  0.15910966200E+03 -0.93538853141E+02  0.50386895418E+02  0.19132234793E+03  0.00000000000E+00 0.  1.
         11    1    1    2    0    0  0.27694962133E+02  0.24694795842E+02  0.24916878334E+02  0.44695578026E+02  0.00000000000E+00 0. -1.
</event>
<event>
 7    1  0.4394360E-006  0.1144658E+03  0.7561462E-02  0.1252517E+00
          2   -1    0    0  501    0  0.00000000000E+00  0.00000000000E+00  0.10338587335E+04  0.10338587335E+04  0.00000000000E+00 0. -1.
         -2   -1    0    0    0  501 -0.00000000000E+00 -0.00000000000E+00 -0.15038602914E+02  0.15038602914E+02  0.00000000000E+00 0.  1.
         23    2    1    2    0    0  0.33192218287E+02  0.56432024565E+02  0.62737033842E+03  0.64307225681E+03  0.12514826889E+03 0.  0.
          5    1    3    3  502    0 -0.34212242185E+02  0.55043181805E+02  0.19688460967E+03  0.20731920149E+03  0.41800000000E+01 0.  1.
         -5    1    3    3    0  502  0.67404460472E+02  0.13888427595E+01  0.43048572874E+03  0.43575305533E+03  0.41800000000E+01 0.  1.
        -11    1    1    2    0    0  0.11156737856E+02 -0.50473724011E+02  0.29507590710E+03  0.29956945867E+03  0.00000000000E+00 0.  1.
         11    1    1    2    0    0 -0.44348956143E+02 -0.59583005535E+01  0.96373885062E+02  0.10625562093E+03  0.00000000000E+00 0. -1.
</event>
<event>
 7    1  0.4394360E-006  0.1036094E+03  0.7561462E-02  0.1272884E+00
         -2   -1    0    0    0  501 -0.00000000000E+00  0.00000000000E+00  0.30748392666E+03  0.30748392666E+03  0.00000000000E+00 0.  1.
          2   -1    0    0  501    0  0.00000000000E+00 -0.00000000000E+00 -0.80791763545E+02  0.80791763545E+02  0.00000000000E+00 0. -1.
         23    2    1    2    0    0 -0.42088858630E+02 -0.83050605113E+02  0.20131313631E+03  0.25464368338E+03  0.12509017389E+03 0.  0.
          5    1    3    3  502    0 -0.45614925497E+02 -0.23332830259E+02  0.77291561534E+01  0.51984176928E+02  0.41800000000E+01 0.  1.
         -5    1    3    3    0  502  0.35260668677E+01 -0.59717774854E+02  0.19358398016E+03  0.20265950645E+03  0.41800000000E+01 0.  1.
        -11    1    1    2    0    0  0.10600126529E+02  0.50774776626E+01  0.45644302437E+02  0.47133277064E+02  0.00000000000E+00 0.  1.
         11    1    1    2    0    0  0.31488732101E+02  0.77973127451E+02 -0.20265275634E+02  0.86498729761E+02  0.00000000000E+00 0. -1.
</event>
<event>
 7    1  0.4394360E-006  0.2313338E+03  0.7561462E-02  0.1125704E+00
         -2   -1    0    0    0  501 -0.00000000000E+00  0.00000000000E+00  0.22902296819E+03  0.22902296819E+03  0.00000000000E+00 0. -1.
          2   -1    0    0  501    0  0.00000000000E+00 -0.00000000000E+00 -0.10962480331E+04  0.10962480331E+04  0.00000000000E+00 0.  1.
         23    2    1    2    0    0  0.15522562441E+03 -0.16211839987E+03  0.13782818523E+03  0.29158474849E+03  0.12509071451E+03 0.  0.
          5    1    3    3  502    0  0.95724206984E+02 -0.61383417398E+02  0.41176336081E+01  0.11386603989E+03  0.41800000000E+01 0. -1.
         -5    1    3    3    0  502  0.59501417423E+02 -0.10073498247E+03  0.13371055163E+03  0.17771870859E+03  0.41800000000E+01 0. -1.
        -11    1    1    2    0    0 -0.15734622271E+02 -0.26118794985E+01 -0.21763209205E+02  0.26982170547E+02  0.00000000000E+00 0. -1.
         11    1    1    2    0    0 -0.13949100214E+03  0.16473027937E+03 -0.98329004098E+03  0.10067040823E+04  0.00000000000E+00 0.  1.
</event>
<event>
 7    1  0.4394360E-006  0.9959743E+02  0.7561462E-02  0.1281145E+00
         -1   -1    0    0    0  501 -0.00000000000E+00  0.00000000000E+00  0.52090189473E+02  0.52090189473E+02  0.00000000000E+00 0.  1.
          1   -1    0    0  501    0  0.00000000000E+00 -0.00000000000E+00 -0.24617215443E+03  0.24617215443E+03  0.00000000000E+00 0. -1.
         23    2    1    2    0    0 -0.27669166392E+02 -0.45185441006E+01 -0.75452515552E+02  0.14874768584E+03  0.12508713735E+03 0.  0.
          5    1    3    3  502    0  0.30247321075E+02  0.33706086405E+02  0.89781965611E+00  0.45489330322E+02  0.41800000000E+01 0.  1.
         -5    1    3    3    0  502 -0.57916487467E+02 -0.38224630506E+02 -0.76350335208E+02  0.10325835552E+03  0.41800000000E+01 0.  1.
        -11    1    1    2    0    0 -0.27543412858E+02 -0.54836426065E+01 -0.15420983709E+02  0.32039298785E+02  0.00000000000E+00 0.  1.
         11    1    1    2    0    0  0.55212579250E+02  0.10002186707E+02 -0.10320846569E+03  0.11747535928E+03  0.00000000000E+00 0. -1.
</event>
<event>
 7    1  0.4394360E-006  0.1378273E+03  0.7561462E-02  0.1216283E+00
         -2   -1    0    0    0  501 -0.00000000000E+00  0.00000000000E+00  0.61111384335E+03  0.61111384335E+03  0.00000000000E+00 0. -1.
          2   -1    0    0  501    0  0.00000000000E+00 -0.00000000000E+00 -0.84090939189E+02  0.84090939189E+02  0.00000000000E+00 0.  1.
         23    2    1    2    0    0  0.10081585230E+03  0.75493555396E+01  0.53528266293E+03  0.55892394181E+03  0.12509042590E+03 0.  0.
          5    1    3    3  502    0 -0.18745827806E+02 -0.36695196080E+01  0.23023124494E+03  0.23106010037E+03  0.41800000000E+01 0. -1.
         -5    1    3    3    0  502  0.11956168011E+03  0.11218875148E+02  0.30505141799E+03  0.32786384144E+03  0.41800000000E+01 0. -1.
        -11    1    1    2    0    0 -0.11499740897E+03  0.75265810302E+01 -0.87704736960E+01  0.11557670484E+03  0.00000000000E+00 0. -1.
         11    1    1    2    0    0  0.14181556671E+02 -0.15075936570E+02  0.51071492482E+00  0.20704135887E+02  0.00000000000E+00 0.  1.
</event>
<event>
 7    1  0.4394360E-006  0.9186581E+02  0.7561462E-02  0.1298395E+00
         -2   -1    0    0    0  501 -0.00000000000E+00  0.00000000000E+00  0.93838641749E+02  0.93838641749E+02  0.00000000000E+00 0.  1.
          2   -1    0    0  501    0  0.00000000000E+00 -0.00000000000E+00 -0.14528122443E+03  0.14528122443E+03  0.00000000000E+00 0. -1.
         23    2    1    2    0    0  0.17865672433E+02 -0.40117332534E+02 -0.22602476991E+02  0.13447505166E+03  0.12507631643E+03 0.  0.
          5    1    3    3  502    0 -0.30496185587E+02 -0.50395829624E+02  0.26447570709E+02  0.64704739975E+02  0.41800000000E+01 0.  1.
         -5    1    3    3    0  502  0.48361858020E+02  0.10278497090E+02 -0.49050047701E+02  0.69770311688E+02  0.41800000000E+01 0.  1.
        -11    1    1    2    0    0  0.20727774854E+02  0.27541077121E+02  0.21003189674E+02  0.40364409520E+02  0.00000000000E+00 0.  1.
         11    1    1    2    0    0 -0.38593447287E+02  0.12576255413E+02 -0.49843295361E+02  0.64280404994E+02  0.00000000000E+00 0. -1.
</event>
<event>
 7    1  0.4394360E-006  0.9921566E+02  0.7561462E-02  0.1281954E+00
          2   -1    0    0  501    0  0.00000000000E+00  0.00000000000E+00  0.20704063009E+03  0.20704063009E+03  0.00000000000E+00 0. -1.
         -2   -1    0    0    0  501 -0.00000000000E+00 -0.00000000000E+00 -0.94496398167E+02  0.94496398167E+02  0.00000000000E+00 0.  1.
         23    2    1    2    0    0 -0.85383655186E+02  0.20839366716E+02  0.60653853485E+02  0.16447173841E+03  0.12508962792E+03 0.  0.
          5    1    3    3  502    0 -0.60780545954E+02  0.28420951814E+02 -0.27429753772E+02  0.72607775483E+02  0.41800000000E+01 0. -1.
         -5    1    3    3    0  502 -0.24603109232E+02 -0.75815850988E+01  0.88083607257E+02  0.91863962923E+02  0.41800000000E+01 0. -1.
        -11    1    1    2    0    0  0.86880926532E+02 -0.27017839694E+01  0.53434721020E+01  0.87087012383E+02  0.00000000000E+00 0.  1.
         11    1    1    2    0    0 -0.14972713459E+01 -0.18137582746E+02  0.46546906337E+02  0.49978277471E+02  0.00000000000E+00 0. -1.
</event>
<event>
 7    1  0.4394360E-006  0.6816052E+02  0.7561462E-02  0.1366462E+00
         -1   -1    0    0    0  501 -0.00000000000E+00  0.00000000000E+00  0.15906240553E+03  0.15906240553E+03  0.00000000000E+00 0.  1.
          1   -1    0    0  501    0  0.00000000000E+00 -0.00000000000E+00 -0.10525251228E+03  0.10525251228E+03  0.00000000000E+00 0. -1.
         23    2    1    2    0    0 -0.55539110803E+02  0.31002198857E+02  0.66020814352E+02  0.15508564296E+03  0.12508828707E+03 0.  0.
          5    1    3    3  502    0 -0.39787610656E+02  0.36210730406E+02  0.10191713592E+03  0.11532062241E+03  0.41800000000E+01 0. -1.
         -5    1    3    3    0  502 -0.15751500147E+02 -0.52085315498E+01 -0.35896321566E+02  0.39765020555E+02  0.41800000000E+01 0. -1.
        -11    1    1    2    0    0  0.33831065825E+02 -0.26755042385E+02 -0.49634885522E+02  0.65757092155E+02  0.00000000000E+00 0. -1.
         11    1    1    2    0    0  0.21708044978E+02 -0.42471564713E+01  0.37423964423E+02  0.43472182692E+02  0.00000000000E+00 0.  1.
</event>
<event>
 7    1  0.4394360E-006  0.6789359E+02  0.7561462E-02  0.1367406E+00
         -2   -1    0    0    0  501 -0.00000000000E+00  0.00000000000E+00  0.15510244194E+02  0.15510244194E+02  0.00000000000E+00 0.  1.
          2   -1    0    0  501    0  0.00000000000E+00 -0.00000000000E+00 -0.86988721833E+03  0.86988721833E+03  0.00000000000E+00 0. -1.
         23    2    1    2    0    0 -0.57477412952E+01  0.32021622037E+02 -0.38343312013E+03  0.40462621225E+03  0.12507195216E+03 0.  0.
          5    1    3    3  502    0  0.35139500257E+01 -0.29343405018E+00 -0.36688429147E+03  0.36692504640E+03  0.41800000000E+01 0. -1.
         -5    1    3    3    0  502 -0.92616913209E+01  0.32315056087E+02 -0.16548828654E+02  0.37701165842E+02  0.41800000000E+01 0. -1.
        -11    1    1    2    0    0 -0.26355925609E+02 -0.52234217160E+02 -0.26798438442E+03  0.27429669803E+03  0.00000000000E+00 0. -1.
         11    1    1    2    0    0  0.32103666904E+02  0.20212595123E+02 -0.20295946958E+03  0.20647455224E+03  0.00000000000E+00 0.  1.
</event>
<event>
 7    1  0.4394360E-006  0.6019879E+02  0.7561462E-02  0.1396999E+00
          2   -1    0    0  501    0  0.00000000000E+00  0.00000000000E+00  0.30903100339E+03  0.30903100339E+03  0.00000000000E+00 0.  1.
         -2   -1    0    0    0  501 -0.00000000000E+00 -0.00000000000E+00 -0.49148408549E+02  0.49148408549E+02  0.00000000000E+00 0. -1.
         23    2    1    2    0    0 -0.51308882739E+02  0.17662178872E+02  0.11596435031E+03  0.17899520268E+03  0.12508796116E+03 0.  0.
          5    1    3    3  502    0 -0.89337541313E+01 -0.10148776034E+02  0.12630572398E+03  0.12709609722E+03  0.41800000000E+01 0. -1.
         -5    1    3    3    0  502 -0.42375128608E+02  0.27810954906E+02 -0.10341373678E+02  0.51899105453E+02  0.41800000000E+01 0. -1.
        -11    1    1    2    0    0  0.18991326148E+02 -0.12303128516E+02 -0.78266584382E+01  0.23943559101E+02  0.00000000000E+00 0. -1.
         11    1    1    2    0    0  0.32317556591E+02 -0.53590503557E+01  0.15174490297E+03  0.15524065016E+03  0.00000000000E+00 0.  1.
</event>
<event>
 7    1  0.4394360E-006  0.9902194E+02  0.7561462E-02  0.1282366E+00
          2   -1    0    0  501    0  0.00000000000E+00  0.00000000000E+00  0.21050945645E+03  0.21050945645E+03  0.00000000000E+00 0. -1.
         -2   -1    0    0    0  501 -0.00000000000E+00 -0.00000000000E+00 -0.75791399659E+02  0.75791399659E+02  0.00000000000E+00 0.  1.
         23    2    1    2    0    0 -0.34215125977E+02 -0.49038781241E+02  0.45387639405E+02  0.14588933615E+03  0.12509270035E+03 0.  0.
          5    1    3    3  502    0 -0.10566744951E+02 -0.80685165824E+02 -0.51059576607E+01  0.81641259707E+02  0.41800000000E+01 0.  1.
         -5    1    3    3    0  502 -0.23648381026E+02  0.31646384583E+02  0.50493597065E+02  0.64248076445E+02  0.41800000000E+01 0.  1.
        -11    1    1    2    0    0 -0.89709152653E+01  0.26796848310E+02 -0.98888460303E+01  0.29938899042E+02  0.00000000000E+00 0.  1.
         11    1    1    2    0    0  0.43186041242E+02  0.22241932931E+02  0.99219263417E+02  0.11047262091E+03  0.00000000000E+00 0. -1.
</event>
<event>
 7    1  0.4394360E-006  0.1063862E+03  0.7561462E-02  0.1267412E+00
          1   -1    0    0  501    0  0.00000000000E+00  0.00000000000E+00  0.53185715592E+03  0.53185715592E+03  0.00000000000E+00 0. -1.
         -1   -1    0    0    0  501 -0.00000000000E+00 -0.00000000000E+00 -0.31006370099E+02  0.31006370099E+02  0.00000000000E+00 0.  1.
         23    2    1    2    0    0  0.23000218942E+02  0.12177366220E+02  0.13916297710E+03  0.18891990484E+03  0.12508836049E+03 0.  0.
          5    1    3    3  502    0  0.38280142917E+02 -0.50151156594E+02  0.63363003183E+02  0.89514526317E+02  0.41800000000E+01 0. -1.
         -5    1    3    3    0  502 -0.15279923975E+02  0.62328522814E+02  0.75799973918E+02  0.99405378521E+02  0.41800000000E+01 0. -1.
        -11    1    1    2    0    0 -0.45146124938E+02 -0.32139595360E+02  0.30396539904E+03  0.30897587284E+03  0.00000000000E+00 0. -1.
         11    1    1    2    0    0  0.22145905995E+02  0.19962229140E+02  0.57722409682E+02  0.64967748338E+02  0.00000000000E+00 0.  1.
</event>
<event>
 7    1  0.4394360E-006  0.2583511E+03  0.7561462E-02  0.1108138E+00
         -1   -1    0    0    0  501 -0.00000000000E+00  0.00000000000E+00  0.11986053637E+03  0.11986053637E+03  0.00000000000E+00 0.  1.
          1   -1    0    0  501    0  0.00000000000E+00 -0.00000000000E+00 -0.59825870455E+03  0.59825870455E+03  0.00000000000E+00 0. -1.
         23    2    1    2    0    0 -0.23949354524E+03 -0.20327877772E+02 -0.18353609432E+03  0.32727533961E+03  0.12511302559E+03 0.  0.
          5    1    3    3  502    0 -0.14010347952E+03  0.41031584025E+02 -0.62016620035E+02  0.15866981258E+03  0.41800000000E+01 0. -1.
         -5    1    3    3    0  502 -0.99390065718E+02 -0.61359461798E+02 -0.12151947429E+03  0.16860552704E+03  0.41800000000E+01 0. -1.
        -11    1    1    2    0    0  0.46545817347E+02  0.37905497172E+02 -0.95858844269E+02  0.11310286403E+03  0.00000000000E+00 0. -1.
         11    1    1    2    0    0  0.19294772790E+03 -0.17577619400E+02 -0.19900322959E+03  0.27774103728E+03  0.00000000000E+00 0.  1.
</event>
<event>
 7    1  0.4394360E-006  0.1201345E+03  0.7561462E-02  0.1242875E+00
          1   -1    0    0  501    0  0.00000000000E+00  0.00000000000E+00  0.69232149603E+02  0.69232149603E+02  0.00000000000E+00 0. -1.
         -1   -1    0    0    0  501 -0.00000000000E+00 -0.00000000000E+00 -0.29776859396E+03  0.29776859396E+03  0.00000000000E+00 0.  1.
         23    2    1    2    0    0 -0.32551376022E+02  0.75206162387E+02 -0.18232818060E+03  0.23580850092E+03  0.12508606926E+03 0.  0.
          5    1    3    3  502    0 -0.64000295221E+02  0.45297776275E+02 -0.17471486729E+03  0.19154812340E+03  0.41800000000E+01 0. -1.
         -5    1    3    3    0  502  0.31448919199E+02  0.29908386112E+02 -0.76133133065E+01  0.44260377519E+02  0.41800000000E+01 0. -1.
        -11    1    1    2    0    0  0.86257048380E+01 -0.89740444228E+02 -0.18959821811E+02  0.92126136125E+02  0.00000000000E+00 0. -1.
         11    1    1    2    0    0  0.23925671184E+02  0.14534281841E+02 -0.27248441948E+02  0.39066106523E+02  0.00000000000E+00 0.  1.
</event>
<event>
 7    1  0.4394360E-006  0.1570860E+03  0.7561462E-02  0.1192026E+00
          1   -1    0    0  501    0  0.00000000000E+00  0.00000000000E+00  0.29385140981E+03  0.29385140981E+03  0.00000000000E+00 0. -1.
         -1   -1    0    0    0  501 -0.00000000000E+00 -0.00000000000E+00 -0.13987348918E+03  0.13987348918E+03  0.00000000000E+00 0.  1.
         23    2    1    2    0    0 -0.11527441847E+03 -0.31480490033E+02 -0.45801507320E+02  0.17895406941E+03  0.12509023974E+03 0.  0.
          5    1    3    3  502    0  0.49523053711E+00 -0.39886325501E+02  0.20678387744E+02  0.45124631133E+02  0.41800000000E+01 0.  1.
         -5    1    3    3    0  502 -0.11576964900E+03  0.84058354679E+01 -0.66479895064E+02  0.13382943827E+03  0.41800000000E+01 0.  1.
        -11    1    1    2    0    0  0.62249295983E+02  0.69021056990E+02  0.12365484897E+03  0.15469131467E+03  0.00000000000E+00 0. -1.
         11    1    1    2    0    0  0.53025122484E+02 -0.37540566957E+02  0.76124578981E+02  0.10007951492E+03  0.00000000000E+00 0.  1.
</event>
<event>
 6    1  0.4394360E-006  0.1168083E+03  0.7561462E-02  0.1248457E+00
          1   -1    0    0  501    0  0.00000000000E+00  0.00000000000E+00  0.47500969892E+02  0.47500969892E+02  0.00000000000E+00 0. -1.
         -1   -1    0    0    0  501 -0.00000000000E+00 -0.00000000000E+00 -0.34195372041E+03  0.34195372041E+03  0.00000000000E+00 0.  1.
          5    1    1    2  502    0  0.15213445283E+02  0.85781580282E+02 -0.13600519530E+03  0.16156984243E+03  0.41800000000E+01 0. -1.
         -5    1    1    2    0  502 -0.31592307982E+02 -0.56584796524E+02 -0.82679116460E+02  0.10513430373E+03  0.41800000000E+01 0.  1.
        -11    1    1    2    0    0  0.46156349175E+02 -0.19861572542E+02 -0.11858472609E+02  0.51628616150E+02  0.00000000000E+00 0. -1.
         11    1    1    2    0    0 -0.29777486476E+02 -0.93352112161E+01 -0.63909966150E+02  0.71121928001E+02  0.00000000000E+00 0.  1.
</event>
<event>
 7    1  0.4394360E-006  0.1302553E+03  0.7561462E-02  0.1227077E+00
         -2   -1    0    0    0  501 -0.00000000000E+00  0.00000000000E+00  0.10807959495E+03  0.10807959495E+03  0.00000000000E+00 0.  1.
          2   -1    0    0  501    0  0.00000000000E+00 -0.00000000000E+00 -0.27206705133E+03  0.27206705133E+03  0.00000000000E+00 0. -1.
         23    2    1    2    0    0  0.89853290416E+02  0.18404379523E+02  0.18862516271E+02  0.15625586136E+03  0.12509102568E+03 0.  0.
          5    1    3    3  502    0 -0.22302993485E+02 -0.15940757228E+02  0.26867318908E+02  0.38611610750E+02  0.41800000000E+01 0. -1.
         -5    1    3    3    0  502  0.11215628390E+03  0.34345136751E+02 -0.80048026369E+01  0.11764425061E+03  0.41800000000E+01 0. -1.
        -11    1    1    2    0    0 -0.46537947854E+02  0.26056232787E+02 -0.35690199508E+02  0.64175526476E+02  0.00000000000E+00 0.  1.
         11    1    1    2    0    0 -0.43315342562E+02 -0.44460612311E+02 -0.14715977314E+03  0.15971525844E+03  0.00000000000E+00 0. -1.
</event>
<event>
 7    1  0.4394360E-006  0.7858483E+02  0.7561462E-02  0.1333116E+00
         -4   -1    0    0    0  501 -0.00000000000E+00  0.00000000000E+00  0.24073075820E+03  0.24073075820E+03  0.00000000000E+00 0.  1.
          4   -1    0    0  501    0  0.00000000000E+00 -0.00000000000E+00 -0.48760280951E+02  0.48760280951E+02  0.00000000000E+00 0. -1.
         23    2    1    2    0    0 -0.36784226916E+02  0.23772453517E+02  0.15184169775E+03  0.20156798421E+03  0.12512210911E+03 0.  0.
          5    1    3    3  502    0 -0.61858726916E+02  0.20973411826E+02  0.21726092446E+02  0.68962900115E+02  0.41800000000E+01 0.  1.
         -5    1    3    3    0  502  0.25074500001E+02  0.27990416912E+01  0.13011560530E+03  0.13260508410E+03  0.41800000000E+01 0.  1.
        -11    1    1    2    0    0  0.15907576443E+01 -0.30307520445E+02  0.42301159477E+02  0.52062120573E+02  0.00000000000E+00 0.  1.
         11    1    1    2    0    0  0.35193469271E+02  0.65350669279E+01 -0.21723799747E+01  0.35860934370E+02  0.00000000000E+00 0. -1.
</event>
<event>
 7    1  0.4394360E-006  0.1717538E+03  0.7561462E-02  0.1176031E+00
         -2   -1    0    0    0  501 -0.00000000000E+00  0.00000000000E+00  0.91996829269E+02  0.91996829269E+02  0.00000000000E+00 0.  1.
          2   -1    0    0  501    0  0.00000000000E+00 -0.00000000000E+00 -0.41060371665E+03  0.41060371665E+03  0.00000000000E+00 0. -1.
         23    2    1    2    0    0  0.14310587130E+03  0.62370753167E+02 -0.11431166092E+03  0.23039804765E+03  0.12508678303E+03 0.  0.
          5    1    3    3  502    0  0.82344323604E+02  0.88292603258E+02 -0.11110584625E+03  0.16412846459E+03  0.41800000000E+01 0.  1.
         -5    1    3    3    0  502  0.60761547698E+02 -0.25921850091E+02 -0.32058146678E+01  0.66269583057E+02  0.41800000000E+01 0.  1.
        -11    1    1    2    0    0 -0.89624010343E+02 -0.44945645418E+02 -0.18894117212E+03  0.21389563061E+03  0.00000000000E+00 0. -1.
         11    1    1    2    0    0 -0.53481860959E+02 -0.17425107748E+02 -0.15354054353E+02  0.58306867664E+02  0.00000000000E+00 0.  1.
</event>
<event>
 7    1  0.4394360E-006  0.1011520E+03  0.7561462E-02  0.1277892E+00
          2   -1    0    0  501    0  0.00000000000E+00  0.00000000000E+00  0.11492464024E+04  0.11492464024E+04  0.00000000000E+00 0. -1.
         -2   -1    0    0    0  501 -0.00000000000E+00 -0.00000000000E+00 -0.10684061306E+02  0.10684061306E+02  0.00000000000E+00 0.  1.
         23    2    1    2    0    0  0.38682129149E+01 -0.14756923697E+02  0.60584739535E+03  0.61881495455E+03  0.12509257234E+03 0.  0.
          5    1    3    3  502    0 -0.24730917939E+02 -0.53590286576E+02  0.48556313957E+03  0.48915495707E+03  0.41800000000E+01 0. -1.
         -5    1    3    3    0  502  0.28599130854E+02  0.38833362879E+02  0.12028425578E+03  0.12965999748E+03  0.41800000000E+01 0. -1.
        -11    1    1    2    0    0 -0.11007789657E+02  0.53861472162E+02  0.32838010054E+03  0.33295002635E+03  0.00000000000E+00 0. -1.
         11    1    1    2    0    0  0.71395767425E+01 -0.39104548464E+02  0.20433484522E+03  0.20816548282E+03  0.00000000000E+00 0.  1.
</event>
<event>
 7    1  0.4394360E-006  0.9850431E+02  0.7561462E-02  0.1283473E+00
         -1   -1    0    0    0  501 -0.00000000000E+00  0.00000000000E+00  0.40963333507E+02  0.40963333507E+02  0.00000000000E+00 0.  1.
          1   -1    0    0  501    0  0.00000000000E+00 -0.00000000000E+00 -0.33616085615E+03  0.33616085615E+03  0.00000000000E+00 0. -1.
         23    2    1    2    0    0 -0.18412974510E+02 -0.25631308911E+02 -0.15050025491E+03  0.19821542720E+03  0.12507208811E+03 0.  0.
          5    1    3    3  502    0  0.15875188108E+02 -0.66242266417E+02 -0.11639111927E+03  0.13492377293E+03  0.41800000000E+01 0.  1.
         -5    1    3    3    0  502 -0.34288162617E+02  0.40610957506E+02 -0.34109135642E+02  0.63291654264E+02  0.41800000000E+01 0.  1.
        -11    1    1    2    0    0 -0.15519564330E+02  0.36626500899E+02 -0.12071581687E+02  0.41570187990E+02  0.00000000000E+00 0.  1.
         11    1    1    2    0    0  0.33932538839E+02 -0.10995191987E+02 -0.13262568604E+03  0.13733857447E+03  0.00000000000E+00 0. -1.
</event>
<event>
 7    1  0.4394360E-006  0.1017596E+03  0.7561462E-02  0.1276639E+00
         -4   -1    0    0    0  501 -0.00000000000E+00  0.00000000000E+00  0.17954752800E+03  0.17954752800E+03  0.00000000000E+00 0.  1.
          4   -1    0    0  501    0  0.00000000000E+00 -0.00000000000E+00 -0.75882032732E+02  0.75882032732E+02  0.00000000000E+00 0. -1.
         23    2    1    2    0    0  0.48237750403E+01 -0.13390847894E+02  0.10287605506E+03  0.16255594917E+03  0.12505346974E+03 0.  0.
          5    1    3    3  502    0  0.15207634575E+02 -0.60781236914E+02  0.94022197632E+02  0.11306315473E+03  0.41800000000E+01 0. -1.
         -5    1    3    3    0  502 -0.10383859534E+02  0.47390389020E+02  0.88538574263E+01  0.49492794441E+02  0.41800000000E+01 0. -1.
        -11    1    1    2    0    0 -0.21217235037E+01  0.52642953537E+02  0.66162156856E+01  0.53099496963E+02  0.00000000000E+00 0.  1.
         11    1    1    2    0    0 -0.27020515366E+01 -0.39252105643E+02 -0.58267754716E+01  0.39774114601E+02  0.00000000000E+00 0. -1.
</event>
<event>
 7    1  0.4394360E-006  0.8877869E+02  0.7561462E-02  0.1305837E+00
          1   -1    0    0  501    0  0.00000000000E+00  0.00000000000E+00  0.45324237289E+02  0.45324237289E+02  0.00000000000E+00 0. -1.
         -1   -1    0    0    0  501 -0.00000000000E+00 -0.00000000000E+00 -0.42186725416E+03  0.42186725416E+03  0.00000000000E+00 0.  1.
         23    2    1    2    0    0  0.33584020902E+02  0.11228502295E+02 -0.33512271355E+03  0.35945608165E+03  0.12508987078E+03 0.  0.
          5    1    3    3  502    0 -0.15981140151E+02  0.26806622284E+02 -0.28633831870E+03  0.28806439730E+03  0.41800000000E+01 0. -1.
         -5    1    3    3    0  502  0.49565161052E+02 -0.15578119989E+02 -0.48784394855E+02  0.71391684347E+02  0.41800000000E+01 0. -1.
        -11    1    1    2    0    0  0.21504587909E+02  0.21054429883E+02 -0.30699589008E+02  0.42990709276E+02  0.00000000000E+00 0.  1.
         11    1    1    2    0    0 -0.55088608810E+02 -0.32282932178E+02 -0.10720714311E+02  0.64744700524E+02  0.00000000000E+00 0. -1.
</event>
<event>
 7    1  0.4394360E-006  0.1716816E+03  0.7561462E-02  0.1176105E+00
         -3   -1    0    0    0  501 -0.00000000000E+00  0.00000000000E+00  0.45707976159E+02  0.45707976159E+02  0.00000000000E+00 0.  1.
          3   -1    0    0  501    0  0.00000000000E+00 -0.00000000000E+00 -0.71371401784E+03  0.71371401784E+03  0.00000000000E+00 0. -1.
         23    2    1    2    0    0 -0.13655861723E+03  0.20118214924E+02 -0.26152803396E+03  0.32108842315E+03  0.12509142426E+03 0.  0.
          5    1    3    3  502    0 -0.18512685290E+02 -0.41831461928E+02 -0.33271370149E+02  0.56719019696E+02  0.41800000000E+01 0.  1.
         -5    1    3    3    0  502 -0.11804593194E+03  0.61949676852E+02 -0.22825666381E+03  0.26436940346E+03  0.41800000000E+01 0.  1.
        -11    1    1    2    0    0  0.19875244613E+01  0.22732774154E+02 -0.56262477009E+02  0.60714047743E+02  0.00000000000E+00 0.  1.
         11    1    1    2    0    0  0.13457109277E+03 -0.42850989078E+02 -0.35021553072E+03  0.37761952311E+03  0.00000000000E+00 0. -1.
</event>
<event>
 7    1  0.4394360E-006  0.2133564E+03  0.7561462E-02  0.1138935E+00
         -3   -1    0    0    0  501 -0.00000000000E+00  0.00000000000E+00  0.67735672278E+02  0.67735672278E+02  0.00000000000E+00 0.  1.
          3   -1    0    0  501    0  0.00000000000E+00 -0.00000000000E+00 -0.78789831127E+03  0.78789831127E+03  0.00000000000E+00 0. -1.
         23    2    1    2    0    0  0.12200563437E+03 -0.14063038446E+03 -0.22057092682E+03  0.31458263877E+03  0.12509365693E+03 0.  0.
          5    1    3    3  502    0 -0.87593841035E+01 -0.79146953095E+02 -0.77763700547E+02  0.11138057513E+03  0.41800000000E+01 0. -1.
         -5    1    3    3    0  502  0.13076501848E+03 -0.61483431362E+02 -0.14280722627E+03  0.20320206363E+03  0.41800000000E+01 0. -1.
        -11    1    1    2    0    0 -0.37308944089E+02 -0.10775106004E+01 -0.52195319188E+02  0.64167512678E+02  0.00000000000E+00 0.  1.
         11    1    1    2    0    0 -0.84696690285E+02  0.14170789506E+03 -0.44739639298E+03  0.47688383210E+03  0.00000000000E+00 0. -1.
</event>
<event>
 7    1  0.4394360E-006  0.8237746E+02  0.7561462E-02  0.1322437E+00
         -1   -1    0    0    0  501 -0.00000000000E+00  0.00000000000E+00  0.37938340876E+02  0.37938340876E+02  0.00000000000E+00 0.  1.
          1   -1    0    0  501    0  0.00000000000E+00 -0.00000000000E+00 -0.34227162125E+03  0.34227162125E+03  0.00000000000E+00 0. -1.
         23    2    1    2    0    0 -0.31176954747E+02  0.81849490866E+01 -0.11009011114E+03  0.16220689511E+03  0.11468325227E+03 0.  0.
          5    1    3    3  502    0 -0.32715933848E+02 -0.24515214503E+02 -0.12072961228E+03  0.12753211263E+03  0.41800000000E+01 0. -1.
         -5    1    3    3    0  502  0.15389791002E+01  0.32700163590E+02  0.10639501142E+02  0.34674782480E+02  0.41800000000E+01 0.  1.
        -11    1    1    2    0    0  0.59339311692E+02 -0.15947971980E+02 -0.84755179492E+02  0.10468491856E+03  0.00000000000E+00 0.  1.
         11    1    1    2    0    0 -0.28162356945E+02  0.77630228935E+01 -0.10948798974E+03  0.11331814846E+03  0.00000000000E+00 0. -1.
</event>
<event>
 7    1  0.4394360E-006  0.1256454E+03  0.7561462E-02  0.1234064E+00
          3   -1    0    0  501    0  0.00000000000E+00  0.00000000000E+00  0.26330502459E+02  0.26330502459E+02  0.00000000000E+00 0. -1.
         -3   -1    0    0    0  501 -0.00000000000E+00 -0.00000000000E+00 -0.85798854738E+03  0.85798854738E+03  0.00000000000E+00 0.  1.
         23    2    1    2    0    0 -0.31942767441E+02  0.96940160599E+02 -0.61132108262E+03  0.63228002170E+03  0.12508726813E+03 0.  0.
          5    1    3    3  502    0 -0.60454289169E+02  0.26872829864E+02 -0.43985565930E+03  0.44482282257E+03  0.41800000000E+01 0.  1.
         -5    1    3    3    0  502  0.28511521728E+02  0.70067330735E+02 -0.17146542333E+03  0.18745719913E+03  0.41800000000E+01 0.  1.
        -11    1    1    2    0    0 -0.57071120776E+01 -0.43475132455E+02 -0.36944633645E+02  0.57337284776E+02  0.00000000000E+00 0. -1.
         11    1    1    2    0    0  0.37649879519E+02 -0.53465028144E+02 -0.18339232865E+03  0.19470174337E+03  0.00000000000E+00 0.  1.
</event>
<event>
 7    1  0.4394360E-006  0.1642618E+03  0.7561462E-02  0.1183967E+00
         -1   -1    0    0    0  501 -0.00000000000E+00  0.00000000000E+00  0.42663202926E+03  0.42663202926E+03  0.00000000000E+00 0.  1.
          1   -1    0    0  501    0  0.00000000000E+00 -0.00000000000E+00 -0.65125459506E+02  0.65125459506E+02  0.00000000000E+00 0. -1.
         23    2    1    2    0    0  0.14043579900E+03  0.70843036443E+01  0.18816488611E+03  0.26613316853E+03  0.12509371696E+03 0.  0.
          5    1    3    3  502    0  0.35823730654E+02 -0.52454624274E+02  0.39961828394E+02  0.75161475599E+02  0.41800000000E+01 0.  1.
         -5    1    3    3    0  502  0.10461206835E+03  0.59538927918E+02  0.14820305772E+03  0.19097169293E+03  0.41800000000E+01 0.  1.
        -11    1    1    2    0    0 -0.11058048537E+03 -0.19145109530E+02  0.13427511636E+03  0.17499824524E+03  0.00000000000E+00 0.  1.
         11    1    1    2    0    0 -0.29855313628E+02  0.12060805885E+02  0.39066567277E+02  0.50626074993E+02  0.00000000000E+00 0. -1.
</event>
<event>
 7    1  0.4394360E-006  0.8809198E+02  0.7561462E-02  0.1307539E+00
         -2   -1    0    0    0  501 -0.00000000000E+00  0.00000000000E+00  0.69973594302E+02  0.69973594302E+02  0.00000000000E+00 0.  1.
          2   -1    0    0  501    0  0.00000000000E+00 -0.00000000000E+00 -0.19865208194E+03  0.19865208194E+03  0.00000000000E+00 0. -1.
         23    2    1    2    0    0 -0.34649057260E+02  0.17306512860E+02 -0.44018333048E+02  0.13811876528E+03  0.12505641575E+03 0.  0.
          5    1    3    3  502    0 -0.64509007299E+02 -0.12014473499E+02 -0.63821964776E+02  0.91632282434E+02  0.41800000000E+01 0.  1.
         -5    1    3    3    0  502  0.29859950039E+02  0.29320986359E+02  0.19803631728E+02  0.46486482842E+02  0.41800000000E+01 0.  1.
        -11    1    1    2    0    0  0.43387445112E+02  0.57047536621E+01 -0.15066934664E+01  0.43786810033E+02  0.00000000000E+00 0.  1.
         11    1    1    2    0    0 -0.87383878517E+01 -0.23011266522E+02 -0.83153461119E+02  0.86720100929E+02  0.00000000000E+00 0. -1.
</event>
<event>
 7    1  0.4394360E-006  0.8473381E+02  0.7561462E-02  0.1316130E+00
          1   -1    0    0  501    0  0.00000000000E+00  0.00000000000E+00  0.18955696824E+03  0.18955696824E+03  0.00000000000E+00 0. -1.
         -1   -1    0    0    0  501 -0.00000000000E+00 -0.00000000000E+00 -0.66515653376E+02  0.66515653376E+02  0.00000000000E+00 0.  1.
         23    2    1    2    0    0  0.62962417853E+01 -0.27508270713E+02  0.58946960312E+02  0.14113186023E+03  0.12508840963E+03 0.  0.
          5    1    3    3  502    0 -0.38839483551E+02 -0.40153150784E+02  0.73001091148E+02  0.92018545464E+02  0.41800000000E+01 0. -1.
         -5    1    3    3    0  502  0.45135725336E+02  0.12644880072E+02 -0.14054130836E+02  0.49113314765E+02  0.41800000000E+01 0. -1.
        -11    1    1    2    0    0 -0.33008467692E+02  0.10160143440E+02 -0.85855850938E+01  0.35587915442E+02  0.00000000000E+00 0.  1.
         11    1    1    2    0    0  0.26712225907E+02  0.17348127272E+02  0.72679939642E+02  0.79352845942E+02  0.00000000000E+00 0. -1.
</event>
<event>
 7    1  0.4394360E-006  0.1792381E+03  0.7561462E-02  0.1168542E+00
         -2   -1    0    0    0  501 -0.00000000000E+00  0.00000000000E+00  0.34913959501E+02  0.34913959501E+02  0.00000000000E+00 0. -1.
          2   -1    0    0  501    0  0.00000000000E+00 -0.00000000000E+00 -0.10701748479E+04  0.10701748479E+04  0.00000000000E+00 0.  1.
         23    2    1    2    0    0 -0.87871547199E+02 -0.12908156466E+03 -0.45211062259E+03  0.49442634278E+03  0.12517960788E+03 0.  0.
          5    1    3    3  502    0 -0.92942451350E+02 -0.15035174274E+03 -0.41585415146E+03  0.45188061864E+03  0.41800000000E+01 0. -1.
         -5    1    3    3    0  502  0.50709041511E+01  0.21270178076E+02 -0.36256471125E+02  0.42545724141E+02  0.41800000000E+01 0. -1.
        -11    1    1    2    0    0  0.76708003271E+02  0.87556788582E+02 -0.52827023394E+03  0.54094338804E+03  0.00000000000E+00 0.  1.
         11    1    1    2    0    0  0.11163543928E+02  0.41524776083E+02 -0.54880031847E+02  0.69719076567E+02  0.00000000000E+00 0. -1.
</event>
<event>
 7    1  0.4394360E-006  0.1127375E+03  0.7561462E-02  0.1255583E+00
         -4   -1    0    0    0  501 -0.00000000000E+00  0.00000000000E+00  0.32018652447E+02  0.32018652447E+02  0.00000000000E+00 0.  1.
          4   -1    0    0  501    0  0.00000000000E+00 -0.00000000000E+00 -0.46608250624E+03  0.46608250624E+03  0.00000000000E+00 0. -1.
         23    2    1    2    0    0  0.10568837994E+02 -0.22380148575E+02 -0.14750289047E+03  0.19494277655E+03  0.12503204408E+03 0.  0.
          5    1    3    3  502    0 -0.55840462945E+02  0.20984910782E+01 -0.56435517663E+02  0.79529875019E+02  0.41800000000E+01 0.  1.
         -5    1    3    3    0  502  0.66409300939E+02 -0.24478639653E+02 -0.91067372807E+02  0.11541290153E+03  0.41800000000E+01 0.  1.
        -11    1    1    2    0    0 -0.53227468771E+02  0.10456922498E+02 -0.14417369546E+03  0.15404079045E+03  0.00000000000E+00 0.  1.
         11    1    1    2    0    0  0.42658630777E+02  0.11923226077E+02 -0.14238726786E+03  0.14911759168E+03  0.00000000000E+00 0. -1.
</event>
<event>
 7    1  0.4394360E-006  0.1698476E+03  0.7561462E-02  0.1178007E+00
         -2   -1    0    0    0  501 -0.00000000000E+00  0.00000000000E+00  0.16471776653E+03  0.16471776653E+03  0.00000000000E+00 0. -1.
          2   -1    0    0  501    0  0.00000000000E+00 -0.00000000000E+00 -0.18157357511E+03  0.18157357511E+03  0.00000000000E+00 0.  1.
         23    2    1    2    0    0 -0.13296796106E+03  0.20747945859E+01  0.56361700150E+01  0.18261586330E+03  0.12502801156E+03 0.  0.
          5    1    3    3  502    0 -0.69867077006E+02 -0.60879183611E+02  0.98414212174E+01  0.93284561521E+02  0.41800000000E+01 0. -1.
         -5    1    3    3    0  502 -0.63100884054E+02  0.62953978197E+02 -0.42052512024E+01  0.89331301775E+02  0.41800000000E+01 0. -1.
        -11    1    1    2    0    0  0.44131364046E+00 -0.23454634831E+02  0.10091884288E+02  0.25537438816E+02  0.00000000000E+00 0. -1.
         11    1    1    2    0    0  0.13252664742E+03  0.21379840245E+02 -0.32583862885E+02  0.13813803953E+03  0.00000000000E+00 0.  1.
</event>
<event>
 7    1  0.4394360E-006  0.1487337E+03  0.7561462E-02  0.1202038E+00
          1   -1    0    0  501    0  0.00000000000E+00  0.00000000000E+00  0.52766478881E+03  0.52766478881E+03  0.00000000000E+00 0. -1.
         -1   -1    0    0    0  501 -0.00000000000E+00 -0.00000000000E+00 -0.55094236925E+02  0.55094236925E+02  0.00000000000E+00 0.  1.
         23    2    1    2    0    0 -0.12367984132E+03 -0.15070640810E+02  0.17908587348E+03  0.25148229600E+03  0.12509103786E+03 0.  0.
          5    1    3    3  502    0 -0.79236191984E+02  0.35282141961E+02  0.37242152832E+02  0.94486263600E+02  0.41800000000E+01 0.  1.
         -5    1    3    3    0  502 -0.44443649340E+02 -0.50352782771E+02  0.14184372065E+03  0.15699603240E+03  0.41800000000E+01 0.  1.
        -11    1    1    2    0    0  0.39716106911E+02 -0.28365493268E+02  0.49031258171E+02  0.69181172543E+02  0.00000000000E+00 0.  1.
         11    1    1    2    0    0  0.83963734413E+02  0.43436134078E+02  0.24445342023E+03  0.26209555720E+03  0.00000000000E+00 0. -1.
</event>
<event>
 7    1  0.4394360E-006  0.1197425E+03  0.7561462E-02  0.1243523E+00
          1   -1    0    0  501    0  0.00000000000E+00  0.00000000000E+00  0.56743878056E+03  0.56743878056E+03  0.00000000000E+00 0. -1.
         -1   -1    0    0    0  501 -0.00000000000E+00 -0.00000000000E+00 -0.32100669587E+02  0.32100669587E+02  0.00000000000E+00 0.  1.
         23    2    1    2    0    0  0.77911910276E+02 -0.17362604907E+01  0.25488444228E+03  0.29442692795E+03  0.12509139308E+03 0.  0.
          5    1    3    3  502    0  0.99166294975E+02  0.23578002296E+02  0.13041762575E+03  0.16557809564E+03  0.41800000000E+01 0.  1.
         -5    1    3    3    0  502 -0.21254384698E+02 -0.25314262787E+02  0.12446681653E+03  0.12884883231E+03  0.41800000000E+01 0.  1.
        -11    1    1    2    0    0 -0.31874697774E+02  0.35011449525E+02  0.54810235880E+02  0.72428999118E+02  0.00000000000E+00 0.  1.
         11    1    1    2    0    0 -0.46037212503E+02 -0.33275189034E+02  0.22564343281E+03  0.23268352308E+03  0.00000000000E+00 0. -1.
</event>
<event>
 7    1  0.4394360E-006  0.8432255E+02  0.7561462E-02  0.1317214E+00
          1   -1    0    0  501    0  0.00000000000E+00  0.00000000000E+00  0.20616909910E+03  0.20616909910E+03  0.00000000000E+00 0. -1.
         -1   -1    0    0    0  501 -0.00000000000E+00 -0.00000000000E+00 -0.73960088960E+02  0.73960088960E+02  0.00000000000E+00 0.  1.
         23    2    1    2    0    0  0.12200789610E+02 -0.58637152018E+02  0.78147669510E+02  0.15913437828E+03  0.12501806764E+03 0.  0.
          5    1    3    3  502    0  0.41219770737E+02 -0.14460135519E+02  0.94047273760E+02  0.10378115012E+03  0.41800000000E+01 0.  1.
         -5    1    3    3    0  502 -0.29018981127E+02 -0.44177016499E+02 -0.15899604250E+02  0.55353228160E+02  0.41800000000E+01 0.  1.
        -11    1    1    2    0    0 -0.26427486809E+02  0.31630562209E+02  0.73880470685E+02  0.84600404688E+02  0.00000000000E+00 0. -1.
         11    1    1    2    0    0  0.14226697199E+02  0.27006589809E+02 -0.19819130050E+02  0.36394405095E+02  0.00000000000E+00 0.  1.
</event>
<event>
 7    1  0.4394360E-006  0.7684468E+02  0.7561462E-02  0.1338252E+00
         -1   -1    0    0    0  501 -0.00000000000E+00  0.00000000000E+00  0.87276687775E+02  0.87276687775E+02  0.00000000000E+00 0.  1.
          1   -1    0    0  501    0  0.00000000000E+00 -0.00000000000E+00 -0.20301728154E+03  0.20301728154E+03  0.00000000000E+00 0. -1.
         23    2    1    2    0    0 -0.37744903723E+02 -0.26674293368E+02 -0.24564154384E+00  0.13335703202E+03  0.12509133449E+03 0.  0.
          5    1    3    3  502    0 -0.36663804391E+02 -0.11593862137E+02  0.59842675420E+02  0.71254967498E+02  0.41800000000E+01 0.  1.
         -5    1    3    3    0  502 -0.10810993321E+01 -0.15080431231E+02 -0.60088316964E+02  0.62102064519E+02  0.41800000000E+01 0.  1.
        -11    1    1    2    0    0  0.27109321969E+02  0.59195154474E+02 -0.46767881205E+02  0.80163684816E+02  0.00000000000E+00 0.  1.
         11    1    1    2    0    0  0.10635581754E+02 -0.32520861105E+02 -0.68727071019E+02  0.76773252485E+02  0.00000000000E+00 0. -1.
</event>
<event>
 7    1  0.4394360E-006  0.1330203E+03  0.7561462E-02  0.1223042E+00
         -1   -1    0    0    0  501 -0.00000000000E+00  0.00000000000E+00  0.70190403370E+02  0.70190403370E+02  0.00000000000E+00 0.  1.
          1   -1    0    0  501    0  0.00000000000E+00 -0.00000000000E+00 -0.49351162188E+03  0.49351162188E+03  0.00000000000E+00 0. -1.
         23    2    1    2    0    0 -0.39066427070E+02 -0.10944823098E+03 -0.78117840700E+02  0.18776540305E+03  0.12509335937E+03 0.  0.
          5    1    3    3  502    0  0.12068763743E+02  0.69392604035E+01  0.21673993249E+02  0.26096796290E+02  0.41800000000E+01 0.  1.
         -5    1    3    3    0  502 -0.51135190813E+02 -0.11638749138E+03 -0.99791833949E+02  0.16166860676E+03  0.41800000000E+01 0.  1.
        -11    1    1    2    0    0  0.45143373826E+02  0.63209723341E+02 -0.10149919129E+03  0.12781032493E+03  0.00000000000E+00 0. -1.
         11    1    1    2    0    0 -0.60769467558E+01  0.46238507636E+02 -0.24370418651E+03  0.24812629727E+03  0.00000000000E+00 0.  1.
</event>
<event>
 7    1  0.4394360E-006  0.2035962E+03  0.7561462E-02  0.1146740E+00
         -2   -1    0    0    0  501 -0.00000000000E+00  0.00000000000E+00  0.42997819717E+02  0.42997819717E+02  0.00000000000E+00 0.  1.
          2   -1    0    0  501    0  0.00000000000E+00 -0.00000000000E+00 -0.10351038654E+04  0.10351038654E+04  0.00000000000E+00 0. -1.
         23    2    1    2    0    0  0.65308985653E+02  0.16451254385E+03 -0.44169949603E+03  0.49201701240E+03  0.12511057113E+03 0.  0.
          5    1    3    3  502    0 -0.29321560860E+02  0.39897746401E+02 -0.18320481203E+03  0.18982375944E+03  0.41800000000E+01 0.  1.
         -5    1    3    3    0  502  0.94630546513E+02  0.12461479745E+03 -0.25849468401E+03  0.30219325296E+03  0.41800000000E+01 0.  1.
        -11    1    1    2    0    0  0.92907815970E+01 -0.10535839104E+03 -0.30783492475E+03  0.32549815680E+03  0.00000000000E+00 0. -1.
         11    1    1    2    0    0 -0.74599767250E+02 -0.59154152806E+02 -0.24257162490E+03  0.26058651591E+03  0.00000000000E+00 0.  1.
</event>
<event>
 7    1  0.4394360E-006  0.2919908E+03  0.7561462E-02  0.1089314E+00
          2   -1    0    0  501    0  0.00000000000E+00  0.00000000000E+00  0.15965071466E+04  0.15965071466E+04  0.00000000000E+00 0.  1.
         -2   -1    0    0    0  501 -0.00000000000E+00 -0.00000000000E+00 -0.56642068620E+02  0.56642068620E+02  0.00000000000E+00 0. -1.
         23    2    1    2    0    0  0.19695884341E+03 -0.19542858858E+03  0.87383015369E+03  0.92531707228E+03  0.12508967787E+03 0.  0.
          5    1    3    3  502    0  0.98368521559E+02 -0.17269032550E+02  0.31858220883E+03  0.33389621397E+03  0.41800000000E+01 0. -1.
         -5    1    3    3    0  502  0.98590321854E+02 -0.17815955603E+03  0.55524794486E+03  0.59142085831E+03  0.41800000000E+01 0. -1.
        -11    1    1    2    0    0 -0.28687488502E+01  0.15285869922E+02  0.60208258036E+01  0.16677466312E+02  0.00000000000E+00 0.  1.
         11    1    1    2    0    0 -0.19409009456E+03  0.18014271866E+03  0.66001409844E+03  0.71115467659E+03  0.00000000000E+00 0. -1.
</event>
<event>
 7    1  0.7046567E-006  0.3154187E+03  0.7561462E-02  0.1077777E+00
         -1   -1    0    0    0  501 -0.00000000000E+00  0.00000000000E+00  0.78677243535E+02  0.78677243535E+02  0.00000000000E+00 0.  1.
          1   -1    0    0  501    0  0.00000000000E+00 -0.00000000000E+00 -0.14107319135E+04  0.14107319135E+04  0.00000000000E+00 0. -1.
         23    2    1    2    0    0 -0.20097978906E+03  0.23672721106E+03 -0.56384071131E+03  0.65574108691E+03  0.12508947703E+03 0.  0.
          5    1    3    3  502    0 -0.11585160121E+03  0.14393643051E+03 -0.20796185379E+03  0.27821735129E+03  0.41800000000E+01 0.  1.
         -5    1    3    3    0  502 -0.85128187859E+02  0.92790780549E+02 -0.35587885752E+03  0.37752373562E+03  0.41800000000E+01 0.  1.
        -11    1    1    2    0    0  0.21087358518E+02 -0.75735690680E+02 -0.13837361800E+03  0.15914719505E+03  0.00000000000E+00 0.  1.
         11    1    1    2    0    0  0.17989243055E+03 -0.16099152038E+03 -0.62984034066E+03  0.67452087509E+03  0.00000000000E+00 0. -1.
</event>
<event>
 7    1  0.4394360E-006  0.1371467E+03  0.7561462E-02  0.1217221E+00
         -2   -1    0    0    0  501 -0.00000000000E+00  0.00000000000E+00  0.15405150359E+03  0.15405150359E+03  0.00000000000E+00 0. -1.
          2   -1    0    0  501    0  0.00000000000E+00 -0.00000000000E+00 -0.17475721974E+03  0.17475721974E+03  0.00000000000E+00 0.  1.
         23    2    1    2    0    0 -0.43095159850E+02 -0.11036439476E+03 -0.42423109340E+02  0.17744469218E+03  0.12509758648E+03 0.  0.
          5    1    3    3  502    0  0.89231723886E+01  0.15172520670E+02 -0.37230940273E+02  0.41393764054E+02  0.41800000000E+01 0. -1.
         -5    1    3    3    0  502 -0.52018332239E+02 -0.12553691543E+03 -0.51921690671E+01  0.13605092812E+03  0.41800000000E+01 0. -1.
        -11    1    1    2    0    0  0.15657601330E+01  0.27661492606E+02  0.47769511760E+02  0.55222604355E+02  0.00000000000E+00 0. -1.
         11    1    1    2    0    0  0.41529399717E+02  0.82702902149E+02 -0.26052118563E+02  0.96141426796E+02  0.00000000000E+00 0.  1.
</event>
<event>
 6    1  0.4394360E-006  0.8991189E+02  0.7561462E-02  0.1303065E+00
          2   -1    0    0  501    0  0.00000000000E+00  0.00000000000E+00  0.95162852925E+02  0.95162852925E+02  0.00000000000E+00 0. -1.
         -2   -1    0    0    0  501 -0.00000000000E+00 -0.00000000000E+00 -0.20126994662E+03  0.20126994662E+03  0.00000000000E+00 0.  1.
          5    1    1    2  502    0 -0.41391425719E+02  0.53270529481E+02 -0.22577878326E+02  0.71261717801E+02  0.41800000000E+01 0. -1.
         -5    1    1    2    0  502  0.34799387334E+02 -0.24541353024E+02 -0.11607652296E+03  0.12371138569E+03  0.41800000000E+01 0.  1.
        -11    1    1    2    0    0 -0.28297556632E+02 -0.11674064791E+02  0.50203105742E+02  0.58799552092E+02  0.00000000000E+00 0. -1.
         11    1    1    2    0    0  0.34889595017E+02 -0.17055111666E+02 -0.17655798151E+02  0.42660143960E+02  0.00000000000E+00 0.  1.
</event>
<event>
 7    1  0.4394360E-006  0.1212431E+03  0.7561462E-02  0.1241060E+00
          1   -1    0    0  501    0  0.00000000000E+00  0.00000000000E+00  0.19518774786E+03  0.19518774786E+03  0.00000000000E+00 0. -1.
         -1   -1    0    0    0  501 -0.00000000000E+00 -0.00000000000E+00 -0.86837944170E+02  0.86837944170E+02  0.00000000000E+00 0.  1.
         23    2    1    2    0    0 -0.16665721456E+02 -0.66413331190E+02  0.23059647562E+02  0.14445442593E+03  0.12508739743E+03 0.  0.
          5    1    3    3  502    0  0.46192564615E+02 -0.58524499844E+02 -0.54176737961E+01  0.74871180684E+02  0.41800000000E+01 0. -1.
         -5    1    3    3    0  502 -0.62858286071E+02 -0.78888313460E+01  0.28477321358E+02  0.69583245250E+02  0.41800000000E+01 0. -1.
        -11    1    1    2    0    0 -0.12098991936E+02 -0.14244162726E+02  0.32278557001E+01  0.18965780502E+02  0.00000000000E+00 0.  1.
         11    1    1    2    0    0  0.28764713392E+02  0.80657493916E+02  0.82062300423E+02  0.11860548559E+03  0.00000000000E+00 0. -1.
</event>
<event>
 7    1  0.4394360E-006  0.1030313E+03  0.7561462E-02  0.1274048E+00
         -2   -1    0    0    0  501 -0.00000000000E+00  0.00000000000E+00  0.56081806688E+02  0.56081806688E+02  0.00000000000E+00 0.  1.
          2   -1    0    0  501    0  0.00000000000E+00 -0.00000000000E+00 -0.25266911139E+03  0.25266911139E+03  0.00000000000E+00 0. -1.
         23    2    1    2    0    0  0.27171394566E+02  0.31140062016E+02 -0.13786650107E+03  0.19073454903E+03  0.12515793196E+03 0.  0.
          5    1    3    3  502    0 -0.43749797779E+02 -0.10721988316E+02 -0.72730487972E+02  0.85651632324E+02  0.41800000000E+01 0. -1.
         -5    1    3    3    0  502  0.70921192344E+02  0.41862050331E+02 -0.65136013093E+02  0.10508291670E+03  0.41800000000E+01 0. -1.
        -11    1    1    2    0    0 -0.41645856264E+02 -0.42844406771E+02 -0.36233448380E+01  0.59859411652E+02  0.00000000000E+00 0.  1.
         11    1    1    2    0    0  0.14474461699E+02  0.11704344755E+02 -0.55097458796E+02  0.58156957394E+02  0.00000000000E+00 0. -1.
</event>
<event>
 7    1  0.4394360E-006  0.9154457E+02  0.7561462E-02  0.1299154E+00
          3   -1    0    0  501    0  0.00000000000E+00  0.00000000000E+00  0.12219186063E+03  0.12219186063E+03  0.00000000000E+00 0. -1.
         -3   -1    0    0    0  501 -0.00000000000E+00 -0.00000000000E+00 -0.10629235749E+03  0.10629235749E+03  0.00000000000E+00 0.  1.
         23    2    1    2    0    0 -0.17542333028E+01 -0.31455500349E+01 -0.25656490157E+02  0.12775224109E+03  0.12509759309E+03 0.  0.
          5    1    3    3  502    0  0.58465488023E+02  0.16870781530E+02 -0.65366870287E+01  0.61343599801E+02  0.41800000000E+01 0.  1.
         -5    1    3    3    0  502 -0.60219721326E+02 -0.20016331565E+02 -0.19119803128E+02  0.66408641287E+02  0.41800000000E+01 0.  1.
        -11    1    1    2    0    0 -0.15604359692E+02 -0.22590045043E+02  0.59034728612E+02  0.65106876432E+02  0.00000000000E+00 0. -1.
         11    1    1    2    0    0  0.17358592995E+02  0.25735595078E+02 -0.17478735314E+02  0.35625100603E+02  0.00000000000E+00 0.  1.
</event>
<event>
 7    1  0.4394360E-006  0.1494346E+03  0.7561462E-02  0.1201169E+00
         -2   -1    0    0    0  501 -0.00000000000E+00  0.00000000000E+00  0.90973925524E+02  0.90973925524E+02  0.00000000000E+00 0.  1.
          2   -1    0    0  501    0  0.00000000000E+00 -0.00000000000E+00 -0.31146187780E+03  0.31146187780E+03  0.00000000000E+00 0. -1.
         23    2    1    2    0    0 -0.77359924082E+02 -0.70770742522E+02 -0.41918423907E+02  0.16851560408E+03  0.12508916301E+03 0.  0.
          5    1    3    3  502    0 -0.57043055393E+02 -0.10450822709E+03 -0.48010475067E+02  0.12844593343E+03  0.41800000000E+01 0.  1.
         -5    1    3    3    0  502 -0.20316868689E+02  0.33737484569E+02  0.60920511599E+01  0.40069670647E+02  0.41800000000E+01 0.  1.
        -11    1    1    2    0    0  0.69426433803E+02  0.51606930022E+00 -0.44834080749E+02  0.82646178586E+02  0.00000000000E+00 0.  1.
         11    1    1    2    0    0  0.79334902783E+01  0.70254673222E+02 -0.13373544762E+03  0.15127402067E+03  0.00000000000E+00 0. -1.
</event>
<event>
 7    1  0.4394360E-006  0.1073254E+03  0.7561462E-02  0.1265605E+00
         -3   -1    0    0    0  501 -0.00000000000E+00  0.00000000000E+00  0.81255407176E+02  0.81255407176E+02  0.00000000000E+00 0.  1.
          3   -1    0    0  501    0  0.00000000000E+00 -0.00000000000E+00 -0.19527370416E+03  0.19527370416E+03  0.00000000000E+00 0. -1.
         23    2    1    2    0    0 -0.26604542024E+02 -0.57275988981E+02 -0.57020967952E+02  0.15128440180E+03  0.12508892385E+03 0.  0.
          5    1    3    3  502    0  0.98428957195E+01 -0.90199257675E+02 -0.37415123309E+02  0.98235189894E+02  0.41800000000E+01 0.  1.
         -5    1    3    3    0  502 -0.36447437744E+02  0.32923268693E+02 -0.19605844643E+02  0.53049211905E+02  0.41800000000E+01 0.  1.
        -11    1    1    2    0    0  0.37024054731E+02  0.41441554268E+02  0.92526125354E+01  0.56336434814E+02  0.00000000000E+00 0.  1.
         11    1    1    2    0    0 -0.10419512707E+02  0.15834434714E+02 -0.66249941566E+02  0.68908274722E+02  0.00000000000E+00 0. -1.
</event>
<event>
 7    1  0.4394360E-006  0.1021518E+03  0.7561462E-02  0.1275835E+00
         -1   -1    0    0    0  501 -0.00000000000E+00  0.00000000000E+00  0.91922476906E+02  0.91922476906E+02  0.00000000000E+00 0.  1.
          1   -1    0    0  501    0  0.00000000000E+00 -0.00000000000E+00 -0.21390331867E+03  0.21390331867E+03  0.00000000000E+00 0. -1.
         23    2    1    2    0    0  0.69709449059E+02 -0.61828034551E+02 -0.42863871227E+02  0.16175671587E+03  0.12508321442E+03 0.  0.
          5    1    3    3  502    0 -0.62201130506E+01 -0.25830834672E+02  0.37007039678E+02  0.45748390266E+02  0.41800000000E+01 0. -1.
         -5    1    3    3    0  502  0.75929562109E+02 -0.35997199879E+02 -0.79870910905E+02  0.11600832561E+03  0.41800000000E+01 0. -1.
        -11    1    1    2    0    0 -0.52794008954E+02  0.44350294241E+02 -0.93223420315E+02  0.11595155055E+03  0.00000000000E+00 0. -1.
         11    1    1    2    0    0 -0.16915440105E+02  0.17477740309E+02  0.14106449776E+02  0.28117529150E+02  0.00000000000E+00 0.  1.
</event>
<event>
 7    1  0.4394360E-006  0.1382716E+03  0.7561462E-02  0.1215674E+00
         -2   -1    0    0    0  501 -0.00000000000E+00  0.00000000000E+00  0.53022579125E+02  0.53022579125E+02  0.00000000000E+00 0.  1.
          2   -1    0    0  501    0  0.00000000000E+00 -0.00000000000E+00 -0.77892939794E+03  0.77892939794E+03  0.00000000000E+00 0. -1.
         23    2    1    2    0    0 -0.42892244589E+02  0.11412802575E+03 -0.13270242025E+03  0.21938256608E+03  0.12511525508E+03 0.  0.
          5    1    3    3  502    0 -0.72167996325E+01  0.56981553051E+02  0.12793368629E+02  0.58992561106E+02  0.41800000000E+01 0. -1.
         -5    1    3    3    0  502 -0.35675444957E+02  0.57146472698E+02 -0.14549578888E+03  0.16039000497E+03  0.41800000000E+01 0. -1.
        -11    1    1    2    0    0  0.10982708826E+02 -0.11871281116E+03 -0.43055353497E+03  0.44675462829E+03  0.00000000000E+00 0.  1.
         11    1    1    2    0    0  0.31909535763E+02  0.45847854097E+01 -0.16265086360E+03  0.16581478270E+03  0.00000000000E+00 0. -1.
</event>
<event>
 6    1  0.4394360E-006  0.1623472E+03  0.7561462E-02  0.1186072E+00
         -1   -1    0    0    0  501 -0.00000000000E+00  0.00000000000E+00  0.69455799622E+03  0.69455799622E+03  0.00000000000E+00 0.  1.
          1   -1    0    0  501    0  0.00000000000E+00 -0.00000000000E+00 -0.11996138223E+03  0.11996138223E+03  0.00000000000E+00 0. -1.
          5    1    1    2  502    0  0.98853294713E+02  0.78941456354E+02  0.40733279689E+03  0.42654566840E+03  0.41800000000E+01 0. -1.
         -5    1    1    2    0  502 -0.63794408090E+01 -0.67657975107E+02  0.23250623463E+03  0.24227034570E+03  0.41800000000E+01 0.  1.
        -11    1    1    2    0    0  0.17408129085E+02 -0.10138071735E+02 -0.69420139626E+01  0.21307628085E+02  0.00000000000E+00 0. -1.
         11    1    1    2    0    0 -0.10988198299E+03 -0.11454095121E+01 -0.58300403563E+02  0.12439573628E+03  0.00000000000E+00 0.  1.
</event>
<event>
 7    1  0.4394360E-006  0.1042686E+03  0.7561462E-02  0.1271567E+00
         -2   -1    0    0    0  501 -0.00000000000E+00  0.00000000000E+00  0.43366705034E+02  0.43366705034E+02  0.00000000000E+00 0.  1.
          2   -1    0    0  501    0  0.00000000000E+00 -0.00000000000E+00 -0.40771268414E+03  0.40771268414E+03  0.00000000000E+00 0. -1.
         23    2    1    2    0    0 -0.69026565115E+02 -0.12021746092E+02 -0.14901478464E+03  0.20678980623E+03  0.12508968322E+03 0.  0.
          5    1    3    3  502    0  0.29413113140E+02 -0.14485536866E+01 -0.24170476697E+01  0.29841984716E+02  0.41800000000E+01 0.  1.
         -5    1    3    3    0  502 -0.98439678255E+02 -0.10573192405E+02 -0.14659773697E+03  0.17694782151E+03  0.41800000000E+01 0.  1.
        -11    1    1    2    0    0  0.27012723069E+02 -0.13852054372E+02 -0.18253603096E+03  0.18504315501E+03  0.00000000000E+00 0. -1.
         11    1    1    2    0    0  0.42013842046E+02  0.25873800464E+02 -0.32795163509E+02  0.59246427939E+02  0.00000000000E+00 0.  1.
</event>
<event>
 7    1  0.4394360E-006  0.8543692E+02  0.7561462E-02  0.1314294E+00
          3   -1    0    0  501    0  0.00000000000E+00  0.00000000000E+00  0.44418940506E+02  0.44418940506E+02  0.00000000000E+00 0. -1.
         -3   -1    0    0    0  501 -0.00000000000E+00 -0.00000000000E+00 -0.83406434365E+03  0.83406434365E+03  0.00000000000E+00 0.  1.
         23    2    1    2    0    0 -0.30693726363E+02 -0.11818704848E+02 -0.77312953385E+03  0.78387445437E+03  0.12509235581E+03 0.  0.
          5    1    3    3  502    0 -0.48452693312E+02 -0.48374762931E+02 -0.25272489519E+03  0.26186852851E+03  0.41800000000E+01 0. -1.
         -5    1    3    3    0  502  0.17758966949E+02  0.36556058083E+02 -0.52040463866E+03  0.52200592586E+03  0.41800000000E+01 0. -1.
        -11    1    1    2    0    0 -0.27798510429E+00  0.26950973643E+02 -0.43267336018E+02  0.50975431553E+02  0.00000000000E+00 0.  1.
         11    1    1    2    0    0  0.30971711467E+02 -0.15132268795E+02  0.26751466719E+02  0.43633398237E+02  0.00000000000E+00 0. -1.
</event>
<event>
 6    1  0.4394360E-006  0.1044563E+03  0.7561462E-02  0.1271195E+00
          2   -1    0    0  501    0  0.00000000000E+00  0.00000000000E+00  0.43495286663E+02  0.43495286663E+02  0.00000000000E+00 0. -1.
         -2   -1    0    0    0  501 -0.00000000000E+00 -0.00000000000E+00 -0.42595642829E+03  0.42595642829E+03  0.00000000000E+00 0.  1.
          5    1    1    2  502    0  0.31287915741E+02 -0.47917175519E+02 -0.21514417061E+03  0.22266449185E+03  0.41800000000E+01 0. -1.
         -5    1    1    2    0  502 -0.70804055471E+02 -0.63968627938E-01 -0.69567032841E+02  0.99349196381E+02  0.41800000000E+01 0.  1.
        -11    1    1    2    0    0 -0.11542093207E+02  0.18037714257E+02 -0.83979101139E+02  0.86666420714E+02  0.00000000000E+00 0.  1.
         11    1    1    2    0    0  0.51058232937E+02  0.29943429890E+02 -0.13770837032E+02  0.60771606008E+02  0.00000000000E+00 0. -1.
</event>
<event>
 7    1  0.4394360E-006  0.1471097E+03  0.7561462E-02  0.1204070E+00
          1   -1    0    0  501    0  0.00000000000E+00  0.00000000000E+00  0.23984520521E+02  0.23984520521E+02  0.00000000000E+00 0. -1.
         -1   -1    0    0    0  501 -0.00000000000E+00 -0.00000000000E+00 -0.97650129393E+03  0.97650129393E+03  0.00000000000E+00 0.  1.
         23    2    1    2    0    0 -0.99360531427E+02 -0.28058633407E+02 -0.61983083051E+03  0.64070115502E+03  0.12509160432E+03 0.  0.
          5    1    3    3  502    0 -0.66175703011E+02 -0.77598419245E+02 -0.41095408525E+03  0.42344004407E+03  0.41800000000E+01 0. -1.
         -5    1    3    3    0  502 -0.33184828416E+02  0.49539785838E+02 -0.20887674526E+03  0.21726111094E+03  0.41800000000E+01 0. -1.
        -11    1    1    2    0    0  0.92377705255E+02 -0.10698355950E+02 -0.27183848903E+03  0.28730516766E+03  0.00000000000E+00 0.  1.
         11    1    1    2    0    0  0.69828261719E+01  0.38756989356E+02 -0.60847453860E+02  0.72479491765E+02  0.00000000000E+00 0. -1.
</event>
<event>
 7    1  0.4394360E-006  0.1055832E+03  0.7561462E-02  0.1268975E+00
          3   -1    0    0  501    0  0.00000000000E+00  0.00000000000E+00  0.52436123077E+02  0.52436123077E+02  0.00000000000E+00 0. -1.
         -3   -1    0    0    0  501 -0.00000000000E+00 -0.00000000000E+00 -0.38761557760E+03  0.38761557760E+03  0.00000000000E+00 0.  1.
         23    2    1    2    0    0 -0.49038765372E+01  0.91190419621E+02 -0.18784749962E+03  0.24346170298E+03  0.12508867683E+03 0.  0.
          5    1    3    3  502    0 -0.13139566217E+02  0.66726781340E+02 -0.20238253808E+03  0.21354455195E+03  0.41800000000E+01 0. -1.
         -5    1    3    3    0  502  0.82356896801E+01  0.24463638281E+02  0.14535038465E+02  0.29917151028E+02  0.41800000000E+01 0. -1.
        -11    1    1    2    0    0  0.30215518113E+02 -0.85849824353E+02 -0.69331359794E+02  0.11441156990E+03  0.00000000000E+00 0.  1.
         11    1    1    2    0    0 -0.25311641575E+02 -0.53405952675E+01 -0.78000595115E+02  0.82178427798E+02  0.00000000000E+00 0. -1.
</event>
<event>
 7    1  0.4394360E-006  0.1506274E+03  0.7561462E-02  0.1199704E+00
         -2   -1    0    0    0  501 -0.00000000000E+00  0.00000000000E+00  0.23989733227E+02  0.23989733227E+02  0.00000000000E+00 0.  1.
          2   -1    0    0  501    0  0.00000000000E+00 -0.00000000000E+00 -0.11758356469E+04  0.11758356469E+04  0.00000000000E+00 0. -1.
         23    2    1    2    0    0 -0.11982814221E+02 -0.12681017833E+03 -0.59195440719E+03  0.61828938351E+03  0.12508929772E+03 0.  0.
          5    1    3    3  502    0 -0.31098912357E+02 -0.11941651453E+03 -0.58230815788E+03  0.59525432332E+03  0.41800000000E+01 0. -1.
         -5    1    3    3    0  502  0.19116098135E+02 -0.73936637960E+01 -0.96462493077E+01  0.23035060190E+02  0.41800000000E+01 0. -1.
        -11    1    1    2    0    0 -0.34576429201E+02  0.93303111958E+02 -0.37253942875E+03  0.38559904840E+03  0.00000000000E+00 0. -1.
         11    1    1    2    0    0  0.46559243422E+02  0.33507066373E+02 -0.18735207776E+03  0.19593694824E+03  0.00000000000E+00 0.  1.
</event>
<event>
 7    1  0.4394360E-006  0.7344112E+02  0.7561462E-02  0.1348767E+00
          2   -1    0    0  501    0  0.00000000000E+00  0.00000000000E+00  0.80686029068E+02  0.80686029068E+02  0.00000000000E+00 0. -1.
         -2   -1    0    0    0  501 -0.00000000000E+00 -0.00000000000E+00 -0.15207561600E+03  0.15207561600E+03  0.00000000000E+00 0.  1.
         23    2    1    2    0    0  0.26966356088E+02 -0.47853304634E+01 -0.40802449226E+02  0.13438833032E+03  0.12508117250E+03 0.  0.
          5    1    3    3  502    0  0.33421873646E+02 -0.46879516812E+02 -0.63610766534E+02  0.85898269794E+02  0.41800000000E+01 0. -1.
         -5    1    3    3    0  502 -0.64555175581E+01  0.42094186348E+02  0.22808317308E+02  0.48490060525E+02  0.41800000000E+01 0. -1.
        -11    1    1    2    0    0 -0.28388240292E+02 -0.11053061335E+02 -0.58665986641E+02  0.66104162807E+02  0.00000000000E+00 0.  1.
         11    1    1    2    0    0  0.14218842041E+01  0.15838391798E+02  0.28078848936E+02  0.32269151941E+02  0.00000000000E+00 0. -1.
</event>
<event>
 7    1  0.4394360E-006  0.1708278E+03  0.7561462E-02  0.1176987E+00
          1   -1    0    0  501    0  0.00000000000E+00  0.00000000000E+00  0.29042858705E+03  0.29042858705E+03  0.00000000000E+00 0. -1.
         -1   -1    0    0    0  501 -0.00000000000E+00 -0.00000000000E+00 -0.11889219971E+03  0.11889219971E+03  0.00000000000E+00 0.  1.
         23    2    1    2    0    0 -0.11637452989E+03 -0.67625119485E+02  0.16343432647E+02  0.18447979185E+03  0.12509795290E+03 0.  0.
          5    1    3    3  502    0 -0.44339345705E+02 -0.92900033233E+02 -0.10249002947E+02  0.10353216029E+03  0.41800000000E+01 0.  1.
         -5    1    3    3    0  502 -0.72035184184E+02  0.25274913748E+02  0.26592435594E+02  0.80947631567E+02  0.41800000000E+01 0.  1.
        -11    1    1    2    0    0  0.78478735429E+02  0.89007932613E+02  0.12125290840E+03  0.16965727741E+03  0.00000000000E+00 0.  1.
         11    1    1    2    0    0  0.37895794460E+02 -0.21382813128E+02  0.33940046291E+02  0.55183717501E+02  0.00000000000E+00 0. -1.
</event>
<event>
 7    1  0.4394360E-006  0.1049077E+03  0.7561462E-02  0.1270301E+00
          2   -1    0    0  501    0  0.00000000000E+00  0.00000000000E+00  0.27809126545E+03  0.27809126545E+03  0.00000000000E+00 0. -1.
         -2   -1    0    0    0  501 -0.00000000000E+00 -0.00000000000E+00 -0.50086960139E+02  0.50086960139E+02  0.00000000000E+00 0.  1.
         23    2    1    2    0    0  0.28961855370E+02  0.31407841647E+02  0.96480682142E+02  0.16365772426E+03  0.12510030816E+03 0.  0.
          5    1    3    3  502    0  0.52390085996E+02  0.55972303534E+02  0.10337380843E+03  0.12876815035E+03  0.41800000000E+01 0. -1.
         -5    1    3    3    0  502 -0.23428230626E+02 -0.24564461887E+02 -0.68931262932E+01  0.34889573917E+02  0.41800000000E+01 0. -1.
        -11    1    1    2    0    0 -0.61141477762E+02 -0.24819314139E+02  0.88272894634E+02  0.11021062827E+03  0.00000000000E+00 0.  1.
         11    1    1    2    0    0  0.32179622391E+02 -0.65885275079E+01  0.43250728537E+02  0.54309873052E+02  0.00000000000E+00 0. -1.
</event>
<event>
 7    1  0.4394360E-006  0.1219935E+03  0.7561462E-02  0.1239844E+00
         -1   -1    0    0    0  501 -0.00000000000E+00  0.00000000000E+00  0.58665168991E+03  0.58665168991E+03  0.00000000000E+00 0.  1.
          1   -1    0    0  501    0  0.00000000000E+00 -0.00000000000E+00 -0.41658460561E+02  0.41658460561E+02  0.00000000000E+00 0. -1.
         23    2    1    2    0    0  0.71578314049E+02  0.74315834199E+02  0.38291494247E+03  0.41583235244E+03  0.12508554639E+03 0.  0.
          5    1    3    3  502    0  0.72191154901E+02  0.78504517665E+01  0.30395000574E+03  0.31253203169E+03  0.41800000000E+01 0. -1.
         -5    1    3    3    0  502 -0.61284085199E+00  0.66465382433E+02  0.78964936727E+02  0.10330032076E+03  0.41800000000E+01 0. -1.
        -11    1    1    2    0    0 -0.36255111825E+02 -0.25204279151E+02  0.14204825152E+03  0.14875279688E+03  0.00000000000E+00 0.  1.
         11    1    1    2    0    0 -0.35323202224E+02 -0.49111555048E+02  0.20030035361E+02  0.63725001147E+02  0.00000000000E+00 0. -1.
</event>
<event>
 7    1  0.4394360E-006  0.1128754E+03  0.7561462E-02  0.1255336E+00
          1   -1    0    0  501    0  0.00000000000E+00  0.00000000000E+00  0.88618056102E+02  0.88618056102E+02  0.00000000000E+00 0. -1.
         -1   -1    0    0    0  501 -0.00000000000E+00 -0.00000000000E+00 -0.24596187341E+03  0.24596187341E+03  0.00000000000E+00 0.  1.
         23    2    1    2    0    0 -0.71661399515E+02  0.70528404119E+02 -0.87722320105E+02  0.18296121544E+03  0.12517982643E+03 0.  0.
          5    1    3    3  502    0 -0.58544372196E+02  0.73479247161E+02 -0.11721626664E+03  0.15027897007E+03  0.41800000000E+01 0.  1.
         -5    1    3    3    0  502 -0.13117027319E+02 -0.29508430418E+01  0.29493946538E+02  0.32682245375E+02  0.41800000000E+01 0.  1.
        -11    1    1    2    0    0 -0.96878686530E+01 -0.19013481819E+02 -0.48576730560E+02  0.53057195948E+02  0.00000000000E+00 0.  1.
         11    1    1    2    0    0  0.81349268168E+02 -0.51514922300E+02 -0.21044766642E+02  0.98561518120E+02  0.00000000000E+00 0. -1.
</event>
<event>
 7    1  0.4394360E-006  0.7864549E+02  0.7561462E-02  0.1332940E+00
         -1   -1    0    0    0  501 -0.00000000000E+00  0.00000000000E+00  0.30249074736E+02  0.30249074736E+02  0.00000000000E+00 0.  1.
          1   -1    0    0  501    0  0.00000000000E+00 -0.00000000000E+00 -0.41103976006E+03  0.41103976006E+03  0.00000000000E+00 0. -1.
         23    2    1    2    0    0  0.83800326313E+01  0.28432981413E+02 -0.20722380649E+03  0.24386192793E+03  0.12509306352E+03 0.  0.
          5    1    3    3  502    0 -0.40230591288E+02  0.46009431574E+02 -0.16805616178E+03  0.17887345857E+03  0.41800000000E+01 0. -1.
         -5    1    3    3    0  502  0.48610623919E+02 -0.17576450161E+02 -0.39167644704E+02  0.64988469360E+02  0.41800000000E+01 0. -1.
        -11    1    1    2    0    0 -0.18844281891E+02 -0.27932837888E+02 -0.18130072541E+03  0.18440526952E+03  0.00000000000E+00 0. -1.
         11    1    1    2    0    0  0.10464249259E+02 -0.50014352491E+00  0.77338465767E+01  0.13021637339E+02  0.00000000000E+00 0.  1.
</event>
<event>
 7    1  0.4394360E-006  0.1074795E+03  0.7561462E-02  0.1265310E+00
         -2   -1    0    0    0  501 -0.00000000000E+00  0.00000000000E+00  0.60735872157E+02  0.60735872157E+02  0.00000000000E+00 0.  1.
          2   -1    0    0  501    0  0.00000000000E+00 -0.00000000000E+00 -0.41091461176E+03  0.41091461176E+03  0.00000000000E+00 0. -1.
         23    2    1    2    0    0 -0.38689206823E+02 -0.57246822520E+02 -0.54904284631E+02  0.15308778386E+03  0.12508931083E+03 0.  0.
          5    1    3    3  502    0  0.16939061467E+02 -0.80363750143E+02 -0.26888284157E+02  0.86520034474E+02  0.41800000000E+01 0.  1.
         -5    1    3    3    0  502 -0.55628268290E+02  0.23116927623E+02 -0.28016000474E+02  0.66567749386E+02  0.41800000000E+01 0.  1.
        -11    1    1    2    0    0  0.19838162129E+02  0.11669342771E+02 -0.42705808279E+01  0.23408632979E+02  0.00000000000E+00 0.  1.
         11    1    1    2    0    0  0.18851044695E+02  0.45577479749E+02 -0.29100387414E+03  0.29515406707E+03  0.00000000000E+00 0. -1.
</event>
<event>
 6    1  0.4394360E-006  0.3093894E+03  0.7561462E-02  0.1080639E+00
          2   -1    0    0  501    0  0.00000000000E+00  0.00000000000E+00  0.40118808696E+03  0.40118808696E+03  0.00000000000E+00 0. -1.
         -2   -1    0    0    0  501 -0.00000000000E+00 -0.00000000000E+00 -0.56378107770E+03  0.56378107770E+03  0.00000000000E+00 0.  1.
          5    1    1    2  502    0  0.13057284709E+03 -0.16798779180E+03  0.17607898994E+03  0.27620725857E+03  0.41800000000E+01 0. -1.
         -5    1    1    2    0  502  0.26943584383E+02  0.22434740785E+03 -0.42507032475E+03  0.48141455060E+03  0.41800000000E+01 0.  1.
        -11    1    1    2    0    0 -0.96037627807E+02  0.78166443348E+00  0.76594466447E+02  0.12284359668E+03  0.00000000000E+00 0.  1.
         11    1    1    2    0    0 -0.61478803666E+02 -0.57141280483E+02  0.98038776301E+01  0.84503758804E+02  0.00000000000E+00 0. -1.
</event>
<event>
 7    1  0.4394360E-006  0.1599580E+03  0.7561462E-02  0.1188744E+00
         -1   -1    0    0    0  501 -0.00000000000E+00  0.00000000000E+00  0.62716688926E+02  0.62716688926E+02  0.00000000000E+00 0.  1.
          1   -1    0    0  501    0  0.00000000000E+00 -0.00000000000E+00 -0.53570318865E+03  0.53570318865E+03  0.00000000000E+00 0. -1.
         23    2    1    2    0    0  0.20284727173E+02  0.14017862576E+03 -0.19102093810E+03  0.26869623828E+03  0.12508857821E+03 0.  0.
          5    1    3    3  502    0 -0.15080250520E+02  0.50913133703E+02  0.17540819900E+01  0.53292685641E+02  0.41800000000E+01 0. -1.
         -5    1    3    3    0  502  0.35364977692E+02  0.89265492056E+02 -0.19277502009E+03  0.21540355264E+03  0.41800000000E+01 0. -1.
        -11    1    1    2    0    0 -0.75229603091E+01 -0.15257141357E+03 -0.24539211640E+03  0.28905349326E+03  0.00000000000E+00 0. -1.
         11    1    1    2    0    0 -0.12761766863E+02  0.12392787815E+02 -0.36573445215E+02  0.40670146031E+02  0.00000000000E+00 0.  1.
</event>
<event>
 7    1  0.4394360E-006  0.8467782E+02  0.7561462E-02  0.1316277E+00
         -2   -1    0    0    0  501 -0.00000000000E+00  0.00000000000E+00  0.61422812392E+03  0.61422812392E+03  0.00000000000E+00 0.  1.
          2   -1    0    0  501    0  0.00000000000E+00 -0.00000000000E+00 -0.22435854141E+02  0.22435854141E+02  0.00000000000E+00 0. -1.
         23    2    1    2    0    0  0.29530143158E+02  0.31181669308E+02  0.37638923049E+03  0.39895038561E+03  0.12509289146E+03 0.  0.
          5    1    3    3  502    0 -0.33847145947E+01 -0.20522989623E+02  0.40778714807E+01  0.21604416950E+02  0.41800000000E+01 0.  1.
         -5    1    3    3    0  502  0.32914857753E+02  0.51704658931E+02  0.37231135901E+03  0.37734596866E+03  0.41800000000E+01 0.  1.
        -11    1    1    2    0    0 -0.37894021801E+02  0.14268602504E+02  0.16249728775E+03  0.16746617100E+03  0.00000000000E+00 0.  1.
         11    1    1    2    0    0  0.83638786429E+01 -0.45450271812E+02  0.52905751540E+02  0.70247421445E+02  0.00000000000E+00 0. -1.
</event>
<event>
 6    1  0.4394360E-006  0.1637070E+03  0.7561462E-02  0.1184574E+00
         -2   -1    0    0    0  501 -0.00000000000E+00  0.00000000000E+00  0.12762939968E+03  0.12762939968E+03  0.00000000000E+00 0.  1.
          2   -1    0    0  501    0  0.00000000000E+00 -0.00000000000E+00 -0.37248693980E+03  0.37248693980E+03  0.00000000000E+00 0. -1.
          5    1    1    2  502    0 -0.55463738972E+02 -0.52270489006E+02 -0.33232122174E+02  0.83248283501E+02  0.41800000000E+01 0. -1.
         -5    1    1    2    0  502 -0.69308410614E+02  0.95619838978E+02  0.34775888247E+02  0.12318134677E+03  0.41800000000E+01 0.  1.
        -11    1    1    2    0    0  0.10758915409E+03 -0.42601756013E+02 -0.25056132767E+03  0.27599151186E+03  0.00000000000E+00 0. -1.
         11    1    1    2    0    0  0.17182995491E+02 -0.74759395829E+00  0.41600214699E+01  0.17695197354E+02  0.00000000000E+00 0.  1.
</event>
<event>
 7    1  0.4394360E-006  0.1415927E+03  0.7561462E-02  0.1211202E+00
         -1   -1    0    0    0  501 -0.00000000000E+00  0.00000000000E+00  0.15449990735E+03  0.15449990735E+03  0.00000000000E+00 0.  1.
          1   -1    0    0  501    0  0.00000000000E+00 -0.00000000000E+00 -0.15088805282E+03  0.15088805282E+03  0.00000000000E+00 0. -1.
         23    2    1    2    0    0 -0.78331340198E+02  0.52525507898E+02  0.51911765145E+02  0.16503510289E+03  0.12508807292E+03 0.  0.
          5    1    3    3  502    0 -0.26449496377E+02  0.88845800246E+02  0.36556620732E+02  0.99734703084E+02  0.41800000000E+01 0. -1.
         -5    1    3    3    0  502 -0.51881843821E+02 -0.36320292348E+02  0.15355144412E+02  0.65300399803E+02  0.41800000000E+01 0. -1.
        -11    1    1    2    0    0 -0.18508388931E+02 -0.11203200898E+02  0.52019395842E+01  0.22251569532E+02  0.00000000000E+00 0.  1.
         11    1    1    2    0    0  0.96839729129E+02 -0.41322307000E+02 -0.53501850196E+02  0.11810128775E+03  0.00000000000E+00 0. -1.
</event>
<event>
 7    1  0.4394360E-006  0.5176348E+02  0.7561462E-02  0.1436055E+00
          1   -1    0    0  501    0  0.00000000000E+00  0.00000000000E+00  0.95260643847E+02  0.95260643847E+02  0.00000000000E+00 0. -1.
         -1   -1    0    0    0  501 -0.00000000000E+00 -0.00000000000E+00 -0.18003677514E+03  0.18003677514E+03  0.00000000000E+00 0.  1.
         23    2    1    2    0    0  0.21128357455E+01 -0.28155775592E+02 -0.11778894249E+03  0.17412624480E+03  0.12509397420E+03 0.  0.
          5    1    3    3  502    0  0.38842548056E+01 -0.31570725405E+02 -0.14388534827E+03  0.14741866905E+03  0.41800000000E+01 0. -1.
         -5    1    3    3    0  502 -0.17714190601E+01  0.34149498130E+01  0.26096405779E+02  0.26707575747E+02  0.41800000000E+01 0. -1.
        -11    1    1    2    0    0  0.24000821250E+02 -0.40088869861E+01  0.50611952886E+02  0.56157638577E+02  0.00000000000E+00 0. -1.
         11    1    1    2    0    0 -0.26113656996E+02  0.32164662578E+02 -0.17599141693E+02  0.45013535617E+02  0.00000000000E+00 0.  1.
</event>
<event>
 7    1  0.4394360E-006  0.9983750E+02  0.7561462E-02  0.1280638E+00
         -1   -1    0    0    0  501 -0.00000000000E+00  0.00000000000E+00  0.44993339023E+02  0.44993339023E+02  0.00000000000E+00 0.  1.
          1   -1    0    0  501    0  0.00000000000E+00 -0.00000000000E+00 -0.28257795352E+03  0.28257795352E+03  0.00000000000E+00 0. -1.
         23    2    1    2    0    0  0.16041307818E+02 -0.69861425757E+01 -0.96765966599E+02  0.15911883089E+03  0.12509604433E+03 0.  0.
          5    1    3    3  502    0  0.41351228598E+02 -0.53489370297E+02 -0.76738424772E+02  0.10235865903E+03  0.41800000000E+01 0.  1.
         -5    1    3    3    0  502 -0.25309920780E+02  0.46503227721E+02 -0.20027541827E+02  0.56760171864E+02  0.41800000000E+01 0.  1.
        -11    1    1    2    0    0 -0.44394369880E+02  0.18670620729E+02 -0.12497833392E+03  0.13393668693E+03  0.00000000000E+00 0. -1.
         11    1    1    2    0    0  0.28353062062E+02 -0.11684478154E+02 -0.15840313978E+02  0.34515774726E+02  0.00000000000E+00 0.  1.
</event>
<event>
 7    1  0.4394360E-006  0.8944929E+02  0.7561462E-02  0.1304191E+00
          2   -1    0    0  501    0  0.00000000000E+00  0.00000000000E+00  0.31092538959E+03  0.31092538959E+03  0.00000000000E+00 0. -1.
         -2   -1    0    0    0  501 -0.00000000000E+00 -0.00000000000E+00 -0.42686280848E+02  0.42686280848E+02  0.00000000000E+00 0.  1.
         23    2    1    2    0    0 -0.33357072150E+02  0.15390382589E+02  0.13001334579E+03  0.18412010897E+03  0.12508871374E+03 0.  0.
          5    1    3    3  502    0 -0.11037444014E+02  0.44711273646E+02  0.13855101563E+03  0.14606429918E+03  0.41800000000E+01 0.  1.
         -5    1    3    3    0  502 -0.22319628136E+02 -0.29320891057E+02 -0.85376698450E+01  0.38055809791E+02  0.41800000000E+01 0.  1.
        -11    1    1    2    0    0  0.57745084721E+02  0.11912465037E+02  0.65885778471E+02  0.88415708092E+02  0.00000000000E+00 0.  1.
         11    1    1    2    0    0 -0.24388012572E+02 -0.27302847626E+02  0.72339984484E+02  0.81075853377E+02  0.00000000000E+00 0. -1.
</event>
<event>
 6    1  0.4394360E-006  0.1038601E+03  0.7561462E-02  0.1272382E+00
         -1   -1    0    0    0  501 -0.00000000000E+00  0.00000000000E+00  0.49829571664E+03  0.49829571664E+03  0.00000000000E+00 0.  1.
          1   -1    0    0  501    0  0.00000000000E+00 -0.00000000000E+00 -0.53847422833E+02  0.53847422833E+02  0.00000000000E+00 0. -1.
          5    1    1    2  502    0  0.93134219930E+01  0.69047218489E+02  0.45913459005E+01  0.69948631634E+02  0.41800000000E+01 0. -1.
         -5    1    1    2    0  502 -0.26158710687E+02 -0.13314038362E+01  0.30805396142E+03  0.30919373591E+03  0.41800000000E+01 0.  1.
        -11    1    1    2    0    0  0.52583504252E+02 -0.37303169970E+02  0.85422061195E+02  0.10702093229E+03  0.00000000000E+00 0.  1.
         11    1    1    2    0    0 -0.35738215557E+02 -0.30412644682E+02  0.46380925296E+02  0.65979839641E+02  0.00000000000E+00 0. -1.
</event>
<event>
 7    1  0.4394360E-006  0.1386075E+03  0.7561462E-02  0.1215215E+00
         -2   -1    0    0    0  501 -0.00000000000E+00  0.00000000000E+00  0.23468987072E+02  0.23468987072E+02  0.00000000000E+00 0.  1.
          2   -1    0    0  501    0  0.00000000000E+00 -0.00000000000E+00 -0.88744864984E+03  0.88744864984E+03  0.00000000000E+00 0. -1.
         23    2    1    2    0    0  0.87175510757E+02  0.62064079194E+01 -0.35342955642E+03  0.38496517468E+03  0.12509054797E+03 0.  0.
          5    1    3    3  502    0  0.17188276568E+02 -0.55294481724E+02 -0.16047449826E+03  0.17065302093E+03  0.41800000000E+01 0. -1.
         -5    1    3    3    0  502  0.69987234189E+02  0.61500889644E+02 -0.19295505816E+03  0.21431215375E+03  0.41800000000E+01 0. -1.
        -11    1    1    2    0    0 -0.57816975347E+02  0.40597674781E+02 -0.30838628111E+03  0.31637489188E+03  0.00000000000E+00 0.  1.
         11    1    1    2    0    0 -0.29358535411E+02 -0.46804082700E+02 -0.20216382524E+03  0.20957757035E+03  0.00000000000E+00 0. -1.
</event>
<event>
 7    1  0.4394360E-006  0.8827188E+02  0.7561462E-02  0.1307091E+00
         -1   -1    0    0    0  501 -0.00000000000E+00  0.00000000000E+00  0.63537688827E+02  0.63537688827E+02  0.00000000000E+00 0.  1.
          1   -1    0    0  501    0  0.00000000000E+00 -0.00000000000E+00 -0.20796861763E+03  0.20796861763E+03  0.00000000000E+00 0. -1.
         23    2    1    2    0    0 -0.34258738099E+02 -0.95043959191E+01 -0.67598552422E+02  0.14656432107E+03  0.12509013247E+03 0.  0.
          5    1    3    3  502    0 -0.74478248657E+02 -0.10960366101E+02 -0.98294539572E+01  0.76034398224E+02  0.41800000000E+01 0.  1.
         -5    1    3    3    0  502  0.40219510558E+02  0.14559701824E+01 -0.57769098465E+02  0.70529922842E+02  0.41800000000E+01 0.  1.
        -11    1    1    2    0    0  0.25339127256E+01 -0.18315617672E+02 -0.80492169471E+02  0.82588570097E+02  0.00000000000E+00 0. -1.
         11    1    1    2    0    0  0.31724825374E+02  0.27820013592E+02  0.36597930939E+01  0.42353415290E+02  0.00000000000E+00 0.  1.
</event>
<event>
 7    1  0.4394360E-006  0.1732434E+03  0.7561462E-02  0.1174507E+00
          2   -1    0    0  501    0  0.00000000000E+00  0.00000000000E+00  0.35337868368E+03  0.35337868368E+03  0.00000000000E+00 0. -1.
         -2   -1    0    0    0  501 -0.00000000000E+00 -0.00000000000E+00 -0.10261817556E+03  0.10261817556E+03  0.00000000000E+00 0.  1.
         23    2    1    2    0    0  0.14957918590E+03  0.27131193790E+02  0.89010195222E+02  0.21605743642E+03  0.12509183205E+03 0.  0.
          5    1    3    3  502    0  0.48407596893E+02  0.48236658763E+02 -0.14216609387E+02  0.69926068587E+02  0.41800000000E+01 0.  1.
         -5    1    3    3    0  502  0.10117158901E+03 -0.21105464974E+02  0.10322680461E+03  0.14613136783E+03  0.41800000000E+01 0.  1.
        -11    1    1    2    0    0 -0.41358559516E+02  0.31051383568E+02  0.30010514319E+02  0.59794229123E+02  0.00000000000E+00 0. -1.
         11    1    1    2    0    0 -0.10822062638E+03 -0.58182577358E+02  0.13173979858E+03  0.18014519370E+03  0.00000000000E+00 0.  1.
</event>
<event>
 7    1  0.4394360E-006  0.1048420E+03  0.7561462E-02  0.1270431E+00
         -1   -1    0    0    0  501 -0.00000000000E+00  0.00000000000E+00  0.62456547449E+02  0.62456547449E+02  0.00000000000E+00 0.  1.
          1   -1    0    0  501    0  0.00000000000E+00 -0.00000000000E+00 -0.22516901436E+03  0.22516901436E+03  0.00000000000E+00 0. -1.
         23    2    1    2    0    0  0.32433764587E+02  0.18083816070E+02 -0.55009635469E+02  0.14160150433E+03  0.12508378211E+03 0.  0.
          5    1    3    3  502    0  0.67387697038E+02  0.49138563756E+02 -0.33727525761E+02  0.90059527836E+02  0.41800000000E+01 0. -1.
         -5    1    3    3    0  502 -0.34953932451E+02 -0.31054747686E+02 -0.21282109708E+02  0.51541976498E+02  0.41800000000E+01 0. -1.
        -11    1    1    2    0    0 -0.27217737796E+02  0.24327116681E+02 -0.94491480246E+02  0.10129784645E+03  0.00000000000E+00 0. -1.
         11    1    1    2    0    0 -0.52160267913E+01 -0.42410932751E+02 -0.13211351200E+02  0.44726211027E+02  0.00000000000E+00 0.  1.
</event>
<event>
 7    1  0.4394360E-006  0.1198213E+03  0.7561462E-02  0.1243392E+00
         -1   -1    0    0    0  501 -0.00000000000E+00  0.00000000000E+00  0.13768492041E+03  0.13768492041E+03  0.00000000000E+00 0.  1.
          1   -1    0    0  501    0  0.00000000000E+00 -0.00000000000E+00 -0.15584800330E+03  0.15584800330E+03  0.00000000000E+00 0. -1.
         23    2    1    2    0    0 -0.69085433055E+02 -0.45421671981E+02  0.42902993993E+02  0.15595620041E+03  0.12508294930E+03 0.  0.
          5    1    3    3  502    0  0.14442978970E+01 -0.63168302352E+02  0.52788432723E+02  0.82440350847E+02  0.41800000000E+01 0. -1.
         -5    1    3    3    0  502 -0.70529730952E+02  0.17746630371E+02 -0.98854387305E+01  0.73515849560E+02  0.41800000000E+01 0. -1.
        -11    1    1    2    0    0 -0.11892676839E+02  0.42612049127E+01  0.14632619765E+02  0.19331507724E+02  0.00000000000E+00 0. -1.
         11    1    1    2    0    0  0.80978109893E+02  0.41160467069E+02 -0.75698696654E+02  0.11824521558E+03  0.00000000000E+00 0.  1.
</event>
<event>
 7    1  0.4394360E-006  0.1190465E+03  0.7561462E-02  0.1244678E+00
          2   -1    0    0  501    0  0.00000000000E+00  0.00000000000E+00  0.98090985098E+02  0.98090985098E+02  0.00000000000E+00 0. -1.
         -2   -1    0    0    0  501 -0.00000000000E+00 -0.00000000000E+00 -0.20683414988E+03  0.20683414988E+03  0.00000000000E+00 0.  1.
         23    2    1    2    0    0 -0.58030713429E+02  0.58505830144E+02 -0.96205642009E+02  0.17802707623E+03  0.12509044110E+03 0.  0.
          5    1    3    3  502    0 -0.78908029242E+02  0.56047904769E+02 -0.20073709636E+02  0.98935690862E+02  0.41800000000E+01 0. -1.
         -5    1    3    3    0  502  0.20877315813E+02  0.24579253749E+01 -0.76131932373E+02  0.79091385369E+02  0.41800000000E+01 0. -1.
        -11    1    1    2    0    0  0.64665078542E+02 -0.76755265470E+02  0.53368237722E+01  0.10050584485E+03  0.00000000000E+00 0.  1.
         11    1    1    2    0    0 -0.66343651130E+01  0.18249435326E+02 -0.17874346542E+02  0.26392213899E+02  0.00000000000E+00 0. -1.
</event>
<event>
 7    1  0.4394360E-006  0.9418896E+02  0.7561462E-02  0.1293013E+00
          2   -1    0    0  501    0  0.00000000000E+00  0.00000000000E+00  0.20590887221E+03  0.20590887221E+03  0.00000000000E+00 0. -1.
         -2   -1    0    0    0  501 -0.00000000000E+00 -0.00000000000E+00 -0.65269865064E+02  0.65269865064E+02  0.00000000000E+00 0.  1.
         23    2    1    2    0    0  0.29678234986E+02 -0.23165643384E+02  0.95178607612E+02  0.16162172690E+03  0.12508065635E+03 0.  0.
          5    1    3    3  502    0  0.74018210160E+02 -0.37920930118E+02  0.54459959068E+02  0.99499004608E+02  0.41800000000E+01 0.  1.
         -5    1    3    3    0  502 -0.44339975175E+02  0.14755286733E+02  0.40718648545E+02  0.62122722287E+02  0.41800000000E+01 0.  1.
        -11    1    1    2    0    0  0.67583466055E+01 -0.78364242646E+01  0.58949423674E+02  0.59850809064E+02  0.00000000000E+00 0. -1.
         11    1    1    2    0    0 -0.36436581591E+02  0.31002067649E+02 -0.13489024142E+02  0.49706201312E+02  0.00000000000E+00 0.  1.
</event>
<event>
 7    1  0.4394360E-006  0.1284742E+03  0.7561462E-02  0.1229737E+00
          1   -1    0    0  501    0  0.00000000000E+00  0.00000000000E+00  0.60560995190E+03  0.60560995190E+03  0.00000000000E+00 0.  1.
         -1   -1    0    0    0  501 -0.00000000000E+00 -0.00000000000E+00 -0.53404912419E+02  0.53404912419E+02  0.00000000000E+00 0. -1.
         23    2    1    2    0    0 -0.74207745965E+02 -0.76060092432E+02  0.11616886427E+03  0.20108304620E+03  0.12508900520E+03 0.  0.
          5    1    3    3  502    0  0.94727108964E+01  0.10488607150E+02  0.70871882376E+02  0.72388115345E+02  0.41800000000E+01 0. -1.
         -5    1    3    3    0  502 -0.83680456862E+02 -0.86548699582E+02  0.45296981893E+02  0.12869493086E+03  0.41800000000E+01 0. -1.
        -11    1    1    2    0    0  0.27205777582E+02  0.69065568681E+02  0.36496758425E+03  0.37243998801E+03  0.00000000000E+00 0.  1.
         11    1    1    2    0    0  0.47001968384E+02  0.69945237510E+01  0.71068590955E+02  0.85491830105E+02  0.00000000000E+00 0. -1.
</event>
<event>
 7    1  0.4394360E-006  0.8915017E+02  0.7561462E-02  0.1304923E+00
         -1   -1    0    0    0  501 -0.00000000000E+00  0.00000000000E+00  0.10563519654E+03  0.10563519654E+03  0.00000000000E+00 0.  1.
          1   -1    0    0  501    0  0.00000000000E+00 -0.00000000000E+00 -0.15596083402E+03  0.15596083402E+03  0.00000000000E+00 0. -1.
         23    2    1    2    0    0 -0.19810121164E+02  0.37340631276E+02  0.28987018634E+02  0.13518360571E+03  0.12509035278E+03 0.  0.
          5    1    3    3  502    0 -0.29901606061E+01  0.54950076851E+02 -0.35841137244E+02  0.65806622199E+02  0.41800000000E+01 0.  1.
         -5    1    3    3    0  502 -0.16819960558E+02 -0.17609445575E+02  0.64828155878E+02  0.69376983512E+02  0.41800000000E+01 0.  1.
        -11    1    1    2    0    0 -0.34035838721E+02 -0.27292766707E+02 -0.33536896128E+02  0.55027782382E+02  0.00000000000E+00 0.  1.
         11    1    1    2    0    0  0.53845959886E+02 -0.10047864568E+02 -0.45775759985E+02  0.71384642470E+02  0.00000000000E+00 0. -1.
</event>
<event>
 7    1  0.4394360E-006  0.1101675E+03  0.7561462E-02  0.1260260E+00
          2   -1    0    0  501    0  0.00000000000E+00  0.00000000000E+00  0.67324831698E+03  0.67324831698E+03  0.00000000000E+00 0. -1.
         -2   -1    0    0    0  501 -0.00000000000E+00 -0.00000000000E+00 -0.32664965477E+02  0.32664965477E+02  0.00000000000E+00 0.  1.
         23    2    1    2    0    0 -0.74124943537E+02  0.65827871586E+02  0.32652668498E+03  0.36344813700E+03  0.12508819429E+03 0.  0.
          5    1    3    3  502    0 -0.53157734576E+02  0.71136689597E+02  0.32944225314E+03  0.34122696831E+03  0.41800000000E+01 0. -1.
         -5    1    3    3    0  502 -0.20967208961E+02 -0.53088180115E+01 -0.29155681508E+01  0.22221168690E+02  0.41800000000E+01 0. -1.
        -11    1    1    2    0    0  0.54434884387E+02 -0.17436146098E+02  0.26397897467E+03  0.27009641778E+03  0.00000000000E+00 0. -1.
         11    1    1    2    0    0  0.19690059149E+02 -0.48391725488E+02  0.50077691851E+02  0.72368727681E+02  0.00000000000E+00 0.  1.
</event>
<event>
 7    1  0.4394360E-006  0.8584166E+02  0.7561462E-02  0.1313246E+00
          2   -1    0    0  501    0  0.00000000000E+00  0.00000000000E+00  0.94802253481E+02  0.94802253481E+02  0.00000000000E+00 0. -1.
         -2   -1    0    0    0  501 -0.00000000000E+00 -0.00000000000E+00 -0.14918283540E+03  0.14918283540E+03  0.00000000000E+00 0.  1.
         23    2    1    2    0    0  0.17087555168E+02  0.24171767134E+02 -0.70777923748E+02  0.14673999742E+03  0.12508738339E+03 0.  0.
          5    1    3    3  502    0  0.44231299413E+02  0.60108167520E+02 -0.17339229549E+02  0.76730182665E+02  0.41800000000E+01 0.  1.
         -5    1    3    3    0  502 -0.27143744244E+02 -0.35936400386E+02 -0.53438694199E+02  0.70009814755E+02  0.41800000000E+01 0.  1.
        -11    1    1    2    0    0  0.94597989041E+01  0.62457371768E+01 -0.32158095843E+02  0.34097509534E+02  0.00000000000E+00 0.  1.
         11    1    1    2    0    0 -0.26547354072E+02 -0.30417504311E+02  0.48555437667E+02  0.63147581932E+02  0.00000000000E+00 0. -1.
</event>
<event>
 7    1  0.4394360E-006  0.8756669E+02  0.7561462E-02  0.1308854E+00
          1   -1    0    0  501    0  0.00000000000E+00  0.00000000000E+00  0.56413559735E+03  0.56413559735E+03  0.00000000000E+00 0. -1.
         -1   -1    0    0    0  501 -0.00000000000E+00 -0.00000000000E+00 -0.22307759684E+02  0.22307759684E+02  0.00000000000E+00 0.  1.
         23    2    1    2    0    0 -0.11289861264E+02  0.40050246422E-01  0.23825832505E+03  0.26933595165E+03  0.12508941931E+03 0.  0.
          5    1    3    3  502    0 -0.41646605302E+02 -0.31948830564E+02  0.21066733141E+03  0.21714825450E+03  0.41800000000E+01 0. -1.
         -5    1    3    3    0  502  0.30356744037E+02  0.31988880810E+02  0.27590993643E+02  0.52187697154E+02  0.41800000000E+01 0. -1.
        -11    1    1    2    0    0 -0.15785166723E+02  0.32330913686E+02  0.60405006967E+02  0.70308067353E+02  0.00000000000E+00 0.  1.
         11    1    1    2    0    0  0.27075027987E+02 -0.32370963932E+02  0.24316450565E+03  0.24679933803E+03  0.00000000000E+00 0. -1.
</event>
<event>
 6    1  0.4394360E-006  0.3027161E+03  0.7561462E-02  0.1083891E+00
         -1   -1    0    0    0  501 -0.00000000000E+00  0.00000000000E+00  0.55396169626E+03  0.55396169626E+03  0.00000000000E+00 0.  1.
          1   -1    0    0  501    0  0.00000000000E+00 -0.00000000000E+00 -0.24389173388E+03  0.24389173388E+03  0.00000000000E+00 0. -1.
          5    1    1    2  502    0 -0.94746240430E+02  0.22189092700E+03  0.20398891148E+03  0.31597686935E+03  0.41800000000E+01 0. -1.
         -5    1    1    2    0  502  0.16323412863E+03 -0.17468504319E+03  0.21069324634E+03  0.31869948465E+03  0.41800000000E+01 0.  1.
        -11    1    1    2    0    0  0.13754212359E+02  0.16132256503E+02 -0.14174241868E+02  0.25501709551E+02  0.00000000000E+00 0.  1.
         11    1    1    2    0    0 -0.82242100555E+02 -0.63338140310E+02 -0.90437953562E+02  0.13767536659E+03  0.00000000000E+00 0. -1.
</event>
<event>
 7    1  0.4394360E-006  0.9693512E+02  0.7561462E-02  0.1286876E+00
          2   -1    0    0  501    0  0.00000000000E+00  0.00000000000E+00  0.70816624188E+03  0.70816624188E+03  0.00000000000E+00 0. -1.
         -2   -1    0    0    0  501 -0.00000000000E+00 -0.00000000000E+00 -0.21826518231E+02  0.21826518231E+02  0.00000000000E+00 0.  1.
         23    2    1    2    0    0  0.22053191760E+02  0.61329259492E+02  0.38421680005E+03  0.40928841794E+03  0.12508732261E+03 0.  0.
          5    1    3    3  502    0  0.24747622237E+02 -0.87387515149E+01  0.29278497546E+03  0.29398864746E+03  0.41800000000E+01 0.  1.
         -5    1    3    3    0  502 -0.26944304776E+01  0.70068011007E+02  0.91431824596E+02  0.11529977047E+03  0.41800000000E+01 0.  1.
        -11    1    1    2    0    0 -0.47367311869E+02 -0.27411109524E+02  0.98051700352E+02  0.11229054769E+03  0.00000000000E+00 0.  1.
         11    1    1    2    0    0  0.25314120109E+02 -0.33918149968E+02  0.20407122325E+03  0.20841379448E+03  0.00000000000E+00 0. -1.
</event>
<event>
 7    1  0.4394360E-006  0.1393473E+03  0.7561462E-02  0.1214210E+00
         -1   -1    0    0    0  501 -0.00000000000E+00  0.00000000000E+00  0.24198408941E+02  0.24198408941E+02  0.00000000000E+00 0.  1.
          1   -1    0    0  501    0  0.00000000000E+00 -0.00000000000E+00 -0.97145231580E+03  0.97145231580E+03  0.00000000000E+00 0. -1.
         23    2    1    2    0    0  0.38430897908E+02 -0.94921306935E+02 -0.39849624658E+03  0.42998895704E+03  0.12491699728E+03 0.  0.
          5    1    3    3  502    0  0.40905036342E+02 -0.12377696926E+03 -0.34783312225E+03  0.37148258835E+03  0.41800000000E+01 0. -1.
         -5    1    3    3    0  502 -0.24741384340E+01  0.28855662326E+02 -0.50663124331E+02  0.58506368681E+02  0.41800000000E+01 0. -1.
        -11    1    1    2    0    0  0.16366114038E+02  0.28835095187E+02 -0.52932127116E+02  0.62458966404E+02  0.00000000000E+00 0.  1.
         11    1    1    2    0    0 -0.54797011947E+02  0.66086211747E+02 -0.49582553317E+03  0.50320280131E+03  0.00000000000E+00 0. -1.
</event>
<event>
 7    1  0.4394360E-006  0.1080814E+03  0.7561462E-02  0.1264165E+00
          1   -1    0    0  501    0  0.00000000000E+00  0.00000000000E+00  0.68167960925E+02  0.68167960925E+02  0.00000000000E+00 0. -1.
         -1   -1    0    0    0  501 -0.00000000000E+00 -0.00000000000E+00 -0.26491645464E+03  0.26491645464E+03  0.00000000000E+00 0.  1.
         23    2    1    2    0    0  0.75707938066E+02  0.10833162797E+02 -0.13355085416E+03  0.19832346155E+03  0.12508922996E+03 0.  0.
          5    1    3    3  502    0  0.92019323398E+02 -0.20383389655E+02 -0.13273355348E+03  0.16284565414E+03  0.41800000000E+01 0. -1.
         -5    1    3    3    0  502 -0.16311385331E+02  0.31216552452E+02 -0.81730067879E+00  0.35477807413E+02  0.41800000000E+01 0. -1.
        -11    1    1    2    0    0 -0.25083941917E+02  0.15298761518E+02  0.18824624879E+02  0.34894451535E+02  0.00000000000E+00 0. -1.
         11    1    1    2    0    0 -0.50623996149E+02 -0.26131924315E+02 -0.82022264442E+02  0.99866502486E+02  0.00000000000E+00 0.  1.
</event>
<event>
 7    1  0.4394360E-006  0.1108213E+03  0.7561462E-02  0.1259057E+00
          2   -1    0    0  501    0  0.00000000000E+00  0.00000000000E+00  0.43027351337E+02  0.43027351337E+02  0.00000000000E+00 0. -1.
         -2   -1    0    0    0  501 -0.00000000000E+00 -0.00000000000E+00 -0.37479265697E+03  0.37479265697E+03  0.00000000000E+00 0.  1.
         23    2    1    2    0    0 -0.85161209131E+01  0.44802474642E+02 -0.24864610976E+03  0.28206085323E+03  0.12511455143E+03 0.  0.
          5    1    3    3  502    0  0.48158096143E+02  0.19871355359E+02 -0.44342739243E+02  0.68540673409E+02  0.41800000000E+01 0. -1.
         -5    1    3    3    0  502 -0.56674217056E+02  0.24931119284E+02 -0.20430337052E+03  0.21352017982E+03  0.41800000000E+01 0. -1.
        -11    1    1    2    0    0  0.63634234882E+01 -0.75891824717E+02 -0.57865680839E+02  0.95647787409E+02  0.00000000000E+00 0.  1.
         11    1    1    2    0    0  0.21526974249E+01  0.31089350074E+02 -0.25253515031E+02  0.40111367662E+02  0.00000000000E+00 0. -1.
</event>
<event>
 7    1  0.4394360E-006  0.1103503E+03  0.7561462E-02  0.1259923E+00
          1   -1    0    0  501    0  0.00000000000E+00  0.00000000000E+00  0.58283168304E+02  0.58283168304E+02  0.00000000000E+00 0. -1.
         -1   -1    0    0    0  501 -0.00000000000E+00 -0.00000000000E+00 -0.31201864994E+03  0.31201864994E+03  0.00000000000E+00 0.  1.
         23    2    1    2    0    0 -0.14140082333E+02 -0.38737829159E+02 -0.23110881874E+03  0.26600184454E+03  0.12508050952E+03 0.  0.
          5    1    3    3  502    0  0.44387139838E+02  0.18605598899E+02 -0.10461590704E+03  0.11523170961E+03  0.41800000000E+01 0.  1.
         -5    1    3    3    0  502 -0.58527222171E+02 -0.57343428058E+02 -0.12649291170E+03  0.15077013493E+03  0.41800000000E+01 0.  1.
        -11    1    1    2    0    0 -0.23610605711E+02  0.46183484108E+02  0.11203402109E+02  0.53064970792E+02  0.00000000000E+00 0. -1.
         11    1    1    2    0    0  0.37750688043E+02 -0.74456549488E+01 -0.33830065003E+02  0.51235002913E+02  0.00000000000E+00 0.  1.
</event>
<event>
 7    1  0.4394360E-006  0.1573250E+03  0.7561462E-02  0.1191750E+00
          2   -1    0    0  501    0  0.00000000000E+00  0.00000000000E+00  0.36438695406E+02  0.36438695406E+02  0.00000000000E+00 0. -1.
         -2   -1    0    0    0  501 -0.00000000000E+00 -0.00000000000E+00 -0.10858578231E+04  0.10858578231E+04  0.00000000000E+00 0.  1.
         23    2    1    2    0    0  0.12198673578E+03 -0.43101279464E+02 -0.85238575115E+03  0.87117699434E+03  0.12509757275E+03 0.  0.
          5    1    3    3  502    0  0.14631642288E+03 -0.43689665263E+02 -0.67423665529E+03  0.69132468652E+03  0.41800000000E+01 0.  1.
         -5    1    3    3    0  502 -0.24329687106E+02  0.58838579919E+00 -0.17814909586E+03  0.17985230782E+03  0.41800000000E+01 0.  1.
        -11    1    1    2    0    0 -0.47617867400E+02  0.40942786274E+02 -0.15122967832E+03  0.16375038518E+03  0.00000000000E+00 0.  1.
         11    1    1    2    0    0 -0.74368868379E+02  0.21584931892E+01 -0.45803698245E+02  0.87369139000E+02  0.00000000000E+00 0. -1.
</event>
<event>
 7    1  0.4394360E-006  0.1099747E+03  0.7561462E-02  0.1260617E+00
         -2   -1    0    0    0  501 -0.00000000000E+00  0.00000000000E+00  0.12095032052E+02  0.12095032052E+02  0.00000000000E+00 0.  1.
          2   -1    0    0  501    0  0.00000000000E+00 -0.00000000000E+00 -0.10003955165E+04  0.10003955165E+04  0.00000000000E+00 0. -1.
         23    2    1    2    0    0 -0.16981969887E+02  0.72265098204E+01 -0.56501588873E+03  0.57899261138E+03  0.12509548261E+03 0.  0.
          5    1    3    3  502    0 -0.60499238739E+02 -0.31210366578E+02 -0.29811206600E+03  0.30581452085E+03  0.41800000000E+01 0. -1.
         -5    1    3    3    0  502  0.43517268852E+02  0.38436876398E+02 -0.26690382273E+03  0.27317809052E+03  0.41800000000E+01 0. -1.
        -11    1    1    2    0    0 -0.28364290982E+02 -0.31261768468E+02 -0.18777255394E+03  0.19245873111E+03  0.00000000000E+00 0. -1.
         11    1    1    2    0    0  0.45346260870E+02  0.24035258648E+02 -0.23551204181E+03  0.24103920609E+03  0.00000000000E+00 0.  1.
</event>
<event>
 7    1  0.4394360E-006  0.1087437E+03  0.7561462E-02  0.1262914E+00
         -1   -1    0    0    0  501 -0.00000000000E+00  0.00000000000E+00  0.12244414838E+03  0.12244414838E+03  0.00000000000E+00 0.  1.
          1   -1    0    0  501    0  0.00000000000E+00 -0.00000000000E+00 -0.10164513277E+03  0.10164513277E+03  0.00000000000E+00 0. -1.
         23    2    1    2    0    0  0.37730306923E+01  0.28009989774E+02  0.21135664231E+02  0.12997118086E+03  0.12508795412E+03 0.  0.
          5    1    3    3  502    0  0.42330255088E+02 -0.31204521560E+02  0.26398675947E+02  0.58990975186E+02  0.41800000000E+01 0.  1.
         -5    1    3    3    0  502 -0.38557224396E+02  0.59214511334E+02 -0.52630117159E+01  0.70980205677E+02  0.41800000000E+01 0.  1.
        -11    1    1    2    0    0  0.34652805794E+02 -0.40725238217E+02 -0.29877754167E+01  0.53556407452E+02  0.00000000000E+00 0. -1.
         11    1    1    2    0    0 -0.38425836487E+02  0.12715248442E+02  0.26511267906E+01  0.40561692838E+02  0.00000000000E+00 0.  1.
</event>
<event>
 7    1  0.4394360E-006  0.1288466E+03  0.7561462E-02  0.1229177E+00
          3   -1    0    0  501    0  0.00000000000E+00  0.00000000000E+00  0.23231330533E+03  0.23231330533E+03  0.00000000000E+00 0. -1.
         -3   -1    0    0    0  501 -0.00000000000E+00 -0.00000000000E+00 -0.12263171310E+03  0.12263171310E+03  0.00000000000E+00 0.  1.
         23    2    1    2    0    0  0.52888520715E+02 -0.90343075075E+02 -0.16478526848E+02  0.16394479999E+03  0.12508912326E+03 0.  0.
          5    1    3    3  502    0  0.40173330222E+02  0.10883399935E+02 -0.41385214812E+02  0.58843464040E+02  0.41800000000E+01 0.  1.
         -5    1    3    3    0  502  0.12715190494E+02 -0.10122647501E+03  0.24906687964E+02  0.10510133595E+03  0.41800000000E+01 0.  1.
        -11    1    1    2    0    0 -0.58473104176E+02  0.63435464944E+02  0.30556334003E+02  0.91525142296E+02  0.00000000000E+00 0.  1.
         11    1    1    2    0    0  0.55845834606E+01  0.26907610130E+02  0.95603785071E+02  0.99475076151E+02  0.00000000000E+00 0. -1.
</event>
<event>
 7    1  0.4394360E-006  0.8950199E+02  0.7561462E-02  0.1304062E+00
         -2   -1    0    0    0  501 -0.00000000000E+00  0.00000000000E+00  0.39489279443E+03  0.39489279443E+03  0.00000000000E+00 0. -1.
          2   -1    0    0  501    0  0.00000000000E+00 -0.00000000000E+00 -0.41897941330E+02  0.41897941330E+02  0.00000000000E+00 0.  1.
         23    2    1    2    0    0 -0.36485006739E+02  0.19209466959E+02  0.28517158524E+03  0.31411939263E+03  0.12509196801E+03 0.  0.
          5    1    3    3  502    0  0.32097506045E+02  0.14842122620E+02  0.20662103894E+03  0.20966703277E+03  0.41800000000E+01 0.  1.
         -5    1    3    3    0  502 -0.68582512784E+02  0.43673443388E+01  0.78550546303E+02  0.10445235986E+03  0.41800000000E+01 0.  1.
        -11    1    1    2    0    0  0.42841411744E+02  0.10545367629E+02 -0.43624347997E+01  0.44335337780E+02  0.00000000000E+00 0.  1.
         11    1    1    2    0    0 -0.63564050050E+01 -0.29754834588E+02  0.72185702659E+02  0.78336005350E+02  0.00000000000E+00 0. -1.
</event>
<event>
 7    1  0.4394360E-006  0.1316882E+03  0.7561462E-02  0.1224972E+00
         -2   -1    0    0    0  501 -0.00000000000E+00  0.00000000000E+00  0.80743545436E+03  0.80743545436E+03  0.00000000000E+00 0. -1.
          2   -1    0    0  501    0  0.00000000000E+00 -0.00000000000E+00 -0.21770913284E+02  0.21770913284E+02  0.00000000000E+00 0.  1.
         23    2    1    2    0    0  0.58768478761E+02 -0.48622990516E+02  0.46650164292E+03  0.48896750225E+03  0.12508999204E+03 0.  0.
          5    1    3    3  502    0 -0.34122964796E+02 -0.39447202467E+02  0.14444301659E+03  0.15362849980E+03  0.41800000000E+01 0. -1.
         -5    1    3    3    0  502  0.92891443557E+02 -0.91757880492E+01  0.32205862633E+03  0.33533900246E+03  0.41800000000E+01 0. -1.
        -11    1    1    2    0    0  0.10420560524E+02  0.47277056089E+02  0.14290965602E+03  0.15088697060E+03  0.00000000000E+00 0. -1.
         11    1    1    2    0    0 -0.69189039285E+02  0.13459344278E+01  0.17625324214E+03  0.18935189479E+03  0.00000000000E+00 0.  1.
</event>
<event>
 6    1  0.4394360E-006  0.8778954E+02  0.7561462E-02  0.1308295E+00
          1   -1    0    0  501    0  0.00000000000E+00  0.00000000000E+00  0.55605539384E+02  0.55605539384E+02  0.00000000000E+00 0. -1.
         -1   -1    0    0    0  501 -0.00000000000E+00 -0.00000000000E+00 -0.28353704449E+03  0.28353704449E+03  0.00000000000E+00 0.  1.
          5    1    1    2  502    0 -0.64683545883E+02 -0.29427275653E+01 -0.31321668936E+02  0.72049566955E+02  0.41800000000E+01 0. -1.
         -5    1    1    2    0  502  0.28991096392E+02  0.26126137071E+02 -0.15203503444E+03  0.15701968923E+03  0.41800000000E+01 0.  1.
        -11    1    1    2    0    0  0.15929474011E+02 -0.41528698217E+02  0.13132109525E+02  0.46377076433E+02  0.00000000000E+00 0.  1.
         11    1    1    2    0    0  0.19762975480E+02  0.18345288711E+02 -0.57706911250E+02  0.63696251253E+02  0.00000000000E+00 0. -1.
</event>
<event>
 7    1  0.4394360E-006  0.1805606E+03  0.7561462E-02  0.1167262E+00
         -2   -1    0    0    0  501 -0.00000000000E+00  0.00000000000E+00  0.15030141281E+03  0.15030141281E+03  0.00000000000E+00 0.  1.
          2   -1    0    0  501    0  0.00000000000E+00 -0.00000000000E+00 -0.23773777515E+03  0.23773777515E+03  0.00000000000E+00 0. -1.
         23    2    1    2    0    0  0.98212989281E+02  0.11811432987E+03 -0.36283525256E+02  0.20139542255E+03  0.12508731284E+03 0.  0.
          5    1    3    3  502    0  0.11699322021E+02 -0.20480206862E+02  0.17137035658E+02  0.29452731622E+02  0.41800000000E+01 0.  1.
         -5    1    3    3    0  502  0.86513667260E+02  0.13859453673E+03 -0.53420560915E+02  0.17194269092E+03  0.41800000000E+01 0.  1.
        -11    1    1    2    0    0 -0.51171082944E+02 -0.11583782644E+03 -0.57575633657E+02  0.13911087432E+03  0.00000000000E+00 0.  1.
         11    1    1    2    0    0 -0.47041906337E+02 -0.22765034255E+01  0.64227965813E+01  0.47532891092E+02  0.00000000000E+00 0. -1.
</event>
<event>
 7    1  0.4394360E-006  0.1141673E+03  0.7561462E-02  0.1253042E+00
         -2   -1    0    0    0  501 -0.00000000000E+00  0.00000000000E+00  0.13801496861E+04  0.13801496861E+04  0.00000000000E+00 0.  1.
          2   -1    0    0  501    0  0.00000000000E+00 -0.00000000000E+00 -0.17981839976E+02  0.17981839976E+02  0.00000000000E+00 0. -1.
         23    2    1    2    0    0 -0.53828751498E+02  0.10733353023E+02  0.11722628269E+04  0.11801951464E+04  0.12509080191E+03 0.  0.
          5    1    3    3  502    0 -0.12859110902E+02 -0.55576779095E+02  0.41579984456E+03  0.41971552062E+03  0.41800000000E+01 0. -1.
         -5    1    3    3    0  502 -0.40969640597E+02  0.66310132117E+02  0.75646298236E+03  0.76047962574E+03  0.41800000000E+01 0. -1.
        -11    1    1    2    0    0  0.50542143224E+02  0.25559559075E+02  0.16322534756E+03  0.17277243237E+03  0.00000000000E+00 0.  1.
         11    1    1    2    0    0  0.32866082743E+01 -0.36292912098E+02  0.26679671656E+02  0.45163947371E+02  0.00000000000E+00 0. -1.
</event>
<event>
 7    1  0.4394360E-006  0.1200759E+03  0.7561462E-02  0.1242972E+00
         -2   -1    0    0    0  501 -0.00000000000E+00  0.00000000000E+00  0.68534750112E+02  0.68534750112E+02  0.00000000000E+00 0.  1.
          2   -1    0    0  501    0  0.00000000000E+00 -0.00000000000E+00 -0.31616701458E+03  0.31616701458E+03  0.00000000000E+00 0. -1.
         23    2    1    2    0    0  0.43422533985E+02  0.60152065559E+02 -0.46978099982E+02  0.15282564463E+03  0.12507976787E+03 0.  0.
          5    1    3    3  502    0  0.40411660265E+02  0.89864312237E+02 -0.19598772202E+01  0.98640815172E+02  0.41800000000E+01 0. -1.
         -5    1    3    3    0  502  0.30108737206E+01 -0.29712246678E+02 -0.45018222762E+02  0.54184829462E+02  0.41800000000E+01 0. -1.
        -11    1    1    2    0    0 -0.51314558230E+02 -0.61615385696E+00 -0.60100449671E+02  0.79029283070E+02  0.00000000000E+00 0.  1.
         11    1    1    2    0    0  0.78920242453E+01 -0.59535911702E+02 -0.14055371482E+03  0.15284683699E+03  0.00000000000E+00 0. -1.
</event>
<event>
 7    1  0.4394360E-006  0.1305116E+03  0.7561462E-02  0.1226699E+00
         -2   -1    0    0    0  501 -0.00000000000E+00  0.00000000000E+00  0.90575504294E+02  0.90575504294E+02  0.00000000000E+00 0.  1.
          2   -1    0    0  501    0  0.00000000000E+00 -0.00000000000E+00 -0.19704379388E+03  0.19704379388E+03  0.00000000000E+00 0. -1.
         23    2    1    2    0    0  0.59132710475E+02 -0.45539813001E+02 -0.40300627042E+02  0.15113621729E+03  0.12508982221E+03 0.  0.
          5    1    3    3  502    0 -0.35742150188E+02  0.89616240276E+00  0.45887465381E+01  0.36288199210E+02  0.41800000000E+01 0.  1.
         -5    1    3    3    0  502  0.94874860663E+02 -0.46435975403E+02 -0.44889373580E+02  0.11484801808E+03  0.41800000000E+01 0.  1.
        -11    1    1    2    0    0 -0.88716335707E+01  0.64862971864E+02 -0.38395989829E+02  0.75895737932E+02  0.00000000000E+00 0.  1.
         11    1    1    2    0    0 -0.50261076905E+02 -0.19323158864E+02 -0.27771672716E+02  0.60587342948E+02  0.00000000000E+00 0. -1.
</event>
<event>
 7    1  0.4394360E-006  0.1789098E+03  0.7561462E-02  0.1168862E+00
          2   -1    0    0  501    0  0.00000000000E+00  0.00000000000E+00  0.41713539473E+03  0.41713539473E+03  0.00000000000E+00 0.  1.
         -2   -1    0    0    0  501 -0.00000000000E+00 -0.00000000000E+00 -0.10077821196E+03  0.10077821196E+03  0.00000000000E+00 0. -1.
         23    2    1    2    0    0 -0.16019349159E+03 -0.68188921557E+02  0.14937533722E+03  0.26128911131E+03  0.12508926633E+03 0.  0.
          5    1    3    3  502    0 -0.56654166819E+02 -0.54082251920E+02 -0.61751812215E+00  0.78437480323E+02  0.41800000000E+01 0. -1.
         -5    1    3    3    0  502 -0.10353932477E+03 -0.14106669637E+02  0.14999285534E+03  0.18285163099E+03  0.41800000000E+01 0. -1.
        -11    1    1    2    0    0  0.10536384811E+03  0.52820105385E+02  0.53041356999E+02  0.12924739677E+03  0.00000000000E+00 0. -1.
         11    1    1    2    0    0  0.54829643487E+02  0.15368816173E+02  0.11394048856E+03  0.12737709860E+03  0.00000000000E+00 0.  1.
</event>
<event>
 7    1  0.4394360E-006  0.1464402E+03  0.7561462E-02  0.1204917E+00
          2   -1    0    0  501    0  0.00000000000E+00  0.00000000000E+00  0.10096984662E+04  0.10096984662E+04  0.00000000000E+00 0. -1.
         -2   -1    0    0    0  501 -0.00000000000E+00 -0.00000000000E+00 -0.25364653335E+02  0.25364653335E+02  0.00000000000E+00 0.  1.
         23    2    1    2    0    0 -0.25126742817E+02  0.71556028288E+02  0.28428124487E+03  0.31971138297E+03  0.12509166170E+03 0.  0.
          5    1    3    3  502    0 -0.57143827535E+02  0.91649008972E+02  0.21690203189E+03  0.24234050778E+03  0.41800000000E+01 0. -1.
         -5    1    3    3    0  502  0.32017084718E+02 -0.20092980684E+02  0.67379212973E+02  0.77370875189E+02  0.41800000000E+01 0. -1.
        -11    1    1    2    0    0 -0.50364419356E+02 -0.15362419055E+02  0.27664320393E+03  0.28160973161E+03  0.00000000000E+00 0. -1.
         11    1    1    2    0    0  0.75491162173E+02 -0.56193609232E+02  0.42340936407E+03  0.43374200496E+03  0.00000000000E+00 0.  1.
</event>
<event>
 7    1  0.4394360E-006  0.1026253E+03  0.7561462E-02  0.1274870E+00
         -1   -1    0    0    0  501 -0.00000000000E+00  0.00000000000E+00  0.24242467150E+03  0.24242467150E+03  0.00000000000E+00 0.  1.
          1   -1    0    0  501    0  0.00000000000E+00 -0.00000000000E+00 -0.59817543794E+02  0.59817543794E+02  0.00000000000E+00 0. -1.
         23    2    1    2    0    0 -0.32464806254E+02 -0.10993050295E+01  0.15912957211E+03  0.20499876861E+03  0.12508837793E+03 0.  0.
          5    1    3    3  502    0  0.44749271221E+02 -0.13352222397E+02  0.85562258453E+02  0.97566139564E+02  0.41800000000E+01 0.  1.
         -5    1    3    3    0  502 -0.77214077475E+02  0.12252917367E+02  0.73567313655E+02  0.10743262904E+03  0.41800000000E+01 0.  1.
        -11    1    1    2    0    0 -0.15041848117E+02  0.23222009822E+02 -0.15700598691E+02  0.31812383347E+02  0.00000000000E+00 0. -1.
         11    1    1    2    0    0  0.47506654371E+02 -0.22122704792E+02  0.39178154292E+02  0.65431063346E+02  0.00000000000E+00 0.  1.
</event>
<event>
 7    1  0.4394360E-006  0.1169697E+03  0.7561462E-02  0.1248181E+00
         -2   -1    0    0    0  501 -0.00000000000E+00  0.00000000000E+00  0.33252367548E+02  0.33252367548E+02  0.00000000000E+00 0.  1.
          2   -1    0    0  501    0  0.00000000000E+00 -0.00000000000E+00 -0.58841258173E+03  0.58841258173E+03  0.00000000000E+00 0. -1.
         23    2    1    2    0    0 -0.46716611726E+02 -0.71557175884E+02 -0.26346919125E+03  0.30391933790E+03  0.12509227785E+03 0.  0.
          5    1    3    3  502    0 -0.17453511039E+02  0.34205755334E+02 -0.44292585835E+02  0.58770437343E+02  0.41800000000E+01 0.  1.
         -5    1    3    3    0  502 -0.29263100688E+02 -0.10576293122E+03 -0.21917660542E+03  0.24514890056E+03  0.41800000000E+01 0.  1.
        -11    1    1    2    0    0  0.19498033168E+02  0.32189135767E+02 -0.21487923140E+02  0.43336411938E+02  0.00000000000E+00 0.  1.
         11    1    1    2    0    0  0.27218578558E+02  0.39368040118E+02 -0.27020309979E+03  0.27440919944E+03  0.00000000000E+00 0. -1.
</event>
<event>
 7    1  0.4394360E-006  0.1076821E+03  0.7561462E-02  0.1264924E+00
          1   -1    0    0  501    0  0.00000000000E+00  0.00000000000E+00  0.18823423304E+02  0.18823423304E+02  0.00000000000E+00 0. -1.
         -1   -1    0    0    0  501 -0.00000000000E+00 -0.00000000000E+00 -0.82455159465E+03  0.82455159465E+03  0.00000000000E+00 0.  1.
         23    2    1    2    0    0 -0.40562002080E+02  0.37085168930E+02 -0.53901210266E+03  0.55605937384E+03  0.12508954655E+03 0.  0.
          5    1    3    3  502    0 -0.11032635343E+02 -0.37566796715E+02 -0.32623782391E+03  0.32860549814E+03  0.41800000000E+01 0. -1.
         -5    1    3    3    0  502 -0.29529366738E+02  0.74651965645E+02 -0.21277427874E+03  0.22745387570E+03  0.41800000000E+01 0. -1.
        -11    1    1    2    0    0 -0.13816065461E+02  0.14935405801E+02 -0.17020119750E+02  0.26526109545E+02  0.00000000000E+00 0. -1.
         11    1    1    2    0    0  0.54378067541E+02 -0.52020574731E+02 -0.24969594894E+03  0.26078953457E+03  0.00000000000E+00 0.  1.
</event>
<event>
 7    1  0.4394360E-006  0.2112601E+03  0.7561462E-02  0.1140572E+00
         -2   -1    0    0    0  501 -0.00000000000E+00  0.00000000000E+00  0.65062352632E+02  0.65062352632E+02  0.00000000000E+00 0.  1.
          2   -1    0    0  501    0  0.00000000000E+00 -0.00000000000E+00 -0.77329440061E+03  0.77329440061E+03  0.00000000000E+00 0. -1.
         23    2    1    2    0    0 -0.14813485581E+03 -0.12039536280E+03 -0.28722413565E+03  0.36685687385E+03  0.12508909983E+03 0.  0.
          5    1    3    3  502    0 -0.19319490457E+02  0.25118569246E+02 -0.58739112534E+02  0.66872572657E+02  0.41800000000E+01 0. -1.
         -5    1    3    3    0  502 -0.12881536536E+03 -0.14551393205E+03 -0.22848502312E+03  0.29998430119E+03  0.41800000000E+01 0. -1.
        -11    1    1    2    0    0  0.27321152400E+02  0.48274656634E+02 -0.21490829655E+03  0.22195148967E+03  0.00000000000E+00 0. -1.
         11    1    1    2    0    0  0.12081370341E+03  0.72120706166E+02 -0.20609961578E+03  0.24954838972E+03  0.00000000000E+00 0.  1.
</event>
<event>
 7    1  0.4394360E-006  0.1295895E+03  0.7561462E-02  0.1228066E+00
          1   -1    0    0  501    0  0.00000000000E+00  0.00000000000E+00  0.27353470503E+03  0.27353470503E+03  0.00000000000E+00 0. -1.
         -1   -1    0    0    0  501 -0.00000000000E+00 -0.00000000000E+00 -0.80449379265E+02  0.80449379265E+02  0.00000000000E+00 0.  1.
         23    2    1    2    0    0  0.37831262287E+02  0.72576814731E+02  0.34771804212E+02  0.15347590937E+03  0.12508868033E+03 0.  0.
          5    1    3    3  502    0  0.74463520189E+02  0.74971147770E+02  0.45320738051E+02  0.11505186020E+03  0.41800000000E+01 0. -1.
         -5    1    3    3    0  502 -0.36632257903E+02 -0.23943330384E+01 -0.10548933839E+02  0.38424049174E+02  0.41800000000E+01 0. -1.
        -11    1    1    2    0    0 -0.45468823806E+02 -0.88122453254E+02  0.15312229001E+03  0.18242646848E+03  0.00000000000E+00 0.  1.
         11    1    1    2    0    0  0.76375615193E+01  0.15545638523E+02  0.51912315492E+01  0.18081706447E+02  0.00000000000E+00 0. -1.
</event>
<event>
 7    1  0.4394360E-006  0.1564391E+03  0.7561462E-02  0.1192777E+00
          2   -1    0    0  501    0  0.00000000000E+00  0.00000000000E+00  0.10410208488E+03  0.10410208488E+03  0.00000000000E+00 0. -1.
         -2   -1    0    0    0  501 -0.00000000000E+00 -0.00000000000E+00 -0.29862407196E+03  0.29862407196E+03  0.00000000000E+00 0.  1.
         23    2    1    2    0    0 -0.12320669157E+03 -0.22522060709E+02 -0.17051391806E+03  0.24576731038E+03  0.12505775678E+03 0.  0.
          5    1    3    3  502    0  0.10262901418E+02  0.30587135300E+02 -0.23127736641E+02  0.39915718627E+02  0.41800000000E+01 0. -1.
         -5    1    3    3    0  502 -0.13346959299E+03 -0.53109196009E+02 -0.14738618142E+03  0.20585159175E+03  0.41800000000E+01 0. -1.
        -11    1    1    2    0    0  0.72868626085E+02 -0.14312949209E+02 -0.49850747305E+02  0.89441568577E+02  0.00000000000E+00 0.  1.
         11    1    1    2    0    0  0.50338065485E+02  0.36835009919E+02  0.25842678285E+02  0.67517277888E+02  0.00000000000E+00 0. -1.
</event>
<event>
 7    1  0.4394360E-006  0.1780713E+03  0.7561462E-02  0.1169683E+00
         -2   -1    0    0    0  501 -0.00000000000E+00  0.00000000000E+00  0.84094710979E+02  0.84094710979E+02  0.00000000000E+00 0.  1.
          2   -1    0    0  501    0  0.00000000000E+00 -0.00000000000E+00 -0.47395608258E+03  0.47395608258E+03  0.00000000000E+00 0. -1.
         23    2    1    2    0    0  0.35813933864E+02  0.15268750495E+03 -0.12201721471E+03  0.23480207911E+03  0.12509078161E+03 0.  0.
          5    1    3    3  502    0  0.62505986688E+02  0.27508676144E+02 -0.20620890538E+02  0.71459213273E+02  0.41800000000E+01 0.  1.
         -5    1    3    3    0  502 -0.26692052824E+02  0.12517882881E+03 -0.10139632417E+03  0.16334286584E+03  0.41800000000E+01 0.  1.
        -11    1    1    2    0    0  0.35987462279E+01 -0.42240996403E+02 -0.15769840026E+02  0.45232074969E+02  0.00000000000E+00 0.  1.
         11    1    1    2    0    0 -0.39412680092E+02 -0.11044650855E+03 -0.25207431687E+03  0.27801663948E+03  0.00000000000E+00 0. -1.
</event>
<event>
 7    1  0.4394360E-006  0.8672986E+02  0.7561462E-02  0.1310970E+00
          1   -1    0    0  501    0  0.00000000000E+00  0.00000000000E+00  0.93640806453E+02  0.93640806453E+02  0.00000000000E+00 0. -1.
         -1   -1    0    0    0  501 -0.00000000000E+00 -0.00000000000E+00 -0.17544421071E+03  0.17544421071E+03  0.00000000000E+00 0.  1.
         23    2    1    2    0    0  0.14014837699E+02  0.18608782237E+02 -0.70419651000E+02  0.14542786872E+03  0.12509050844E+03 0.  0.
          5    1    3    3  502    0  0.58515687030E+02 -0.21188600334E+02 -0.56101600099E+02  0.83892218628E+02  0.41800000000E+01 0.  1.
         -5    1    3    3    0  502 -0.44500849331E+02  0.39797382570E+02 -0.14318050901E+02  0.61535650092E+02  0.41800000000E+01 0.  1.
        -11    1    1    2    0    0 -0.24357231186E+02  0.55306979183E+01 -0.61885132683E+02  0.66735545084E+02  0.00000000000E+00 0.  1.
         11    1    1    2    0    0  0.10342393486E+02 -0.24139480155E+02  0.50501379426E+02  0.56921603360E+02  0.00000000000E+00 0. -1.
</event>
<event>
 6    1  0.4394360E-006  0.1690840E+03  0.7561462E-02  0.1178806E+00
          1   -1    0    0  501    0  0.00000000000E+00  0.00000000000E+00  0.14744752045E+04  0.14744752045E+04  0.00000000000E+00 0. -1.
         -1   -1    0    0    0  501 -0.00000000000E+00 -0.00000000000E+00 -0.19704017054E+02  0.19704017054E+02  0.00000000000E+00 0.  1.
          5    1    1    2  502    0  0.14315409559E+03 -0.64164302324E+01  0.67732482544E+03  0.69232987602E+03  0.41800000000E+01 0. -1.
         -5    1    1    2    0  502 -0.25754307965E+02  0.34956441093E+02  0.19166245777E+03  0.19656349425E+03  0.41800000000E+01 0.  1.
        -11    1    1    2    0    0 -0.39891104266E+02  0.33355743393E+02  0.23924652824E+03  0.24483220191E+03  0.00000000000E+00 0.  1.
         11    1    1    2    0    0 -0.77508683363E+02 -0.61895754253E+02  0.34653737597E+03  0.36045364936E+03  0.00000000000E+00 0. -1.
</event>
<event>
 7    1  0.4394360E-006  0.1033937E+03  0.7561462E-02  0.1273317E+00
          2   -1    0    0  501    0  0.00000000000E+00  0.00000000000E+00  0.15499493596E+03  0.15499493596E+03  0.00000000000E+00 0. -1.
         -2   -1    0    0    0  501 -0.00000000000E+00 -0.00000000000E+00 -0.10486022485E+03  0.10486022485E+03  0.00000000000E+00 0.  1.
         23    2    1    2    0    0  0.14849716472E+02 -0.53084015038E+02 -0.80788893317E+01  0.13693914559E+03  0.12509450192E+03 0.  0.
          5    1    3    3  502    0 -0.34266742063E+02  0.86368747935E+01 -0.38378763041E+02  0.52337434694E+02  0.41800000000E+01 0.  1.
         -5    1    3    3    0  502  0.49116458534E+02 -0.61720889831E+02  0.30299873709E+02  0.84601710901E+02  0.41800000000E+01 0.  1.
        -11    1    1    2    0    0  0.28319791411E+02  0.35956508344E+02 -0.32427353791E+01  0.45884598838E+02  0.00000000000E+00 0.  1.
         11    1    1    2    0    0 -0.43169507882E+02  0.17127506694E+02  0.61456335827E+02  0.77031416381E+02  0.00000000000E+00 0. -1.
</event>
<event>
 7    1  0.4394360E-006  0.1188811E+03  0.7561462E-02  0.1244954E+00
         -2   -1    0    0    0  501 -0.00000000000E+00  0.00000000000E+00  0.33146700388E+02  0.33146700388E+02  0.00000000000E+00 0.  1.
          2   -1    0    0  501    0  0.00000000000E+00 -0.00000000000E+00 -0.47583221108E+03  0.47583221108E+03  0.00000000000E+00 0. -1.
         23    2    1    2    0    0  0.33919719564E+02  0.48190580275E+02 -0.20468323333E+03  0.24701369856E+03  0.12509061461E+03 0.  0.
          5    1    3    3  502    0 -0.17273045114E+01  0.80711090911E+02 -0.82139476755E+02  0.11524595359E+03  0.41800000000E+01 0. -1.
         -5    1    3    3    0  502  0.35647024076E+02 -0.32520510637E+02 -0.12254375658E+03  0.13176774497E+03  0.41800000000E+01 0. -1.
        -11    1    1    2    0    0  0.17933870917E+02  0.17327011532E+02 -0.41178010353E+02  0.48140186865E+02  0.00000000000E+00 0.  1.
         11    1    1    2    0    0 -0.51853590481E+02 -0.65517591807E+02 -0.19682426701E+03  0.21382502605E+03  0.00000000000E+00 0. -1.
</event>
<event>
 7    1  0.4394360E-006  0.8918921E+02  0.7561462E-02  0.1304827E+00
          3   -1    0    0  501    0  0.00000000000E+00  0.00000000000E+00  0.70013908077E+03  0.70013908077E+03  0.00000000000E+00 0. -1.
         -3   -1    0    0    0  501 -0.00000000000E+00 -0.00000000000E+00 -0.16651001340E+02  0.16651001340E+02  0.00000000000E+00 0.  1.
         23    2    1    2    0    0 -0.55633248083E+01  0.12290660885E+02  0.39175529193E+03  0.41146496396E+03  0.12509675008E+03 0.  0.
          5    1    3    3  502    0  0.22513216429E+02  0.47459357038E+02  0.75936102166E+02  0.92428347906E+02  0.41800000000E+01 0. -1.
         -5    1    3    3    0  502 -0.28076541238E+02 -0.35168696153E+02  0.31581918977E+03  0.31903661605E+03  0.41800000000E+01 0. -1.
        -11    1    1    2    0    0 -0.22330800197E+02 -0.37005222403E+02  0.22289302033E+03  0.22704481856E+03  0.00000000000E+00 0. -1.
         11    1    1    2    0    0  0.27894125005E+02  0.24714561518E+02  0.68839767167E+02  0.78280299593E+02  0.00000000000E+00 0.  1.
</event>
<event>
 7    1  0.4394360E-006  0.1058314E+03  0.7561462E-02  0.1268490E+00
         -2   -1    0    0    0  501 -0.00000000000E+00  0.00000000000E+00  0.14805648394E+02  0.14805648394E+02  0.00000000000E+00 0.  1.
          2   -1    0    0  501    0  0.00000000000E+00 -0.00000000000E+00 -0.10323480833E+04  0.10323480833E+04  0.00000000000E+00 0. -1.
         23    2    1    2    0    0  0.41880297560E+02 -0.46647749705E+02 -0.56323670405E+03  0.58035626499E+03  0.12509131723E+03 0.  0.
          5    1    3    3  502    0 -0.25685880607E+02 -0.11464564936E+02 -0.39035042607E+03  0.39138488505E+03  0.41800000000E+01 0. -1.
         -5    1    3    3    0  502  0.67566178166E+02 -0.35183184769E+02 -0.17288627798E+03  0.18897137994E+03  0.41800000000E+01 0. -1.
        -11    1    1    2    0    0  0.16630158906E+02  0.45464936153E+02 -0.22411460437E+03  0.22928362021E+03  0.00000000000E+00 0.  1.
         11    1    1    2    0    0 -0.58510456465E+02  0.11828135517E+01 -0.23019112647E+03  0.23751384648E+03  0.00000000000E+00 0. -1.
</event>
<event>
 7    1  0.4394360E-006  0.1079666E+03  0.7561462E-02  0.1264382E+00
         -4   -1    0    0    0  501 -0.00000000000E+00  0.00000000000E+00  0.31685179221E+02  0.31685179221E+02  0.00000000000E+00 0. -1.
          4   -1    0    0  501    0  0.00000000000E+00 -0.00000000000E+00 -0.65750037307E+03  0.65750037307E+03  0.00000000000E+00 0.  1.
         23    2    1    2    0    0  0.72922396012E+02  0.60924125208E+02 -0.34791598070E+03  0.38173542141E+03  0.12508787895E+03 0.  0.
          5    1    3    3  502    0  0.18896579825E+02 -0.51118800090E+01  0.32939821048E+01  0.20286319637E+02  0.41800000000E+01 0. -1.
         -5    1    3    3    0  502  0.54025816187E+02  0.66036005216E+02 -0.35120996280E+03  0.36144910177E+03  0.41800000000E+01 0. -1.
        -11    1    1    2    0    0 -0.42810046425E+02 -0.67253757623E+02 -0.10501032748E+03  0.13184436608E+03  0.00000000000E+00 0. -1.
         11    1    1    2    0    0 -0.30112349587E+02  0.63296324152E+01 -0.17288888567E+03  0.17560576480E+03  0.00000000000E+00 0.  1.
</event>
<event>
 7    1  0.4394360E-006  0.1134041E+03  0.7561462E-02  0.1254393E+00
         -2   -1    0    0    0  501 -0.00000000000E+00  0.00000000000E+00  0.17400592649E+03  0.17400592649E+03  0.00000000000E+00 0.  1.
          2   -1    0    0  501    0  0.00000000000E+00 -0.00000000000E+00 -0.14823531643E+03  0.14823531643E+03  0.00000000000E+00 0. -1.
         23    2    1    2    0    0  0.85601813513E+02 -0.72076735473E+02  0.47988453127E+02  0.17456423572E+03  0.12508818683E+03 0.  0.
          5    1    3    3  502    0  0.57702911496E+02 -0.62365146651E+02 -0.30677825056E+02  0.90430298364E+02  0.41800000000E+01 0.  1.
         -5    1    3    3    0  502  0.27898902017E+02 -0.97115888217E+01  0.78666278183E+02  0.84133937352E+02  0.41800000000E+01 0.  1.
        -11    1    1    2    0    0 -0.41238656563E+02  0.34530885934E+02  0.36545602338E+02  0.65027608973E+02  0.00000000000E+00 0.  1.
         11    1    1    2    0    0 -0.44363156950E+02  0.37545849539E+02 -0.58763445410E+02  0.82649398236E+02  0.00000000000E+00 0. -1.
</event>
<event>
 7    1  0.4394360E-006  0.1035368E+03  0.7561462E-02  0.1273030E+00
         -2   -1    0    0    0  501 -0.00000000000E+00  0.00000000000E+00  0.28630061665E+02  0.28630061665E+02  0.00000000000E+00 0.  1.
          2   -1    0    0  501    0  0.00000000000E+00 -0.00000000000E+00 -0.57973107759E+03  0.57973107759E+03  0.00000000000E+00 0. -1.
         23    2    1    2    0    0  0.56788370881E+02 -0.19005892729E+02 -0.21175222282E+03  0.25312475852E+03  0.12508795498E+03 0.  0.
          5    1    3    3  502    0 -0.57542827009E+01  0.27299353642E+02 -0.78241464936E+00  0.28221464373E+02  0.41800000000E+01 0.  1.
         -5    1    3    3    0  502  0.62542653582E+02 -0.46305246372E+02 -0.21096980817E+03  0.22490329415E+03  0.41800000000E+01 0.  1.
        -11    1    1    2    0    0 -0.13933049754E+02  0.47478312751E+02 -0.11738666874E+03  0.12738897148E+03  0.00000000000E+00 0.  1.
         11    1    1    2    0    0 -0.42855321127E+02 -0.28472420022E+02 -0.22196212436E+03  0.22784740925E+03  0.00000000000E+00 0. -1.
</event>
<event>
 7    1  0.4394360E-006  0.1220313E+03  0.7561462E-02  0.1239783E+00
         -2   -1    0    0    0  501 -0.00000000000E+00  0.00000000000E+00  0.37464642650E+02  0.37464642650E+02  0.00000000000E+00 0.  1.
          2   -1    0    0  501    0  0.00000000000E+00 -0.00000000000E+00 -0.55386577600E+03  0.55386577600E+03  0.00000000000E+00 0. -1.
         23    2    1    2    0    0 -0.58580360913E+02 -0.59930681041E+00 -0.12828054668E+03  0.18854226271E+03  0.12514099375E+03 0.  0.
          5    1    3    3  502    0 -0.52467222596E+02 -0.58617599236E+02 -0.84156887772E+02  0.11527656547E+03  0.41800000000E+01 0.  1.
         -5    1    3    3    0  502 -0.61131383170E+01  0.58018292426E+02 -0.44123658912E+02  0.73265697238E+02  0.41800000000E+01 0.  1.
        -11    1    1    2    0    0 -0.23912797557E+02 -0.36556776547E+01 -0.67721957585E+02  0.71912790276E+02  0.00000000000E+00 0.  1.
         11    1    1    2    0    0  0.82493158470E+02  0.42549844651E+01 -0.32039862908E+03  0.33087536566E+03  0.00000000000E+00 0. -1.
</event>
<event>
 7    1  0.4394360E-006  0.7369052E+02  0.7561462E-02  0.1347975E+00
         -2   -1    0    0    0  501 -0.00000000000E+00  0.00000000000E+00  0.19512143257E+03  0.19512143257E+03  0.00000000000E+00 0.  1.
          2   -1    0    0  501    0  0.00000000000E+00 -0.00000000000E+00 -0.67440429304E+02  0.67440429304E+02  0.00000000000E+00 0. -1.
         23    2    1    2    0    0 -0.10533107301E+02  0.10468865471E+02  0.12119077212E+03  0.17480241951E+03  0.12509252226E+03 0.  0.
          5    1    3    3  502    0  0.47358445814E+02  0.61368232427E+01  0.10334934007E+03  0.11392559626E+03  0.41800000000E+01 0.  1.
         -5    1    3    3    0  502 -0.57891553115E+02  0.43320422282E+01  0.17841432048E+02  0.60876823254E+02  0.41800000000E+01 0.  1.
        -11    1    1    2    0    0 -0.10463229684E+02  0.80833434851E+01 -0.35158995412E+02  0.37562941520E+02  0.00000000000E+00 0. -1.
         11    1    1    2    0    0  0.20996336985E+02 -0.18552208956E+02  0.41649226554E+02  0.50196500839E+02  0.00000000000E+00 0.  1.
</event>
<event>
 7    1  0.4394360E-006  0.9828230E+02  0.7561462E-02  0.1283950E+00
          1   -1    0    0  501    0  0.00000000000E+00  0.00000000000E+00  0.46694937873E+03  0.46694937873E+03  0.00000000000E+00 0. -1.
         -1   -1    0    0    0  501 -0.00000000000E+00 -0.00000000000E+00 -0.92821416127E+02  0.92821416127E+02  0.00000000000E+00 0.  1.
         23    2    1    2    0    0 -0.17328705395E+02 -0.15044077027E+02 -0.47443462826E+02  0.12700453837E+03  0.11555372048E+03 0.  0.
          5    1    3    3  502    0  0.25717343983E+01  0.40507733038E+02 -0.53782349483E+02  0.67509286543E+02  0.41800000000E+01 0. -1.
         -5    1    3    3    0  502 -0.19900439793E+02 -0.55551810065E+02  0.63388866561E+01  0.59495251824E+02  0.41800000000E+01 0.  1.
        -11    1    1    2    0    0  0.26199470026E+02 -0.36150809667E+02  0.16162526721E+03  0.16767832379E+03  0.00000000000E+00 0.  1.
         11    1    1    2    0    0 -0.88707646313E+01  0.51194886695E+02  0.25994615822E+03  0.26508793270E+03  0.00000000000E+00 0. -1.
</event>
<event>
 7    1  0.4394360E-006  0.1802937E+03  0.7561462E-02  0.1167519E+00
          2   -1    0    0  501    0  0.00000000000E+00  0.00000000000E+00  0.88812178477E+03  0.88812178477E+03  0.00000000000E+00 0. -1.
         -2   -1    0    0    0  501 -0.00000000000E+00 -0.00000000000E+00 -0.47052488210E+02  0.47052488210E+02  0.00000000000E+00 0.  1.
         23    2    1    2    0    0  0.99278198317E+02 -0.13597655464E+03  0.35886562820E+03  0.41566615878E+03  0.12509209558E+03 0.  0.
          5    1    3    3  502    0  0.43256814293E+02 -0.70987881374E+02  0.54691501860E+02  0.99594498144E+02  0.41800000000E+01 0. -1.
         -5    1    3    3    0  502  0.56021384024E+02 -0.64988673267E+02  0.30417412634E+03  0.31607166063E+03  0.41800000000E+01 0. -1.
        -11    1    1    2    0    0 -0.84485308183E+02  0.38476899701E+02  0.26988087917E+03  0.28540134557E+03  0.00000000000E+00 0. -1.
         11    1    1    2    0    0 -0.14792890133E+02  0.97499654941E+02  0.21232278918E+03  0.23410676863E+03  0.00000000000E+00 0.  1.
</event>
<event>
 7    1  0.4394360E-006  0.8949045E+02  0.7561462E-02  0.1304090E+00
          1   -1    0    0  501    0  0.00000000000E+00  0.00000000000E+00  0.49595586623E+03  0.49595586623E+03  0.00000000000E+00 0. -1.
         -1   -1    0    0    0  501 -0.00000000000E+00 -0.00000000000E+00 -0.35697135174E+02  0.35697135174E+02  0.00000000000E+00 0.  1.
         23    2    1    2    0    0  0.53078365087E+02 -0.45617629680E+02  0.18656171888E+03  0.23526816050E+03  0.12509017315E+03 0.  0.
          5    1    3    3  502    0  0.44844504629E+01 -0.20930943236E+02 -0.14970395351E+02  0.26453729750E+02  0.41800000000E+01 0.  1.
         -5    1    3    3    0  502  0.48593914624E+02 -0.24686686443E+02  0.20153211423E+03  0.20881443075E+03  0.41800000000E+01 0.  1.
        -11    1    1    2    0    0 -0.67361155335E+02  0.15424450806E+02  0.23651435654E+03  0.24640308395E+03  0.00000000000E+00 0.  1.
         11    1    1    2    0    0  0.14282790248E+02  0.30193178873E+02  0.37182655648E+02  0.49981756960E+02  0.00000000000E+00 0. -1.
</event>
<event>
 7    1  0.4394360E-006  0.9826654E+02  0.7561462E-02  0.1283984E+00
         -2   -1    0    0    0  501 -0.00000000000E+00  0.00000000000E+00  0.42930006650E+02  0.42930006650E+02  0.00000000000E+00 0.  1.
          2   -1    0    0  501    0  0.00000000000E+00 -0.00000000000E+00 -0.39055380740E+03  0.39055380740E+03  0.00000000000E+00 0. -1.
         23    2    1    2    0    0  0.21176357074E+02 -0.37024718075E+02 -0.10040963016E+03  0.16597931878E+03  0.12509105719E+03 0.  0.
          5    1    3    3  502    0  0.45182438051E+02 -0.65952715643E+02 -0.28951679681E+02  0.85128641275E+02  0.41800000000E+01 0.  1.
         -5    1    3    3    0  502 -0.24006080977E+02  0.28927997568E+02 -0.71457950479E+02  0.80850677510E+02  0.41800000000E+01 0.  1.
        -11    1    1    2    0    0 -0.56828266471E+01  0.54789641686E+02 -0.23417522932E+03  0.24056649264E+03  0.00000000000E+00 0. -1.
         11    1    1    2    0    0 -0.15493530427E+02 -0.17764923611E+02 -0.13038941272E+02  0.26938002626E+02  0.00000000000E+00 0.  1.
</event>
<event>
 7    1  0.4394360E-006  0.1024927E+03  0.7561462E-02  0.1275140E+00
          1   -1    0    0  501    0  0.00000000000E+00  0.00000000000E+00  0.42627909357E+03  0.42627909357E+03  0.00000000000E+00 0. -1.
         -1   -1    0    0    0  501 -0.00000000000E+00 -0.00000000000E+00 -0.35221451786E+02  0.35221451786E+02  0.00000000000E+00 0.  1.
         23    2    1    2    0    0 -0.14243598886E+02  0.34911399567E+02  0.14191035327E+03  0.19289245958E+03  0.12508903497E+03 0.  0.
          5    1    3    3  502    0 -0.55139957333E+02  0.87758223708E+01  0.16527119975E+02  0.58378489597E+02  0.41800000000E+01 0. -1.
         -5    1    3    3    0  502  0.40896358447E+02  0.26135577196E+02  0.12538323329E+03  0.13451396998E+03  0.41800000000E+01 0. -1.
        -11    1    1    2    0    0  0.45461688470E+02  0.90591775443E+01  0.10927973039E+03  0.11870506851E+03  0.00000000000E+00 0.  1.
         11    1    1    2    0    0 -0.31218089584E+02 -0.43970577111E+02  0.13986755813E+03  0.14990301727E+03  0.00000000000E+00 0. -1.
</event>
<event>
 7    1  0.4394360E-006  0.1185176E+03  0.7561462E-02  0.1245563E+00
         -2   -1    0    0    0  501 -0.00000000000E+00  0.00000000000E+00  0.46682415762E+02  0.46682415762E+02  0.00000000000E+00 0. -1.
          2   -1    0    0  501    0  0.00000000000E+00 -0.00000000000E+00 -0.32061141107E+03  0.32061141107E+03  0.00000000000E+00 0.  1.
         23    2    1    2    0    0 -0.42889231764E+02 -0.36318064907E+02 -0.16458752115E+03  0.21423124766E+03  0.12508991692E+03 0.  0.
          5    1    3    3  502    0 -0.46602061884E+02 -0.79036582575E+02 -0.93208691071E+02  0.13085819060E+03  0.41800000000E+01 0.  1.
         -5    1    3    3    0  502  0.37128301193E+01  0.42718517668E+02 -0.71378830076E+02  0.83373057052E+02  0.41800000000E+01 0.  1.
        -11    1    1    2    0    0  0.68452725711E+02  0.34013192471E+02 -0.99733491246E+02  0.12565604719E+03  0.00000000000E+00 0.  1.
         11    1    1    2    0    0 -0.25563493946E+02  0.23048724364E+01 -0.96079829119E+01  0.27406531983E+02  0.00000000000E+00 0. -1.
</event>
<event>
 7    1  0.4394360E-006  0.1739350E+03  0.7561462E-02  0.1173805E+00
          1   -1    0    0  501    0  0.00000000000E+00  0.00000000000E+00  0.20482968793E+03  0.20482968793E+03  0.00000000000E+00 0. -1.
         -1   -1    0    0    0  501 -0.00000000000E+00 -0.00000000000E+00 -0.20218477127E+03  0.20218477127E+03  0.00000000000E+00 0.  1.
         23    2    1    2    0    0  0.15121416102E+03  0.41885764799E+02 -0.66485922986E+02  0.21139631993E+03  0.12509151186E+03 0.  0.
          5    1    3    3  502    0  0.16161935705E+03  0.57537828425E+02 -0.78491662227E+02  0.18870567483E+03  0.41800000000E+01 0. -1.
         -5    1    3    3    0  502 -0.10405196033E+02 -0.15652063626E+02  0.12005739241E+02  0.22690645099E+02  0.41800000000E+01 0. -1.
        -11    1    1    2    0    0 -0.85691767119E+02 -0.26626655688E+02 -0.11655956798E+02  0.90487121040E+02  0.00000000000E+00 0.  1.
         11    1    1    2    0    0 -0.65522393901E+02 -0.15259109111E+02  0.80786796450E+02  0.10513101823E+03  0.00000000000E+00 0. -1.
</event>
<event>
 7    1  0.4394360E-006  0.1431064E+03  0.7561462E-02  0.1209209E+00
         -2   -1    0    0    0  501 -0.00000000000E+00  0.00000000000E+00  0.19668516556E+02  0.19668516556E+02  0.00000000000E+00 0.  1.
          2   -1    0    0  501    0  0.00000000000E+00 -0.00000000000E+00 -0.11498189743E+04  0.11498189743E+04  0.00000000000E+00 0. -1.
         23    2    1    2    0    0  0.13957451638E+02  0.99018533327E+02 -0.51294579414E+03  0.53736375878E+03  0.12508773373E+03 0.  0.
          5    1    3    3  502    0 -0.28856649764E+02 -0.11917937227E+02 -0.47835512777E+02  0.57275231523E+02  0.41800000000E+01 0. -1.
         -5    1    3    3    0  502  0.42814101402E+02  0.11093647055E+03 -0.46511028136E+03  0.48008852726E+03  0.41800000000E+01 0. -1.
        -11    1    1    2    0    0 -0.29598946227E+02  0.54490739442E+01 -0.16723661701E+03  0.16992314761E+03  0.00000000000E+00 0.  1.
         11    1    1    2    0    0  0.15641494589E+02 -0.10446760727E+03 -0.44996804662E+03  0.46220058449E+03  0.00000000000E+00 0. -1.
</event>
<event>
 7    1  0.4394360E-006  0.1193863E+03  0.7561462E-02  0.1244113E+00
          2   -1    0    0  501    0  0.00000000000E+00  0.00000000000E+00  0.99405740054E+03  0.99405740054E+03  0.00000000000E+00 0. -1.
         -2   -1    0    0    0  501 -0.00000000000E+00 -0.00000000000E+00 -0.15090349172E+02  0.15090349172E+02  0.00000000000E+00 0.  1.
         23    2    1    2    0    0 -0.29397688341E+02  0.46058114590E+02  0.48899580036E+03  0.50768984298E+03  0.12508600998E+03 0.  0.
          5    1    3    3  502    0 -0.71529107512E+01 -0.43163817195E+02  0.13835628590E+03  0.14516960252E+03  0.41800000000E+01 0. -1.
         -5    1    3    3    0  502 -0.22244777590E+02  0.89221931785E+02  0.35063951446E+03  0.36252024046E+03  0.41800000000E+01 0. -1.
        -11    1    1    2    0    0  0.54029319070E+02 -0.54492439371E+02  0.41649587341E+03  0.42350608713E+03  0.00000000000E+00 0.  1.
         11    1    1    2    0    0 -0.24631630729E+02  0.84343247806E+01  0.73475377598E+02  0.77951819607E+02  0.00000000000E+00 0. -1.
</event>
<event>
 7    1  0.4394360E-006  0.1421467E+03  0.7561462E-02  0.1210469E+00
          2   -1    0    0  501    0  0.00000000000E+00  0.00000000000E+00  0.40944127983E+03  0.40944127983E+03  0.00000000000E+00 0. -1.
         -2   -1    0    0    0  501 -0.00000000000E+00 -0.00000000000E+00 -0.57972825869E+02  0.57972825869E+02  0.00000000000E+00 0.  1.
         23    2    1    2    0    0 -0.82317026579E+02  0.60014180492E+02  0.12780243749E+03  0.20581283675E+03  0.12509063122E+03 0.  0.
          5    1    3    3  502    0  0.32175204036E+02  0.23893895951E+02  0.23011608524E+02  0.46402247202E+02  0.41800000000E+01 0.  1.
         -5    1    3    3    0  502 -0.11449223062E+03  0.36120284541E+02  0.10479082896E+03  0.15941058955E+03  0.41800000000E+01 0.  1.
        -11    1    1    2    0    0  0.30407019316E+02 -0.64962127428E+02  0.17937755691E+03  0.19318636791E+03  0.00000000000E+00 0. -1.
         11    1    1    2    0    0  0.51910007263E+02  0.49479469362E+01  0.44288459561E+02  0.68414901032E+02  0.00000000000E+00 0.  1.
</event>
<event>
 7    1  0.4394360E-006  0.1054170E+03  0.7561462E-02  0.1269300E+00
         -1   -1    0    0    0  501 -0.00000000000E+00  0.00000000000E+00  0.30148743065E+02  0.30148743065E+02  0.00000000000E+00 0.  1.
          1   -1    0    0  501    0  0.00000000000E+00 -0.00000000000E+00 -0.53946372857E+03  0.53946372857E+03  0.00000000000E+00 0. -1.
         23    2    1    2    0    0 -0.43962826652E+02  0.46705011391E+02 -0.22708761479E+03  0.26707808506E+03  0.12509128872E+03 0.  0.
          5    1    3    3  502    0  0.42086945390E+02  0.30333930529E+02 -0.70851106201E+02  0.87913650610E+02  0.41800000000E+01 0.  1.
         -5    1    3    3    0  502 -0.86049772042E+02  0.16371080861E+02 -0.15623650859E+03  0.17916443445E+03  0.41800000000E+01 0.  1.
        -11    1    1    2    0    0  0.40295106245E+02 -0.21594272303E+02 -0.27092325684E+03  0.27475337902E+03  0.00000000000E+00 0. -1.
         11    1    1    2    0    0  0.36677204073E+01 -0.25110739087E+02 -0.11304113879E+02  0.27781007561E+02  0.00000000000E+00 0.  1.
</event>
<event>
 7    1  0.4394360E-006  0.1175350E+03  0.7561462E-02  0.1247220E+00
          1   -1    0    0  501    0  0.00000000000E+00  0.00000000000E+00  0.35313290132E+02  0.35313290132E+02  0.00000000000E+00 0. -1.
         -1   -1    0    0    0  501 -0.00000000000E+00 -0.00000000000E+00 -0.61768862781E+03  0.61768862781E+03  0.00000000000E+00 0.  1.
         23    2    1    2    0    0  0.88709978580E+02  0.43935523479E+02 -0.30001243855E+03  0.33978799175E+03  0.12509446641E+03 0.  0.
          5    1    3    3  502    0 -0.77256188067E+00 -0.24925144368E+01  0.11410064616E+02  0.12428654578E+02  0.41800000000E+01 0.  1.
         -5    1    3    3    0  502  0.89482540461E+02  0.46428037915E+02 -0.31142250317E+03  0.32735933717E+03  0.41800000000E+01 0.  1.
        -11    1    1    2    0    0 -0.65223569121E+02 -0.68964839561E+02 -0.24359101935E+03  0.26143230056E+03  0.00000000000E+00 0.  1.
         11    1    1    2    0    0 -0.23486409459E+02  0.25029316082E+02 -0.38771879777E+02  0.51781625643E+02  0.00000000000E+00 0. -1.
</event>
<event>
 7    1  0.4394360E-006  0.1230987E+03  0.7561462E-02  0.1238071E+00
         -2   -1    0    0    0  501 -0.00000000000E+00  0.00000000000E+00  0.45657360342E+02  0.45657360342E+02  0.00000000000E+00 0.  1.
          2   -1    0    0  501    0  0.00000000000E+00 -0.00000000000E+00 -0.47665728179E+03  0.47665728179E+03  0.00000000000E+00 0. -1.
         23    2    1    2    0    0  0.87623232514E+01  0.98047276163E+02 -0.20890063779E+03  0.26263895339E+03  0.12509874778E+03 0.  0.
          5    1    3    3  502    0 -0.34354694714E+02  0.43878134200E+02 -0.16730167781E+02  0.58334437717E+02  0.41800000000E+01 0. -1.
         -5    1    3    3    0  502  0.43117017965E+02  0.54169141962E+02 -0.19217047001E+03  0.20430451567E+03  0.41800000000E+01 0. -1.
        -11    1    1    2    0    0 -0.39127069617E+02 -0.43377810861E+02 -0.51145875285E+02  0.77643174913E+02  0.00000000000E+00 0.  1.
         11    1    1    2    0    0  0.30364746365E+02 -0.54669465301E+02 -0.17095340837E+03  0.18203251383E+03  0.00000000000E+00 0. -1.
</event>
<event>
 7    1  0.4394360E-006  0.1675499E+03  0.7561462E-02  0.1180427E+00
         -2   -1    0    0    0  501 -0.00000000000E+00  0.00000000000E+00  0.36811382761E+03  0.36811382761E+03  0.00000000000E+00 0.  1.
          2   -1    0    0  501    0  0.00000000000E+00 -0.00000000000E+00 -0.92930432081E+02  0.92930432081E+02  0.00000000000E+00 0. -1.
         23    2    1    2    0    0 -0.12914006228E+03  0.55317411577E+02  0.20798559912E+03  0.28043221227E+03  0.12508814703E+03 0.  0.
          5    1    3    3  502    0 -0.15194873822E+03  0.41760412296E+02  0.19454970538E+03  0.25039850507E+03  0.41800000000E+01 0.  1.
         -5    1    3    3    0  502  0.22808675933E+02  0.13556999282E+02  0.13435893747E+02  0.30033707199E+02  0.41800000000E+01 0.  1.
        -11    1    1    2    0    0  0.58574342789E+02  0.35825902272E+01 -0.11271055429E+02  0.59756382725E+02  0.00000000000E+00 0. -1.
         11    1    1    2    0    0  0.70565719496E+02 -0.58900001805E+02  0.78468851839E+02  0.12085566470E+03  0.00000000000E+00 0.  1.
</event>
<event>
 7    1  0.4394360E-006  0.1029098E+03  0.7561462E-02  0.1274293E+00
          2   -1    0    0  501    0  0.00000000000E+00  0.00000000000E+00  0.28391518727E+03  0.28391518727E+03  0.00000000000E+00 0. -1.
         -2   -1    0    0    0  501 -0.00000000000E+00 -0.00000000000E+00 -0.44813953479E+02  0.44813953479E+02  0.00000000000E+00 0.  1.
         23    2    1    2    0    0  0.14747119955E+02  0.38778570947E+01  0.11491858359E+03  0.17270768392E+03  0.12802010744E+03 0.  0.
          5    1    3    3  502    0  0.24925590460E+01  0.62700725229E+02  0.32976494354E+02  0.71010670851E+02  0.41800000000E+01 0. -1.
         -5    1    3    3    0  502  0.12254560909E+02 -0.58822868134E+02  0.81942089238E+02  0.10169701307E+03  0.41800000000E+01 0.  1.
        -11    1    1    2    0    0 -0.93396868580E+01  0.38683904723E+02  0.97969385636E+02  0.10574343836E+03  0.00000000000E+00 0. -1.
         11    1    1    2    0    0 -0.54074330969E+01 -0.42561761818E+02  0.26213264568E+02  0.50278018468E+02  0.00000000000E+00 0.  1.
</event>
<event>
 7    1  0.4394360E-006  0.1391890E+03  0.7561462E-02  0.1214424E+00
          1   -1    0    0  501    0  0.00000000000E+00  0.00000000000E+00  0.83083980145E+03  0.83083980145E+03  0.00000000000E+00 0. -1.
         -1   -1    0    0    0  501 -0.00000000000E+00 -0.00000000000E+00 -0.35586071278E+02  0.35586071278E+02  0.00000000000E+00 0.  1.
         23    2    1    2    0    0 -0.67286488268E+02  0.93136365662E+02  0.25428173781E+03  0.30578938283E+03  0.12508433297E+03 0.  0.
          5    1    3    3  502    0 -0.71432177034E+02  0.10800327375E+03  0.25858986443E+03  0.28922906742E+03  0.41800000000E+01 0. -1.
         -5    1    3    3    0  502  0.41456887657E+01 -0.14866908089E+02 -0.43081266171E+01  0.16560315408E+02  0.41800000000E+01 0. -1.
        -11    1    1    2    0    0  0.55791099512E+02 -0.10335467895E+03  0.52675984191E+03  0.53969506899E+03  0.00000000000E+00 0. -1.
         11    1    1    2    0    0  0.11495388756E+02  0.10218313287E+02  0.14212150450E+02  0.20941420905E+02  0.00000000000E+00 0.  1.
</event>
<event>
 7    1  0.4394360E-006  0.1856407E+03  0.7561462E-02  0.1162453E+00
         -1   -1    0    0    0  501 -0.00000000000E+00  0.00000000000E+00  0.67714131413E+02  0.67714131413E+02  0.00000000000E+00 0.  1.
          1   -1    0    0  501    0  0.00000000000E+00 -0.00000000000E+00 -0.60626407360E+03  0.60626407360E+03  0.00000000000E+00 0. -1.
         23    2    1    2    0    0 -0.37445133621E+02  0.15578071592E+03 -0.18132492532E+03  0.27239774143E+03  0.12510807931E+03 0.  0.
          5    1    3    3  502    0  0.45879354580E+02  0.48588968490E+02 -0.51146264615E+02  0.84256844350E+02  0.41800000000E+01 0.  1.
         -5    1    3    3    0  502 -0.83324488201E+02  0.10719174743E+03 -0.13017866071E+03  0.18814089708E+03  0.41800000000E+01 0.  1.
        -11    1    1    2    0    0  0.24160298481E+02 -0.15302918947E+03 -0.35564249475E+03  0.38792168916E+03  0.00000000000E+00 0. -1.
         11    1    1    2    0    0  0.13284835140E+02 -0.27515264494E+01 -0.15825221219E+01  0.13658774424E+02  0.00000000000E+00 0.  1.
</event>
<event>
 7    1  0.4394360E-006  0.4978722E+03  0.7561462E-02  0.1014336E+00
          2   -1    0    0  501    0  0.00000000000E+00  0.00000000000E+00  0.47348653629E+03  0.47348653629E+03  0.00000000000E+00 0. -1.
         -2   -1    0    0    0  501 -0.00000000000E+00 -0.00000000000E+00 -0.55844587730E+03  0.55844587730E+03  0.00000000000E+00 0.  1.
         23    2    1    2    0    0 -0.26516904012E+03  0.41718827680E+03 -0.13213666165E+03  0.52675249162E+03  0.12508961565E+03 0.  0.
          5    1    3    3  502    0 -0.24362216390E+03  0.40471912411E+03 -0.95022479933E+02  0.48186727660E+03  0.41800000000E+01 0.  1.
         -5    1    3    3    0  502 -0.21546876218E+02  0.12469152689E+02 -0.37114181714E+02  0.44885215024E+02  0.41800000000E+01 0.  1.
        -11    1    1    2    0    0  0.24337392813E+03 -0.34161196196E+03  0.13609659425E+02  0.41966036777E+03  0.00000000000E+00 0.  1.
         11    1    1    2    0    0  0.21795111991E+02 -0.75576314837E+02  0.33567661207E+02  0.85519554196E+02  0.00000000000E+00 0. -1.
</event>
<event>
 7    1  0.4394360E-006  0.1485083E+03  0.7561462E-02  0.1202318E+00
          2   -1    0    0  501    0  0.00000000000E+00  0.00000000000E+00  0.20245471802E+03  0.20245471802E+03  0.00000000000E+00 0. -1.
         -2   -1    0    0    0  501 -0.00000000000E+00 -0.00000000000E+00 -0.15416310254E+03  0.15416310254E+03  0.00000000000E+00 0.  1.
         23    2    1    2    0    0 -0.78909598948E+02 -0.10127343793E+03 -0.25877421091E+02  0.18110739867E+03  0.12508882802E+03 0.  0.
          5    1    3    3  502    0 -0.33721624873E+02 -0.11203797783E+03 -0.51487318263E+02  0.12789868178E+03  0.41800000000E+01 0.  1.
         -5    1    3    3    0  502 -0.45187974074E+02  0.10764539898E+02  0.25609897171E+02  0.53208716892E+02  0.41800000000E+01 0.  1.
        -11    1    1    2    0    0  0.11329540233E+01  0.22745487033E+02 -0.19999406749E+02  0.30308695707E+02  0.00000000000E+00 0.  1.
         11    1    1    2    0    0  0.77776644924E+02  0.78527950895E+02  0.94168443324E+02  0.14520172618E+03  0.00000000000E+00 0. -1.
</event>
<event>
 7    1  0.4394360E-006  0.1793580E+03  0.7561462E-02  0.1168426E+00
          1   -1    0    0  501    0  0.00000000000E+00  0.00000000000E+00  0.72614479094E+02  0.72614479094E+02  0.00000000000E+00 0. -1.
         -1   -1    0    0    0  501 -0.00000000000E+00 -0.00000000000E+00 -0.56316348370E+03  0.56316348370E+03  0.00000000000E+00 0.  1.
         23    2    1    2    0    0 -0.21513152264E+02  0.15379617773E+03 -0.36371601101E+03  0.41478970977E+03  0.12508032086E+03 0.  0.
          5    1    3    3  502    0  0.28272706955E+02 -0.79270848706E+01 -0.65092167242E+02  0.71530743526E+02  0.41800000000E+01 0. -1.
         -5    1    3    3    0  502 -0.49785859219E+02  0.16172326260E+03 -0.29862384376E+03  0.34325896625E+03  0.41800000000E+01 0. -1.
        -11    1    1    2    0    0 -0.10831001637E+02 -0.45353229062E+02 -0.91061285869E+02  0.10230534574E+03  0.00000000000E+00 0.  1.
         11    1    1    2    0    0  0.32344153901E+02 -0.10844294867E+03 -0.35771707733E+02  0.11868290728E+03  0.00000000000E+00 0. -1.
</event>
<event>
 7    1  0.4394360E-006  0.6183426E+02  0.7561462E-02  0.1390292E+00
         -2   -1    0    0    0  501 -0.00000000000E+00  0.00000000000E+00  0.81737221476E+02  0.81737221476E+02  0.00000000000E+00 0.  1.
          2   -1    0    0  501    0  0.00000000000E+00 -0.00000000000E+00 -0.18293726553E+03  0.18293726553E+03  0.00000000000E+00 0. -1.
         23    2    1    2    0    0  0.26724268508E+02 -0.34745856859E+02 -0.19332151366E+02  0.13405019688E+03  0.12519689337E+03 0.  0.
          5    1    3    3  502    0 -0.63720269089E+01 -0.37644311336E+02  0.46428071943E+02  0.60255582043E+02  0.41800000000E+01 0. -1.
         -5    1    3    3    0  502  0.33096295417E+02  0.28984544774E+01 -0.65760223309E+02  0.73794614833E+02  0.41800000000E+01 0. -1.
        -11    1    1    2    0    0 -0.18952183215E+02  0.31180888827E+01 -0.93945106037E+02  0.95888428265E+02  0.00000000000E+00 0. -1.
         11    1    1    2    0    0 -0.77720852934E+01  0.31627767976E+02  0.12077213351E+02  0.34735861862E+02  0.00000000000E+00 0.  1.
</event>
<event>
 7    1  0.4394360E-006  0.1218433E+03  0.7561462E-02  0.1240087E+00
         -1   -1    0    0    0  501 -0.00000000000E+00  0.00000000000E+00  0.76355027966E+02  0.76355027966E+02  0.00000000000E+00 0.  1.
          1   -1    0    0  501    0  0.00000000000E+00 -0.00000000000E+00 -0.32239474085E+03  0.32239474085E+03  0.00000000000E+00 0. -1.
         23    2    1    2    0    0 -0.87203660013E+02 -0.42483016221E+02 -0.59289653491E+02  0.16909210385E+03  0.12517025040E+03 0.  0.
          5    1    3    3  502    0 -0.62581426505E+02 -0.77778196509E+02 -0.54847710538E+01  0.10006716699E+03  0.41800000000E+01 0. -1.
         -5    1    3    3    0  502 -0.24622233508E+02  0.35295180288E+02 -0.53804882437E+02  0.69024936860E+02  0.41800000000E+01 0. -1.
        -11    1    1    2    0    0  0.71463330405E+02  0.45201819504E+02 -0.19436485398E+03  0.21196204505E+03  0.00000000000E+00 0. -1.
         11    1    1    2    0    0  0.15740329608E+02 -0.27188032833E+01  0.76147945905E+01  0.17695619913E+02  0.00000000000E+00 0.  1.
</event>
<event>
 7    1  0.4394360E-006  0.9341656E+02  0.7561462E-02  0.1294783E+00
          1   -1    0    0  501    0  0.00000000000E+00  0.00000000000E+00  0.22845912280E+03  0.22845912280E+03  0.00000000000E+00 0. -1.
         -1   -1    0    0    0  501 -0.00000000000E+00 -0.00000000000E+00 -0.77986079831E+02  0.77986079831E+02  0.00000000000E+00 0.  1.
         23    2    1    2    0    0  0.16924126420E+02 -0.66497171870E+02  0.29185124461E+02  0.14562767197E+03  0.12508935779E+03 0.  0.
          5    1    3    3  502    0  0.20678436924E+02 -0.88536323497E+02  0.58747681023E+02  0.10832839313E+03  0.41800000000E+01 0.  1.
         -5    1    3    3    0  502 -0.37543105046E+01  0.22039151627E+02 -0.29562556562E+02  0.37299278844E+02  0.41800000000E+01 0.  1.
        -11    1    1    2    0    0 -0.21329986649E+02  0.33033462962E+02  0.12082439576E+03  0.12706184563E+03  0.00000000000E+00 0.  1.
         11    1    1    2    0    0  0.44058602291E+01  0.33463708908E+02  0.46352275255E+00  0.33755685026E+02  0.00000000000E+00 0. -1.
</event>
<event>
 7    1  0.4394360E-006  0.1027255E+03  0.7561462E-02  0.1274667E+00
          2   -1    0    0  501    0  0.00000000000E+00  0.00000000000E+00  0.22934527993E+03  0.22934527993E+03  0.00000000000E+00 0. -1.
         -2   -1    0    0    0  501 -0.00000000000E+00 -0.00000000000E+00 -0.85406067727E+02  0.85406067727E+02  0.00000000000E+00 0.  1.
         23    2    1    2    0    0  0.39468297085E+02  0.71578489137E+02  0.40612467446E+02  0.15484699738E+03  0.12508794307E+03 0.  0.
          5    1    3    3  502    0  0.53728872963E+02  0.54594330963E+02  0.79126566214E+02  0.11020806978E+03  0.41800000000E+01 0. -1.
         -5    1    3    3    0  502 -0.14260575878E+02  0.16984158174E+02 -0.38514098768E+02  0.44638927599E+02  0.41800000000E+01 0. -1.
        -11    1    1    2    0    0  0.19965296006E+01 -0.63985362446E+02  0.20931085205E+02  0.67351488964E+02  0.00000000000E+00 0.  1.
         11    1    1    2    0    0 -0.41464826686E+02 -0.75931266909E+01  0.82395659554E+02  0.92552861319E+02  0.00000000000E+00 0. -1.
</event>
<event>
 7    1  0.4394360E-006  0.7737030E+02  0.7561462E-02  0.1336684E+00
         -1   -1    0    0    0  501 -0.00000000000E+00  0.00000000000E+00  0.23583253871E+03  0.23583253871E+03  0.00000000000E+00 0.  1.
          1   -1    0    0  501    0  0.00000000000E+00 -0.00000000000E+00 -0.66446597353E+02  0.66446597353E+02  0.00000000000E+00 0. -1.
         23    2    1    2    0    0  0.21207845005E+02  0.48538256593E+02  0.13435076720E+03  0.19105797682E+03  0.12508911550E+03 0.  0.
          5    1    3    3  502    0  0.28115003654E+02  0.71206357506E+02  0.14555610396E+03  0.16451398293E+03  0.41800000000E+01 0. -1.
         -5    1    3    3    0  502 -0.69071586491E+01 -0.22668100913E+02 -0.11205336761E+02  0.26543993888E+02  0.41800000000E+01 0. -1.
        -11    1    1    2    0    0 -0.20575741953E+01 -0.16903034389E+02  0.62742950293E+02  0.65012491066E+02  0.00000000000E+00 0.  1.
         11    1    1    2    0    0 -0.19150270810E+02 -0.31635222204E+02 -0.27707776139E+02  0.46208668175E+02  0.00000000000E+00 0. -1.
</event>
<event>
 7    1  0.4394360E-006  0.1451244E+03  0.7561462E-02  0.1206595E+00
          2   -1    0    0  501    0  0.00000000000E+00  0.00000000000E+00  0.42141864763E+03  0.42141864763E+03  0.00000000000E+00 0. -1.
         -2   -1    0    0    0  501 -0.00000000000E+00 -0.00000000000E+00 -0.78253166950E+02  0.78253166950E+02  0.00000000000E+00 0.  1.
         23    2    1    2    0    0 -0.85201534457E+02  0.67004004693E+02  0.49098567629E+02  0.17263311254E+03  0.12507071633E+03 0.  0.
          5    1    3    3  502    0 -0.77365026341E+02  0.97772994910E+02  0.60491192522E+02  0.13864185013E+03  0.41800000000E+01 0.  1.
         -5    1    3    3    0  502 -0.78365081159E+01 -0.30768990217E+02 -0.11392624893E+02  0.33991262412E+02  0.41800000000E+01 0.  1.
        -11    1    1    2    0    0  0.20927420891E+02 -0.65950877228E+02  0.21067510929E+03  0.22174642461E+03  0.00000000000E+00 0. -1.
         11    1    1    2    0    0  0.64274113566E+02 -0.10531274646E+01  0.83391803768E+02  0.10529227744E+03  0.00000000000E+00 0.  1.
</event>
<event>
 7    1  0.4394360E-006  0.3987177E+02  0.7561462E-02  0.1509157E+00
         -1   -1    0    0    0  501 -0.00000000000E+00  0.00000000000E+00  0.30664609376E+03  0.30664609376E+03  0.00000000000E+00 0.  1.
          1   -1    0    0  501    0  0.00000000000E+00 -0.00000000000E+00 -0.11196802752E+03  0.11196802752E+03  0.00000000000E+00 0. -1.
         23    2    1    2    0    0 -0.80521364678E+01 -0.42174972995E+01  0.27717781292E+03  0.30168010525E+03  0.11874645992E+03 0.  0.
          5    1    3    3  502    0  0.16526544781E+02  0.33106337079E+01 -0.51817117396E+01  0.18122072577E+02  0.41800000000E+01 0. -1.
         -5    1    3    3    0  502 -0.24578681249E+02 -0.75281310074E+01  0.28235952466E+03  0.28355803268E+03  0.41800000000E+01 0.  1.
        -11    1    1    2    0    0  0.18710615074E+02 -0.78002361141E+01 -0.94647859830E+02  0.96794360220E+02  0.00000000000E+00 0. -1.
         11    1    1    2    0    0 -0.10658478607E+02  0.12017733414E+02  0.12148113152E+02  0.20139655801E+02  0.00000000000E+00 0.  1.
</event>
<event>
 7    1  0.4394360E-006  0.1166657E+03  0.7561462E-02  0.1248701E+00
          3   -1    0    0  501    0  0.00000000000E+00  0.00000000000E+00  0.11655027038E+03  0.11655027038E+03  0.00000000000E+00 0. -1.
         -3   -1    0    0    0  501 -0.00000000000E+00 -0.00000000000E+00 -0.26774112073E+03  0.26774112073E+03  0.00000000000E+00 0.  1.
         23    2    1    2    0    0  0.11000348562E+03 -0.83705627365E+01 -0.17067838625E+03  0.23864186884E+03  0.12509195363E+03 0.  0.
          5    1    3    3  502    0  0.14892425594E+02 -0.16095328499E+02  0.16997848351E+02  0.28057854303E+02  0.41800000000E+01 0. -1.
         -5    1    3    3    0  502  0.95111060025E+02  0.77247657624E+01 -0.18767623460E+03  0.21058401454E+03  0.41800000000E+01 0. -1.
        -11    1    1    2    0    0 -0.53665928172E+02  0.21218968180E+02 -0.33941241533E+02  0.66949864331E+02  0.00000000000E+00 0. -1.
         11    1    1    2    0    0 -0.56337557447E+02 -0.12848405443E+02  0.53428777432E+02  0.78699657937E+02  0.00000000000E+00 0.  1.
</event>
<event>
 7    1  0.4394360E-006  0.8705106E+02  0.7561462E-02  0.1310154E+00
         -1   -1    0    0    0  501 -0.00000000000E+00  0.00000000000E+00  0.46853063848E+02  0.46853063848E+02  0.00000000000E+00 0.  1.
          1   -1    0    0  501    0  0.00000000000E+00 -0.00000000000E+00 -0.26520372484E+03  0.26520372484E+03  0.00000000000E+00 0. -1.
         23    2    1    2    0    0 -0.40812452073E+01  0.24039324445E+02 -0.11072773279E+03  0.16882753127E+03  0.12509020275E+03 0.  0.
          5    1    3    3  502    0  0.45434201727E+02  0.11609700108E+02 -0.28084241567E+00  0.47080814517E+02  0.41800000000E+01 0. -1.
         -5    1    3    3    0  502 -0.49515446934E+02  0.12429624338E+02 -0.11044689038E+03  0.12174671675E+03  0.41800000000E+01 0. -1.
        -11    1    1    2    0    0  0.32489074032E+02  0.75095756700E+01 -0.70775789633E+01  0.34088499265E+02  0.00000000000E+00 0.  1.
         11    1    1    2    0    0 -0.28407828824E+02 -0.31548900116E+02 -0.10054534924E+03  0.10914075815E+03  0.00000000000E+00 0. -1.
</event>
<event>
 6    1  0.4394360E-006  0.7778820E+02  0.7561462E-02  0.1335448E+00
          3   -1    0    0  501    0  0.00000000000E+00  0.00000000000E+00  0.10484488590E+03  0.10484488590E+03  0.00000000000E+00 0. -1.
         -3   -1    0    0    0  501 -0.00000000000E+00 -0.00000000000E+00 -0.40846042071E+03  0.40846042071E+03  0.00000000000E+00 0.  1.
          5    1    1    2  502    0 -0.41545083326E+02  0.14738931313E+02 -0.29872250794E+03  0.30198648843E+03  0.41800000000E+01 0. -1.
         -5    1    1    2    0  502  0.16589364942E+02 -0.53730851863E+02 -0.59771797393E+02  0.82172693972E+02  0.41800000000E+01 0.  1.
        -11    1    1    2    0    0 -0.63246488180E+01  0.12115966535E+02 -0.30999572367E+02  0.33878773808E+02  0.00000000000E+00 0.  1.
         11    1    1    2    0    0  0.31280367201E+02  0.26875954015E+02  0.85878342880E+02  0.95267350400E+02  0.00000000000E+00 0. -1.
</event>
<event>
 7    1  0.5240228E-006  0.2208947E+03  0.7561462E-02  0.1133218E+00
         -2   -1    0    0    0  501 -0.00000000000E+00  0.00000000000E+00  0.54816731639E+02  0.54816731639E+02  0.00000000000E+00 0.  1.
          2   -1    0    0  501    0  0.00000000000E+00 -0.00000000000E+00 -0.12106367508E+04  0.12106367508E+04  0.00000000000E+00 0. -1.
         23    2    1    2    0    0  0.19063900141E+03 -0.10634792350E+03 -0.39398150112E+03  0.46746322819E+03  0.12508931525E+03 0.  0.
          5    1    3    3  502    0  0.26423784604E+02 -0.34907590697E+02 -0.12034433720E+02  0.45596669572E+02  0.41800000000E+01 0. -1.
         -5    1    3    3    0  502  0.16421521681E+03 -0.71440332805E+02 -0.38194706740E+03  0.42186655862E+03  0.41800000000E+01 0. -1.
        -11    1    1    2    0    0 -0.27235427045E+02  0.20560170893E+02 -0.38352434243E+02  0.51336130803E+02  0.00000000000E+00 0.  1.
         11    1    1    2    0    0 -0.16340357437E+03  0.85787752608E+02 -0.72348608384E+03  0.74665412349E+03  0.00000000000E+00 0. -1.
</event>
<event>
 7    1  0.4394360E-006  0.7009341E+02  0.7561462E-02  0.1359776E+00
          1   -1    0    0  501    0  0.00000000000E+00  0.00000000000E+00  0.45224965434E+02  0.45224965434E+02  0.00000000000E+00 0. -1.
         -1   -1    0    0    0  501 -0.00000000000E+00 -0.00000000000E+00 -0.29870274323E+03  0.29870274323E+03  0.00000000000E+00 0.  1.
         23    2    1    2    0    0  0.35097927904E+02 -0.15487646140E+02 -0.16912862189E+03  0.21382976960E+03  0.12508776079E+03 0.  0.
          5    1    3    3  502    0  0.27572513412E+02 -0.49811637409E+01 -0.18825308727E+03  0.19037266809E+03  0.41800000000E+01 0.  1.
         -5    1    3    3    0  502  0.75254144911E+01 -0.10506482399E+02  0.19124465375E+02  0.23457101516E+02  0.41800000000E+01 0.  1.
        -11    1    1    2    0    0 -0.49208860770E+02  0.44287966688E+02 -0.64212319160E+02  0.92228834448E+02  0.00000000000E+00 0. -1.
         11    1    1    2    0    0  0.14110932867E+02 -0.28800320548E+02 -0.20136836737E+02  0.37869104608E+02  0.00000000000E+00 0.  1.
</event>
<event>
 7    1  0.4394360E-006  0.1103334E+03  0.7561462E-02  0.1259954E+00
          2   -1    0    0  501    0  0.00000000000E+00  0.00000000000E+00  0.25335735677E+03  0.25335735677E+03  0.00000000000E+00 0.  1.
         -2   -1    0    0    0  501 -0.00000000000E+00 -0.00000000000E+00 -0.68465597729E+02  0.68465597729E+02  0.00000000000E+00 0. -1.
         23    2    1    2    0    0 -0.66415085894E+02  0.34526694484E+02  0.10146197280E+03  0.17760908591E+03  0.12508956473E+03 0.  0.
          5    1    3    3  502    0  0.36933062978E+02  0.16526558089E+01  0.24133152322E+02  0.44347083930E+02  0.41800000000E+01 0. -1.
         -5    1    3    3    0  502 -0.10334814887E+03  0.32874038675E+02  0.77328820481E+02  0.13326200198E+03  0.41800000000E+01 0. -1.
        -11    1    1    2    0    0  0.43430539684E+02 -0.20749957894E+02  0.10119767449E+03  0.11206133076E+03  0.00000000000E+00 0.  1.
         11    1    1    2    0    0  0.22984546210E+02 -0.13776736590E+02 -0.17767888256E+02  0.32152537825E+02  0.00000000000E+00 0. -1.
</event>
<event>
 7    1  0.4394360E-006  0.1399449E+03  0.7561462E-02  0.1213403E+00
         -4   -1    0    0    0  501 -0.00000000000E+00  0.00000000000E+00  0.43246110938E+03  0.43246110938E+03  0.00000000000E+00 0. -1.
          4   -1    0    0  501    0  0.00000000000E+00 -0.00000000000E+00 -0.52721236756E+02  0.52721236756E+02  0.00000000000E+00 0.  1.
         23    2    1    2    0    0 -0.49698272378E+02  0.93205951621E+02  0.22015841679E+03  0.27437534833E+03  0.12511928545E+03 0.  0.
          5    1    3    3  502    0  0.28455043853E+02  0.79112008147E+02  0.11633059541E+03  0.14359205821E+03  0.41800000000E+01 0. -1.
         -5    1    3    3    0  502 -0.78153316230E+02  0.14093943474E+02  0.10382782139E+03  0.13078329012E+03  0.41800000000E+01 0. -1.
        -11    1    1    2    0    0  0.10032927998E+02 -0.68988950119E+02  0.14694859611E+03  0.16264693290E+03  0.00000000000E+00 0. -1.
         11    1    1    2    0    0  0.39665344380E+02 -0.24217001502E+02  0.12632859712E+02  0.48160064898E+02  0.00000000000E+00 0.  1.
</event>
<event>
 7    1  0.4394360E-006  0.1930487E+03  0.7561462E-02  0.1155740E+00
          2   -1    0    0  501    0  0.00000000000E+00  0.00000000000E+00  0.53594698283E+03  0.53594698283E+03  0.00000000000E+00 0. -1.
         -2   -1    0    0    0  501 -0.00000000000E+00 -0.00000000000E+00 -0.72264720931E+02  0.72264720931E+02  0.00000000000E+00 0.  1.
         23    2    1    2    0    0 -0.16041625643E+03 -0.24183800393E+02  0.20605047264E+03  0.29055348999E+03  0.12508517795E+03 0.  0.
          5    1    3    3  502    0 -0.19775649759E+02 -0.55722850080E+02  0.45270649458E+02  0.74585631638E+02  0.41800000000E+01 0.  1.
         -5    1    3    3    0  502 -0.14064060667E+03  0.31539049687E+02  0.16077982318E+03  0.21596785836E+03  0.41800000000E+01 0.  1.
        -11    1    1    2    0    0  0.35974465466E+02  0.43767107259E+02  0.54354607346E+02  0.78512070302E+02  0.00000000000E+00 0.  1.
         11    1    1    2    0    0  0.12444179097E+03 -0.19583306866E+02  0.20327718192E+03  0.23914614347E+03  0.00000000000E+00 0. -1.
</event>
<event>
 7    1  0.4394360E-006  0.1122248E+03  0.7561462E-02  0.1256505E+00
         -1   -1    0    0    0  501 -0.00000000000E+00  0.00000000000E+00  0.68154045484E+03  0.68154045484E+03  0.00000000000E+00 0.  1.
          1   -1    0    0  501    0  0.00000000000E+00 -0.00000000000E+00 -0.25965254433E+02  0.25965254433E+02  0.00000000000E+00 0. -1.
         23    2    1    2    0    0 -0.29090536382E+02  0.47178649331E+02  0.50159553978E+03  0.51992146832E+03  0.12509261942E+03 0.  0.
          5    1    3    3  502    0 -0.76846800526E+02  0.35961702137E+02  0.26593693743E+03  0.27917485894E+03  0.41800000000E+01 0.  1.
         -5    1    3    3    0  502  0.47756264144E+02  0.11216947193E+02  0.23565860235E+03  0.24074660938E+03  0.41800000000E+01 0.  1.
        -11    1    1    2    0    0 -0.17925240883E+02 -0.38485569453E+02  0.23291955949E+02  0.48424875104E+02  0.00000000000E+00 0. -1.
         11    1    1    2    0    0  0.47015777265E+02 -0.86930798772E+01  0.13068770468E+03  0.13915936585E+03  0.00000000000E+00 0.  1.
</event>
<event>
 7    1  0.4394360E-006  0.9022835E+02  0.7561462E-02  0.1302300E+00
         -1   -1    0    0    0  501 -0.00000000000E+00  0.00000000000E+00  0.31341823838E+02  0.31341823838E+02  0.00000000000E+00 0.  1.
          1   -1    0    0  501    0  0.00000000000E+00 -0.00000000000E+00 -0.45031486811E+03  0.45031486811E+03  0.00000000000E+00 0. -1.
         23    2    1    2    0    0 -0.20787538210E+01 -0.37822238641E+01 -0.13865812520E+03  0.18679362188E+03  0.12508858884E+03 0.  0.
          5    1    3    3  502    0  0.14529590480E+02  0.46154132060E+02 -0.12670897343E+02  0.50192996973E+02  0.41800000000E+01 0.  1.
         -5    1    3    3    0  502 -0.16608344301E+02 -0.49936355924E+02 -0.12598722785E+03  0.13660062491E+03  0.41800000000E+01 0.  1.
        -11    1    1    2    0    0 -0.76679924760E+01  0.40442998590E+02 -0.21844578186E+03  0.22229033684E+03  0.00000000000E+00 0. -1.
         11    1    1    2    0    0  0.97467462970E+01 -0.36660774726E+02 -0.61869137217E+02  0.72572733219E+02  0.00000000000E+00 0.  1.
</event>
<event>
 7    1  0.4394360E-006  0.6558059E+02  0.7561462E-02  0.1375801E+00
         -2   -1    0    0    0  501 -0.00000000000E+00  0.00000000000E+00  0.26325425735E+02  0.26325425735E+02  0.00000000000E+00 0.  1.
          2   -1    0    0  501    0  0.00000000000E+00 -0.00000000000E+00 -0.25049807586E+03  0.25049807586E+03  0.00000000000E+00 0. -1.
         23    2    1    2    0    0  0.18796360922E+02 -0.54207545292E+01 -0.11763502771E+03  0.16730028495E+03  0.11734009475E+03 0.  0.
          5    1    3    3  502    0 -0.43266824695E+02 -0.45471155401E+01 -0.88292326809E+02  0.98517520027E+02  0.41800000000E+01 0. -1.
         -5    1    3    3    0  502  0.62063185617E+02 -0.87363898911E+00 -0.29342700896E+02  0.68782764919E+02  0.41800000000E+01 0.  1.
        -11    1    1    2    0    0 -0.67792282586E+01  0.10254631804E+02 -0.57881232763E+02  0.59172227568E+02  0.00000000000E+00 0.  1.
         11    1    1    2    0    0 -0.12017132663E+02 -0.48338772752E+01 -0.48656389659E+02  0.50350989082E+02  0.00000000000E+00 0. -1.
</event>
<event>
 7    1  0.4394360E-006  0.1735488E+03  0.7561462E-02  0.1174197E+00
          2   -1    0    0  501    0  0.00000000000E+00  0.00000000000E+00  0.21254287768E+03  0.21254287768E+03  0.00000000000E+00 0. -1.
         -2   -1    0    0    0  501 -0.00000000000E+00 -0.00000000000E+00 -0.16268901493E+03  0.16268901493E+03  0.00000000000E+00 0.  1.
         23    2    1    2    0    0 -0.14295981728E+02 -0.14243834112E+03 -0.21335779424E+02  0.19129021233E+03  0.12507467264E+03 0.  0.
          5    1    3    3  502    0 -0.50682735903E+02 -0.13448546237E+03 -0.40251922880E+02  0.14930763210E+03  0.41800000000E+01 0. -1.
         -5    1    3    3    0  502  0.36386754175E+02 -0.79528787487E+01  0.18916143456E+02  0.41982580233E+02  0.41800000000E+01 0. -1.
        -11    1    1    2    0    0  0.48661621085E+02  0.65716736981E+02  0.54402116696E+02  0.98215239077E+02  0.00000000000E+00 0. -1.
         11    1    1    2    0    0 -0.34365639357E+02  0.76721604135E+02  0.16787525487E+02  0.85726441203E+02  0.00000000000E+00 0.  1.
</event>
<event>
 7    1  0.4394360E-006  0.2243347E+03  0.7561462E-02  0.1130692E+00
         -2   -1    0    0    0  501 -0.00000000000E+00  0.00000000000E+00  0.13663325716E+03  0.13663325716E+03  0.00000000000E+00 0.  1.
          2   -1    0    0  501    0  0.00000000000E+00 -0.00000000000E+00 -0.55463763237E+03  0.55463763237E+03  0.00000000000E+00 0. -1.
         23    2    1    2    0    0  0.17740107680E+03 -0.13461710425E+03 -0.57255060370E+02  0.26176016931E+03  0.12508931805E+03 0.  0.
          5    1    3    3  502    0  0.43630187526E+02 -0.22857707170E+02 -0.71381215976E+02  0.86826369467E+02  0.41800000000E+01 0.  1.
         -5    1    3    3    0  502  0.13377088928E+03 -0.11175939708E+03  0.14126155606E+02  0.17493379984E+03  0.41800000000E+01 0.  1.
        -11    1    1    2    0    0 -0.11503711058E+03  0.10533861545E+03 -0.19290390836E+03  0.24807595324E+03  0.00000000000E+00 0.  1.
         11    1    1    2    0    0 -0.62363966221E+02  0.29278488800E+02 -0.16784540649E+03  0.18143476698E+03  0.00000000000E+00 0. -1.
</event>
<event>
 7    1  0.4394360E-006  0.1201150E+03  0.7561462E-02  0.1242907E+00
          2   -1    0    0  501    0  0.00000000000E+00  0.00000000000E+00  0.82994194230E+03  0.82994194230E+03  0.00000000000E+00 0.  1.
         -2   -1    0    0    0  501 -0.00000000000E+00 -0.00000000000E+00 -0.22089940998E+02  0.22089940998E+02  0.00000000000E+00 0. -1.
         23    2    1    2    0    0 -0.78969566134E+02  0.18428465974E+02  0.42089070328E+03  0.44651402149E+03  0.12509990628E+03 0.  0.
          5    1    3    3  502    0 -0.10703902726E+03 -0.72206886988E+01  0.26331998025E+03  0.28436662269E+03  0.41800000000E+01 0.  1.
         -5    1    3    3    0  502  0.28069461122E+02  0.25649154673E+02  0.15757072303E+03  0.16214739881E+03  0.41800000000E+01 0.  1.
        -11    1    1    2    0    0  0.13812881692E+02  0.15822288565E+02  0.13720779024E+02  0.25087851504E+02  0.00000000000E+00 0. -1.
         11    1    1    2    0    0  0.65156684442E+02 -0.34250754539E+02  0.37324051900E+03  0.38043001030E+03  0.00000000000E+00 0.  1.
</event>
<event>
 7    1  0.4394360E-006  0.1082078E+03  0.7561462E-02  0.1263925E+00
         -1   -1    0    0    0  501 -0.00000000000E+00  0.00000000000E+00  0.16618992461E+02  0.16618992461E+02  0.00000000000E+00 0.  1.
          1   -1    0    0  501    0  0.00000000000E+00 -0.00000000000E+00 -0.89466652977E+03  0.89466652977E+03  0.00000000000E+00 0. -1.
         23    2    1    2    0    0 -0.11461641588E+02 -0.52853692935E+02 -0.50475499451E+03  0.52282853534E+03  0.12508873168E+03 0.  0.
          5    1    3    3  502    0 -0.67140067250E+02 -0.16267548510E+02 -0.23911699417E+03  0.24893137822E+03  0.41800000000E+01 0.  1.
         -5    1    3    3    0  502  0.55678425663E+02 -0.36586144425E+02 -0.26563800035E+03  0.27389715712E+03  0.41800000000E+01 0.  1.
        -11    1    1    2    0    0  0.13270828858E+02 -0.10592874536E+02 -0.10093667102E+02  0.19753632706E+02  0.00000000000E+00 0.  1.
         11    1    1    2    0    0 -0.18091872702E+01  0.63446567471E+02 -0.36319887570E+03  0.36870335419E+03  0.00000000000E+00 0. -1.
</event>
<event>
 7    1  0.4394360E-006  0.1193579E+03  0.7561462E-02  0.1244160E+00
          1   -1    0    0  501    0  0.00000000000E+00  0.00000000000E+00  0.81470094639E+02  0.81470094639E+02  0.00000000000E+00 0. -1.
         -1   -1    0    0    0  501 -0.00000000000E+00 -0.00000000000E+00 -0.22207797051E+03  0.22207797051E+03  0.00000000000E+00 0.  1.
         23    2    1    2    0    0  0.29378997541E+02  0.54593648706E+02 -0.13329902801E+03  0.19302414928E+03  0.12508436898E+03 0.  0.
          5    1    3    3  502    0 -0.60768287655E+01  0.86986306030E+02 -0.10705480973E+03  0.13813670754E+03  0.41800000000E+01 0. -1.
         -5    1    3    3    0  502  0.35455826307E+02 -0.32392657324E+02 -0.26244218281E+02  0.54887441740E+02  0.41800000000E+01 0. -1.
        -11    1    1    2    0    0  0.19763285345E+02  0.99192412043E+01 -0.18275931562E+02  0.28687775588E+02  0.00000000000E+00 0.  1.
         11    1    1    2    0    0 -0.49142282886E+02 -0.64512889910E+02  0.10967083696E+02  0.81836140284E+02  0.00000000000E+00 0. -1.
</event>
<event>
 7    1  0.4394360E-006  0.9007445E+02  0.7561462E-02  0.1302671E+00
          1   -1    0    0  501    0  0.00000000000E+00  0.00000000000E+00  0.19275518754E+03  0.19275518754E+03  0.00000000000E+00 0. -1.
         -1   -1    0    0    0  501 -0.00000000000E+00 -0.00000000000E+00 -0.64221251407E+02  0.64221251407E+02  0.00000000000E+00 0.  1.
         23    2    1    2    0    0  0.15726866681E+02  0.17027413519E+02  0.54694001949E+02  0.13847455457E+03  0.12508597551E+03 0.  0.
          5    1    3    3  502    0  0.57983854044E+02  0.34272132239E+01  0.70251527521E+02  0.91250329530E+02  0.41800000000E+01 0.  1.
         -5    1    3    3    0  502 -0.42256987363E+02  0.13600200296E+02 -0.15557525572E+02  0.47224225044E+02  0.41800000000E+01 0.  1.
        -11    1    1    2    0    0 -0.27530474088E+02  0.22825082219E+02  0.23894267919E+01  0.35841606301E+02  0.00000000000E+00 0.  1.
         11    1    1    2    0    0  0.11803607407E+02 -0.39852495739E+02  0.71450507395E+02  0.82660278075E+02  0.00000000000E+00 0. -1.
</event>
<event>
 7    1  0.4394360E-006  0.1156206E+03  0.7561462E-02  0.1250502E+00
          2   -1    0    0  501    0  0.00000000000E+00  0.00000000000E+00  0.22460902931E+03  0.22460902931E+03  0.00000000000E+00 0. -1.
         -2   -1    0    0    0  501 -0.00000000000E+00 -0.00000000000E+00 -0.92799460910E+02  0.92799460910E+02  0.00000000000E+00 0.  1.
         23    2    1    2    0    0  0.71468235113E+02 -0.14010784421E+02  0.49903666967E+01  0.14483489590E+03  0.12509289588E+03 0.  0.
          5    1    3    3  502    0 -0.28005472901E+02 -0.26107167634E+02  0.20043644363E+02  0.43417862610E+02  0.41800000000E+01 0.  1.
         -5    1    3    3    0  502  0.99473708014E+02  0.12096383213E+02 -0.15053277666E+02  0.10141703329E+03  0.41800000000E+01 0.  1.
        -11    1    1    2    0    0 -0.31053530949E+02  0.35085055067E+02  0.11027477075E+02  0.48134064072E+02  0.00000000000E+00 0.  1.
         11    1    1    2    0    0 -0.40414704164E+02 -0.21074270646E+02  0.11579172463E+03  0.12443953025E+03  0.00000000000E+00 0. -1.
</event>
<event>
 7    1  0.4394360E-006  0.2245456E+03  0.7561462E-02  0.1130539E+00
         -2   -1    0    0    0  501 -0.00000000000E+00  0.00000000000E+00  0.70868095082E+03  0.70868095082E+03  0.00000000000E+00 0.  1.
          2   -1    0    0  501    0  0.00000000000E+00 -0.00000000000E+00 -0.97462580205E+02  0.97462580205E+02  0.00000000000E+00 0. -1.
         23    2    1    2    0    0  0.17057165543E+03  0.12981369716E+03  0.47696942370E+03  0.53767416092E+03  0.12508951425E+03 0.  0.
          5    1    3    3  502    0  0.19243795283E+01  0.19674589136E+01  0.13769031494E+03  0.13778123733E+03  0.41800000000E+01 0.  1.
         -5    1    3    3    0  502  0.16864727590E+03  0.12784623825E+03  0.33927910876E+03  0.39989292360E+03  0.41800000000E+01 0.  1.
        -11    1    1    2    0    0 -0.10725343435E+03 -0.25264868277E+02  0.60218054863E+02  0.12557000789E+03  0.00000000000E+00 0.  1.
         11    1    1    2    0    0 -0.63318221080E+02 -0.10454882889E+03  0.74030892053E+02  0.14289936221E+03  0.00000000000E+00 0. -1.
</event>
<event>
 7    1  0.4394360E-006  0.9135941E+02  0.7561462E-02  0.1299593E+00
          2   -1    0    0  501    0  0.00000000000E+00  0.00000000000E+00  0.24879482842E+03  0.24879482842E+03  0.00000000000E+00 0. -1.
         -2   -1    0    0    0  501 -0.00000000000E+00 -0.00000000000E+00 -0.53215930342E+02  0.53215930342E+02  0.00000000000E+00 0.  1.
         23    2    1    2    0    0 -0.93483455076E+01  0.37523936658E+02  0.11290578536E+03  0.17289096418E+03  0.12509249274E+03 0.  0.
          5    1    3    3  502    0  0.74510335506E+01 -0.27774348379E+02  0.99972356481E+02  0.10410992647E+03  0.41800000000E+01 0. -1.
         -5    1    3    3    0  502 -0.16799379058E+02  0.65298285037E+02  0.12933428880E+02  0.68781037707E+02  0.41800000000E+01 0. -1.
        -11    1    1    2    0    0  0.35152625559E+02  0.58505875445E+01  0.67648802171E+02  0.76461080907E+02  0.00000000000E+00 0. -1.
         11    1    1    2    0    0 -0.25804280051E+02 -0.43374524203E+02  0.15024310543E+02  0.52658713677E+02  0.00000000000E+00 0.  1.
</event>
<event>
 6    1  0.4394360E-006  0.1149910E+03  0.7561462E-02  0.1251597E+00
          1   -1    0    0  501    0  0.00000000000E+00  0.00000000000E+00  0.24164766434E+03  0.24164766434E+03  0.00000000000E+00 0. -1.
         -1   -1    0    0    0  501 -0.00000000000E+00 -0.00000000000E+00 -0.64674414973E+02  0.64674414973E+02  0.00000000000E+00 0.  1.
          5    1    1    2  502    0 -0.47170721254E+02 -0.63876673408E+02  0.84095855612E+01  0.79959363921E+02  0.41800000000E+01 0. -1.
         -5    1    1    2    0  502  0.43003861597E+02  0.33331124956E+02  0.58264070688E+02  0.79827754172E+02  0.41800000000E+01 0.  1.
        -11    1    1    2    0    0  0.34267005126E+02  0.49590413278E+02  0.61454086452E+02  0.86081597749E+02  0.00000000000E+00 0.  1.
         11    1    1    2    0    0 -0.30100145469E+02 -0.19044864826E+02  0.48845506661E+02  0.60453363467E+02  0.00000000000E+00 0. -1.
</event>
<event>
 7    1  0.4394360E-006  0.1092869E+03  0.7561462E-02  0.1261896E+00
          1   -1    0    0  501    0  0.00000000000E+00  0.00000000000E+00  0.85873233763E+02  0.85873233763E+02  0.00000000000E+00 0. -1.
         -1   -1    0    0    0  501 -0.00000000000E+00 -0.00000000000E+00 -0.24688718233E+03  0.24688718233E+03  0.00000000000E+00 0.  1.
         23    2    1    2    0    0  0.21822886119E+02  0.68698953590E+02 -0.16123633504E+03  0.21642499619E+03  0.12508732412E+03 0.  0.
          5    1    3    3  502    0 -0.27361425264E+01 -0.36177563536E+02 -0.43409690705E+02  0.56728971668E+02  0.41800000000E+01 0. -1.
         -5    1    3    3    0  502  0.24559028645E+02  0.10487651713E+03 -0.11782664433E+03  0.15969602452E+03  0.41800000000E+01 0. -1.
        -11    1    1    2    0    0 -0.84902100713E+01 -0.66265957064E+01 -0.39835866700E+02  0.41266108533E+02  0.00000000000E+00 0.  1.
         11    1    1    2    0    0 -0.13332676047E+02 -0.62072357883E+02  0.40058253168E+02  0.75069311377E+02  0.00000000000E+00 0. -1.
</event>
<event>
 7    1  0.4394360E-006  0.7005175E+02  0.7561462E-02  0.1359917E+00
         -1   -1    0    0    0  501 -0.00000000000E+00  0.00000000000E+00  0.21175251823E+03  0.21175251823E+03  0.00000000000E+00 0.  1.
          1   -1    0    0  501    0  0.00000000000E+00 -0.00000000000E+00 -0.63518725891E+02  0.63518725891E+02  0.00000000000E+00 0. -1.
         23    2    1    2    0    0  0.63414546741E+01 -0.32019318802E+02  0.11440162640E+03  0.17263170284E+03  0.12509405213E+03 0.  0.
          5    1    3    3  502    0  0.37903532203E+02 -0.15393278252E+02  0.12783328961E+03  0.13428496975E+03  0.41800000000E+01 0. -1.
         -5    1    3    3    0  502 -0.31562077529E+02 -0.16626040550E+02 -0.13431663207E+02  0.38346733092E+02  0.41800000000E+01 0. -1.
        -11    1    1    2    0    0  0.21184621251E+02  0.28203725732E+02 -0.21082497427E+02  0.41093917073E+02  0.00000000000E+00 0. -1.
         11    1    1    2    0    0 -0.27526075925E+02  0.38155930704E+01  0.54914663362E+02  0.61545624203E+02  0.00000000000E+00 0.  1.
</event>
<event>
 6    1  0.4394360E-006  0.1047700E+03  0.7561462E-02  0.1270574E+00
          1   -1    0    0  501    0  0.00000000000E+00  0.00000000000E+00  0.31624657802E+03  0.31624657802E+03  0.00000000000E+00 0. -1.
         -1   -1    0    0    0  501 -0.00000000000E+00 -0.00000000000E+00 -0.49089119370E+02  0.49089119370E+02  0.00000000000E+00 0.  1.
          5    1    1    2  502    0  0.50710356651E+02  0.57658409791E+02  0.17571692661E+03  0.19180704676E+03  0.41800000000E+01 0. -1.
         -5    1    1    2    0  502 -0.30686442618E+02 -0.54028688215E+01 -0.50231399315E+01  0.31836348516E+02  0.41800000000E+01 0.  1.
        -11    1    1    2    0    0 -0.10275195906E+02 -0.75395968052E+02  0.85016043065E+02  0.11409583353E+03  0.00000000000E+00 0.  1.
         11    1    1    2    0    0 -0.97487181276E+01  0.23140427082E+02  0.11447628907E+02  0.27596468584E+02  0.00000000000E+00 0. -1.
</event>
<event>
 7    1  0.4394360E-006  0.1193329E+03  0.7561462E-02  0.1244202E+00
         -1   -1    0    0    0  501 -0.00000000000E+00  0.00000000000E+00  0.36602565498E+02  0.36602565498E+02  0.00000000000E+00 0.  1.
          1   -1    0    0  501    0  0.00000000000E+00 -0.00000000000E+00 -0.50670177410E+03  0.50670177410E+03  0.00000000000E+00 0. -1.
         23    2    1    2    0    0  0.76608660933E+02 -0.41159074412E+01 -0.19952466413E+03  0.24767519103E+03  0.12508829295E+03 0.  0.
          5    1    3    3  502    0  0.88287202702E+01 -0.47352803860E+02 -0.13837755174E+03  0.14658121831E+03  0.41800000000E+01 0.  1.
         -5    1    3    3    0  502  0.67779940663E+02  0.43236896419E+02 -0.61147112389E+02  0.10109397273E+03  0.41800000000E+01 0.  1.
        -11    1    1    2    0    0 -0.44230540178E+02  0.41293991365E+02 -0.90037914550E+02  0.10848207439E+03  0.00000000000E+00 0.  1.
         11    1    1    2    0    0 -0.32378120755E+02 -0.37178083924E+02 -0.18053662993E+03  0.18714707418E+03  0.00000000000E+00 0. -1.
</event>
<event>
 7    1  0.4394360E-006  0.9994856E+02  0.7561462E-02  0.1280404E+00
         -1   -1    0    0    0  501 -0.00000000000E+00  0.00000000000E+00  0.15788340617E+02  0.15788340617E+02  0.00000000000E+00 0.  1.
          1   -1    0    0  501    0  0.00000000000E+00 -0.00000000000E+00 -0.81696854367E+03  0.81696854367E+03  0.00000000000E+00 0. -1.
         23    2    1    2    0    0 -0.21465919875E+02 -0.20312351516E+01 -0.52673433603E+03  0.54181251210E+03  0.12508727303E+03 0.  0.
          5    1    3    3  502    0  0.50301738440E+02 -0.14128748562E+02 -0.26394019345E+03  0.26909437851E+03  0.41800000000E+01 0. -1.
         -5    1    3    3    0  502 -0.71767658315E+02  0.12097513411E+02 -0.26279414258E+03  0.27271813358E+03  0.41800000000E+01 0. -1.
        -11    1    1    2    0    0  0.16313185747E+02  0.36368746006E+02 -0.23515704167E+03  0.23851129944E+03  0.00000000000E+00 0. -1.
         11    1    1    2    0    0  0.51527341280E+01 -0.34337510855E+02 -0.39288825354E+02  0.52433072754E+02  0.00000000000E+00 0.  1.
</event>
<event>
 7    1  0.4394360E-006  0.1094569E+03  0.7561462E-02  0.1261579E+00
         -3   -1    0    0    0  501 -0.00000000000E+00  0.00000000000E+00  0.42280572303E+02  0.42280572303E+02  0.00000000000E+00 0.  1.
          3   -1    0    0  501    0  0.00000000000E+00 -0.00000000000E+00 -0.37840538815E+03  0.37840538815E+03  0.00000000000E+00 0. -1.
         23    2    1    2    0    0  0.47648700260E+02  0.37871201567E+02 -0.14522691752E+03  0.20111458758E+03  0.12510632766E+03 0.  0.
          5    1    3    3  502    0  0.31656093595E+02 -0.38893307376E+02 -0.96131182023E+02  0.10850564122E+03  0.41800000000E+01 0.  1.
         -5    1    3    3    0  502  0.15992606664E+02  0.76764508943E+02 -0.49095735492E+02  0.92608946353E+02  0.41800000000E+01 0.  1.
        -11    1    1    2    0    0 -0.24563888964E+02 -0.55715773126E+02 -0.60086555903E+02  0.85545462862E+02  0.00000000000E+00 0.  1.
         11    1    1    2    0    0 -0.23084811296E+02  0.17844571559E+02 -0.13081134242E+03  0.13402591001E+03  0.00000000000E+00 0. -1.
</event>
<event>
 7    1  0.4394360E-006  0.1284358E+03  0.7561462E-02  0.1229795E+00
         -2   -1    0    0    0  501 -0.00000000000E+00  0.00000000000E+00  0.11920523417E+02  0.11920523417E+02  0.00000000000E+00 0.  1.
          2   -1    0    0  501    0  0.00000000000E+00 -0.00000000000E+00 -0.14423343709E+04  0.14423343709E+04  0.00000000000E+00 0. -1.
         23    2    1    2    0    0  0.72160460767E+02 -0.62985901525E+01 -0.90586585722E+03  0.91732622093E+03  0.12509052719E+03 0.  0.
          5    1    3    3  502    0  0.98573729584E+02  0.24845100828E+02 -0.57608896434E+03  0.58500429608E+03  0.41800000000E+01 0. -1.
         -5    1    3    3    0  502 -0.26413268817E+02 -0.31143690981E+02 -0.32977689288E+03  0.33232192485E+03  0.41800000000E+01 0. -1.
        -11    1    1    2    0    0 -0.87229894686E+02 -0.14467874519E+02 -0.38302725787E+03  0.39310081937E+03  0.00000000000E+00 0. -1.
         11    1    1    2    0    0  0.15069433919E+02  0.20766464671E+02 -0.14152073240E+03  0.14382785402E+03  0.00000000000E+00 0.  1.
</event>
<event>
 7    1  0.4394360E-006  0.1024601E+03  0.7561462E-02  0.1275206E+00
          1   -1    0    0  501    0  0.00000000000E+00  0.00000000000E+00  0.43141427756E+03  0.43141427756E+03  0.00000000000E+00 0. -1.
         -1   -1    0    0    0  501 -0.00000000000E+00 -0.00000000000E+00 -0.29082836432E+02  0.29082836432E+02  0.00000000000E+00 0.  1.
         23    2    1    2    0    0  0.33577076359E+02 -0.72418088118E+01  0.22131896921E+03  0.25653406750E+03  0.12509107804E+03 0.  0.
          5    1    3    3  502    0  0.38409956127E+02 -0.62833818129E+02  0.12534507309E+03  0.14543821086E+03  0.41800000000E+01 0.  1.
         -5    1    3    3    0  502 -0.48328797690E+01  0.55592009317E+02  0.95973896114E+02  0.11109585664E+03  0.41800000000E+01 0.  1.
        -11    1    1    2    0    0  0.55095524432E+01  0.29641857802E+02  0.13943984685E+03  0.14266206851E+03  0.00000000000E+00 0. -1.
         11    1    1    2    0    0 -0.39086628802E+02 -0.22400048990E+02  0.41572625065E+02  0.61300977975E+02  0.00000000000E+00 0.  1.
</event>
<event>
 6    1  0.4394360E-006  0.6710101E+02  0.7561462E-02  0.1370238E+00
          2   -1    0    0  501    0  0.00000000000E+00  0.00000000000E+00  0.96698956219E+02  0.96698956219E+02  0.00000000000E+00 0. -1.
         -2   -1    0    0    0  501 -0.00000000000E+00 -0.00000000000E+00 -0.14581383160E+03  0.14581383160E+03  0.00000000000E+00 0.  1.
          5    1    1    2  502    0 -0.21791087970E+02 -0.25326771164E+02  0.42362040191E+02  0.54113877163E+02  0.41800000000E+01 0. -1.
         -5    1    1    2    0  502  0.77882853313E+01  0.78753029855E+01 -0.92998350282E+02  0.93748831143E+02  0.41800000000E+01 0.  1.
        -11    1    1    2    0    0 -0.14445463400E+02 -0.30039506439E+02  0.16651416515E+02  0.37260072892E+02  0.00000000000E+00 0.  1.
         11    1    1    2    0    0  0.28448266039E+02  0.47490974617E+02 -0.15129981807E+02  0.57390006623E+02  0.00000000000E+00 0. -1.
</event>
<event>
 7    1  0.4394360E-006  0.8668988E+02  0.7561462E-02  0.1311072E+00
         -1   -1    0    0    0  501 -0.00000000000E+00  0.00000000000E+00  0.46694769018E+02  0.46694769018E+02  0.00000000000E+00 0.  1.
          1   -1    0    0  501    0  0.00000000000E+00 -0.00000000000E+00 -0.31094515815E+03  0.31094515815E+03  0.00000000000E+00 0. -1.
         23    2    1    2    0    0 -0.37792293294E+02 -0.24468966152E+02 -0.11789870275E+03  0.17769071321E+03  0.12508756019E+03 0.  0.
          5    1    3    3  502    0 -0.70496545945E+02 -0.29242621198E+02 -0.12216311700E+03  0.14410480020E+03  0.41800000000E+01 0.  1.
         -5    1    3    3    0  502  0.32704252651E+02  0.47736550456E+01  0.42644142490E+01  0.33585913012E+02  0.41800000000E+01 0.  1.
        -11    1    1    2    0    0 -0.24253227277E+01 -0.10229497444E+02  0.10190079389E+02  0.14641124487E+02  0.00000000000E+00 0.  1.
         11    1    1    2    0    0  0.40217616022E+02  0.34698463597E+02 -0.15654176576E+03  0.16530808947E+03  0.00000000000E+00 0. -1.
</event>
<event>
 7    1  0.4394360E-006  0.9482805E+02  0.7561462E-02  0.1291564E+00
          2   -1    0    0  501    0  0.00000000000E+00  0.00000000000E+00  0.24846246760E+02  0.24846246760E+02  0.00000000000E+00 0. -1.
         -2   -1    0    0    0  501 -0.00000000000E+00 -0.00000000000E+00 -0.57273877279E+03  0.57273877279E+03  0.00000000000E+00 0.  1.
         23    2    1    2    0    0 -0.12450923094E+02 -0.53995079609E+02 -0.40896969153E+03  0.42796512486E+03  0.11325831272E+03 0.  0.
          5    1    3    3  502    0  0.34729694984E+02 -0.34046507463E+02 -0.33100265808E+03  0.33458264814E+03  0.41800000000E+01 0. -1.
         -5    1    3    3    0  502 -0.47180618078E+02 -0.19948572146E+02 -0.77967033454E+02  0.93382476721E+02  0.41800000000E+01 0.  1.
        -11    1    1    2    0    0 -0.16642197414E+02 -0.98129746353E+01 -0.64633935198E+02  0.67459638193E+02  0.00000000000E+00 0.  1.
         11    1    1    2    0    0  0.29093120508E+02  0.63808054244E+02 -0.74288899298E+02  0.10216025649E+03  0.00000000000E+00 0. -1.
</event>
<event>
 7    1  0.4394360E-006  0.5927945E+02  0.7561462E-02  0.1400881E+00
          2   -1    0    0  501    0  0.00000000000E+00  0.00000000000E+00  0.32986747109E+03  0.32986747109E+03  0.00000000000E+00 0. -1.
         -2   -1    0    0    0  501 -0.00000000000E+00 -0.00000000000E+00 -0.33037821171E+02  0.33037821171E+02  0.00000000000E+00 0.  1.
         23    2    1    2    0    0  0.16606838378E+02 -0.45570198834E+01  0.14372990521E+03  0.18463243727E+03  0.11460496381E+03 0.  0.
          5    1    3    3  502    0 -0.79499314488E+01 -0.64503590734E+01  0.15628321216E+03  0.15667393958E+03  0.41800000000E+01 0. -1.
         -5    1    3    3    0  502  0.24556769827E+02  0.18933391899E+01 -0.12553306946E+02  0.27958497687E+02  0.41800000000E+01 0.  1.
        -11    1    1    2    0    0 -0.48181575014E+02  0.12864975278E+02  0.52071940218E+02  0.72100337848E+02  0.00000000000E+00 0.  1.
         11    1    1    2    0    0  0.31574736637E+02 -0.83079553943E+01  0.10102780449E+03  0.10617251714E+03  0.00000000000E+00 0. -1.
</event>
<event>
 7    1  0.4394360E-006  0.1128648E+03  0.7561462E-02  0.1255355E+00
         -1   -1    0    0    0  501 -0.00000000000E+00  0.00000000000E+00  0.61364174088E+02  0.61364174088E+02  0.00000000000E+00 0.  1.
          1   -1    0    0  501    0  0.00000000000E+00 -0.00000000000E+00 -0.21495416170E+03  0.21495416170E+03  0.00000000000E+00 0. -1.
         23    2    1    2    0    0  0.11841136495E+02  0.36444571992E+02 -0.76845026817E+02  0.15172675612E+03  0.12508969196E+03 0.  0.
          5    1    3    3  502    0  0.50982761492E+02  0.63228960813E+02 -0.35784691719E+02  0.88854712965E+02  0.41800000000E+01 0. -1.
         -5    1    3    3    0  502 -0.39141624996E+02 -0.26784388820E+02 -0.41060335098E+02  0.62872043153E+02  0.41800000000E+01 0. -1.
        -11    1    1    2    0    0  0.36845364113E+02 -0.15332444980E+01 -0.19438486007E+02  0.41686765688E+02  0.00000000000E+00 0. -1.
         11    1    1    2    0    0 -0.48686500608E+02 -0.34911327494E+02 -0.57306474793E+02  0.82904813986E+02  0.00000000000E+00 0.  1.
</event>
<event>
 7    1  0.1058644E-005  0.2306979E+03  0.7561462E-02  0.1126150E+00
         -1   -1    0    0    0  501 -0.00000000000E+00  0.00000000000E+00  0.12768576784E+03  0.12768576784E+03  0.00000000000E+00 0.  1.
          1   -1    0    0  501    0  0.00000000000E+00 -0.00000000000E+00 -0.44741199917E+03  0.44741199917E+03  0.00000000000E+00 0. -1.
         23    2    1    2    0    0  0.66608974162E+02  0.19619087018E+03 -0.10946442943E+03  0.26562708374E+03  0.12509066042E+03 0.  0.
          5    1    3    3  502    0  0.90771834698E+02  0.90883523090E+02 -0.31490393320E+02  0.13231952998E+03  0.41800000000E+01 0.  1.
         -5    1    3    3    0  502 -0.24162860536E+02  0.10530734709E+03 -0.77974036115E+02  0.13330755376E+03  0.41800000000E+01 0.  1.
        -11    1    1    2    0    0 -0.76439978560E+02 -0.89881875751E+02 -0.13230929407E+03  0.17727823106E+03  0.00000000000E+00 0.  1.
         11    1    1    2    0    0  0.98310043986E+01 -0.10630899443E+03 -0.77952507829E+02  0.13219245221E+03  0.00000000000E+00 0. -1.
</event>
<event>
 7    1  0.4394360E-006  0.1112065E+03  0.7561462E-02  0.1258352E+00
          1   -1    0    0  501    0  0.00000000000E+00  0.00000000000E+00  0.71857983899E+03  0.71857983899E+03  0.00000000000E+00 0. -1.
         -1   -1    0    0    0  501 -0.00000000000E+00 -0.00000000000E+00 -0.24489698864E+02  0.24489698864E+02  0.00000000000E+00 0.  1.
         23    2    1    2    0    0  0.29600976373E+02 -0.44701374529E+02  0.23757055080E+03  0.27328757483E+03  0.12398347173E+03 0.  0.
          5    1    3    3  502    0  0.70543272159E+01  0.32223221093E+02  0.14610863599E+02  0.36318717560E+02  0.41800000000E+01 0. -1.
         -5    1    3    3    0  502  0.22546649157E+02 -0.76924595623E+02  0.22295968720E+03  0.23696885727E+03  0.41800000000E+01 0.  1.
        -11    1    1    2    0    0 -0.33648091587E+02 -0.23200220391E+02  0.13085625718E+03  0.13709049689E+03  0.00000000000E+00 0.  1.
         11    1    1    2    0    0  0.40471152144E+01  0.67901594920E+02  0.32566333215E+03  0.33269146614E+03  0.00000000000E+00 0. -1.
</event>
<event>
 7    1  0.4394360E-006  0.1030022E+03  0.7561462E-02  0.1274107E+00
         -1   -1    0    0    0  501 -0.00000000000E+00  0.00000000000E+00  0.50558411835E+02  0.50558411835E+02  0.00000000000E+00 0.  1.
          1   -1    0    0  501    0  0.00000000000E+00 -0.00000000000E+00 -0.25588249501E+03  0.25588249501E+03  0.00000000000E+00 0. -1.
         23    2    1    2    0    0 -0.33820882402E+02  0.15347639533E+02 -0.69389343973E+02  0.14778926658E+03  0.12508950449E+03 0.  0.
          5    1    3    3  502    0 -0.66819414398E+02  0.44163707906E+02 -0.22106696723E+02  0.83195226284E+02  0.41800000000E+01 0.  1.
         -5    1    3    3    0  502  0.32998531996E+02 -0.28816068373E+02 -0.47282647250E+02  0.64594040293E+02  0.41800000000E+01 0.  1.
        -11    1    1    2    0    0  0.25816636449E+02 -0.44562177489E+02 -0.86984607155E+02  0.10108713203E+03  0.00000000000E+00 0. -1.
         11    1    1    2    0    0  0.80042459534E+01  0.29214537956E+02 -0.48950132046E+02  0.57564508237E+02  0.00000000000E+00 0.  1.
</event>
<event>
 7    1  0.4394360E-006  0.1228828E+03  0.7561462E-02  0.1238416E+00
          1   -1    0    0  501    0  0.00000000000E+00  0.00000000000E+00  0.52857948570E+03  0.52857948570E+03  0.00000000000E+00 0. -1.
         -1   -1    0    0    0  501 -0.00000000000E+00 -0.00000000000E+00 -0.41648595946E+02  0.41648595946E+02  0.00000000000E+00 0.  1.
         23    2    1    2    0    0  0.72933441735E+02 -0.31063556398E+02  0.14464271076E+03  0.20701057602E+03  0.12509050063E+03 0.  0.
          5    1    3    3  502    0  0.79076609298E+02  0.24896788069E+02  0.11879476364E+03  0.14492283624E+03  0.41800000000E+01 0. -1.
         -5    1    3    3    0  502 -0.61431675630E+01 -0.55960344467E+02  0.25847947120E+02  0.62087739779E+02  0.41800000000E+01 0. -1.
        -11    1    1    2    0    0 -0.30332761084E+02  0.50946872076E+02  0.27379943321E+03  0.28014601513E+03  0.00000000000E+00 0. -1.
         11    1    1    2    0    0 -0.42600680651E+02 -0.19883315678E+02  0.68488745781E+02  0.83071490495E+02  0.00000000000E+00 0.  1.
</event>
<event>
 7    1  0.4394360E-006  0.1305647E+03  0.7561462E-02  0.1226620E+00
         -2   -1    0    0    0  501 -0.00000000000E+00  0.00000000000E+00  0.31834559743E+02  0.31834559743E+02  0.00000000000E+00 0. -1.
          2   -1    0    0  501    0  0.00000000000E+00 -0.00000000000E+00 -0.59590328168E+03  0.59590328168E+03  0.00000000000E+00 0.  1.
         23    2    1    2    0    0 -0.64901366189E+02 -0.58006570782E+02 -0.26769350836E+03  0.30803282401E+03  0.12508979440E+03 0.  0.
          5    1    3    3  502    0  0.29329659866E+02  0.19337673321E+01 -0.11524693040E+03  0.11900964571E+03  0.41800000000E+01 0.  1.
         -5    1    3    3    0  502 -0.94231026056E+02 -0.59940338114E+02 -0.15244657795E+03  0.18902317830E+03  0.41800000000E+01 0.  1.
        -11    1    1    2    0    0  0.72922775484E+02  0.13130787653E+02 -0.19244129151E+03  0.20621299534E+03  0.00000000000E+00 0.  1.
         11    1    1    2    0    0 -0.80214092943E+01  0.44875783129E+02 -0.10393392208E+03  0.11349202208E+03  0.00000000000E+00 0. -1.
</event>
<event>
 7    1  0.4394360E-006  0.3908349E+03  0.7561462E-02  0.1047000E+00
          2   -1    0    0  501    0  0.00000000000E+00  0.00000000000E+00  0.12030122681E+04  0.12030122681E+04  0.00000000000E+00 0. -1.
         -2   -1    0    0    0  501 -0.00000000000E+00 -0.00000000000E+00 -0.14405419420E+03  0.14405419420E+03  0.00000000000E+00 0.  1.
         23    2    1    2    0    0 -0.14697220430E+03  0.34634723522E+03  0.30729049985E+03  0.50162517809E+03  0.12507250623E+03 0.  0.
          5    1    3    3  502    0  0.18808256190E+02  0.79294880655E+02  0.53072817076E+02  0.97342821571E+02  0.41800000000E+01 0. -1.
         -5    1    3    3    0  502 -0.16578046049E+03  0.26705235457E+03  0.25421768277E+03  0.40428235652E+03  0.41800000000E+01 0. -1.
        -11    1    1    2    0    0  0.13852650542E+03 -0.22603289226E+03  0.54759005226E+03  0.60838748050E+03  0.00000000000E+00 0.  1.
         11    1    1    2    0    0  0.84456988730E+01 -0.12031434296E+03  0.20407752178E+03  0.23705380370E+03  0.00000000000E+00 0. -1.
</event>
<event>
 7    1  0.4394360E-006  0.1798574E+03  0.7561462E-02  0.1167941E+00
         -1   -1    0    0    0  501 -0.00000000000E+00  0.00000000000E+00  0.12152886322E+03  0.12152886322E+03  0.00000000000E+00 0.  1.
          1   -1    0    0  501    0  0.00000000000E+00 -0.00000000000E+00 -0.36615779033E+03  0.36615779033E+03  0.00000000000E+00 0. -1.
         23    2    1    2    0    0 -0.15125730941E+03 -0.63252160336E+02 -0.40066101125E+02  0.21007827381E+03  0.12509188314E+03 0.  0.
          5    1    3    3  502    0  0.86529042913E+01  0.14870449286E+02  0.15556735506E+02  0.23568780924E+02  0.41800000000E+01 0. -1.
         -5    1    3    3    0  502 -0.15991021371E+03 -0.78122609622E+02 -0.55622836630E+02  0.18650949289E+03  0.41800000000E+01 0. -1.
        -11    1    1    2    0    0  0.39350015727E+02  0.18128840643E+02 -0.39512511138E+01  0.43505068511E+02  0.00000000000E+00 0.  1.
         11    1    1    2    0    0  0.11190729369E+03  0.45123319694E+02 -0.20061157487E+03  0.23410331124E+03  0.00000000000E+00 0. -1.
</event>
<event>
 7    1  0.4394360E-006  0.1583783E+03  0.7561462E-02  0.1190540E+00
          1   -1    0    0  501    0  0.00000000000E+00  0.00000000000E+00  0.75453689710E+03  0.75453689710E+03  0.00000000000E+00 0. -1.
         -1   -1    0    0    0  501 -0.00000000000E+00 -0.00000000000E+00 -0.49031766865E+02  0.49031766865E+02  0.00000000000E+00 0.  1.
         23    2    1    2    0    0  0.11402797640E+03  0.10223782195E+03  0.34076575238E+03  0.39396802095E+03  0.12503820176E+03 0.  0.
          5    1    3    3  502    0  0.69011116326E+02  0.93620143426E+02  0.32517513286E+03  0.34537458630E+03  0.41800000000E+01 0.  1.
         -5    1    3    3    0  502  0.45016860072E+02  0.86176785209E+01  0.15590619514E+02  0.48593434646E+02  0.41800000000E+01 0.  1.
        -11    1    1    2    0    0 -0.22643800591E+02 -0.10843072828E+02  0.27808519518E+01  0.25259593645E+02  0.00000000000E+00 0.  1.
         11    1    1    2    0    0 -0.91384175808E+02 -0.91394749118E+02  0.36195852590E+03  0.38434104937E+03  0.00000000000E+00 0. -1.
</event>
<event>
 7    1  0.4394360E-006  0.9539647E+02  0.7561462E-02  0.1290286E+00
          2   -1    0    0  501    0  0.00000000000E+00  0.00000000000E+00  0.23908019934E+03  0.23908019934E+03  0.00000000000E+00 0. -1.
         -2   -1    0    0    0  501 -0.00000000000E+00 -0.00000000000E+00 -0.72168696490E+02  0.72168696490E+02  0.00000000000E+00 0.  1.
         23    2    1    2    0    0  0.21431906291E+02  0.35405116382E+02  0.18676732773E+02  0.13239175343E+03  0.12436200045E+03 0.  0.
          5    1    3    3  502    0  0.71147754211E+02  0.31061331158E+02  0.25564665837E+02  0.81840294244E+02  0.41800000000E+01 0. -1.
         -5    1    3    3    0  502 -0.49715847920E+02  0.43437852243E+01 -0.68879330636E+01  0.50551459191E+02  0.41800000000E+01 0.  1.
        -11    1    1    2    0    0  0.11354007402E+02  0.36959661688E+01 -0.80846810212E+01  0.14419976325E+02  0.00000000000E+00 0.  1.
         11    1    1    2    0    0 -0.32785913693E+02 -0.39101082551E+02  0.15631945110E+03  0.16443716607E+03  0.00000000000E+00 0. -1.
</event>
<event>
 7    1  0.4394360E-006  0.2395206E+03  0.7561462E-02  0.1120113E+00
          2   -1    0    0  501    0  0.00000000000E+00  0.00000000000E+00  0.11346853941E+04  0.11346853941E+04  0.00000000000E+00 0. -1.
         -2   -1    0    0    0  501 -0.00000000000E+00 -0.00000000000E+00 -0.60628321414E+02  0.60628321414E+02  0.00000000000E+00 0.  1.
         23    2    1    2    0    0  0.12002327759E+03  0.19076488517E+03  0.37347472294E+03  0.45379282126E+03  0.12509087648E+03 0.  0.
          5    1    3    3  502    0  0.92164141904E+02  0.20290078042E+03  0.35090658208E+03  0.41571126698E+03  0.41800000000E+01 0.  1.
         -5    1    3    3    0  502  0.27859135684E+02 -0.12135895252E+02  0.22568140865E+02  0.38081554285E+02  0.41800000000E+01 0.  1.
        -11    1    1    2    0    0 -0.32386581655E+02 -0.57048003064E+02  0.35150260487E+03  0.35757159641E+03  0.00000000000E+00 0. -1.
         11    1    1    2    0    0 -0.87636695933E+02 -0.13371688210E+03  0.34907974485E+03  0.38394929782E+03  0.00000000000E+00 0.  1.
</event>
<event>
 7    1  0.4394360E-006  0.1120449E+03  0.7561462E-02  0.1256829E+00
         -3   -1    0    0    0  501 -0.00000000000E+00  0.00000000000E+00  0.72043495492E+02  0.72043495492E+02  0.00000000000E+00 0.  1.
          3   -1    0    0  501    0  0.00000000000E+00 -0.00000000000E+00 -0.20155724795E+03  0.20155724795E+03  0.00000000000E+00 0. -1.
         23    2    1    2    0    0 -0.29997820372E+02 -0.31487783704E+01 -0.36709136875E+02  0.13380426167E+03  0.12508491387E+03 0.  0.
          5    1    3    3  502    0 -0.19556293363E+02  0.56077164996E+02 -0.42637184250E+02  0.73229085238E+02  0.41800000000E+01 0.  1.
         -5    1    3    3    0  502 -0.10441527009E+02 -0.59225943366E+02  0.59280473754E+01  0.60575176430E+02  0.41800000000E+01 0.  1.
        -11    1    1    2    0    0  0.44715262422E+01  0.50381778662E+02 -0.39923420200E+02  0.64437548437E+02  0.00000000000E+00 0. -1.
         11    1    1    2    0    0  0.25526294130E+02 -0.47233000292E+02 -0.52881195384E+02  0.75358933338E+02  0.00000000000E+00 0.  1.
</event>
<event>
 7    1  0.4394360E-006  0.1300540E+03  0.7561462E-02  0.1227376E+00
          1   -1    0    0  501    0  0.00000000000E+00  0.00000000000E+00  0.31551982616E+03  0.31551982616E+03  0.00000000000E+00 0. -1.
         -1   -1    0    0    0  501 -0.00000000000E+00 -0.00000000000E+00 -0.60879656799E+02  0.60879656799E+02  0.00000000000E+00 0.  1.
         23    2    1    2    0    0 -0.86919329669E+02  0.40794338860E+01  0.13930236539E+03  0.20645893268E+03  0.12509408550E+03 0.  0.
          5    1    3    3  502    0 -0.85824480123E+02  0.53029124787E+02  0.76299534510E+02  0.12655836926E+03  0.41800000000E+01 0. -1.
         -5    1    3    3    0  502 -0.10948495464E+01 -0.48949690901E+02  0.63002830881E+02  0.79900563414E+02  0.41800000000E+01 0. -1.
        -11    1    1    2    0    0  0.69659183978E+02 -0.32403436605E+02  0.11306111545E+03  0.13669382007E+03  0.00000000000E+00 0. -1.
         11    1    1    2    0    0  0.17260145691E+02  0.28324002719E+02  0.22766885109E+01  0.33246730213E+02  0.00000000000E+00 0.  1.
</event>
<event>
 6    1  0.4394360E-006  0.1333626E+03  0.7561462E-02  0.1222550E+00
          2   -1    0    0  501    0  0.00000000000E+00  0.00000000000E+00  0.15237667168E+03  0.15237667168E+03  0.00000000000E+00 0. -1.
         -2   -1    0    0    0  501 -0.00000000000E+00 -0.00000000000E+00 -0.15478670186E+03  0.15478670186E+03  0.00000000000E+00 0.  1.
          5    1    1    2  502    0 -0.37929058142E+02 -0.69408140279E+02 -0.35970286703E+02  0.86991018583E+02  0.41800000000E+01 0. -1.
         -5    1    1    2    0  502  0.79136028009E+02  0.51654197967E+02 -0.32209633038E+02  0.99927973846E+02  0.41800000000E+01 0.  1.
        -11    1    1    2    0    0 -0.45259492706E+02  0.45916070392E+02  0.22161616225E+02  0.68175101276E+02  0.00000000000E+00 0.  1.
         11    1    1    2    0    0  0.40525228396E+01 -0.28162128080E+02  0.43608273339E+02  0.52069279839E+02  0.00000000000E+00 0. -1.
</event>
<event>
 7    1  0.4394360E-006  0.1466696E+03  0.7561462E-02  0.1204626E+00
          2   -1    0    0  501    0  0.00000000000E+00  0.00000000000E+00  0.10927459266E+04  0.10927459266E+04  0.00000000000E+00 0. -1.
         -2   -1    0    0    0  501 -0.00000000000E+00 -0.00000000000E+00 -0.20947680541E+02  0.20947680541E+02  0.00000000000E+00 0.  1.
         23    2    1    2    0    0  0.66713349500E+02 -0.76048492420E+02  0.52458502554E+03  0.54869804646E+03  0.12508418350E+03 0.  0.
          5    1    3    3  502    0  0.87859279250E+02 -0.71952124997E+01  0.30936759418E+03  0.32170919285E+03  0.41800000000E+01 0.  1.
         -5    1    3    3    0  502 -0.21145929750E+02 -0.68853279920E+02  0.21521743136E+03  0.22698885361E+03  0.41800000000E+01 0.  1.
        -11    1    1    2    0    0 -0.14603243574E+02  0.79389361290E+02  0.23577744248E+03  0.24921261564E+03  0.00000000000E+00 0.  1.
         11    1    1    2    0    0 -0.52110105927E+02 -0.33408688697E+01  0.31143577807E+03  0.31578294508E+03  0.00000000000E+00 0. -1.
</event>
<event>
 7    1  0.4394360E-006  0.1358082E+03  0.7561462E-02  0.1219083E+00
          1   -1    0    0  501    0  0.00000000000E+00  0.00000000000E+00  0.68506871232E+03  0.68506871232E+03  0.00000000000E+00 0. -1.
         -1   -1    0    0    0  501 -0.00000000000E+00 -0.00000000000E+00 -0.34524167449E+02  0.34524167449E+02  0.00000000000E+00 0.  1.
         23    2    1    2    0    0  0.47128554938E+02  0.84725601448E+02  0.24738327650E+03  0.29367555262E+03  0.12508923410E+03 0.  0.
          5    1    3    3  502    0  0.71533509532E+02  0.36785923003E+02  0.65072095657E+02  0.10354755985E+03  0.41800000000E+01 0. -1.
         -5    1    3    3    0  502 -0.24404954593E+02  0.47939678445E+02  0.18231118084E+03  0.19012799278E+03  0.41800000000E+01 0. -1.
        -11    1    1    2    0    0 -0.77075186330E+02 -0.53333829133E+02  0.28709074317E+03  0.30200360344E+03  0.00000000000E+00 0.  1.
         11    1    1    2    0    0  0.29946631392E+02 -0.31391772315E+02  0.11607052521E+03  0.12391372371E+03  0.00000000000E+00 0. -1.
</event>
<event>
 7    1  0.4394360E-006  0.1224470E+03  0.7561462E-02  0.1239114E+00
         -2   -1    0    0    0  501 -0.00000000000E+00  0.00000000000E+00  0.25814662205E+02  0.25814662205E+02  0.00000000000E+00 0.  1.
          2   -1    0    0  501    0  0.00000000000E+00 -0.00000000000E+00 -0.87874323109E+03  0.87874323109E+03  0.00000000000E+00 0. -1.
         23    2    1    2    0    0  0.62106857197E+02 -0.72544407058E+02 -0.33949493416E+03  0.37419620000E+03  0.12508410400E+03 0.  0.
          5    1    3    3  502    0 -0.15512050588E+02  0.12528577186E+02 -0.58280132059E+01  0.21190259501E+02  0.41800000000E+01 0.  1.
         -5    1    3    3    0  502  0.77618907786E+02 -0.85072984244E+02 -0.33366692095E+03  0.35300594050E+03  0.41800000000E+01 0.  1.
        -11    1    1    2    0    0 -0.71715870399E+02  0.67242382555E+02 -0.50919264363E+03  0.51859603972E+03  0.00000000000E+00 0. -1.
         11    1    1    2    0    0  0.96090132013E+01  0.53020245025E+01 -0.42409910917E+01  0.11765653572E+02  0.00000000000E+00 0.  1.
</event>
<event>
 7    1  0.4394360E-006  0.1451778E+03  0.7561462E-02  0.1206527E+00
         -1   -1    0    0    0  501 -0.00000000000E+00  0.00000000000E+00  0.63799740383E+03  0.63799740383E+03  0.00000000000E+00 0.  1.
          1   -1    0    0  501    0  0.00000000000E+00 -0.00000000000E+00 -0.40760630569E+02  0.40760630569E+02  0.00000000000E+00 0. -1.
         23    2    1    2    0    0  0.10787782850E+03 -0.44014980935E+02  0.36382684186E+03  0.40198512111E+03  0.12508845793E+03 0.  0.
          5    1    3    3  502    0  0.19021048732E+02 -0.53128349059E+02  0.49481425026E+02  0.75168514627E+02  0.41800000000E+01 0. -1.
         -5    1    3    3    0  502  0.88856779766E+02  0.91133681241E+01  0.31434541683E+03  0.32681660648E+03  0.41800000000E+01 0. -1.
        -11    1    1    2    0    0 -0.20509384206E+02 -0.25482821069E+02  0.28320457632E+02  0.43267277828E+02  0.00000000000E+00 0. -1.
         11    1    1    2    0    0 -0.87368444291E+02  0.69497802004E+02  0.20508947377E+03  0.23350563546E+03  0.00000000000E+00 0.  1.
</event>
<event>
 7    1  0.4394360E-006  0.1411209E+03  0.7561462E-02  0.1211829E+00
         -1   -1    0    0    0  501 -0.00000000000E+00  0.00000000000E+00  0.43151621662E+02  0.43151621662E+02  0.00000000000E+00 0.  1.
          1   -1    0    0  501    0  0.00000000000E+00 -0.00000000000E+00 -0.79100566887E+03  0.79100566887E+03  0.00000000000E+00 0. -1.
         23    2    1    2    0    0 -0.59366711564E+02 -0.98397703008E+02 -0.18056751443E+03  0.24790977759E+03  0.12509243046E+03 0.  0.
          5    1    3    3  502    0 -0.72873296164E+02 -0.63611382877E+02 -0.44138723030E+02  0.10640782206E+03  0.41800000000E+01 0. -1.
         -5    1    3    3    0  502  0.13506584599E+02 -0.34786320131E+02 -0.13642879140E+03  0.14150195553E+03  0.41800000000E+01 0. -1.
        -11    1    1    2    0    0  0.66459557843E+02  0.20355937410E+02 -0.26163741118E+03  0.27071271109E+03  0.00000000000E+00 0. -1.
         11    1    1    2    0    0 -0.70928462783E+01  0.78041765598E+02 -0.30564912159E+03  0.31553480184E+03  0.00000000000E+00 0.  1.
</event>
<event>
 7    1  0.4394360E-006  0.1091486E+03  0.7561462E-02  0.1262155E+00
         -2   -1    0    0    0  501 -0.00000000000E+00  0.00000000000E+00  0.13352435773E+03  0.13352435773E+03  0.00000000000E+00 0.  1.
          2   -1    0    0  501    0  0.00000000000E+00 -0.00000000000E+00 -0.14497224355E+03  0.14497224355E+03  0.00000000000E+00 0. -1.
         23    2    1    2    0    0 -0.66387119723E+02 -0.49929915657E+02  0.21010771508E+02  0.15162638408E+03  0.12509541034E+03 0.  0.
          5    1    3    3  502    0 -0.12562343878E+02  0.30247905782E+02 -0.27962880030E+02  0.43268271834E+02  0.41800000000E+01 0.  1.
         -5    1    3    3    0  502 -0.53824775845E+02 -0.80177821439E+02  0.48973651537E+02  0.10835811225E+03  0.41800000000E+01 0.  1.
        -11    1    1    2    0    0  0.18291306271E+02  0.32815750405E+02 -0.58528569268E+02  0.69548822997E+02  0.00000000000E+00 0. -1.
         11    1    1    2    0    0  0.48095813452E+02  0.17114165252E+02  0.26069911937E+02  0.57321394193E+02  0.00000000000E+00 0.  1.
</event>
<event>
 7    1  0.4394360E-006  0.1478324E+03  0.7561462E-02  0.1203162E+00
          2   -1    0    0  501    0  0.00000000000E+00  0.00000000000E+00  0.42616628566E+03  0.42616628566E+03  0.00000000000E+00 0. -1.
         -2   -1    0    0    0  501 -0.00000000000E+00 -0.00000000000E+00 -0.60320503089E+02  0.60320503089E+02  0.00000000000E+00 0.  1.
         23    2    1    2    0    0 -0.10107099413E+03 -0.51644315694E+02  0.14508419545E+03  0.22266344562E+03  0.12508838893E+03 0.  0.
          5    1    3    3  502    0 -0.60989672336E+02 -0.86562804902E+02  0.58692543286E+02  0.12114101849E+03  0.41800000000E+01 0. -1.
         -5    1    3    3    0  502 -0.40081321796E+02  0.34918489208E+02  0.86391652163E+02  0.10152242712E+03  0.41800000000E+01 0. -1.
        -11    1    1    2    0    0  0.61735467902E+02 -0.10696938956E+02  0.14578898996E+03  0.15868245679E+03  0.00000000000E+00 0. -1.
         11    1    1    2    0    0  0.39335526230E+02  0.62341254650E+02  0.74972597162E+02  0.10514088634E+03  0.00000000000E+00 0.  1.
</event>
<event>
 7    1  0.4394360E-006  0.5787375E+02  0.7561462E-02  0.1406978E+00
          3   -1    0    0  501    0  0.00000000000E+00  0.00000000000E+00  0.36934956699E+03  0.36934956699E+03  0.00000000000E+00 0. -1.
         -3   -1    0    0    0  501 -0.00000000000E+00 -0.00000000000E+00 -0.75284815767E+02  0.75284815767E+02  0.00000000000E+00 0.  1.
         23    2    1    2    0    0  0.25106061274E+01 -0.42317584852E+02 -0.14366669490E+02  0.12014033713E+03  0.11149088878E+03 0.  0.
          5    1    3    3  502    0  0.87127023981E+01 -0.15089209452E+02  0.48240101089E+02  0.51460423415E+02  0.41800000000E+01 0. -1.
         -5    1    3    3    0  502 -0.62020962708E+01 -0.27228375401E+02 -0.62606770579E+02  0.68679913712E+02  0.41800000000E+01 0.  1.
        -11    1    1    2    0    0 -0.19871547023E+02 -0.38741742726E+01  0.11086874842E+02  0.23082599532E+02  0.00000000000E+00 0.  1.
         11    1    1    2    0    0  0.17360940896E+02  0.46191759125E+02  0.29734454587E+03  0.30141144610E+03  0.00000000000E+00 0. -1.
</event>
<event>
 7    1  0.4394360E-006  0.3623868E+03  0.7561462E-02  0.1057643E+00
          2   -1    0    0  501    0  0.00000000000E+00  0.00000000000E+00  0.70990554267E+03  0.70990554267E+03  0.00000000000E+00 0. -1.
         -2   -1    0    0    0  501 -0.00000000000E+00 -0.00000000000E+00 -0.23037647168E+03  0.23037647168E+03  0.00000000000E+00 0.  1.
         23    2    1    2    0    0  0.15493278758E+03  0.32125192405E+03  0.60984071997E+02  0.38284894467E+03  0.12508912832E+03 0.  0.
          5    1    3    3  502    0  0.25354349162E+02  0.53194780591E+02  0.61234275841E+02  0.85086054330E+02  0.41800000000E+01 0. -1.
         -5    1    3    3    0  502  0.12957843842E+03  0.26805714345E+03 -0.25020384458E+00  0.29776289034E+03  0.41800000000E+01 0. -1.
        -11    1    1    2    0    0 -0.14985327433E+03 -0.21788327808E+03  0.30972682600E+03  0.40725892678E+03  0.00000000000E+00 0.  1.
         11    1    1    2    0    0 -0.50795132502E+01 -0.10336864597E+03  0.10881817299E+03  0.15017414290E+03  0.00000000000E+00 0. -1.
</event>
<event>
 7    1  0.4394360E-006  0.2082493E+03  0.7561462E-02  0.1142960E+00
          1   -1    0    0  501    0  0.00000000000E+00  0.00000000000E+00  0.60673616587E+03  0.60673616587E+03  0.00000000000E+00 0. -1.
         -1   -1    0    0    0  501 -0.00000000000E+00 -0.00000000000E+00 -0.83438412595E+02  0.83438412595E+02  0.00000000000E+00 0.  1.
         23    2    1    2    0    0  0.16652089641E+03  0.98077057763E+02  0.21251980258E+03  0.31330518552E+03  0.12508858696E+03 0.  0.
          5    1    3    3  502    0  0.17847978116E+03  0.10470258028E+03  0.16807130128E+03  0.26661413562E+03  0.41800000000E+01 0. -1.
         -5    1    3    3    0  502 -0.11958884750E+02 -0.66255225166E+01  0.44448501299E+02  0.46691049900E+02  0.41800000000E+01 0. -1.
        -11    1    1    2    0    0 -0.29738059643E+02 -0.30762051139E+02  0.14708419874E+03  0.15318099589E+03  0.00000000000E+00 0. -1.
         11    1    1    2    0    0 -0.13678283676E+03 -0.67315006623E+02  0.16369375196E+03  0.22368839706E+03  0.00000000000E+00 0.  1.
</event>
<event>
 7    1  0.4394360E-006  0.8238117E+02  0.7561462E-02  0.1322427E+00
          1   -1    0    0  501    0  0.00000000000E+00  0.00000000000E+00  0.91619333403E+02  0.91619333403E+02  0.00000000000E+00 0. -1.
         -1   -1    0    0    0  501 -0.00000000000E+00 -0.00000000000E+00 -0.21962642003E+03  0.21962642003E+03  0.00000000000E+00 0.  1.
         23    2    1    2    0    0 -0.22833043091E+02  0.76489281034E+02 -0.95838241054E+02  0.17664898069E+03  0.12509171020E+03 0.  0.
          5    1    3    3  502    0 -0.20223290681E+02  0.63007320902E+02  0.12407122587E+02  0.67456008362E+02  0.41800000000E+01 0.  1.
         -5    1    3    3    0  502 -0.26097524099E+01  0.13481960133E+02 -0.10824536364E+03  0.10919297233E+03  0.41800000000E+01 0.  1.
        -11    1    1    2    0    0  0.11879617160E+02 -0.70690189756E+01  0.34846000133E+02  0.37487865482E+02  0.00000000000E+00 0.  1.
         11    1    1    2    0    0  0.10953425931E+02 -0.69420262059E+02 -0.67014845709E+02  0.97108907260E+02  0.00000000000E+00 0. -1.
</event>
<event>
 7    1  0.4394360E-006  0.1126506E+03  0.7561462E-02  0.1255739E+00
          2   -1    0    0  501    0  0.00000000000E+00  0.00000000000E+00  0.55977059679E+02  0.55977059679E+02  0.00000000000E+00 0.  1.
         -2   -1    0    0    0  501 -0.00000000000E+00 -0.00000000000E+00 -0.25494369497E+03  0.25494369497E+03  0.00000000000E+00 0. -1.
         23    2    1    2    0    0  0.83168122384E+01 -0.43934441094E+02 -0.16119033362E+03  0.20888136325E+03  0.12509874413E+03 0.  0.
          5    1    3    3  502    0  0.26983973982E+02  0.38580273985E+02 -0.46511625803E+02  0.66312714674E+02  0.41800000000E+01 0.  1.
         -5    1    3    3    0  502 -0.18667161743E+02 -0.82514715079E+02 -0.11467870781E+03  0.14256864858E+03  0.41800000000E+01 0.  1.
        -11    1    1    2    0    0 -0.18730996463E+02  0.66174710809E+02 -0.19681972311E+02  0.71535464024E+02  0.00000000000E+00 0. -1.
         11    1    1    2    0    0  0.10414184225E+02 -0.22240269714E+02 -0.18094329365E+02  0.30503927373E+02  0.00000000000E+00 0.  1.
</event>
<event>
 7    1  0.4394360E-006  0.1198203E+03  0.7561462E-02  0.1243394E+00
         -1   -1    0    0    0  501 -0.00000000000E+00  0.00000000000E+00  0.19395336564E+02  0.19395336564E+02  0.00000000000E+00 0.  1.
          1   -1    0    0  501    0  0.00000000000E+00 -0.00000000000E+00 -0.10423828407E+04  0.10423828407E+04  0.00000000000E+00 0. -1.
         23    2    1    2    0    0  0.23518224947E+01 -0.90850841433E+02 -0.44614881165E+03  0.47218273272E+03  0.12509342303E+03 0.  0.
          5    1    3    3  502    0 -0.39573113766E+02 -0.46801707193E+02 -0.36790217623E+03  0.37299586432E+03  0.41800000000E+01 0. -1.
         -5    1    3    3    0  502  0.41924936261E+02 -0.44049134240E+02 -0.78246635425E+02  0.99186868400E+02  0.41800000000E+01 0. -1.
        -11    1    1    2    0    0 -0.25102406251E+02  0.91106688929E+02 -0.51723061721E+03  0.52579280229E+03  0.00000000000E+00 0. -1.
         11    1    1    2    0    0  0.22750583756E+02 -0.25584749542E+00 -0.59608075250E+02  0.63802642219E+02  0.00000000000E+00 0.  1.
</event>
<event>
 7    1  0.4394360E-006  0.1499353E+03  0.7561462E-02  0.1200553E+00
         -2   -1    0    0    0  501 -0.00000000000E+00  0.00000000000E+00  0.41680868309E+02  0.41680868309E+02  0.00000000000E+00 0.  1.
          2   -1    0    0  501    0  0.00000000000E+00 -0.00000000000E+00 -0.67203971303E+03  0.67203971303E+03  0.00000000000E+00 0. -1.
         23    2    1    2    0    0 -0.73784416268E+02  0.10451602067E+03 -0.31876629290E+03  0.36555128340E+03  0.12509217660E+03 0.  0.
          5    1    3    3  502    0 -0.94258051949E+02  0.10840749962E+03 -0.20835519407E+03  0.25311287132E+03  0.41800000000E+01 0. -1.
         -5    1    3    3    0  502  0.20473635681E+02 -0.38914789558E+01 -0.11041109883E+03  0.11243841208E+03  0.41800000000E+01 0. -1.
        -11    1    1    2    0    0  0.13317403218E+02 -0.55457881659E+02 -0.52108456998E+02  0.77254263036E+02  0.00000000000E+00 0.  1.
         11    1    1    2    0    0  0.60467013051E+02 -0.49058139007E+02 -0.25948409483E+03  0.27091503491E+03  0.00000000000E+00 0. -1.
</event>
<event>
 7    1  0.4394360E-006  0.1937200E+03  0.7561462E-02  0.1155148E+00
          2   -1    0    0  501    0  0.00000000000E+00  0.00000000000E+00  0.52125230018E+03  0.52125230018E+03  0.00000000000E+00 0. -1.
         -2   -1    0    0    0  501 -0.00000000000E+00 -0.00000000000E+00 -0.76002038372E+02  0.76002038372E+02  0.00000000000E+00 0.  1.
         23    2    1    2    0    0  0.14518169292E+03 -0.80730911382E+02  0.21274282342E+03  0.29749172817E+03  0.12508643172E+03 0.  0.
          5    1    3    3  502    0  0.51272235259E+02 -0.93648340349E+02  0.76276845847E+02  0.13128017128E+03  0.41800000000E+01 0. -1.
         -5    1    3    3    0  502  0.93909457661E+02  0.12917428967E+02  0.13646597757E+03  0.16621155689E+03  0.41800000000E+01 0. -1.
        -11    1    1    2    0    0 -0.22186843517E+02  0.56020910713E+02  0.50009370978E+02  0.78304122803E+02  0.00000000000E+00 0.  1.
         11    1    1    2    0    0 -0.12299484940E+03  0.24710000669E+02  0.18249806741E+03  0.22145848758E+03  0.00000000000E+00 0. -1.
</event>
<event>
 7    1  0.4394360E-006  0.1205784E+03  0.7561462E-02  0.1242146E+00
         -1   -1    0    0    0  501 -0.00000000000E+00  0.00000000000E+00  0.23609408111E+02  0.23609408111E+02  0.00000000000E+00 0.  1.
          1   -1    0    0  501    0  0.00000000000E+00 -0.00000000000E+00 -0.74784296367E+03  0.74784296367E+03  0.00000000000E+00 0. -1.
         23    2    1    2    0    0 -0.41727235399E+02  0.46785234101E+02 -0.26337634754E+03  0.29735331587E+03  0.12297102794E+03 0.  0.
          5    1    3    3  502    0 -0.53839769312E+02 -0.23196179817E+02 -0.70565565618E+02  0.91835477724E+02  0.41800000000E+01 0. -1.
         -5    1    3    3    0  502  0.12112533913E+02  0.69981413918E+02 -0.19281078192E+03  0.20551783815E+03  0.41800000000E+01 0.  1.
        -11    1    1    2    0    0 -0.10559513211E+02 -0.56994875745E+02 -0.23474243625E+03  0.24179315655E+03  0.00000000000E+00 0.  1.
         11    1    1    2    0    0  0.52286748610E+02  0.10209641644E+02 -0.22611477177E+03  0.23230589936E+03  0.00000000000E+00 0. -1.
</event>
<event>
 7    1  0.4394360E-006  0.1601607E+03  0.7561462E-02  0.1188515E+00
          3   -1    0    0  501    0  0.00000000000E+00  0.00000000000E+00  0.15016914495E+03  0.15016914495E+03  0.00000000000E+00 0. -1.
         -3   -1    0    0    0  501 -0.00000000000E+00 -0.00000000000E+00 -0.19125565088E+03  0.19125565088E+03  0.00000000000E+00 0.  1.
         23    2    1    2    0    0  0.11957666228E+03  0.19917733261E+01 -0.73732369532E+02  0.18811305687E+03  0.12509002568E+03 0.  0.
          5    1    3    3  502    0 -0.17690343642E+02  0.25464377559E+02 -0.18528804517E+01  0.31341479681E+02  0.41800000000E+01 0. -1.
         -5    1    3    3    0  502  0.13726700592E+03 -0.23472604233E+02 -0.71879489081E+02  0.15677157719E+03  0.41800000000E+01 0. -1.
        -11    1    1    2    0    0 -0.71082184107E+02 -0.45635621082E+02  0.20949987541E+02  0.87029815505E+02  0.00000000000E+00 0.  1.
         11    1    1    2    0    0 -0.48494478172E+02  0.43643847755E+02  0.11695876068E+02  0.66281923457E+02  0.00000000000E+00 0. -1.
</event>
<event>
 7    1  0.4394360E-006  0.8417273E+02  0.7561462E-02  0.1317610E+00
         -2   -1    0    0    0  501 -0.00000000000E+00  0.00000000000E+00  0.24763999140E+02  0.24763999140E+02  0.00000000000E+00 0. -1.
          2   -1    0    0  501    0  0.00000000000E+00 -0.00000000000E+00 -0.54123396992E+03  0.54123396992E+03  0.00000000000E+00 0.  1.
         23    2    1    2    0    0 -0.15028031493E+02  0.36087987177E+02 -0.30395138135E+03  0.33100277429E+03  0.12509280480E+03 0.  0.
          5    1    3    3  502    0  0.25651363615E+02 -0.32837673308E+01 -0.49493072392E+01  0.26659775418E+02  0.41800000000E+01 0.  1.
         -5    1    3    3    0  502 -0.40679395108E+02  0.39371754508E+02 -0.29900207411E+03  0.30434299887E+03  0.41800000000E+01 0.  1.
        -11    1    1    2    0    0  0.45913534798E+02 -0.16393955265E+02 -0.17838307918E+03  0.18492522106E+03  0.00000000000E+00 0.  1.
         11    1    1    2    0    0 -0.30885503305E+02 -0.19694031913E+02 -0.34135510256E+02  0.50069973715E+02  0.00000000000E+00 0. -1.
</event>
<event>
 7    1  0.4394360E-006  0.1085302E+03  0.7561462E-02  0.1263316E+00
          1   -1    0    0  501    0  0.00000000000E+00  0.00000000000E+00  0.65628542668E+02  0.65628542668E+02  0.00000000000E+00 0. -1.
         -1   -1    0    0    0  501 -0.00000000000E+00 -0.00000000000E+00 -0.20895743630E+03  0.20895743630E+03  0.00000000000E+00 0.  1.
         23    2    1    2    0    0  0.17023683314E+02 -0.54271335267E+01 -0.12591850637E+03  0.17838251899E+03  0.12508234593E+03 0.  0.
          5    1    3    3  502    0 -0.49264159082E+02 -0.21948955811E+02 -0.77633929461E+02  0.94621421649E+02  0.41800000000E+01 0. -1.
         -5    1    3    3    0  502  0.66287842397E+02  0.16521822284E+02 -0.48284576907E+02  0.83761097344E+02  0.41800000000E+01 0. -1.
        -11    1    1    2    0    0 -0.27236293742E+02 -0.39760900629E+02 -0.11001281157E+02  0.49434533504E+02  0.00000000000E+00 0. -1.
         11    1    1    2    0    0  0.10212610428E+02  0.45188034156E+02 -0.64091061108E+01  0.46768926476E+02  0.00000000000E+00 0.  1.
</event>
<event>
 7    1  0.4394360E-006  0.8333030E+02  0.7561462E-02  0.1319858E+00
          3   -1    0    0  501    0  0.00000000000E+00  0.00000000000E+00  0.45791887796E+02  0.45791887796E+02  0.00000000000E+00 0. -1.
         -3   -1    0    0    0  501 -0.00000000000E+00 -0.00000000000E+00 -0.38277994244E+03  0.38277994244E+03  0.00000000000E+00 0.  1.
         23    2    1    2    0    0 -0.15096058241E+02 -0.57898618682E+02 -0.26036911439E+03  0.29499190036E+03  0.12509198426E+03 0.  0.
          5    1    3    3  502    0 -0.54497905908E+01 -0.34825418277E+02 -0.21825113042E+01  0.35563263788E+02  0.41800000000E+01 0. -1.
         -5    1    3    3    0  502 -0.96462676498E+01 -0.23073200405E+02 -0.25818660309E+03  0.25942863657E+03  0.41800000000E+01 0. -1.
        -11    1    1    2    0    0  0.50352535689E+02  0.47069509094E+02 -0.32883493424E+02  0.76369108129E+02  0.00000000000E+00 0. -1.
         11    1    1    2    0    0 -0.35256477448E+02  0.10829109588E+02 -0.43735446831E+02  0.57210821756E+02  0.00000000000E+00 0.  1.
</event>
<event>
 7    1  0.4394360E-006  0.8108457E+02  0.7561462E-02  0.1326001E+00
         -2   -1    0    0    0  501 -0.00000000000E+00  0.00000000000E+00  0.13930519078E+03  0.13930519078E+03  0.00000000000E+00 0.  1.
          2   -1    0    0  501    0  0.00000000000E+00 -0.00000000000E+00 -0.11349085240E+03  0.11349085240E+03  0.00000000000E+00 0. -1.
         23    2    1    2    0    0 -0.26157791084E+02 -0.41597442499E+02  0.57124140610E+02  0.14603362794E+03  0.12509226912E+03 0.  0.
          5    1    3    3  502    0 -0.22390052992E+02 -0.61263938958E+02 -0.18308340061E+02  0.67876744217E+02  0.41800000000E+01 0.  1.
         -5    1    3    3    0  502 -0.37677380919E+01  0.19666496459E+02  0.75432480671E+02  0.78156883724E+02  0.41800000000E+01 0.  1.
        -11    1    1    2    0    0  0.22596980005E+02 -0.99439215221E+01 -0.46726016955E+02  0.52847192367E+02  0.00000000000E+00 0. -1.
         11    1    1    2    0    0  0.35608110783E+01  0.51541364021E+02  0.15416214730E+02  0.53915222872E+02  0.00000000000E+00 0.  1.
</event>
<event>
 7    1  0.4394360E-006  0.1646455E+03  0.7561462E-02  0.1183550E+00
         -2   -1    0    0    0  501 -0.00000000000E+00  0.00000000000E+00  0.98280390664E+02  0.98280390664E+02  0.00000000000E+00 0.  1.
          2   -1    0    0  501    0  0.00000000000E+00 -0.00000000000E+00 -0.37677149464E+03  0.37677149464E+03  0.00000000000E+00 0. -1.
         23    2    1    2    0    0  0.14700786999E+03  0.52915685639E+02 -0.13220090206E+03  0.23986669970E+03  0.12509025339E+03 0.  0.
          5    1    3    3  502    0  0.91165808916E+02 -0.50980948553E+01 -0.79537086761E+01  0.91749273393E+02  0.41800000000E+01 0. -1.
         -5    1    3    3    0  502  0.55842061073E+02  0.58013780494E+02 -0.12424719338E+03  0.14811742631E+03  0.41800000000E+01 0. -1.
        -11    1    1    2    0    0 -0.84313939107E+02 -0.20925511883E+02 -0.13968096131E+03  0.16449160565E+03  0.00000000000E+00 0. -1.
         11    1    1    2    0    0 -0.62693930882E+02 -0.31990173756E+02 -0.66092406089E+01  0.70693579961E+02  0.00000000000E+00 0.  1.
</event>
<event>
 6    1  0.4394360E-006  0.2269325E+03  0.7561462E-02  0.1128818E+00
          2   -1    0    0  501    0  0.00000000000E+00  0.00000000000E+00  0.44817784225E+03  0.44817784225E+03  0.00000000000E+00 0. -1.
         -2   -1    0    0    0  501 -0.00000000000E+00 -0.00000000000E+00 -0.32043391056E+03  0.32043391056E+03  0.00000000000E+00 0.  1.
          5    1    1    2  502    0  0.57404915763E+02  0.13040037509E+03 -0.21621140158E+03  0.25896799948E+03  0.41800000000E+01 0. -1.
         -5    1    1    2    0  502  0.92513115606E+02  0.22859880705E+02  0.17713146355E+01  0.95403672155E+02  0.41800000000E+01 0.  1.
        -11    1    1    2    0    0 -0.11441821195E+02 -0.34897525432E+01 -0.38449726859E+01  0.12564929766E+02  0.00000000000E+00 0.  1.
         11    1    1    2    0    0 -0.13847621017E+03 -0.14977050326E+03  0.34602899132E+03  0.40167515141E+03  0.00000000000E+00 0. -1.
</event>
<event>
 7    1  0.4394360E-006  0.1360237E+03  0.7561462E-02  0.1218782E+00
         -1   -1    0    0    0  501 -0.00000000000E+00  0.00000000000E+00  0.15138083506E+03  0.15138083506E+03  0.00000000000E+00 0.  1.
          1   -1    0    0  501    0  0.00000000000E+00 -0.00000000000E+00 -0.17947665217E+03  0.17947665217E+03  0.00000000000E+00 0. -1.
         23    2    1    2    0    0  0.70949872600E+02  0.88430745696E+02  0.36653355759E+02  0.17273949803E+03  0.12506632034E+03 0.  0.
          5    1    3    3  502    0 -0.26318819966E+02  0.12111109277E+02  0.39301416142E+02  0.49004417792E+02  0.41800000000E+01 0. -1.
         -5    1    3    3    0  502  0.97268692567E+02  0.76319636419E+02 -0.26480603826E+01  0.12373508023E+03  0.41800000000E+01 0. -1.
        -11    1    1    2    0    0 -0.37306132076E+02 -0.73158185275E+02  0.16427312348E+01  0.82137483095E+02  0.00000000000E+00 0.  1.
         11    1    1    2    0    0 -0.33643740524E+02 -0.15272560421E+02 -0.66391904100E+02  0.75980506107E+02  0.00000000000E+00 0. -1.
</event>
<event>
 6    1  0.4394360E-006  0.1179240E+03  0.7561462E-02  0.1246562E+00
         -1   -1    0    0    0  501 -0.00000000000E+00  0.00000000000E+00  0.26561022098E+02  0.26561022098E+02  0.00000000000E+00 0.  1.
          1   -1    0    0  501    0  0.00000000000E+00 -0.00000000000E+00 -0.74415460360E+03  0.74415460360E+03  0.00000000000E+00 0. -1.
          5    1    1    2  502    0  0.36458531119E+02  0.99177914397E+02 -0.34764698620E+03  0.36337498897E+03  0.41800000000E+01 0. -1.
         -5    1    1    2    0  502  0.13021775516E+02 -0.43020948695E+02 -0.46527028173E+02  0.64827505080E+02  0.41800000000E+01 0.  1.
        -11    1    1    2    0    0 -0.44383947192E+02 -0.20417506015E+02 -0.28737607688E+03  0.29149926052E+03  0.00000000000E+00 0. -1.
         11    1    1    2    0    0 -0.50963594440E+01 -0.35739459686E+02 -0.36043490254E+02  0.51013871132E+02  0.00000000000E+00 0.  1.
</event>
<event>
 7    1  0.4394360E-006  0.7364747E+02  0.7561462E-02  0.1348111E+00
         -1   -1    0    0    0  501 -0.00000000000E+00  0.00000000000E+00  0.19761543676E+03  0.19761543676E+03  0.00000000000E+00 0.  1.
          1   -1    0    0  501    0  0.00000000000E+00 -0.00000000000E+00 -0.69584715021E+02  0.69584715021E+02  0.00000000000E+00 0. -1.
         23    2    1    2    0    0 -0.50231449419E+00 -0.40522153541E+02  0.97521086605E+02  0.16370792572E+03  0.12509046871E+03 0.  0.
          5    1    3    3  502    0 -0.41657614175E+02 -0.27137977576E+02 -0.71155911570E+01  0.50397724980E+02  0.41800000000E+01 0.  1.
         -5    1    3    3    0  502  0.41155299681E+02 -0.13384175965E+02  0.10463667776E+03  0.11331020074E+03  0.41800000000E+01 0.  1.
        -11    1    1    2    0    0 -0.10978133387E+02 -0.82811211183E+00 -0.28485917026E+02  0.30539362324E+02  0.00000000000E+00 0. -1.
         11    1    1    2    0    0  0.11480447881E+02  0.41350265653E+02  0.58995552162E+02  0.72952863741E+02  0.00000000000E+00 0.  1.
</event>
<event>
 7    1  0.4394360E-006  0.6227529E+02  0.7561462E-02  0.1388524E+00
          1   -1    0    0  501    0  0.00000000000E+00  0.00000000000E+00  0.18753423994E+02  0.18753423994E+02  0.00000000000E+00 0. -1.
         -1   -1    0    0    0  501 -0.00000000000E+00 -0.00000000000E+00 -0.11731088311E+04  0.11731088311E+04  0.00000000000E+00 0.  1.
         23    2    1    2    0    0  0.14615129987E+02  0.10250685141E+02 -0.10291696877E+04  0.10369008734E+04  0.12511793128E+03 0.  0.
          5    1    3    3  502    0  0.45315744551E+01 -0.18670959252E+02 -0.96949726245E+03  0.96969662997E+03  0.41800000000E+01 0.  1.
         -5    1    3    3    0  502  0.10083555532E+02  0.28921644393E+02 -0.59672425226E+02  0.67204243460E+02  0.41800000000E+01 0.  1.
        -11    1    1    2    0    0  0.26285656499E+02 -0.18638518849E+02 -0.10249706987E+03  0.10744291253E+03  0.00000000000E+00 0.  1.
         11    1    1    2    0    0 -0.40900786486E+02  0.83878337079E+01 -0.22688649570E+02  0.47518469133E+02  0.00000000000E+00 0. -1.
</event>
<event>
 7    1  0.4394360E-006  0.1043827E+03  0.7561462E-02  0.1271341E+00
         -1   -1    0    0    0  501 -0.00000000000E+00  0.00000000000E+00  0.46162365664E+03  0.46162365664E+03  0.00000000000E+00 0.  1.
          1   -1    0    0  501    0  0.00000000000E+00 -0.00000000000E+00 -0.38236012247E+02  0.38236012247E+02  0.00000000000E+00 0. -1.
         23    2    1    2    0    0 -0.59701080676E+01 -0.55513794961E+02  0.32109276289E+03  0.34909340298E+03  0.12509283753E+03 0.  0.
          5    1    3    3  502    0  0.46143557438E+02  0.11558675718E+02  0.76941749889E+02  0.90555707459E+02  0.41800000000E+01 0.  1.
         -5    1    3    3    0  502 -0.52113665506E+02 -0.67072470679E+02  0.24415101300E+03  0.25853769552E+03  0.41800000000E+01 0.  1.
        -11    1    1    2    0    0  0.28607935423E+02  0.25104018110E+02  0.10604700031E+03  0.11267027989E+03  0.00000000000E+00 0.  1.
         11    1    1    2    0    0 -0.22637827355E+02  0.30409776852E+02 -0.37521188081E+01  0.38095986023E+02  0.00000000000E+00 0. -1.
</event>
<event>
 7    1  0.4394360E-006  0.4567061E+03  0.7561462E-02  0.1025741E+00
          1   -1    0    0  501    0  0.00000000000E+00  0.00000000000E+00  0.43290833963E+03  0.43290833963E+03  0.00000000000E+00 0. -1.
         -1   -1    0    0    0  501 -0.00000000000E+00 -0.00000000000E+00 -0.49925717192E+03  0.49925717192E+03  0.00000000000E+00 0.  1.
         23    2    1    2    0    0  0.45127494677E+03 -0.25577674750E+02 -0.31049021642E+02  0.47001579255E+03  0.12509000151E+03 0.  0.
          5    1    3    3  502    0  0.10159771290E+03  0.53549520183E+01  0.44150942928E+02  0.11098445359E+03  0.41800000000E+01 0. -1.
         -5    1    3    3    0  502  0.34967723387E+03 -0.30932626768E+02 -0.75199964570E+02  0.35903133896E+03  0.41800000000E+01 0. -1.
        -11    1    1    2    0    0 -0.39708693828E+03  0.51568068377E+02 -0.36103771030E+02  0.40204574927E+03  0.00000000000E+00 0. -1.
         11    1    1    2    0    0 -0.54188008491E+02 -0.25990393627E+02  0.80396038497E+00  0.60103969731E+02  0.00000000000E+00 0.  1.
</event>
<event>
 7    1  0.4394360E-006  0.1015346E+03  0.7561462E-02  0.1277102E+00
          1   -1    0    0  501    0  0.00000000000E+00  0.00000000000E+00  0.20424293999E+03  0.20424293999E+03  0.00000000000E+00 0. -1.
         -1   -1    0    0    0  501 -0.00000000000E+00 -0.00000000000E+00 -0.76683283105E+02  0.76683283105E+02  0.00000000000E+00 0.  1.
         23    2    1    2    0    0  0.28003196584E+02  0.11374393533E+02  0.12243517999E+02  0.12926904739E+03  0.12508807710E+03 0.  0.
          5    1    3    3  502    0  0.40663188962E+02 -0.40175537386E+02  0.39347306189E+02  0.69521591216E+02  0.41800000000E+01 0.  1.
         -5    1    3    3    0  502 -0.12659992378E+02  0.51549930919E+02 -0.27103788190E+02  0.59747456172E+02  0.41800000000E+01 0.  1.
        -11    1    1    2    0    0 -0.83520730485E+00 -0.47388380059E+02  0.32877869844E+02  0.57682843735E+02  0.00000000000E+00 0.  1.
         11    1    1    2    0    0 -0.27167989279E+02  0.36013986526E+02  0.82438269038E+02  0.93974331969E+02  0.00000000000E+00 0. -1.
</event>
<event>
 7    1  0.4394360E-006  0.1080087E+03  0.7561462E-02  0.1264303E+00
         -2   -1    0    0    0  501 -0.00000000000E+00  0.00000000000E+00  0.10080733064E+03  0.10080733064E+03  0.00000000000E+00 0.  1.
          2   -1    0    0  501    0  0.00000000000E+00 -0.00000000000E+00 -0.19799802040E+03  0.19799802040E+03  0.00000000000E+00 0. -1.
         23    2    1    2    0    0  0.59419202017E+02  0.66395666760E+02 -0.47672074909E+02  0.16081340628E+03  0.12509715737E+03 0.  0.
          5    1    3    3  502    0  0.18843765734E+02  0.26316215749E+02 -0.85991339156E+02  0.91976157390E+02  0.41800000000E+01 0. -1.
         -5    1    3    3    0  502  0.40575436284E+02  0.40079451011E+02  0.38319264247E+02  0.68837248894E+02  0.41800000000E+01 0. -1.
        -11    1    1    2    0    0 -0.69030029512E+02 -0.10913574504E+02 -0.13587028046E+02  0.71195915711E+02  0.00000000000E+00 0.  1.
         11    1    1    2    0    0  0.96108274946E+01 -0.55482092256E+02 -0.35931586806E+02  0.66796029048E+02  0.00000000000E+00 0. -1.
</event>
<event>
 7    1  0.4394360E-006  0.1037357E+03  0.7561462E-02  0.1272631E+00
         -2   -1    0    0    0  501 -0.00000000000E+00  0.00000000000E+00  0.11133092307E+03  0.11133092307E+03  0.00000000000E+00 0.  1.
          2   -1    0    0  501    0  0.00000000000E+00 -0.00000000000E+00 -0.13341187494E+03  0.13341187494E+03  0.00000000000E+00 0. -1.
         23    2    1    2    0    0 -0.21197839314E+02 -0.17578713937E+02  0.37013696523E+02  0.13332031588E+03  0.12508370526E+03 0.  0.
          5    1    3    3  502    0 -0.16273479477E+02 -0.71575432011E+02  0.17809119859E+02  0.75647245501E+02  0.41800000000E+01 0.  1.
         -5    1    3    3    0  502 -0.49243598373E+01  0.53996718073E+02  0.19204576664E+02  0.57673070383E+02  0.41800000000E+01 0.  1.
        -11    1    1    2    0    0 -0.18494635312E+02 -0.18333210575E+02  0.64203260865E+01  0.26821236593E+02  0.00000000000E+00 0.  1.
         11    1    1    2    0    0  0.39692474625E+02  0.35911924513E+02 -0.65514974485E+02  0.84601245534E+02  0.00000000000E+00 0. -1.
</event>
<event>
 7    1  0.4394360E-006  0.2966683E+03  0.7561462E-02  0.1086918E+00
          1   -1    0    0  501    0  0.00000000000E+00  0.00000000000E+00  0.20369072471E+03  0.20369072471E+03  0.00000000000E+00 0. -1.
         -1   -1    0    0    0  501 -0.00000000000E+00 -0.00000000000E+00 -0.52699815816E+03  0.52699815816E+03  0.00000000000E+00 0.  1.
         23    2    1    2    0    0 -0.25882295704E+03 -0.14203402609E+03 -0.27031736475E+03  0.41938317520E+03  0.12509109599E+03 0.  0.
          5    1    3    3  502    0 -0.78440011867E+02 -0.41634899299E+02 -0.13611453248E+02  0.89939114744E+02  0.41800000000E+01 0.  1.
         -5    1    3    3    0  502 -0.18038294517E+03 -0.10039912679E+03 -0.25670591150E+03  0.32944406045E+03  0.41800000000E+01 0.  1.
        -11    1    1    2    0    0  0.86316750031E+02  0.26364390613E+02  0.17576157735E+02  0.91948810482E+02  0.00000000000E+00 0.  1.
         11    1    1    2    0    0  0.17250620701E+03  0.11566963548E+03 -0.70566226445E+02  0.21935689719E+03  0.00000000000E+00 0. -1.
</event>
<event>
 7    1  0.4394360E-006  0.1250371E+03  0.7561462E-02  0.1235011E+00
          4   -1    0    0  501    0  0.00000000000E+00  0.00000000000E+00  0.41612656097E+02  0.41612656097E+02  0.00000000000E+00 0. -1.
         -4   -1    0    0    0  501 -0.00000000000E+00 -0.00000000000E+00 -0.42240455849E+03  0.42240455849E+03  0.00000000000E+00 0.  1.
         23    2    1    2    0    0  0.69296172833E+02  0.26385712702E+02 -0.24523219752E+03  0.28510697200E+03  0.12509592070E+03 0.  0.
          5    1    3    3  502    0  0.10147670540E+03  0.39759910752E+02 -0.20052946982E+03  0.22827157709E+03  0.41800000000E+01 0.  1.
         -5    1    3    3    0  502 -0.32180532568E+02 -0.13374198050E+02 -0.44702727701E+02  0.56835394903E+02  0.41800000000E+01 0.  1.
        -11    1    1    2    0    0  0.12429169762E+02  0.10474367726E+02 -0.58417913234E+02  0.60637028512E+02  0.00000000000E+00 0.  1.
         11    1    1    2    0    0 -0.81725342594E+02 -0.36860080428E+02 -0.77141791636E+02  0.11827321408E+03  0.00000000000E+00 0. -1.
</event>
<event>
 7    1  0.4394360E-006  0.1964123E+03  0.7561462E-02  0.1152802E+00
          2   -1    0    0  501    0  0.00000000000E+00  0.00000000000E+00  0.95162418026E+03  0.95162418026E+03  0.00000000000E+00 0. -1.
         -2   -1    0    0    0  501 -0.00000000000E+00 -0.00000000000E+00 -0.72270240872E+02  0.72270240872E+02  0.00000000000E+00 0.  1.
         23    2    1    2    0    0  0.90343960616E+02 -0.14317861172E+03  0.12373922878E+03  0.24418511356E+03  0.12511125797E+03 0.  0.
          5    1    3    3  502    0  0.75593449849E+02 -0.22064032765E+02  0.14122453050E+02  0.80113090578E+02  0.41800000000E+01 0. -1.
         -5    1    3    3    0  502  0.14750510767E+02 -0.12111457895E+03  0.10961677573E+03  0.16407202298E+03  0.41800000000E+01 0. -1.
        -11    1    1    2    0    0 -0.70312220872E+02  0.15387360085E+03  0.68212974575E+03  0.70279576228E+03  0.00000000000E+00 0.  1.
         11    1    1    2    0    0 -0.20031739744E+02 -0.10694989128E+02  0.73484964855E+02  0.76913545292E+02  0.00000000000E+00 0. -1.
</event>
<event>
 7    1  0.4394360E-006  0.1362570E+03  0.7561462E-02  0.1218456E+00
          1   -1    0    0  501    0  0.00000000000E+00  0.00000000000E+00  0.26515954962E+03  0.26515954962E+03  0.00000000000E+00 0. -1.
         -1   -1    0    0    0  501 -0.00000000000E+00 -0.00000000000E+00 -0.97181148812E+02  0.97181148812E+02  0.00000000000E+00 0.  1.
         23    2    1    2    0    0 -0.17090478568E+01  0.11737395440E+03  0.97673047193E+02  0.19740081999E+03  0.12508994191E+03 0.  0.
          5    1    3    3  502    0  0.37092079889E+02  0.87816384660E+02  0.11128068291E+03  0.14658923083E+03  0.41800000000E+01 0. -1.
         -5    1    3    3    0  502 -0.38801127746E+02  0.29557569741E+02 -0.13607635716E+02  0.50811589162E+02  0.41800000000E+01 0. -1.
        -11    1    1    2    0    0  0.25534495128E+02 -0.42666459703E+02 -0.12113801946E+02  0.51177938828E+02  0.00000000000E+00 0.  1.
         11    1    1    2    0    0 -0.23825447272E+02 -0.74707494698E+02  0.82419155559E+02  0.11376193961E+03  0.00000000000E+00 0. -1.
</event>
<event>
 7    1  0.4394360E-006  0.1087430E+03  0.7561462E-02  0.1262915E+00
         -1   -1    0    0    0  501 -0.00000000000E+00  0.00000000000E+00  0.51276111199E+02  0.51276111199E+02  0.00000000000E+00 0.  1.
          1   -1    0    0  501    0  0.00000000000E+00 -0.00000000000E+00 -0.31071545922E+03  0.31071545922E+03  0.00000000000E+00 0. -1.
         23    2    1    2    0    0 -0.43195881524E+02 -0.75274048416E+01 -0.62835252742E+02  0.14132650839E+03  0.11875338725E+03 0.  0.
          5    1    3    3  502    0  0.21200968455E+01 -0.54299404570E+02 -0.51706408777E+02  0.75126195537E+02  0.41800000000E+01 0. -1.
         -5    1    3    3    0  502 -0.45315978369E+02  0.46771999728E+02 -0.11128843965E+02  0.66200312855E+02  0.41800000000E+01 0.  1.
        -11    1    1    2    0    0  0.19384799023E+02  0.47441809369E+02 -0.78535658518E+02  0.93778171064E+02  0.00000000000E+00 0.  1.
         11    1    1    2    0    0  0.23811082500E+02 -0.39914404528E+02 -0.11806843676E+03  0.12688689096E+03  0.00000000000E+00 0. -1.
</event>
<event>
 7    1  0.4394360E-006  0.2215414E+03  0.7561462E-02  0.1132739E+00
          1   -1    0    0  501    0  0.00000000000E+00  0.00000000000E+00  0.33967932621E+03  0.33967932621E+03  0.00000000000E+00 0. -1.
         -1   -1    0    0    0  501 -0.00000000000E+00 -0.00000000000E+00 -0.15881265871E+03  0.15881265871E+03  0.00000000000E+00 0.  1.
         23    2    1    2    0    0  0.18254997830E+03 -0.90306974477E+02  0.93134001476E+02  0.25651553183E+03  0.12508569711E+03 0.  0.
          5    1    3    3  502    0  0.11356510505E+03 -0.11421555623E+03  0.87051622662E+02  0.18313296748E+03  0.41800000000E+01 0.  1.
         -5    1    3    3    0  502  0.68984873249E+02  0.23908581752E+02  0.60823788144E+01  0.73382564350E+02  0.41800000000E+01 0.  1.
        -11    1    1    2    0    0 -0.20559469817E+02  0.29174068525E+02 -0.17094956819E+02  0.39573420652E+02  0.00000000000E+00 0. -1.
         11    1    1    2    0    0 -0.16199050848E+03  0.61132905952E+02  0.10482762284E+03  0.20240303243E+03  0.00000000000E+00 0.  1.
</event>
<event>
 7    1  0.4394360E-006  0.1450879E+03  0.7561462E-02  0.1206642E+00
          1   -1    0    0  501    0  0.00000000000E+00  0.00000000000E+00  0.15947066958E+03  0.15947066958E+03  0.00000000000E+00 0. -1.
         -1   -1    0    0    0  501 -0.00000000000E+00 -0.00000000000E+00 -0.14795664109E+03  0.14795664109E+03  0.00000000000E+00 0.  1.
         23    2    1    2    0    0  0.56605294271E+02  0.88099504937E+02 -0.19651532265E+02  0.16431516047E+03  0.12509039584E+03 0.  0.
          5    1    3    3  502    0 -0.33853685967E+02 -0.24242647856E+01  0.28316036435E+01  0.34313838207E+02  0.41800000000E+01 0. -1.
         -5    1    3    3    0  502  0.90458980238E+02  0.90523769723E+02 -0.22483135908E+02  0.13000132227E+03  0.41800000000E+01 0. -1.
        -11    1    1    2    0    0  0.46022025989E+01 -0.60703311441E+02  0.43639143408E+02  0.74902918008E+02  0.00000000000E+00 0. -1.
         11    1    1    2    0    0 -0.61207496870E+02 -0.27396193496E+02 -0.12473582655E+02  0.68209232186E+02  0.00000000000E+00 0.  1.
</event>
<event>
 7    1  0.4394360E-006  0.7471711E+02  0.7561462E-02  0.1344749E+00
         -2   -1    0    0    0  501 -0.00000000000E+00  0.00000000000E+00  0.43229757259E+02  0.43229757259E+02  0.00000000000E+00 0.  1.
          2   -1    0    0  501    0  0.00000000000E+00 -0.00000000000E+00 -0.30916676161E+03  0.30916676161E+03  0.00000000000E+00 0. -1.
         23    2    1    2    0    0  0.91219057381E+00  0.84820279979E+00 -0.89130993594E+02  0.15360210050E+03  0.12509084587E+03 0.  0.
          5    1    3    3  502    0  0.38865880227E+02 -0.78587558517E+01 -0.10425540588E+03  0.11161979549E+03  0.41800000000E+01 0. -1.
         -5    1    3    3    0  502 -0.37953689653E+02  0.87069586515E+01  0.15124412286E+02  0.41982305013E+02  0.41800000000E+01 0. -1.
        -11    1    1    2    0    0  0.35164941879E+01 -0.35394987135E+02 -0.26104569455E+02  0.44120509880E+02  0.00000000000E+00 0.  1.
         11    1    1    2    0    0 -0.44286847617E+01  0.34546784335E+02 -0.15070144130E+03  0.15467390849E+03  0.00000000000E+00 0. -1.
</event>
<event>
 7    1  0.4394360E-006  0.1553343E+03  0.7561462E-02  0.1194067E+00
          2   -1    0    0  501    0  0.00000000000E+00  0.00000000000E+00  0.77302377505E+03  0.77302377505E+03  0.00000000000E+00 0. -1.
         -2   -1    0    0    0  501 -0.00000000000E+00 -0.00000000000E+00 -0.35572144655E+02  0.35572144655E+02  0.00000000000E+00 0.  1.
         23    2    1    2    0    0  0.24743363979E+02  0.12056280312E+03  0.42476672712E+03  0.45958879349E+03  0.12508982004E+03 0.  0.
          5    1    3    3  502    0 -0.37895864082E+02  0.71747974534E+02  0.12219525365E+03  0.14674133971E+03  0.41800000000E+01 0. -1.
         -5    1    3    3    0  502  0.62639228061E+02  0.48814828587E+02  0.30257147346E+03  0.31284745378E+03  0.41800000000E+01 0. -1.
        -11    1    1    2    0    0  0.31927564184E+02 -0.51022355661E+02  0.17127751418E+03  0.18154513763E+03  0.00000000000E+00 0. -1.
         11    1    1    2    0    0 -0.56670928163E+02 -0.69540447460E+02  0.14140738910E+03  0.16746198859E+03  0.00000000000E+00 0.  1.
</event>
<event>
 6    1  0.4394360E-006  0.1632561E+03  0.7561462E-02  0.1185069E+00
          1   -1    0    0  501    0  0.00000000000E+00  0.00000000000E+00  0.34960713021E+03  0.34960713021E+03  0.00000000000E+00 0. -1.
         -1   -1    0    0    0  501 -0.00000000000E+00 -0.00000000000E+00 -0.83703538202E+02  0.83703538202E+02  0.00000000000E+00 0.  1.
          5    1    1    2  502    0 -0.32554763075E+02 -0.18025185027E+02  0.69826293095E+02  0.79233222208E+02  0.41800000000E+01 0. -1.
         -5    1    1    2    0  502  0.66776953155E+02  0.12905072661E+03  0.11000696850E+03  0.18229716682E+03  0.41800000000E+01 0.  1.
        -11    1    1    2    0    0  0.28127596540E+02 -0.26301833453E+02  0.47122724297E+01  0.38796309639E+02  0.00000000000E+00 0.  1.
         11    1    1    2    0    0 -0.62349786620E+02 -0.84723708129E+02  0.81358057976E+02  0.13298396974E+03  0.00000000000E+00 0. -1.
</event>
<event>
 7    1  0.4394360E-006  0.2219123E+03  0.7561462E-02  0.1132465E+00
         -1   -1    0    0    0  501 -0.00000000000E+00  0.00000000000E+00  0.46137325981E+03  0.46137325981E+03  0.00000000000E+00 0.  1.
          1   -1    0    0  501    0  0.00000000000E+00 -0.00000000000E+00 -0.12399098213E+03  0.12399098213E+03  0.00000000000E+00 0. -1.
         23    2    1    2    0    0 -0.17284207436E+03 -0.11244685713E+03  0.23856788342E+03  0.33923492046E+03  0.12508804066E+03 0.  0.
          5    1    3    3  502    0 -0.19030788872E+03 -0.96554774058E+02  0.19308860911E+03  0.28782043060E+03  0.41800000000E+01 0.  1.
         -5    1    3    3    0  502  0.17465814369E+02 -0.15892083069E+02  0.45479274309E+02  0.51414489860E+02  0.41800000000E+01 0.  1.
        -11    1    1    2    0    0  0.24185316067E+02  0.19622141938E+02  0.58531749842E+02  0.66301762473E+02  0.00000000000E+00 0.  1.
         11    1    1    2    0    0  0.14865675829E+03  0.92824715189E+02  0.40282644420E+02  0.17982755900E+03  0.00000000000E+00 0. -1.
</event>
<event>
 7    1  0.4394360E-006  0.9097660E+02  0.7561462E-02  0.1300504E+00
         -1   -1    0    0    0  501 -0.00000000000E+00  0.00000000000E+00  0.39362396532E+03  0.39362396532E+03  0.00000000000E+00 0.  1.
          1   -1    0    0  501    0  0.00000000000E+00 -0.00000000000E+00 -0.32526540283E+02  0.32526540283E+02  0.00000000000E+00 0. -1.
         23    2    1    2    0    0 -0.28327192952E+02 -0.74616333549E+01  0.24499503917E+03  0.27663762148E+03  0.12509076133E+03 0.  0.
          5    1    3    3  502    0 -0.27801162480E+02 -0.64004640803E+02  0.11152843735E+03  0.13162660604E+03  0.41800000000E+01 0. -1.
         -5    1    3    3    0  502 -0.52603047255E+00  0.56543007448E+02  0.13346660182E+03  0.14501101545E+03  0.41800000000E+01 0. -1.
        -11    1    1    2    0    0  0.34816202627E+02 -0.10405252677E+02  0.12378644477E+03  0.12900977156E+03  0.00000000000E+00 0.  1.
         11    1    1    2    0    0 -0.64890096748E+01  0.17866886032E+02 -0.76840589100E+01  0.20503112554E+02  0.00000000000E+00 0. -1.
</event>
<event>
 7    1  0.4394360E-006  0.1640389E+03  0.7561462E-02  0.1184211E+00
         -1   -1    0    0    0  501 -0.00000000000E+00  0.00000000000E+00  0.36273403781E+02  0.36273403781E+02  0.00000000000E+00 0.  1.
          1   -1    0    0  501    0  0.00000000000E+00 -0.00000000000E+00 -0.10426463803E+04  0.10426463803E+04  0.00000000000E+00 0. -1.
         23    2    1    2    0    0 -0.32875080283E+02  0.15471579369E+03 -0.43900556623E+03  0.48310534731E+03  0.12508853544E+03 0.  0.
          5    1    3    3  502    0 -0.28553409661E+02  0.78671615979E+02 -0.79199391445E+02  0.11530193567E+03  0.41800000000E+01 0. -1.
         -5    1    3    3    0  502 -0.43216706214E+01  0.76044177710E+02 -0.35980617479E+03  0.36780341164E+03  0.41800000000E+01 0. -1.
        -11    1    1    2    0    0  0.47796361269E+02 -0.93714393395E+02 -0.23366407740E+03  0.25625335266E+03  0.00000000000E+00 0.  1.
         11    1    1    2    0    0 -0.14921280986E+02 -0.61001400294E+02 -0.33370333287E+03  0.33956108410E+03  0.00000000000E+00 0. -1.
</event>
<event>
 7    1  0.4394360E-006  0.7412824E+02  0.7561462E-02  0.1346592E+00
         -1   -1    0    0    0  501 -0.00000000000E+00  0.00000000000E+00  0.33284553079E+02  0.33284553079E+02  0.00000000000E+00 0.  1.
          1   -1    0    0  501    0  0.00000000000E+00 -0.00000000000E+00 -0.46989484091E+03  0.46989484091E+03  0.00000000000E+00 0. -1.
         23    2    1    2    0    0  0.49501105619E+02 -0.17835632428E+02 -0.17425352352E+03  0.22086189085E+03  0.12508882895E+03 0.  0.
          5    1    3    3  502    0  0.18934015503E+02 -0.45154577738E+02 -0.82616094968E+01  0.49831309688E+02  0.41800000000E+01 0.  1.
         -5    1    3    3    0  502  0.30567090116E+02  0.27318945309E+02 -0.16599191402E+03  0.17103058116E+03  0.41800000000E+01 0.  1.
        -11    1    1    2    0    0 -0.38208383851E+01  0.11091071295E+02  0.36868065798E+01  0.12296471494E+02  0.00000000000E+00 0.  1.
         11    1    1    2    0    0 -0.45680267234E+02  0.67445611335E+01 -0.26604357089E+03  0.27002103165E+03  0.00000000000E+00 0. -1.
</event>
<event>
 7    1  0.4394360E-006  0.1082494E+03  0.7561462E-02  0.1263846E+00
          1   -1    0    0  501    0  0.00000000000E+00  0.00000000000E+00  0.67579156111E+03  0.67579156111E+03  0.00000000000E+00 0. -1.
         -1   -1    0    0    0  501 -0.00000000000E+00 -0.00000000000E+00 -0.18490903152E+02  0.18490903152E+02  0.00000000000E+00 0.  1.
         23    2    1    2    0    0 -0.60935221991E+01 -0.24500322778E+02  0.33585910424E+03  0.35928585527E+03  0.12509033165E+03 0.  0.
          5    1    3    3  502    0  0.49759968198E+02 -0.45515875909E+02  0.18871384785E+03  0.20044485068E+03  0.41800000000E+01 0. -1.
         -5    1    3    3    0  502 -0.55853490398E+02  0.21015553130E+02  0.14714525639E+03  0.15884100460E+03  0.41800000000E+01 0. -1.
        -11    1    1    2    0    0  0.32120469462E+02 -0.19797798021E+02  0.19312287218E+03  0.19677428979E+03  0.00000000000E+00 0. -1.
         11    1    1    2    0    0 -0.26026947262E+02  0.44298120800E+02  0.12831868154E+03  0.13822231919E+03  0.00000000000E+00 0.  1.
</event>
<event>
 7    1  0.4394360E-006  0.6672920E+02  0.7561462E-02  0.1371583E+00
         -1   -1    0    0    0  501 -0.00000000000E+00  0.00000000000E+00  0.22980149224E+03  0.22980149224E+03  0.00000000000E+00 0.  1.
          1   -1    0    0  501    0  0.00000000000E+00 -0.00000000000E+00 -0.58372953950E+02  0.58372953950E+02  0.00000000000E+00 0. -1.
         23    2    1    2    0    0  0.19337365366E+02  0.31161879601E+02  0.12788798562E+03  0.18261453102E+03  0.12509090148E+03 0.  0.
          5    1    3    3  502    0  0.14436819148E+01  0.21899430324E+02  0.15043726003E+03  0.15208718181E+03  0.41800000000E+01 0. -1.
         -5    1    3    3    0  502  0.17893683451E+02  0.92624492772E+01 -0.22549274401E+02  0.30527349215E+02  0.41800000000E+01 0. -1.
        -11    1    1    2    0    0 -0.51804614360E+02 -0.13308209947E+02  0.42795265158E+02  0.68500082050E+02  0.00000000000E+00 0.  1.
         11    1    1    2    0    0  0.32467248994E+02 -0.17853669654E+02  0.74528751033E+00  0.37059833119E+02  0.00000000000E+00 0. -1.
</event>
<event>
 7    1  0.4394360E-006  0.2081606E+03  0.7561462E-02  0.1143031E+00
         -1   -1    0    0    0  501 -0.00000000000E+00  0.00000000000E+00  0.11470230764E+03  0.11470230764E+03  0.00000000000E+00 0.  1.
          1   -1    0    0  501    0  0.00000000000E+00 -0.00000000000E+00 -0.60666789231E+03  0.60666789231E+03  0.00000000000E+00 0. -1.
         23    2    1    2    0    0 -0.17947950986E+03  0.60773556202E+02 -0.51616811807E+02  0.23284824181E+03  0.12509072251E+03 0.  0.
          5    1    3    3  502    0 -0.77870844533E+02  0.90731004152E+02 -0.14457574353E+02  0.12050924196E+03  0.41800000000E+01 0. -1.
         -5    1    3    3    0  502 -0.10160866533E+03 -0.29957447951E+02 -0.37159237454E+02  0.11233899984E+03  0.41800000000E+01 0. -1.
        -11    1    1    2    0    0  0.52981175690E+02 -0.28305730679E+02 -0.54272986173E+02  0.80955397565E+02  0.00000000000E+00 0.  1.
         11    1    1    2    0    0  0.12649833417E+03 -0.32467825523E+02 -0.38607578669E+03  0.40756656059E+03  0.00000000000E+00 0. -1.
</event>
<event>
 7    1  0.4394360E-006  0.1610691E+03  0.7561462E-02  0.1187495E+00
         -2   -1    0    0    0  501 -0.00000000000E+00  0.00000000000E+00  0.56722242222E+02  0.56722242222E+02  0.00000000000E+00 0.  1.
          2   -1    0    0  501    0  0.00000000000E+00 -0.00000000000E+00 -0.59428482962E+03  0.59428482962E+03  0.00000000000E+00 0. -1.
         23    2    1    2    0    0 -0.11545129344E+03  0.43517801374E+02 -0.13711412798E+03  0.22286888563E+03  0.12508979133E+03 0.  0.
          5    1    3    3  502    0 -0.54760915426E+02 -0.43126207249E+02 -0.53911462099E+02  0.88218738120E+02  0.41800000000E+01 0.  1.
         -5    1    3    3    0  502 -0.60690378012E+02  0.86644008623E+02 -0.83202665882E+02  0.13465014751E+03  0.41800000000E+01 0.  1.
        -11    1    1    2    0    0  0.98886884270E+02 -0.65725132832E+02 -0.27283852878E+03  0.29755549357E+03  0.00000000000E+00 0.  1.
         11    1    1    2    0    0  0.16564409168E+02  0.22207331458E+02 -0.12760993063E+03  0.13058269264E+03  0.00000000000E+00 0. -1.
</event>
<event>
 7    1  0.4394360E-006  0.1850661E+03  0.7561462E-02  0.1162988E+00
          2   -1    0    0  501    0  0.00000000000E+00  0.00000000000E+00  0.71934687560E+03  0.71934687560E+03  0.00000000000E+00 0.  1.
         -2   -1    0    0    0  501 -0.00000000000E+00 -0.00000000000E+00 -0.50170225332E+02  0.50170225332E+02  0.00000000000E+00 0. -1.
         23    2    1    2    0    0 -0.13598511196E+03 -0.73860440647E+02  0.31537041573E+03  0.37289875378E+03  0.12509063150E+03 0.  0.
          5    1    3    3  502    0 -0.15322393005E+03 -0.42918330120E+02  0.22384841247E+03  0.27467278709E+03  0.41800000000E+01 0. -1.
         -5    1    3    3    0  502  0.17238818093E+02 -0.30942110527E+02  0.91522003255E+02  0.98225966694E+02  0.41800000000E+01 0. -1.
        -11    1    1    2    0    0  0.11856309006E+03  0.92051373987E+02  0.32716567726E+03  0.35995561136E+03  0.00000000000E+00 0. -1.
         11    1    1    2    0    0  0.17422021898E+02 -0.18190933340E+02  0.26640557281E+02  0.36662735782E+02  0.00000000000E+00 0.  1.
</event>
<event>
 7    1  0.4394360E-006  0.1143188E+03  0.7561462E-02  0.1252775E+00
          1   -1    0    0  501    0  0.00000000000E+00  0.00000000000E+00  0.41991683104E+03  0.41991683104E+03  0.00000000000E+00 0. -1.
         -1   -1    0    0    0  501 -0.00000000000E+00 -0.00000000000E+00 -0.38393939763E+02  0.38393939763E+02  0.00000000000E+00 0.  1.
         23    2    1    2    0    0  0.54327804458E+02 -0.84517062215E+01  0.16869987796E+03  0.21709484238E+03  0.12509028775E+03 0.  0.
          5    1    3    3  502    0  0.49136439395E+02  0.52001235348E+02  0.64361123387E+02  0.96324164973E+02  0.41800000000E+01 0. -1.
         -5    1    3    3    0  502  0.51913650631E+01 -0.60452941569E+02  0.10433875457E+03  0.12077067740E+03  0.41800000000E+01 0. -1.
        -11    1    1    2    0    0  0.18497330691E+02 -0.99983011367E+01  0.70808413555E+01  0.22186833542E+02  0.00000000000E+00 0.  1.
         11    1    1    2    0    0 -0.72825135149E+02  0.18450007358E+02  0.20574217196E+03  0.21902909488E+03  0.00000000000E+00 0. -1.
</event>
<event>
 7    1  0.4394360E-006  0.1012155E+03  0.7561462E-02  0.1277761E+00
         -1   -1    0    0    0  501 -0.00000000000E+00  0.00000000000E+00  0.18348684752E+03  0.18348684752E+03  0.00000000000E+00 0.  1.
          1   -1    0    0  501    0  0.00000000000E+00 -0.00000000000E+00 -0.12100241177E+03  0.12100241177E+03  0.00000000000E+00 0. -1.
         23    2    1    2    0    0 -0.35170363767E+02  0.31520870759E+02  0.12448047759E+03  0.18268458935E+03  0.12509096731E+03 0.  0.
          5    1    3    3  502    0  0.17664673333E+02  0.61114192090E+02  0.96944136659E+02  0.11602854473E+03  0.41800000000E+01 0. -1.
         -5    1    3    3    0  502 -0.52835037099E+02 -0.29593321331E+02  0.27536340929E+02  0.66656044621E+02  0.41800000000E+01 0. -1.
        -11    1    1    2    0    0  0.52538559572E+02 -0.16658577828E+02 -0.76829371621E+02  0.94554538764E+02  0.00000000000E+00 0. -1.
         11    1    1    2    0    0 -0.17368195806E+02 -0.14862292931E+02  0.14833329779E+02  0.27250131175E+02  0.00000000000E+00 0.  1.
</event>
<event>
 7    1  0.4394360E-006  0.1629892E+03  0.7561462E-02  0.1185363E+00
          2   -1    0    0  501    0  0.00000000000E+00  0.00000000000E+00  0.13735675689E+04  0.13735675689E+04  0.00000000000E+00 0. -1.
         -2   -1    0    0    0  501 -0.00000000000E+00 -0.00000000000E+00 -0.20815601712E+02  0.20815601712E+02  0.00000000000E+00 0.  1.
         23    2    1    2    0    0  0.88219497064E+02  0.83774618062E+02  0.53764326849E+03  0.56525156200E+03  0.12509267720E+03 0.  0.
          5    1    3    3  502    0  0.11853665249E+03  0.80513807084E+02  0.45582601395E+03  0.47783704179E+03  0.41800000000E+01 0.  1.
         -5    1    3    3    0  502 -0.30317155429E+02  0.32608109787E+01  0.81817254547E+02  0.87414520208E+02  0.41800000000E+01 0.  1.
        -11    1    1    2    0    0  0.19051493531E+02 -0.89009545420E+01  0.11269265281E+03  0.11463777909E+03  0.00000000000E+00 0.  1.
         11    1    1    2    0    0 -0.10727099060E+03 -0.74873663520E+02  0.70241604588E+03  0.71449382952E+03  0.00000000000E+00 0. -1.
</event>
<event>
 7    1  0.4394360E-006  0.8675038E+02  0.7561462E-02  0.1310918E+00
         -2   -1    0    0    0  501 -0.00000000000E+00  0.00000000000E+00  0.99889843945E+02  0.99889843945E+02  0.00000000000E+00 0.  1.
          2   -1    0    0  501    0  0.00000000000E+00 -0.00000000000E+00 -0.13870605759E+03  0.13870605759E+03  0.00000000000E+00 0. -1.
         23    2    1    2    0    0  0.51196736455E+02 -0.58946898385E+02 -0.23437112657E+02  0.14930715453E+03  0.12508990963E+03 0.  0.
          5    1    3    3  502    0  0.11807664805E+02  0.21738661059E+01  0.46575890719E+02  0.48279733204E+02  0.41800000000E+01 0.  1.
         -5    1    3    3    0  502  0.39389071650E+02 -0.61120764491E+02 -0.70013003376E+02  0.10102742132E+03  0.41800000000E+01 0.  1.
        -11    1    1    2    0    0 -0.90761965459E+01  0.41301536276E+02 -0.73636423085E+01  0.42923390716E+02  0.00000000000E+00 0.  1.
         11    1    1    2    0    0 -0.42120539909E+02  0.17645362109E+02 -0.80154586791E+01  0.46365356291E+02  0.00000000000E+00 0. -1.
</event>
<event>
 7    1  0.4394360E-006  0.1760866E+03  0.7561462E-02  0.1171645E+00
         -1   -1    0    0    0  501 -0.00000000000E+00  0.00000000000E+00  0.61118475997E+02  0.61118475997E+02  0.00000000000E+00 0.  1.
          1   -1    0    0  501    0  0.00000000000E+00 -0.00000000000E+00 -0.72122316328E+03  0.72122316328E+03  0.00000000000E+00 0. -1.
         23    2    1    2    0    0  0.13015835990E+03 -0.74329791455E+02 -0.16816873454E+03  0.25769011995E+03  0.12512936543E+03 0.  0.
          5    1    3    3  502    0 -0.15360111632E+02 -0.57249421891E+01  0.83121747746E+01  0.18848677457E+02  0.41800000000E+01 0.  1.
         -5    1    3    3    0  502  0.14551847153E+03 -0.68604849266E+02 -0.17648090931E+03  0.23884144249E+03  0.41800000000E+01 0.  1.
        -11    1    1    2    0    0 -0.12941160808E+03  0.33755884995E+02 -0.29982795180E+03  0.32830416501E+03  0.00000000000E+00 0. -1.
         11    1    1    2    0    0 -0.74675181411E+00  0.40573906461E+02 -0.19210800094E+03  0.19634735433E+03  0.00000000000E+00 0.  1.
</event>
<event>
 7    1  0.4394360E-006  0.8991604E+02  0.7561462E-02  0.1303055E+00
          1   -1    0    0  501    0  0.00000000000E+00  0.00000000000E+00  0.92984991849E+02  0.92984991849E+02  0.00000000000E+00 0. -1.
         -1   -1    0    0    0  501 -0.00000000000E+00 -0.00000000000E+00 -0.18219673432E+03  0.18219673432E+03  0.00000000000E+00 0.  1.
         23    2    1    2    0    0 -0.15227459873E+02 -0.59922532069E+02 -0.10113405908E+03  0.17233384943E+03  0.12509305484E+03 0.  0.
          5    1    3    3  502    0  0.34424720015E+02  0.60810946998E+01 -0.79354726079E+02  0.86814088787E+02  0.41800000000E+01 0. -1.
         -5    1    3    3    0  502 -0.49652179887E+02 -0.66003626769E+02 -0.21779333005E+02  0.85519760643E+02  0.41800000000E+01 0. -1.
        -11    1    1    2    0    0  0.12456771948E+02  0.42646293763E+02  0.46365327589E+02  0.64215427597E+02  0.00000000000E+00 0. -1.
         11    1    1    2    0    0  0.27706879242E+01  0.17276238307E+02 -0.34443010974E+02  0.38632449140E+02  0.00000000000E+00 0.  1.
</event>
<event>
 7    1  0.4394360E-006  0.9928246E+02  0.7561462E-02  0.1281812E+00
         -1   -1    0    0    0  501 -0.00000000000E+00  0.00000000000E+00  0.21096511640E+04  0.21096511640E+04  0.00000000000E+00 0.  1.
          1   -1    0    0  501    0  0.00000000000E+00 -0.00000000000E+00 -0.19014604340E+02  0.19014604340E+02  0.00000000000E+00 0. -1.
         23    2    1    2    0    0 -0.35231357238E+02  0.62392535546E+02  0.18914025318E+04  0.18968877865E+04  0.12508261321E+03 0.  0.
          5    1    3    3  502    0 -0.58660662871E+02  0.78043575937E+02  0.94139498633E+03  0.94645330883E+03  0.41800000000E+01 0. -1.
         -5    1    3    3    0  502  0.23429305633E+02 -0.15651040391E+02  0.95000754546E+03  0.95043447762E+03  0.41800000000E+01 0. -1.
        -11    1    1    2    0    0  0.28049156142E+02 -0.40081109140E+02  0.20230753734E+03  0.20813839179E+03  0.00000000000E+00 0.  1.
         11    1    1    2    0    0  0.71822010969E+01 -0.22311426407E+02 -0.30735094445E+01  0.23639590123E+02  0.00000000000E+00 0. -1.
</event>
<event>
 7    1  0.4394360E-006  0.1081348E+03  0.7561462E-02  0.1264063E+00
         -1   -1    0    0    0  501 -0.00000000000E+00  0.00000000000E+00  0.25975655835E+02  0.25975655835E+02  0.00000000000E+00 0.  1.
          1   -1    0    0  501    0  0.00000000000E+00 -0.00000000000E+00 -0.78943613941E+03  0.78943613941E+03  0.00000000000E+00 0. -1.
         23    2    1    2    0    0 -0.44160016631E+02 -0.75870068067E+02 -0.32859697301E+03  0.36240325519E+03  0.12511504467E+03 0.  0.
          5    1    3    3  502    0 -0.10677206584E+02 -0.90919679799E+01 -0.26148768173E+03  0.26189682457E+03  0.41800000000E+01 0.  1.
         -5    1    3    3    0  502 -0.33482810047E+02 -0.66778100087E+02 -0.67109291281E+02  0.10050643062E+03  0.41800000000E+01 0.  1.
        -11    1    1    2    0    0  0.37883345987E+02 -0.11213123401E+02 -0.14434725300E+03  0.14965631122E+03  0.00000000000E+00 0. -1.
         11    1    1    2    0    0  0.62766706448E+01  0.87083191469E+02 -0.29051625756E+03  0.30335222883E+03  0.00000000000E+00 0.  1.
</event>
<event>
 7    1  0.4394360E-006  0.1052946E+03  0.7561462E-02  0.1269540E+00
          1   -1    0    0  501    0  0.00000000000E+00  0.00000000000E+00  0.43982765560E+02  0.43982765560E+02  0.00000000000E+00 0. -1.
         -1   -1    0    0    0  501 -0.00000000000E+00 -0.00000000000E+00 -0.30118533813E+03  0.30118533813E+03  0.00000000000E+00 0.  1.
         23    2    1    2    0    0 -0.34452711921E+02  0.14771727135E+02 -0.16648316380E+03  0.21158787531E+03  0.12509033483E+03 0.  0.
          5    1    3    3  502    0 -0.17219552843E+02 -0.53681076333E+02 -0.98079809815E+02  0.11320464853E+03  0.41800000000E+01 0. -1.
         -5    1    3    3    0  502 -0.17233159079E+02  0.68452803468E+02 -0.68403353984E+02  0.98383226775E+02  0.41800000000E+01 0. -1.
        -11    1    1    2    0    0 -0.16407887810E+02 -0.26484210014E+02 -0.71446268538E+02  0.77943578635E+02  0.00000000000E+00 0. -1.
         11    1    1    2    0    0  0.50860599731E+02  0.11712482879E+02 -0.19273140230E+02  0.55636649742E+02  0.00000000000E+00 0.  1.
</event>
<event>
 7    1  0.4394360E-006  0.9321210E+02  0.7561462E-02  0.1295254E+00
          2   -1    0    0  501    0  0.00000000000E+00  0.00000000000E+00  0.18431516294E+03  0.18431516294E+03  0.00000000000E+00 0.  1.
         -2   -1    0    0    0  501 -0.00000000000E+00 -0.00000000000E+00 -0.79263607021E+02  0.79263607021E+02  0.00000000000E+00 0. -1.
         23    2    1    2    0    0  0.31905942947E+02  0.24391369106E+00  0.13086543118E+02  0.12976014803E+03  0.12509352388E+03 0.  0.
          5    1    3    3  502    0 -0.27693347181E+02  0.45354970387E+02  0.13121180233E+02  0.54896562621E+02  0.41800000000E+01 0. -1.
         -5    1    3    3    0  502  0.59599290128E+02 -0.45111056696E+02 -0.34637114780E-01  0.74863585405E+02  0.41800000000E+01 0. -1.
        -11    1    1    2    0    0  0.12557618064E+02  0.49319540605E+01 -0.13598913724E+02  0.19155897180E+02  0.00000000000E+00 0. -1.
         11    1    1    2    0    0 -0.44463561011E+02 -0.51758677516E+01  0.10556392653E+03  0.11466272476E+03  0.00000000000E+00 0.  1.
</event>
<event>
 7    1  0.4394360E-006  0.1009698E+03  0.7561462E-02  0.1278270E+00
          1   -1    0    0  501    0  0.00000000000E+00  0.00000000000E+00  0.34744070607E+03  0.34744070607E+03  0.00000000000E+00 0. -1.
         -1   -1    0    0    0  501 -0.00000000000E+00 -0.00000000000E+00 -0.50402614033E+02  0.50402614033E+02  0.00000000000E+00 0.  1.
         23    2    1    2    0    0  0.52188838861E+02  0.15781774536E+02  0.89746821589E+02  0.16339976530E+03  0.12518886534E+03 0.  0.
          5    1    3    3  502    0  0.16903829015E+02 -0.30684251967E+02  0.98155945187E+02  0.10430400150E+03  0.41800000000E+01 0. -1.
         -5    1    3    3    0  502  0.35285009846E+02  0.46466026502E+02 -0.84091235977E+01  0.59095763795E+02  0.41800000000E+01 0. -1.
        -11    1    1    2    0    0  0.27334691750E+02 -0.65358570198E+01  0.38913139636E+02  0.48001408692E+02  0.00000000000E+00 0.  1.
         11    1    1    2    0    0 -0.79523530612E+02 -0.92459175161E+01  0.16837813081E+03  0.18644214611E+03  0.00000000000E+00 0. -1.
</event>
<event>
 7    1  0.4394360E-006  0.5448225E+02  0.7561462E-02  0.1422563E+00
          4   -1    0    0  501    0  0.00000000000E+00  0.00000000000E+00  0.12195908932E+03  0.12195908932E+03  0.00000000000E+00 0.  1.
         -4   -1    0    0    0  501 -0.00000000000E+00 -0.00000000000E+00 -0.99350275765E+02  0.99350275765E+02  0.00000000000E+00 0. -1.
         23    2    1    2    0    0 -0.10963403402E+02 -0.71475023254E+01 -0.53869898458E+01  0.12588689126E+03  0.12508879538E+03 0.  0.
          5    1    3    3  502    0 -0.12614863761E+02  0.54119610798E+01 -0.64095482097E+02  0.65682016837E+02  0.41800000000E+01 0. -1.
         -5    1    3    3    0  502  0.16514603593E+01 -0.12559463405E+02  0.58708492251E+02  0.60204874427E+02  0.41800000000E+01 0. -1.
        -11    1    1    2    0    0  0.38181997597E+02 -0.19768867111E+02 -0.69934175899E+01  0.43561232041E+02  0.00000000000E+00 0.  1.
         11    1    1    2    0    0 -0.27218594195E+02  0.26916369436E+02  0.34989220991E+02  0.51861241781E+02  0.00000000000E+00 0. -1.
</event>
<event>
 7    1  0.4394360E-006  0.1031972E+03  0.7561462E-02  0.1273713E+00
          1   -1    0    0  501    0  0.00000000000E+00  0.00000000000E+00  0.18803384225E+03  0.18803384225E+03  0.00000000000E+00 0. -1.
         -1   -1    0    0    0  501 -0.00000000000E+00 -0.00000000000E+00 -0.11357565184E+03  0.11357565184E+03  0.00000000000E+00 0.  1.
         23    2    1    2    0    0  0.88003996919E+02  0.34850036690E+02  0.14462819670E+02  0.15753231893E+03  0.12509208538E+03 0.  0.
          5    1    3    3  502    0  0.16341704820E+02  0.16800821340E+02  0.64121943611E+02  0.68398939805E+02  0.41800000000E+01 0.  1.
         -5    1    3    3    0  502  0.71662292099E+02  0.18049215351E+02 -0.49659123941E+02  0.89133379125E+02  0.41800000000E+01 0.  1.
        -11    1    1    2    0    0 -0.28995196434E+02 -0.39923806150E+02 -0.12070137398E+02  0.50796849612E+02  0.00000000000E+00 0.  1.
         11    1    1    2    0    0 -0.59008800485E+02  0.50737694596E+01  0.72065508136E+02  0.93280325547E+02  0.00000000000E+00 0. -1.
</event>
<event>
 7    1  0.4394360E-006  0.1103619E+03  0.7561462E-02  0.1259901E+00
         -1   -1    0    0    0  501 -0.00000000000E+00  0.00000000000E+00  0.17293697954E+02  0.17293697954E+02  0.00000000000E+00 0. -1.
          1   -1    0    0  501    0  0.00000000000E+00 -0.00000000000E+00 -0.73809612532E+03  0.73809612532E+03  0.00000000000E+00 0.  1.
         23    2    1    2    0    0 -0.92162315154E+00  0.26014567895E+02 -0.33533852271E+03  0.35885664562E+03  0.12509420515E+03 0.  0.
          5    1    3    3  502    0  0.56410463004E+02 -0.13327044485E+02 -0.15358336965E+03  0.16421045729E+03  0.41800000000E+01 0. -1.
         -5    1    3    3    0  502 -0.57332086156E+02  0.39341612381E+02 -0.18175515306E+03  0.19464618833E+03  0.41800000000E+01 0. -1.
        -11    1    1    2    0    0 -0.35398394087E+02 -0.40554021375E+02 -0.21474579532E+03  0.22138977293E+03  0.00000000000E+00 0. -1.
         11    1    1    2    0    0  0.36320017238E+02  0.14539453480E+02 -0.17071810934E+03  0.17514340471E+03  0.00000000000E+00 0.  1.
</event>
<event>
 7    1  0.4394360E-006  0.1061769E+03  0.7561462E-02  0.1267818E+00
          2   -1    0    0  501    0  0.00000000000E+00  0.00000000000E+00  0.23386168141E+03  0.23386168141E+03  0.00000000000E+00 0. -1.
         -2   -1    0    0    0  501 -0.00000000000E+00 -0.00000000000E+00 -0.68790897129E+02  0.68790897129E+02  0.00000000000E+00 0.  1.
         23    2    1    2    0    0  0.29572335214E+01  0.51970780290E+02  0.28849623033E+02  0.13215961342E+03  0.11800065863E+03 0.  0.
          5    1    3    3  502    0 -0.39660433272E+02 -0.11060754367E+02  0.37012376773E+02  0.55521875768E+02  0.41800000000E+01 0. -1.
         -5    1    3    3    0  502  0.42617666793E+02  0.63031534657E+02 -0.81627537398E+01  0.76637737654E+02  0.41800000000E+01 0.  1.
        -11    1    1    2    0    0  0.29568133269E+02 -0.54644688082E+02  0.55065226321E+02  0.83021055103E+02  0.00000000000E+00 0.  1.
         11    1    1    2    0    0 -0.32525366790E+02  0.26739077922E+01  0.81155934931E+02  0.87471910018E+02  0.00000000000E+00 0. -1.
</event>
<event>
 6    1  0.4394360E-006  0.7609264E+02  0.7561462E-02  0.1340520E+00
         -2   -1    0    0    0  501 -0.00000000000E+00  0.00000000000E+00  0.83721951173E+03  0.83721951173E+03  0.00000000000E+00 0.  1.
          2   -1    0    0  501    0  0.00000000000E+00 -0.00000000000E+00 -0.20538814315E+02  0.20538814315E+02  0.00000000000E+00 0. -1.
          5    1    1    2  502    0 -0.22743220183E+02 -0.25788271860E+02  0.15346240291E+02  0.37884937916E+02  0.41800000000E+01 0. -1.
         -5    1    1    2    0  502  0.27718596134E+02  0.10330228691E+02  0.56996679289E+03  0.57074920201E+03  0.41800000000E+01 0.  1.
        -11    1    1    2    0    0  0.40024602633E+02 -0.20427215646E+00  0.67547801643E+02  0.78515705753E+02  0.00000000000E+00 0.  1.
         11    1    1    2    0    0 -0.44999978585E+02  0.15662315326E+02  0.16381986259E+03  0.17060848036E+03  0.00000000000E+00 0. -1.
</event>
<event>
 7    1  0.4394360E-006  0.2414764E+03  0.7561462E-02  0.1118813E+00
          2   -1    0    0  501    0  0.00000000000E+00  0.00000000000E+00  0.25176592790E+03  0.25176592790E+03  0.00000000000E+00 0. -1.
         -2   -1    0    0    0  501 -0.00000000000E+00 -0.00000000000E+00 -0.26322435316E+03  0.26322435316E+03  0.00000000000E+00 0.  1.
         23    2    1    2    0    0  0.71214248740E+02 -0.20544730035E+03 -0.90580917886E+02  0.26670686010E+03  0.12509030376E+03 0.  0.
          5    1    3    3  502    0 -0.16066619149E+02 -0.13466205649E+03 -0.68931789949E+02  0.15218761374E+03  0.41800000000E+01 0.  1.
         -5    1    3    3    0  502  0.87280867889E+02 -0.70785243865E+02 -0.21649127936E+02  0.11451924637E+03  0.41800000000E+01 0.  1.
        -11    1    1    2    0    0 -0.91255762320E+02  0.14692638101E+03  0.50914130632E+02  0.18029759924E+03  0.00000000000E+00 0. -1.
         11    1    1    2    0    0  0.20041513580E+02  0.58520919346E+02  0.28208362002E+02  0.67985821717E+02  0.00000000000E+00 0.  1.
</event>
<event>
 7    1  0.4394360E-006  0.1644877E+03  0.7561462E-02  0.1183721E+00
         -1   -1    0    0    0  501 -0.00000000000E+00  0.00000000000E+00  0.41170948940E+03  0.41170948940E+03  0.00000000000E+00 0.  1.
          1   -1    0    0  501    0  0.00000000000E+00 -0.00000000000E+00 -0.79062496510E+02  0.79062496510E+02  0.00000000000E+00 0. -1.
         23    2    1    2    0    0 -0.26435782988E+02  0.13004368773E+03  0.10453727480E+03  0.21020426497E+03  0.12509028678E+03 0.  0.
          5    1    3    3  502    0 -0.60387933658E+01  0.14367354907E+03  0.53616113381E+02  0.15352757323E+03  0.41800000000E+01 0. -1.
         -5    1    3    3    0  502 -0.20396989622E+02 -0.13629861338E+02  0.50921161424E+02  0.56676691739E+02  0.41800000000E+01 0. -1.
        -11    1    1    2    0    0 -0.73221913250E+01 -0.12601928780E+03  0.19975834959E+03  0.23630038851E+03  0.00000000000E+00 0. -1.
         11    1    1    2    0    0  0.33757974313E+02 -0.40243999356E+01  0.28351368501E+02  0.44267332430E+02  0.00000000000E+00 0.  1.
</event>
<event>
 7    1  0.4394360E-006  0.2286852E+03  0.7561462E-02  0.1127569E+00
         -1   -1    0    0    0  501 -0.00000000000E+00  0.00000000000E+00  0.26724201654E+04  0.26724201654E+04  0.00000000000E+00 0.  1.
          1   -1    0    0  501    0  0.00000000000E+00 -0.00000000000E+00 -0.22663117290E+02  0.22663117290E+02  0.00000000000E+00 0. -1.
         23    2    1    2    0    0  0.19478450796E+03 -0.53440031739E+02  0.18466492628E+04  0.18618696630E+04  0.12509316774E+03 0.  0.
          5    1    3    3  502    0  0.77144586607E+02  0.39505897520E+02  0.75318861345E+03  0.75817053689E+03  0.41800000000E+01 0.  1.
         -5    1    3    3    0  502  0.11763992136E+03 -0.92945929258E+02  0.10934606493E+04  0.11036991261E+04  0.41800000000E+01 0.  1.
        -11    1    1    2    0    0 -0.16550157485E+03  0.69233979132E+01  0.64020339329E+03  0.66128593626E+03  0.00000000000E+00 0.  1.
         11    1    1    2    0    0 -0.29282933120E+02  0.46516633825E+02  0.16290439202E+03  0.17192768344E+03  0.00000000000E+00 0. -1.
</event>
<event>
 7    1  0.4394360E-006  0.1190156E+03  0.7561462E-02  0.1244730E+00
         -1   -1    0    0    0  501 -0.00000000000E+00  0.00000000000E+00  0.54109599205E+02  0.54109599205E+02  0.00000000000E+00 0.  1.
          1   -1    0    0  501    0  0.00000000000E+00 -0.00000000000E+00 -0.38977380678E+03  0.38977380678E+03  0.00000000000E+00 0. -1.
         23    2    1    2    0    0  0.80398508142E+02 -0.23420612327E+02 -0.10977876218E+03  0.18630898843E+03  0.12508883784E+03 0.  0.
          5    1    3    3  502    0 -0.19317624519E+02 -0.20588982027E+02 -0.75549656027E+02  0.80760756087E+02  0.41800000000E+01 0.  1.
         -5    1    3    3    0  502  0.99716132661E+02 -0.28316302999E+01 -0.34229106156E+02  0.10554823235E+03  0.41800000000E+01 0.  1.
        -11    1    1    2    0    0 -0.45810035598E+01  0.32919553932E+02 -0.22044746272E+02  0.39882997166E+02  0.00000000000E+00 0.  1.
         11    1    1    2    0    0 -0.75817504582E+02 -0.94989416057E+01 -0.20384069912E+03  0.21769142039E+03  0.00000000000E+00 0. -1.
</event>
<event>
 7    1  0.4394360E-006  0.1145260E+03  0.7561462E-02  0.1252411E+00
         -1   -1    0    0    0  501 -0.00000000000E+00  0.00000000000E+00  0.56566744385E+02  0.56566744385E+02  0.00000000000E+00 0.  1.
          1   -1    0    0  501    0  0.00000000000E+00 -0.00000000000E+00 -0.26402681835E+03  0.26402681835E+03  0.00000000000E+00 0. -1.
         23    2    1    2    0    0  0.35949709336E+02 -0.29574360194E+02 -0.71496592923E+02  0.15141483119E+03  0.12509062284E+03 0.  0.
          5    1    3    3  502    0  0.76376687853E+02 -0.40141110798E+02 -0.66720591058E+02  0.10915043241E+03  0.41800000000E+01 0.  1.
         -5    1    3    3    0  502 -0.40426978517E+02  0.10566750604E+02 -0.47760018647E+01  0.42264398779E+02  0.41800000000E+01 0.  1.
        -11    1    1    2    0    0 -0.41116132602E+02  0.58381940209E+02 -0.96279221542E+02  0.11986941146E+03  0.00000000000E+00 0. -1.
         11    1    1    2    0    0  0.51664232662E+01 -0.28807580014E+02 -0.39684259501E+02  0.49309320090E+02  0.00000000000E+00 0.  1.
</event>
<event>
 7    1  0.4394360E-006  0.1033981E+03  0.7561462E-02  0.1273308E+00
          4   -1    0    0  501    0  0.00000000000E+00  0.00000000000E+00  0.13610310052E+02  0.13610310052E+02  0.00000000000E+00 0. -1.
         -4   -1    0    0    0  501 -0.00000000000E+00 -0.00000000000E+00 -0.12868541739E+04  0.12868541739E+04  0.00000000000E+00 0.  1.
         23    2    1    2    0    0 -0.14620456928E+02 -0.41509225077E+02 -0.10208791865E+04  0.10282622454E+04  0.11485712125E+03 0.  0.
          5    1    3    3  502    0  0.23834788860E+02  0.30816904253E+02 -0.25318068517E+03  0.25619467304E+03  0.41800000000E+01 0. -1.
         -5    1    3    3    0  502 -0.38455245788E+02 -0.72326129331E+02 -0.76769850136E+03  0.77206757237E+03  0.41800000000E+01 0.  1.
        -11    1    1    2    0    0  0.10699463089E+02  0.62921750302E+02 -0.23728967477E+03  0.24572345212E+03  0.00000000000E+00 0. -1.
         11    1    1    2    0    0  0.39209938387E+01 -0.21412525224E+02 -0.15075002567E+02  0.26478786445E+02  0.00000000000E+00 0.  1.
</event>
<event>
 7    1  0.4394360E-006  0.1006354E+03  0.7561462E-02  0.1278965E+00
         -1   -1    0    0    0  501 -0.00000000000E+00  0.00000000000E+00  0.10764075186E+03  0.10764075186E+03  0.00000000000E+00 0.  1.
          1   -1    0    0  501    0  0.00000000000E+00 -0.00000000000E+00 -0.16021829329E+03  0.16021829329E+03  0.00000000000E+00 0. -1.
         23    2    1    2    0    0  0.18888277232E+02  0.51446557762E+02  0.23322943345E+02  0.13854486895E+03  0.12508879128E+03 0.  0.
          5    1    3    3  502    0  0.24552897742E+02  0.91043687004E+02  0.26957207756E+02  0.98162931807E+02  0.41800000000E+01 0.  1.
         -5    1    3    3    0  502 -0.56646205101E+01 -0.39597129242E+02 -0.36342644109E+01  0.40381937145E+02  0.41800000000E+01 0.  1.
        -11    1    1    2    0    0  0.55117780380E+01 -0.38784279854E+02  0.88974362476E+01  0.40171686954E+02  0.00000000000E+00 0.  1.
         11    1    1    2    0    0 -0.24400055270E+02 -0.12662277908E+02 -0.84797921022E+02  0.89142489244E+02  0.00000000000E+00 0. -1.
</event>
<event>
 7    1  0.4394360E-006  0.2991679E+03  0.7561462E-02  0.1085657E+00
         -1   -1    0    0    0  501 -0.00000000000E+00  0.00000000000E+00  0.14027410067E+03  0.14027410067E+03  0.00000000000E+00 0.  1.
          1   -1    0    0  501    0  0.00000000000E+00 -0.00000000000E+00 -0.73904905797E+03  0.73904905797E+03  0.00000000000E+00 0. -1.
         23    2    1    2    0    0  0.12465582891E+03  0.26885736169E+03 -0.38951509924E+03  0.50516516662E+03  0.12508587617E+03 0.  0.
          5    1    3    3  502    0  0.13742030217E+02  0.64284013468E+02 -0.20686463154E+02  0.69041146716E+02  0.41800000000E+01 0.  1.
         -5    1    3    3    0  502  0.11091379869E+03  0.20457334822E+03 -0.36882863608E+03  0.43612401991E+03  0.41800000000E+01 0.  1.
        -11    1    1    2    0    0 -0.90400814155E+02 -0.14209733989E+03 -0.16452215968E+03  0.23543895648E+03  0.00000000000E+00 0.  1.
         11    1    1    2    0    0 -0.34255014754E+02 -0.12676002180E+03 -0.44737698380E+02  0.13871903554E+03  0.00000000000E+00 0. -1.
</event>
<event>
 7    1  0.4394360E-006  0.1901299E+03  0.7561462E-02  0.1158344E+00
         -2   -1    0    0    0  501 -0.00000000000E+00  0.00000000000E+00  0.46427461551E+02  0.46427461551E+02  0.00000000000E+00 0.  1.
          2   -1    0    0  501    0  0.00000000000E+00 -0.00000000000E+00 -0.10548152293E+04  0.10548152293E+04  0.00000000000E+00 0. -1.
         23    2    1    2    0    0 -0.16548003314E+03 -0.67223775609E+02 -0.33849576327E+03  0.40265368090E+03  0.12509167686E+03 0.  0.
          5    1    3    3  502    0 -0.50981195174E+02 -0.38901594410E+01 -0.22057139991E+03  0.22645845195E+03  0.41800000000E+01 0. -1.
         -5    1    3    3    0  502 -0.11449883796E+03 -0.63333616168E+02 -0.11792436336E+03  0.17619522895E+03  0.41800000000E+01 0. -1.
        -11    1    1    2    0    0  0.33433063400E+01  0.31939248217E+02 -0.11803957587E+03  0.12233002389E+03  0.00000000000E+00 0. -1.
         11    1    1    2    0    0  0.16213672680E+03  0.35284527392E+02 -0.55185242863E+03  0.57625898608E+03  0.00000000000E+00 0.  1.
</event>
<event>
 7    1  0.4394360E-006  0.1177749E+03  0.7561462E-02  0.1246814E+00
          2   -1    0    0  501    0  0.00000000000E+00  0.00000000000E+00  0.15869416200E+03  0.15869416200E+03  0.00000000000E+00 0. -1.
         -2   -1    0    0    0  501 -0.00000000000E+00 -0.00000000000E+00 -0.16563340501E+03  0.16563340501E+03  0.00000000000E+00 0.  1.
         23    2    1    2    0    0 -0.94072259568E+02 -0.46571093015E+02 -0.64918566189E+02  0.17572846313E+03  0.12509043046E+03 0.  0.
          5    1    3    3  502    0 -0.16963638991E+02 -0.20622933500E+02 -0.87182479513E+02  0.91276106227E+02  0.41800000000E+01 0.  1.
         -5    1    3    3    0  502 -0.77108620577E+02 -0.25948159514E+02  0.22263913324E+02  0.84452356900E+02  0.41800000000E+01 0.  1.
        -11    1    1    2    0    0  0.17639338314E+02  0.47445511317E+02  0.50980024419E+02  0.71841392595E+02  0.00000000000E+00 0. -1.
         11    1    1    2    0    0  0.76432921253E+02 -0.87441830195E+00  0.69992987583E+01  0.76757711286E+02  0.00000000000E+00 0.  1.
</event>
<event>
 7    1  0.4394360E-006  0.1899735E+03  0.7561462E-02  0.1158485E+00
          1   -1    0    0  501    0  0.00000000000E+00  0.00000000000E+00  0.49837929753E+03  0.49837929753E+03  0.00000000000E+00 0.  1.
         -1   -1    0    0    0  501 -0.00000000000E+00 -0.00000000000E+00 -0.83288929682E+02  0.83288929682E+02  0.00000000000E+00 0. -1.
         23    2    1    2    0    0  0.10011663724E+03  0.12836878484E+03  0.13673275250E+03  0.24666777281E+03  0.12508900257E+03 0.  0.
          5    1    3    3  502    0 -0.28930836374E+02  0.13146208343E+02  0.25407535798E+02  0.40900261154E+02  0.41800000000E+01 0. -1.
         -5    1    3    3    0  502  0.12904747361E+03  0.11522257649E+03  0.11132521670E+03  0.20576751166E+03  0.41800000000E+01 0. -1.
        -11    1    1    2    0    0 -0.59177604042E+02 -0.26085795282E+02  0.51021043735E+02  0.82374780361E+02  0.00000000000E+00 0. -1.
         11    1    1    2    0    0 -0.40939033196E+02 -0.10228298955E+03  0.22733657161E+03  0.25262567404E+03  0.00000000000E+00 0.  1.
</event>
<event>
 7    1  0.4394360E-006  0.1542261E+03  0.7561462E-02  0.1195374E+00
         -1   -1    0    0    0  501 -0.00000000000E+00  0.00000000000E+00  0.69236741752E+02  0.69236741752E+02  0.00000000000E+00 0.  1.
          1   -1    0    0  501    0  0.00000000000E+00 -0.00000000000E+00 -0.42865730555E+03  0.42865730555E+03  0.00000000000E+00 0. -1.
         23    2    1    2    0    0 -0.10068178708E+03 -0.75126784376E+02 -0.12611687566E+03  0.21756311986E+03  0.12508952321E+03 0.  0.
          5    1    3    3  502    0 -0.48339048255E+02  0.24684639580E+02 -0.93701391099E+01  0.55238274090E+02  0.41800000000E+01 0. -1.
         -5    1    3    3    0  502 -0.52342738820E+02 -0.99811423956E+02 -0.11674673655E+03  0.16232484577E+03  0.41800000000E+01 0. -1.
        -11    1    1    2    0    0  0.53542033744E+02  0.77313333973E+02 -0.20438898809E+03  0.22498657613E+03  0.00000000000E+00 0. -1.
         11    1    1    2    0    0  0.47139753332E+02 -0.21865495976E+01 -0.28914700055E+02  0.55344351316E+02  0.00000000000E+00 0.  1.
</event>
<event>
 7    1  0.4394360E-006  0.1814792E+03  0.7561462E-02  0.1166379E+00
         -1   -1    0    0    0  501 -0.00000000000E+00  0.00000000000E+00  0.71912404120E+02  0.71912404120E+02  0.00000000000E+00 0.  1.
          1   -1    0    0  501    0  0.00000000000E+00 -0.00000000000E+00 -0.51315975558E+03  0.51315975558E+03  0.00000000000E+00 0. -1.
         23    2    1    2    0    0 -0.15052236947E+03 -0.14732534232E+02 -0.16103582898E+03  0.25387675355E+03  0.12508731553E+03 0.  0.
          5    1    3    3  502    0 -0.19870097376E+02  0.47361334709E+02 -0.43864053642E+02  0.67671592245E+02  0.41800000000E+01 0. -1.
         -5    1    3    3    0  502 -0.13065227209E+03 -0.62093868941E+02 -0.11717177533E+03  0.18620516131E+03  0.41800000000E+01 0. -1.
        -11    1    1    2    0    0  0.77110025004E+02  0.42709357120E+02 -0.20173331868E+03  0.22015080515E+03  0.00000000000E+00 0. -1.
         11    1    1    2    0    0  0.73412344463E+02 -0.27976822888E+02 -0.78478203805E+02  0.11104460100E+03  0.00000000000E+00 0.  1.
</event>
<event>
 7    1  0.4394360E-006  0.1589629E+03  0.7561462E-02  0.1189873E+00
          3   -1    0    0  501    0  0.00000000000E+00  0.00000000000E+00  0.29627671294E+03  0.29627671294E+03  0.00000000000E+00 0. -1.
         -3   -1    0    0    0  501 -0.00000000000E+00 -0.00000000000E+00 -0.11858039104E+03  0.11858039104E+03  0.00000000000E+00 0.  1.
         23    2    1    2    0    0 -0.11166514508E+03 -0.99539701487E+02  0.59362635146E+02  0.20383712309E+03  0.12509353900E+03 0.  0.
          5    1    3    3  502    0 -0.37215770055E+02 -0.58191404050E+02 -0.34251926108E+02  0.77213469604E+02  0.41800000000E+01 0. -1.
         -5    1    3    3    0  502 -0.74449375024E+02 -0.41348297437E+02  0.93614561254E+02  0.12662365348E+03  0.41800000000E+01 0. -1.
        -11    1    1    2    0    0  0.11442378031E+02  0.50694260379E+02  0.75339536475E+02  0.91525306919E+02  0.00000000000E+00 0. -1.
         11    1    1    2    0    0  0.10022276705E+03  0.48845441108E+02  0.42994150277E+02  0.11949467398E+03  0.00000000000E+00 0.  1.
</event>
<event>
 7    1  0.4394360E-006  0.9903766E+02  0.7561462E-02  0.1282333E+00
          1   -1    0    0  501    0  0.00000000000E+00  0.00000000000E+00  0.96261078940E+02  0.96261078940E+02  0.00000000000E+00 0. -1.
         -1   -1    0    0    0  501 -0.00000000000E+00 -0.00000000000E+00 -0.21885859815E+03  0.21885859815E+03  0.00000000000E+00 0.  1.
         23    2    1    2    0    0  0.29220277159E+02  0.77636386694E+02 -0.11928363549E+03  0.19171900431E+03  0.12508540196E+03 0.  0.
          5    1    3    3  502    0  0.47516482206E+02  0.55833543774E+02 -0.47064069519E+01  0.73585483338E+02  0.41800000000E+01 0. -1.
         -5    1    3    3    0  502 -0.18296205047E+02  0.21802842920E+02 -0.11457722854E+03  0.11813352098E+03  0.41800000000E+01 0. -1.
        -11    1    1    2    0    0  0.11378103084E+02 -0.35847907528E+02 -0.39718367793E+02  0.54699930933E+02  0.00000000000E+00 0.  1.
         11    1    1    2    0    0 -0.40598380243E+02 -0.41788479166E+02  0.36404484072E+02  0.68700741844E+02  0.00000000000E+00 0. -1.
</event>
<event>
 7    1  0.4394360E-006  0.1108574E+03  0.7561462E-02  0.1258990E+00
         -2   -1    0    0    0  501 -0.00000000000E+00  0.00000000000E+00  0.15781768653E+03  0.15781768653E+03  0.00000000000E+00 0.  1.
          2   -1    0    0  501    0  0.00000000000E+00 -0.00000000000E+00 -0.31966524781E+03  0.31966524781E+03  0.00000000000E+00 0. -1.
         23    2    1    2    0    0 -0.20352553604E+02 -0.52533563011E+02  0.11656097490E+03  0.17991599591E+03  0.12493719636E+03 0.  0.
          5    1    3    3  502    0 -0.44871079319E+02 -0.77161194329E+02  0.44545856615E+02  0.99845227283E+02  0.41800000000E+01 0. -1.
         -5    1    3    3    0  502  0.24518525715E+02  0.24627631318E+02  0.72015118282E+02  0.80070768628E+02  0.41800000000E+01 0. -1.
        -11    1    1    2    0    0 -0.11016979866E+02  0.63252611755E+02 -0.12395842894E+03  0.13959927952E+03  0.00000000000E+00 0.  1.
         11    1    1    2    0    0  0.31369533470E+02 -0.10719048744E+02 -0.15445010723E+03  0.15796765891E+03  0.00000000000E+00 0. -1.
</event>
<event>
 7    1  0.4394360E-006  0.1020286E+03  0.7561462E-02  0.1276087E+00
          1   -1    0    0  501    0  0.00000000000E+00  0.00000000000E+00  0.18186587978E+03  0.18186587978E+03  0.00000000000E+00 0. -1.
         -1   -1    0    0    0  501 -0.00000000000E+00 -0.00000000000E+00 -0.70282197072E+02  0.70282197072E+02  0.00000000000E+00 0.  1.
         23    2    1    2    0    0  0.19871083130E+02  0.71954425619E+00  0.77913825810E+02  0.14870677128E+03  0.12509101440E+03 0.  0.
          5    1    3    3  502    0 -0.23366461361E+02  0.53342389117E+02  0.37795066774E+02  0.69550999028E+02  0.41800000000E+01 0.  1.
         -5    1    3    3    0  502  0.43237544491E+02 -0.52622844861E+02  0.40118759036E+02  0.79155772256E+02  0.41800000000E+01 0.  1.
        -11    1    1    2    0    0 -0.41475471704E+02  0.21267996650E+02  0.50167690642E+02  0.68478753047E+02  0.00000000000E+00 0. -1.
         11    1    1    2    0    0  0.21604388574E+02 -0.21987540906E+02 -0.16497833743E+02  0.34962552523E+02  0.00000000000E+00 0.  1.
</event>
<event>
 7    1  0.5173259E-006  0.2118980E+03  0.7561462E-02  0.1140072E+00
         -1   -1    0    0    0  501 -0.00000000000E+00  0.00000000000E+00  0.29475822729E+02  0.29475822729E+02  0.00000000000E+00 0.  1.
          1   -1    0    0  501    0  0.00000000000E+00 -0.00000000000E+00 -0.16063790937E+04  0.16063790937E+04  0.00000000000E+00 0. -1.
         23    2    1    2    0    0  0.13309399341E+03 -0.13233006860E+03 -0.79446336969E+03  0.82585978612E+03  0.12508829847E+03 0.  0.
          5    1    3    3  502    0  0.18521471423E+02 -0.10436051560E+03 -0.42325171139E+03  0.43634120332E+03  0.41800000000E+01 0. -1.
         -5    1    3    3    0  502  0.11457252199E+03 -0.27969552999E+02 -0.37121165830E+03  0.38951858280E+03  0.41800000000E+01 0. -1.
        -11    1    1    2    0    0 -0.12938075962E+03  0.90913714623E+02 -0.70028414360E+03  0.71791543113E+03  0.00000000000E+00 0. -1.
         11    1    1    2    0    0 -0.37132337870E+01  0.41416353973E+02 -0.82155757653E+02  0.92079699158E+02  0.00000000000E+00 0.  1.
</event>
<event>
 7    1  0.4394360E-006  0.1777821E+03  0.7561462E-02  0.1169967E+00
          1   -1    0    0  501    0  0.00000000000E+00  0.00000000000E+00  0.32894938382E+03  0.32894938382E+03  0.00000000000E+00 0. -1.
         -1   -1    0    0    0  501 -0.00000000000E+00 -0.00000000000E+00 -0.11188286641E+03  0.11188286641E+03  0.00000000000E+00 0.  1.
         23    2    1    2    0    0  0.14603993906E+03  0.43997045152E+02  0.15709266822E+03  0.25216714123E+03  0.12508699743E+03 0.  0.
          5    1    3    3  502    0  0.15837295294E+03  0.63081526456E+02  0.15216124127E+03  0.22854274643E+03  0.41800000000E+01 0.  1.
         -5    1    3    3    0  502 -0.12333013876E+02 -0.19084481305E+02  0.49314269492E+01  0.23624394801E+02  0.41800000000E+01 0.  1.
        -11    1    1    2    0    0 -0.12743005066E+03 -0.16160016994E+02  0.10438619818E+02  0.12887408096E+03  0.00000000000E+00 0.  1.
         11    1    1    2    0    0 -0.18609888405E+02 -0.27837028158E+02  0.49535229375E+02  0.59791028025E+02  0.00000000000E+00 0. -1.
</event>
<event>
 7    1  0.4394360E-006  0.1117900E+03  0.7561462E-02  0.1257291E+00
         -1   -1    0    0    0  501 -0.00000000000E+00  0.00000000000E+00  0.10474389986E+03  0.10474389986E+03  0.00000000000E+00 0.  1.
          1   -1    0    0  501    0  0.00000000000E+00 -0.00000000000E+00 -0.14393503010E+03  0.14393503010E+03  0.00000000000E+00 0. -1.
         23    2    1    2    0    0  0.25276823182E+02 -0.35207634232E+02  0.17676361140E+02  0.13355772978E+03  0.12508684241E+03 0.  0.
          5    1    3    3  502    0  0.12614682592E+02 -0.79432444742E+02 -0.76151153235E+01  0.80895648066E+02  0.41800000000E+01 0.  1.
         -5    1    3    3    0  502  0.12662140590E+02  0.44224810510E+02  0.25291476464E+02  0.52662081716E+02  0.41800000000E+01 0.  1.
        -11    1    1    2    0    0  0.14282466588E+02 -0.22641878651E+02 -0.29630027930E+02  0.39932218518E+02  0.00000000000E+00 0. -1.
         11    1    1    2    0    0 -0.39559289770E+02  0.57849512883E+02 -0.27237463443E+02  0.75188981658E+02  0.00000000000E+00 0.  1.
</event>
<event>
 7    1  0.4394360E-006  0.1176828E+03  0.7561462E-02  0.1246969E+00
          2   -1    0    0  501    0  0.00000000000E+00  0.00000000000E+00  0.56133348859E+03  0.56133348859E+03  0.00000000000E+00 0. -1.
         -2   -1    0    0    0  501 -0.00000000000E+00 -0.00000000000E+00 -0.41845694101E+02  0.41845694101E+02  0.00000000000E+00 0.  1.
         23    2    1    2    0    0 -0.64209878193E+02  0.53549215488E+02  0.14616206110E+03  0.20976681199E+03  0.12509332664E+03 0.  0.
          5    1    3    3  502    0 -0.87831474588E+01  0.74923319668E+02  0.12596072869E+03  0.14688167034E+03  0.41800000000E+01 0. -1.
         -5    1    3    3    0  502 -0.55426730734E+02 -0.21374104179E+02  0.20201332409E+02  0.62885141651E+02  0.41800000000E+01 0. -1.
        -11    1    1    2    0    0  0.16668676882E+02  0.11090829887E+02  0.12125498710E+02  0.23406815579E+02  0.00000000000E+00 0.  1.
         11    1    1    2    0    0  0.47541201310E+02 -0.64640045375E+02  0.36120023468E+03  0.37000555512E+03  0.00000000000E+00 0. -1.
</event>
<event>
 7    1  0.4394360E-006  0.1407347E+03  0.7561462E-02  0.1212344E+00
          4   -1    0    0  501    0  0.00000000000E+00  0.00000000000E+00  0.36623839315E+03  0.36623839315E+03  0.00000000000E+00 0. -1.
         -4   -1    0    0    0  501 -0.00000000000E+00 -0.00000000000E+00 -0.14926510629E+03  0.14926510629E+03  0.00000000000E+00 0.  1.
         23    2    1    2    0    0  0.65563584430E+02  0.11021520064E+03 -0.66550183055E+02  0.19110965165E+03  0.12509195831E+03 0.  0.
          5    1    3    3  502    0  0.96362540994E+01  0.35248732236E+02  0.36543870761E+02  0.51848407956E+02  0.41800000000E+01 0. -1.
         -5    1    3    3    0  502  0.55927330331E+02  0.74966468405E+02 -0.10309405382E+03  0.13926124369E+03  0.41800000000E+01 0. -1.
        -11    1    1    2    0    0 -0.83861133890E+02 -0.98388806978E+02  0.26827966915E+03  0.29780367357E+03  0.00000000000E+00 0.  1.
         11    1    1    2    0    0  0.18297549459E+02 -0.11826393663E+02  0.15243800770E+02  0.26590174223E+02  0.00000000000E+00 0. -1.
</event>
<event>
 7    1  0.4394360E-006  0.1417932E+03  0.7561462E-02  0.1210936E+00
         -2   -1    0    0    0  501 -0.00000000000E+00  0.00000000000E+00  0.69138525054E+03  0.69138525054E+03  0.00000000000E+00 0.  1.
          2   -1    0    0  501    0  0.00000000000E+00 -0.00000000000E+00 -0.35021477755E+02  0.35021477755E+02  0.00000000000E+00 0. -1.
         23    2    1    2    0    0  0.15258027078E+02  0.10968253604E+03  0.36803093100E+03  0.40417437705E+03  0.12508834795E+03 0.  0.
          5    1    3    3  502    0 -0.42249362632E+02  0.60504446320E+02  0.92458619342E+02  0.11837172533E+03  0.41800000000E+01 0. -1.
         -5    1    3    3    0  502  0.57507389710E+02  0.49178089717E+02  0.27557231166E+03  0.28580265172E+03  0.41800000000E+01 0. -1.
        -11    1    1    2    0    0  0.27665220047E+02 -0.18999817087E+02  0.13412389505E+03  0.13825909255E+03  0.00000000000E+00 0.  1.
         11    1    1    2    0    0 -0.42923247125E+02 -0.90682718950E+02  0.15420894673E+03  0.18397325869E+03  0.00000000000E+00 0. -1.
</event>
